<event>
 7    1  0.2811980E-010  0.4778727E+02  0.7816164E-02  0.1312668E+00
        -11   -1    0    0    0    0  0.00000000000E+00  0.00000000000E+00  0.45593999997E+02  0.45594000000E+02  0.51100000000E-03 0.  1.
         11   -1    0    0    0    0 -0.00000000000E+00 -0.00000000000E+00 -0.45593999997E+02  0.45594000000E+02  0.51100000000E-03 0. -1.
    9900012    2    1    2    0    0  0.39704415042E+02 -0.11028027307E+02 -0.13622245703E+02  0.47787268000E+02  0.19999986119E+02 0.  0.
        -12    1    1    2    0    0 -0.39704415042E+02  0.11028027307E+02  0.13622245703E+02  0.43400732000E+02  0.00000000000E+00 0.  1.
         11    1    3    3    0    0  0.10507543300E+02 -0.12150411472E+02 -0.71727322756E+01  0.17592300978E+02  0.51100000000E-03 0. -1.
        -11    1    3    3    0    0  0.21870732479E+02  0.34503796659E-01 -0.64014331757E+01  0.22788340805E+02  0.51100000000E-03 0.  1.
         12    1    3    3    0    0  0.73261392640E+01  0.10878803685E+01 -0.48080252037E-01  0.74066262172E+01  0.00000000000E+00 0. -1.
</event>
<event>
 7    1  0.2811980E-010  0.4778728E+02  0.7816164E-02  0.1312668E+00
        -11   -1    0    0    0    0  0.00000000000E+00  0.00000000000E+00  0.45593999997E+02  0.45594000000E+02  0.51100000000E-03 0.  1.
         11   -1    0    0    0    0 -0.00000000000E+00 -0.00000000000E+00 -0.45593999997E+02  0.45594000000E+02  0.51100000000E-03 0. -1.
    9900012    2    1    2    0    0  0.24180157818E+02  0.17705170075E+02 -0.31392192221E+02  0.47787276366E+02  0.20000024263E+02 0.  0.
        -12    1    1    2    0    0 -0.24180157818E+02 -0.17705170075E+02  0.31392192221E+02  0.43400723634E+02  0.00000000000E+00 0.  1.
         11    1    3    3    0    0  0.20790204322E+02  0.76778648642E+01 -0.27508812730E+02  0.35325868464E+02  0.51100000000E-03 0. -1.
        -11    1    3    3    0    0  0.34880372871E+01  0.78860534863E+01 -0.50783814582E+01  0.10007307440E+02  0.51100000000E-03 0.  1.
         12    1    3    3    0    0 -0.98083790977E-01  0.21412517243E+01  0.11950019672E+01  0.24541004622E+01  0.00000000000E+00 0. -1.
</event>
<event>
 7    1  0.2811980E-010  0.4778727E+02  0.7816164E-02  0.1312668E+00
        -11   -1    0    0    0    0  0.00000000000E+00  0.00000000000E+00  0.45593999997E+02  0.45594000000E+02  0.51100000000E-03 0. -1.
         11   -1    0    0    0    0 -0.00000000000E+00 -0.00000000000E+00 -0.45593999997E+02  0.45594000000E+02  0.51100000000E-03 0.  1.
    9900012    2    1    2    0    0 -0.17262470959E+02  0.33422970565E+02 -0.21645671056E+02  0.47787274885E+02  0.20000017512E+02 0.  0.
        -12    1    1    2    0    0  0.17262470959E+02 -0.33422970565E+02  0.21645671056E+02  0.43400725115E+02  0.00000000000E+00 0.  1.
         11    1    3    3    0    0 -0.71073040343E+01  0.18677251330E+02 -0.37550607631E+01  0.20333567554E+02  0.51100000000E-03 0. -1.
        -11    1    3    3    0    0  0.52139971819E+00  0.28349107136E+01 -0.83395574290E+01  0.88236497433E+01  0.51100000000E-03 0.  1.
         12    1    3    3    0    0 -0.10676566643E+02  0.11910808521E+02 -0.95510528641E+01  0.18630057588E+02  0.00000000000E+00 0. -1.
</event>
<event>
 7    1  0.2811980E-010  0.4778727E+02  0.7816164E-02  0.1312668E+00
        -11   -1    0    0    0    0  0.00000000000E+00  0.00000000000E+00  0.45593999997E+02  0.45594000000E+02  0.51100000000E-03 0.  1.
         11   -1    0    0    0    0 -0.00000000000E+00 -0.00000000000E+00 -0.45593999997E+02  0.45594000000E+02  0.51100000000E-03 0. -1.
    9900012    2    1    2    0    0 -0.34703131584E+02  0.49723833504E+01 -0.25584986513E+02  0.47787268753E+02  0.19999989553E+02 0.  0.
        -12    1    1    2    0    0  0.34703131584E+02 -0.49723833504E+01  0.25584986513E+02  0.43400731247E+02  0.00000000000E+00 0.  1.
         11    1    3    3    0    0 -0.20947819815E+02  0.51139253324E+01 -0.17989021859E+02  0.28081458206E+02  0.51100000000E-03 0. -1.
        -11    1    3    3    0    0 -0.11413601137E+02 -0.44236149948E+01 -0.22122422696E+01  0.12439159001E+02  0.51100000000E-03 0.  1.
        -12    1    3    3    0    0 -0.23417106323E+01  0.42820730128E+01 -0.53837223844E+01  0.72666515455E+01  0.00000000000E+00 0.  1.
</event>
<event>
 7    1  0.2811980E-010  0.4778727E+02  0.7816164E-02  0.1312668E+00
        -11   -1    0    0    0    0  0.00000000000E+00  0.00000000000E+00  0.45593999997E+02  0.45594000000E+02  0.51100000000E-03 0. -1.
         11   -1    0    0    0    0 -0.00000000000E+00 -0.00000000000E+00 -0.45593999997E+02  0.45594000000E+02  0.51100000000E-03 0.  1.
    9900012    2    1    2    0    0  0.13036519136E+02  0.21414993635E+02  0.35426974481E+02  0.47787270692E+02  0.19999998395E+02 0.  0.
        -12    1    1    2    0    0 -0.13036519136E+02 -0.21414993635E+02 -0.35426974481E+02  0.43400729308E+02  0.00000000000E+00 0.  1.
         11    1    3    3    0    0  0.61367641849E+01  0.58452711928E+01  0.12646230597E+02  0.15223475903E+02  0.51100000000E-03 0. -1.
        -11    1    3    3    0    0 -0.15029916359E+01 -0.13192796272E+01  0.89556802882E+01  0.91762569863E+01  0.51100000000E-03 0.  1.
        -12    1    3    3    0    0  0.84027465869E+01  0.16889002069E+02  0.13825063596E+02  0.23387537804E+02  0.00000000000E+00 0.  1.
</event>
<event>
 7    1  0.2811980E-010  0.4778727E+02  0.7816164E-02  0.1312668E+00
        -11   -1    0    0    0    0  0.00000000000E+00  0.00000000000E+00  0.45593999997E+02  0.45594000000E+02  0.51100000000E-03 0.  1.
         11   -1    0    0    0    0 -0.00000000000E+00 -0.00000000000E+00 -0.45593999997E+02  0.45594000000E+02  0.51100000000E-03 0. -1.
    9900012    2    1    2    0    0 -0.24644498318E+02 -0.20510444577E+02 -0.29250533366E+02  0.47787270325E+02  0.19999996722E+02 0.  0.
        -12    1    1    2    0    0  0.24644498318E+02  0.20510444577E+02  0.29250533366E+02  0.43400729675E+02  0.00000000000E+00 0.  1.
         11    1    3    3    0    0 -0.88206173376E+01 -0.17509047018E+01 -0.12360402253E+02  0.15285565139E+02  0.51100000000E-03 0. -1.
        -11    1    3    3    0    0 -0.15192739771E+02 -0.14240811771E+02 -0.76278932287E+01  0.22176672812E+02  0.51100000000E-03 0.  1.
        -12    1    3    3    0    0 -0.63114120863E+00 -0.45187281045E+01 -0.92622378843E+01  0.10325032374E+02  0.00000000000E+00 0.  1.
</event>
<event>
 7    1  0.2811980E-010  0.4778727E+02  0.7816164E-02  0.1312668E+00
        -11   -1    0    0    0    0  0.00000000000E+00  0.00000000000E+00  0.45593999997E+02  0.45594000000E+02  0.51100000000E-03 0.  1.
         11   -1    0    0    0    0 -0.00000000000E+00 -0.00000000000E+00 -0.45593999997E+02  0.45594000000E+02  0.51100000000E-03 0. -1.
    9900012    2    1    2    0    0 -0.12635772459E+02  0.79385364170E+01 -0.40754634404E+02  0.47787270380E+02  0.19999996972E+02 0.  0.
        -12    1    1    2    0    0  0.12635772459E+02 -0.79385364170E+01  0.40754634404E+02  0.43400729620E+02  0.00000000000E+00 0.  1.
         11    1    3    3    0    0 -0.12560002591E+01  0.10102850768E+02 -0.23681798508E+02  0.25777368196E+02  0.51100000000E-03 0. -1.
        -11    1    3    3    0    0 -0.11401412872E+02 -0.14148729335E+01 -0.17652686520E+02  0.21062084953E+02  0.51100000000E-03 0.  1.
         12    1    3    3    0    0  0.21640672276E-01 -0.74944141781E+00  0.57985062418E+00  0.94781723122E+00  0.00000000000E+00 0. -1.
</event>
<event>
 7    1  0.3126525E-010  0.4778727E+02  0.7816164E-02  0.1312668E+00
        -11   -1    0    0    0    0  0.00000000000E+00  0.00000000000E+00  0.45593999997E+02  0.45594000000E+02  0.51100000000E-03 0.  1.
         11   -1    0    0    0    0 -0.00000000000E+00 -0.00000000000E+00 -0.45593999997E+02  0.45594000000E+02  0.51100000000E-03 0. -1.
    9900012    2    1    2    0    0  0.30821431952E+02 -0.99113477940E+01 -0.28903770500E+02  0.47787269225E+02  0.19999991703E+02 0.  0.
        -12    1    1    2    0    0 -0.30821431952E+02  0.99113477940E+01  0.28903770500E+02  0.43400730775E+02  0.00000000000E+00 0.  1.
         11    1    3    3    0    0  0.12211016292E+02 -0.39483521399E+01 -0.16972049959E+02  0.21277896596E+02  0.51100000000E-03 0. -1.
        -11    1    3    3    0    0  0.16986850323E+02 -0.17625649259E+00 -0.58704528340E+01  0.17973490673E+02  0.51100000000E-03 0.  1.
        -12    1    3    3    0    0  0.16235653380E+01 -0.57867391615E+01 -0.60612677079E+01  0.85358819554E+01  0.00000000000E+00 0.  1.
</event>
<event>
 7    1  0.2811980E-010  0.4778728E+02  0.7816164E-02  0.1312668E+00
        -11   -1    0    0    0    0  0.00000000000E+00  0.00000000000E+00  0.45593999997E+02  0.45594000000E+02  0.51100000000E-03 0.  1.
         11   -1    0    0    0    0 -0.00000000000E+00 -0.00000000000E+00 -0.45593999997E+02  0.45594000000E+02  0.51100000000E-03 0. -1.
    9900012    2    1    2    0    0  0.17529896837E+02  0.26177026806E+02 -0.29851106375E+02  0.47787279184E+02  0.20000037111E+02 0.  0.
        -12    1    1    2    0    0 -0.17529896837E+02 -0.26177026806E+02  0.29851106375E+02  0.43400720816E+02  0.00000000000E+00 0.  1.
         11    1    3    3    0    0  0.55180744587E+01  0.84281659103E+01 -0.22876313702E+02  0.24996176811E+02  0.51100000000E-03 0. -1.
        -11    1    3    3    0    0  0.78063672970E+01  0.11216225523E+02 -0.27213314586E+01  0.13933726369E+02  0.51100000000E-03 0.  1.
         12    1    3    3    0    0  0.42054550816E+01  0.65326353737E+01 -0.42534612147E+01  0.88573760038E+01  0.00000000000E+00 0. -1.
</event>
<event>
 7    1  0.2811980E-010  0.4778727E+02  0.7816164E-02  0.1312668E+00
        -11   -1    0    0    0    0  0.00000000000E+00  0.00000000000E+00  0.45593999997E+02  0.45594000000E+02  0.51100000000E-03 0. -1.
         11   -1    0    0    0    0 -0.00000000000E+00 -0.00000000000E+00 -0.45593999997E+02  0.45594000000E+02  0.51100000000E-03 0.  1.
    9900012    2    1    2    0    0  0.39660539324E+01 -0.35736670065E+02 -0.24306053786E+02  0.47787269341E+02  0.19999992232E+02 0.  0.
        -12    1    1    2    0    0 -0.39660539324E+01  0.35736670065E+02  0.24306053786E+02  0.43400730659E+02  0.00000000000E+00 0.  1.
         11    1    3    3    0    0 -0.39949343846E+01 -0.11712646554E+02 -0.15513532780E+02  0.19844779908E+02  0.51100000000E-03 0. -1.
        -11    1    3    3    0    0  0.34155547245E-03 -0.76935559893E+01 -0.55535901718E+01  0.94885809231E+01  0.51100000000E-03 0.  1.
         12    1    3    3    0    0  0.79606467615E+01 -0.16330467521E+02 -0.32389308348E+01  0.18453908509E+02  0.00000000000E+00 0. -1.
</event>
<event>
 7    1  0.2811980E-010  0.4778727E+02  0.7816164E-02  0.1312668E+00
        -11   -1    0    0    0    0  0.00000000000E+00  0.00000000000E+00  0.45593999997E+02  0.45594000000E+02  0.51100000000E-03 0.  1.
         11   -1    0    0    0    0 -0.00000000000E+00 -0.00000000000E+00 -0.45593999997E+02  0.45594000000E+02  0.51100000000E-03 0. -1.
    9900012    2    1    2    0    0  0.31119018388E+02 -0.30246945793E+02 -0.59360238896E+00  0.47787269603E+02  0.19999993426E+02 0.  0.
        -12    1    1    2    0    0 -0.31119018388E+02  0.30246945793E+02  0.59360238896E+00  0.43400730397E+02  0.00000000000E+00 0.  1.
         11    1    3    3    0    0  0.16414703295E+02 -0.17003715846E+02  0.34431789180E+01  0.23883557486E+02  0.51100000000E-03 0. -1.
        -11    1    3    3    0    0  0.19987219267E+01 -0.29834614394E+01 -0.64630038416E+01  0.73936696179E+01  0.51100000000E-03 0.  1.
        -12    1    3    3    0    0  0.12705593166E+02 -0.10259768507E+02  0.24262225347E+01  0.16510042499E+02  0.00000000000E+00 0.  1.
</event>
<event>
 7    1  0.2811980E-010  0.4778727E+02  0.7816164E-02  0.1312668E+00
        -11   -1    0    0    0    0  0.00000000000E+00  0.00000000000E+00  0.45593999997E+02  0.45594000000E+02  0.51100000000E-03 0. -1.
         11   -1    0    0    0    0 -0.00000000000E+00 -0.00000000000E+00 -0.45593999997E+02  0.45594000000E+02  0.51100000000E-03 0.  1.
    9900012    2    1    2    0    0 -0.50071442055E+01 -0.41837598048E+02  0.10400345498E+02  0.47787270859E+02  0.19999999153E+02 0.  0.
        -12    1    1    2    0    0  0.50071442055E+01  0.41837598048E+02 -0.10400345498E+02  0.43400729141E+02  0.00000000000E+00 0.  1.
         11    1    3    3    0    0  0.14999252173E+01 -0.25024844468E+02  0.13550742493E+02  0.28497635668E+02  0.51100000000E-03 0. -1.
        -11    1    3    3    0    0 -0.17163822367E+01 -0.83640230293E+01 -0.42095188136E+01  0.95196059855E+01  0.51100000000E-03 0.  1.
        -12    1    3    3    0    0 -0.47906871861E+01 -0.84487305509E+01  0.10591218186E+01  0.97700292049E+01  0.00000000000E+00 0.  1.
</event>
<event>
 7    1  0.2811980E-010  0.4778726E+02  0.7816164E-02  0.1312668E+00
        -11   -1    0    0    0    0  0.00000000000E+00  0.00000000000E+00  0.45593999997E+02  0.45594000000E+02  0.51100000000E-03 0. -1.
         11   -1    0    0    0    0 -0.00000000000E+00 -0.00000000000E+00 -0.45593999997E+02  0.45594000000E+02  0.51100000000E-03 0.  1.
    9900012    2    1    2    0    0  0.45938023747E+01 -0.42142352030E+02 -0.93028493585E+01  0.47787264279E+02  0.19999969155E+02 0.  0.
        -12    1    1    2    0    0 -0.45938023747E+01  0.42142352030E+02  0.93028493585E+01  0.43400735721E+02  0.00000000000E+00 0.  1.
         11    1    3    3    0    0 -0.38066945210E+01 -0.19302994215E+02  0.16284955238E+01  0.19742049204E+02  0.51100000000E-03 0. -1.
        -11    1    3    3    0    0  0.42186457820E+01 -0.55846998877E+01 -0.69223659208E+01  0.98440334860E+01  0.51100000000E-03 0.  1.
        -12    1    3    3    0    0  0.41818511137E+01 -0.17254657928E+02 -0.40089789615E+01  0.18201181590E+02  0.00000000000E+00 0.  1.
</event>
<event>
 7    1  0.2811980E-010  0.4778728E+02  0.7816164E-02  0.1312668E+00
        -11   -1    0    0    0    0  0.00000000000E+00  0.00000000000E+00  0.45593999997E+02  0.45594000000E+02  0.51100000000E-03 0.  1.
         11   -1    0    0    0    0 -0.00000000000E+00 -0.00000000000E+00 -0.45593999997E+02  0.45594000000E+02  0.51100000000E-03 0. -1.
    9900012    2    1    2    0    0 -0.22434162242E+02  0.23084155193E+01 -0.37081025913E+02  0.47787275346E+02  0.20000019611E+02 0.  0.
        -12    1    1    2    0    0  0.22434162242E+02 -0.23084155193E+01  0.37081025913E+02  0.43400724654E+02  0.00000000000E+00 0.  1.
         11    1    3    3    0    0 -0.54456924824E+01  0.79325501455E-01 -0.76953507280E+01  0.94276339681E+01  0.51100000000E-03 0. -1.
        -11    1    3    3    0    0 -0.34047846476E+01  0.84232595130E+01 -0.70772032389E+01  0.11516538771E+02  0.51100000000E-03 0.  1.
        -12    1    3    3    0    0 -0.13583685112E+02 -0.61941694951E+01 -0.22308471946E+02  0.26843102607E+02  0.00000000000E+00 0.  1.
</event>
<event>
 7    1  0.2811980E-010  0.4778727E+02  0.7816164E-02  0.1312668E+00
        -11   -1    0    0    0    0  0.00000000000E+00  0.00000000000E+00  0.45593999997E+02  0.45594000000E+02  0.51100000000E-03 0.  1.
         11   -1    0    0    0    0 -0.00000000000E+00 -0.00000000000E+00 -0.45593999997E+02  0.45594000000E+02  0.51100000000E-03 0. -1.
    9900012    2    1    2    0    0 -0.20006218845E+02  0.18919190180E+02 -0.33547557676E+02  0.47787272177E+02  0.20000005164E+02 0.  0.
        -12    1    1    2    0    0  0.20006218845E+02 -0.18919190180E+02  0.33547557676E+02  0.43400727823E+02  0.00000000000E+00 0.  1.
         11    1    3    3    0    0 -0.76341181756E+01  0.86779435477E+01 -0.82590683348E+01  0.14205586034E+02  0.51100000000E-03 0. -1.
        -11    1    3    3    0    0 -0.31611801777E+01  0.36743100752E+01 -0.20889194346E+02  0.21444161334E+02  0.51100000000E-03 0.  1.
        -12    1    3    3    0    0 -0.92109204913E+01  0.65669365575E+01 -0.43992949953E+01  0.12137524810E+02  0.00000000000E+00 0.  1.
</event>
<event>
 7    1  0.2811980E-010  0.4778727E+02  0.7816164E-02  0.1312668E+00
        -11   -1    0    0    0    0  0.00000000000E+00  0.00000000000E+00  0.45593999997E+02  0.45594000000E+02  0.51100000000E-03 0.  1.
         11   -1    0    0    0    0 -0.00000000000E+00 -0.00000000000E+00 -0.45593999997E+02  0.45594000000E+02  0.51100000000E-03 0. -1.
    9900012    2    1    2    0    0  0.35216723555E+02 -0.41500047295E+01 -0.25023653888E+02  0.47787269463E+02  0.19999992791E+02 0.  0.
        -12    1    1    2    0    0 -0.35216723555E+02  0.41500047295E+01  0.25023653888E+02  0.43400730537E+02  0.00000000000E+00 0.  1.
         11    1    3    3    0    0  0.55306425536E+01 -0.49807416638E+01 -0.58352832079E+01  0.94576067245E+01  0.51100000000E-03 0. -1.
        -11    1    3    3    0    0  0.30570229029E+02  0.32102050160E-01 -0.20303002411E+02  0.36698117671E+02  0.51100000000E-03 0.  1.
        -12    1    3    3    0    0 -0.88414802785E+00  0.79863488417E+00  0.11146317307E+01  0.16315450678E+01  0.00000000000E+00 0.  1.
</event>
<event>
 7    1  0.2811980E-010  0.4778727E+02  0.7816164E-02  0.1312668E+00
        -11   -1    0    0    0    0  0.00000000000E+00  0.00000000000E+00  0.45593999997E+02  0.45594000000E+02  0.51100000000E-03 0.  1.
         11   -1    0    0    0    0 -0.00000000000E+00 -0.00000000000E+00 -0.45593999997E+02  0.45594000000E+02  0.51100000000E-03 0. -1.
    9900012    2    1    2    0    0 -0.20360468347E+02  0.32858905950E+01 -0.38187399423E+02  0.47787271631E+02  0.20000002672E+02 0.  0.
        -12    1    1    2    0    0  0.20360468347E+02 -0.32858905950E+01  0.38187399423E+02  0.43400728369E+02  0.00000000000E+00 0.  1.
         11    1    3    3    0    0 -0.33071468526E+00 -0.36753339005E+00 -0.14911365186E+02  0.14919559812E+02  0.51100000000E-03 0. -1.
        -11    1    3    3    0    0 -0.19438971282E+02  0.31066012950E+01 -0.24483798227E+02  0.31416252991E+02  0.51100000000E-03 0.  1.
         12    1    3    3    0    0 -0.59078237896E+00  0.54682269004E+00  0.12077639899E+01  0.14514588278E+01  0.00000000000E+00 0. -1.
</event>
<event>
 7    1  0.2811980E-010  0.4778727E+02  0.7816164E-02  0.1312668E+00
        -11   -1    0    0    0    0  0.00000000000E+00  0.00000000000E+00  0.45593999997E+02  0.45594000000E+02  0.51100000000E-03 0. -1.
         11   -1    0    0    0    0 -0.00000000000E+00 -0.00000000000E+00 -0.45593999997E+02  0.45594000000E+02  0.51100000000E-03 0.  1.
    9900012    2    1    2    0    0 -0.39594713569E+02  0.14914942861E+02  0.96657449863E+01  0.47787268563E+02  0.19999988685E+02 0.  0.
        -12    1    1    2    0    0  0.39594713569E+02 -0.14914942861E+02 -0.96657449863E+01  0.43400731437E+02  0.00000000000E+00 0.  1.
         11    1    3    3    0    0  0.59824821018E+00  0.36628626014E+01  0.84650186253E+00  0.38067084236E+01  0.51100000000E-03 0. -1.
        -11    1    3    3    0    0 -0.37626416794E+01  0.29164031180E+01 -0.18628895807E+01  0.51120678209E+01  0.51100000000E-03 0.  1.
         12    1    3    3    0    0 -0.36430320100E+02  0.83356771414E+01  0.10682132704E+02  0.38868492318E+02  0.00000000000E+00 0. -1.
</event>
<event>
 7    1  0.2811980E-010  0.4778727E+02  0.7816164E-02  0.1312668E+00
        -11   -1    0    0    0    0  0.00000000000E+00  0.00000000000E+00  0.45593999997E+02  0.45594000000E+02  0.51100000000E-03 0.  1.
         11   -1    0    0    0    0 -0.00000000000E+00 -0.00000000000E+00 -0.45593999997E+02  0.45594000000E+02  0.51100000000E-03 0. -1.
    9900012    2    1    2    0    0 -0.38533129598E+02 -0.37850025381E+01 -0.19608544527E+02  0.47787270291E+02  0.19999996563E+02 0.  0.
        -12    1    1    2    0    0  0.38533129598E+02  0.37850025381E+01  0.19608544527E+02  0.43400729709E+02  0.00000000000E+00 0.  1.
         11    1    3    3    0    0 -0.17928701458E+02  0.27768830477E+01 -0.14179986494E+02  0.23026537574E+02  0.51100000000E-03 0. -1.
        -11    1    3    3    0    0 -0.13439071482E+02 -0.84611227583E+01 -0.55714518254E+00  0.15890552276E+02  0.51100000000E-03 0.  1.
        -12    1    3    3    0    0 -0.71653566581E+01  0.18992371725E+01 -0.48714128507E+01  0.88701804399E+01  0.00000000000E+00 0.  1.
</event>
<event>
 7    1  0.2811980E-010  0.4778727E+02  0.7816164E-02  0.1312668E+00
        -11   -1    0    0    0    0  0.00000000000E+00  0.00000000000E+00  0.45593999997E+02  0.45594000000E+02  0.51100000000E-03 0. -1.
         11   -1    0    0    0    0 -0.00000000000E+00 -0.00000000000E+00 -0.45593999997E+02  0.45594000000E+02  0.51100000000E-03 0.  1.
    9900012    2    1    2    0    0  0.12613982458E+02 -0.36910434181E+02  0.19029732020E+02  0.47787269527E+02  0.19999993079E+02 0.  0.
        -12    1    1    2    0    0 -0.12613982458E+02  0.36910434181E+02 -0.19029732020E+02  0.43400730473E+02  0.00000000000E+00 0.  1.
         11    1    3    3    0    0  0.82399168053E+01 -0.16527864877E+02  0.10175353799E+02  0.21085643731E+02  0.51100000000E-03 0. -1.
        -11    1    3    3    0    0 -0.44878470702E+01 -0.88630776363E+01  0.52097008874E+00  0.99481820755E+01  0.51100000000E-03 0.  1.
        -12    1    3    3    0    0  0.88619127225E+01 -0.11519491668E+02  0.83334081317E+01  0.16753443720E+02  0.00000000000E+00 0.  1.
</event>
<event>
 7    1  0.2811980E-010  0.4778727E+02  0.7816164E-02  0.1312668E+00
        -11   -1    0    0    0    0  0.00000000000E+00  0.00000000000E+00  0.45593999997E+02  0.45594000000E+02  0.51100000000E-03 0.  1.
         11   -1    0    0    0    0 -0.00000000000E+00 -0.00000000000E+00 -0.45593999997E+02  0.45594000000E+02  0.51100000000E-03 0. -1.
    9900012    2    1    2    0    0 -0.43288547881E+02 -0.55525030245E+00 -0.30686337191E+01  0.47787271972E+02  0.20000004227E+02 0.  0.
        -12    1    1    2    0    0  0.43288547881E+02  0.55525030245E+00  0.30686337191E+01  0.43400728028E+02  0.00000000000E+00 0.  1.
         11    1    3    3    0    0 -0.16728972166E+02  0.51661908358E+01 -0.63651134757E-01  0.17508628993E+02  0.51100000000E-03 0.  1.
        -11    1    3    3    0    0 -0.11414180124E+02 -0.73992388677E+01 -0.57979247472E+01  0.14786756756E+02  0.51100000000E-03 0. -1.
         12    1    3    3    0    0 -0.15145395590E+02  0.16777977295E+01  0.27929421628E+01  0.15491886223E+02  0.00000000000E+00 0. -1.
</event>
<event>
 7    1  0.2811980E-010  0.4778728E+02  0.7816164E-02  0.1312668E+00
        -11   -1    0    0    0    0  0.00000000000E+00  0.00000000000E+00  0.45593999997E+02  0.45594000000E+02  0.51100000000E-03 0.  1.
         11   -1    0    0    0    0 -0.00000000000E+00 -0.00000000000E+00 -0.45593999997E+02  0.45594000000E+02  0.51100000000E-03 0. -1.
    9900012    2    1    2    0    0 -0.35245424186E+01  0.34807796838E+02 -0.25683018993E+02  0.47787278985E+02  0.20000036206E+02 0.  0.
        -12    1    1    2    0    0  0.35245424186E+01 -0.34807796838E+02  0.25683018993E+02  0.43400721015E+02  0.00000000000E+00 0.  1.
         11    1    3    3    0    0  0.19957902504E+01  0.30238939112E+02 -0.12724444746E+02  0.32867736638E+02  0.51100000000E-03 0. -1.
        -11    1    3    3    0    0 -0.29965518134E+01  0.35447697082E+01 -0.87857061796E+01  0.99364655884E+01  0.51100000000E-03 0.  1.
         12    1    3    3    0    0 -0.25237808555E+01  0.10240880174E+01 -0.41728680677E+01  0.49830767589E+01  0.00000000000E+00 0. -1.
</event>
<event>
 7    1  0.2811980E-010  0.4778727E+02  0.7816164E-02  0.1312668E+00
        -11   -1    0    0    0    0  0.00000000000E+00  0.00000000000E+00  0.45593999997E+02  0.45594000000E+02  0.51100000000E-03 0.  1.
         11   -1    0    0    0    0 -0.00000000000E+00 -0.00000000000E+00 -0.45593999997E+02  0.45594000000E+02  0.51100000000E-03 0. -1.
    9900012    2    1    2    0    0 -0.27005651509E+02  0.14475285420E+02 -0.30737345163E+02  0.47787268565E+02  0.19999988696E+02 0.  0.
        -12    1    1    2    0    0  0.27005651509E+02 -0.14475285420E+02  0.30737345163E+02  0.43400731435E+02  0.00000000000E+00 0.  1.
         11    1    3    3    0    0 -0.79209747332E+01  0.40069370123E+01 -0.16571460868E+02  0.18799220742E+02  0.51100000000E-03 0. -1.
        -11    1    3    3    0    0 -0.78897285573E+01  0.78795253180E+01 -0.53934372791E+00  0.11163584902E+02  0.51100000000E-03 0.  1.
        -12    1    3    3    0    0 -0.11194948219E+02  0.25888230893E+01 -0.13626540567E+02  0.17824462921E+02  0.00000000000E+00 0.  1.
</event>
<event>
 7    1  0.2811980E-010  0.4778727E+02  0.7816164E-02  0.1312668E+00
        -11   -1    0    0    0    0  0.00000000000E+00  0.00000000000E+00  0.45593999997E+02  0.45594000000E+02  0.51100000000E-03 0. -1.
         11   -1    0    0    0    0 -0.00000000000E+00 -0.00000000000E+00 -0.45593999997E+02  0.45594000000E+02  0.51100000000E-03 0.  1.
    9900012    2    1    2    0    0  0.15008949370E+01 -0.39194785841E+02  0.18577926216E+02  0.47787271144E+02  0.20000000455E+02 0.  0.
        -12    1    1    2    0    0 -0.15008949370E+01  0.39194785841E+02 -0.18577926216E+02  0.43400728856E+02  0.00000000000E+00 0.  1.
         11    1    3    3    0    0  0.73436742454E+01 -0.44404407751E+01  0.28368048752E+01  0.90385025231E+01  0.51100000000E-03 0. -1.
        -11    1    3    3    0    0 -0.43675350352E+01 -0.18107885031E+02  0.94987296152E+01  0.20909249799E+02  0.51100000000E-03 0.  1.
         12    1    3    3    0    0 -0.14752442732E+01 -0.16646460035E+02  0.62423917260E+01  0.17839518822E+02  0.00000000000E+00 0. -1.
</event>
<event>
 7    1  0.2811980E-010  0.4778727E+02  0.7816164E-02  0.1312668E+00
        -11   -1    0    0    0    0  0.00000000000E+00  0.00000000000E+00  0.45593999997E+02  0.45594000000E+02  0.51100000000E-03 0.  1.
         11   -1    0    0    0    0 -0.00000000000E+00 -0.00000000000E+00 -0.45593999997E+02  0.45594000000E+02  0.51100000000E-03 0. -1.
    9900012    2    1    2    0    0  0.10894602645E+02  0.24926363743E+01 -0.41937068276E+02  0.47787270761E+02  0.19999998709E+02 0.  0.
        -12    1    1    2    0    0 -0.10894602645E+02 -0.24926363743E+01  0.41937068276E+02  0.43400729239E+02  0.00000000000E+00 0.  1.
         11    1    3    3    0    0  0.53201819546E+01 -0.69679981841E+00 -0.32120838046E+02  0.32565903995E+02  0.51100000000E-03 0. -1.
        -11    1    3    3    0    0  0.51095777205E+01 -0.22222761223E+01 -0.24943632362E+01  0.61047640299E+01  0.51100000000E-03 0.  1.
         12    1    3    3    0    0  0.46484296958E+00  0.54117123150E+01 -0.73218669941E+01  0.91166027360E+01  0.00000000000E+00 0. -1.
</event>
<event>
 7    1  0.2811980E-010  0.4778727E+02  0.7816164E-02  0.1312668E+00
        -11   -1    0    0    0    0  0.00000000000E+00  0.00000000000E+00  0.45593999997E+02  0.45594000000E+02  0.51100000000E-03 0. -1.
         11   -1    0    0    0    0 -0.00000000000E+00 -0.00000000000E+00 -0.45593999997E+02  0.45594000000E+02  0.51100000000E-03 0.  1.
    9900012    2    1    2    0    0  0.21060396610E+02  0.30991306882E+02  0.21900265505E+02  0.47787273775E+02  0.20000012450E+02 0.  0.
        -12    1    1    2    0    0 -0.21060396610E+02 -0.30991306882E+02 -0.21900265505E+02  0.43400726225E+02  0.00000000000E+00 0.  1.
         11    1    3    3    0    0  0.10397521597E+02  0.17527099066E+02  0.21513050158E+02  0.29633072477E+02  0.51100000000E-03 0. -1.
        -11    1    3    3    0    0  0.11266499825E+02  0.12262680447E+02  0.98720034454E+00  0.16681783922E+02  0.51100000000E-03 0.  1.
         12    1    3    3    0    0 -0.60362481180E+00  0.12015273690E+01 -0.59998499770E+00  0.14724173761E+01  0.00000000000E+00 0. -1.
</event>
<event>
 7    1  0.2811980E-010  0.4778728E+02  0.7816164E-02  0.1312668E+00
        -11   -1    0    0    0    0  0.00000000000E+00  0.00000000000E+00  0.45593999997E+02  0.45594000000E+02  0.51100000000E-03 0.  1.
         11   -1    0    0    0    0 -0.00000000000E+00 -0.00000000000E+00 -0.45593999997E+02  0.45594000000E+02  0.51100000000E-03 0. -1.
    9900012    2    1    2    0    0  0.69848222874E+01 -0.42447736869E+02 -0.57467150994E+01  0.47787276018E+02  0.20000022678E+02 0.  0.
        -12    1    1    2    0    0 -0.69848222874E+01  0.42447736869E+02  0.57467150994E+01  0.43400723982E+02  0.00000000000E+00 0.  1.
         11    1    3    3    0    0 -0.31006121452E+01 -0.21893326029E+02 -0.11256080676E+01  0.22140427143E+02  0.51100000000E-03 0. -1.
        -11    1    3    3    0    0  0.10920847210E+02 -0.16854903863E+02 -0.68836642970E+01  0.21230579889E+02  0.51100000000E-03 0.  1.
        -12    1    3    3    0    0 -0.83541277718E+00 -0.36995069771E+01  0.22625572652E+01  0.44162689864E+01  0.00000000000E+00 0.  1.
</event>
<event>
 7    1  0.2811980E-010  0.4778728E+02  0.7816164E-02  0.1312668E+00
        -11   -1    0    0    0    0  0.00000000000E+00  0.00000000000E+00  0.45593999997E+02  0.45594000000E+02  0.51100000000E-03 0. -1.
         11   -1    0    0    0    0 -0.00000000000E+00 -0.00000000000E+00 -0.45593999997E+02  0.45594000000E+02  0.51100000000E-03 0.  1.
    9900012    2    1    2    0    0  0.80725512459E+01  0.16124078560E+02  0.39477471747E+02  0.47787276866E+02  0.20000026543E+02 0.  0.
        -12    1    1    2    0    0 -0.80725512459E+01 -0.16124078560E+02 -0.39477471747E+02  0.43400723134E+02  0.00000000000E+00 0.  1.
         11    1    3    3    0    0  0.84556130652E+01  0.13182773347E+02  0.35323471925E+02  0.38639753810E+02  0.51100000000E-03 0. -1.
        -11    1    3    3    0    0  0.25318212901E+01  0.35765311606E+00 -0.94939162068E+00  0.27275225952E+01  0.51100000000E-03 0.  1.
         12    1    3    3    0    0 -0.29148831095E+01  0.25836520966E+01  0.51033914427E+01  0.64200004607E+01  0.00000000000E+00 0. -1.
</event>
<event>
 7    1  0.2811980E-010  0.4778721E+02  0.7816164E-02  0.1312668E+00
        -11   -1    0    0    0    0  0.00000000000E+00  0.00000000000E+00  0.45593999997E+02  0.45594000000E+02  0.51100000000E-03 0. -1.
         11   -1    0    0    0    0 -0.00000000000E+00 -0.00000000000E+00 -0.45593999997E+02  0.45594000000E+02  0.51100000000E-03 0.  1.
    9900012    2    1    2    0    0  0.63705671845E+01  0.27285467925E+02  0.33144342092E+02  0.47787213154E+02  0.19999736051E+02 0.  0.
        -12    1    1    2    0    0 -0.63705671845E+01 -0.27285467925E+02 -0.33144342092E+02  0.43400786846E+02  0.00000000000E+00 0.  1.
         11    1    3    3    0    0  0.16261602025E+01  0.18223754435E+02  0.88736664149E+01  0.20334492337E+02  0.51100000000E-03 0.  1.
        -11    1    3    3    0    0  0.37244256181E+01  0.81918259154E+01  0.24493091795E+02  0.26093848010E+02  0.51100000000E-03 0. -1.
         12    1    3    3    0    0  0.10199813639E+01  0.86988757488E+00 -0.22241611753E+00  0.13588728068E+01  0.00000000000E+00 0. -1.
</event>
<event>
 7    1  0.2811980E-010  0.4778727E+02  0.7816164E-02  0.1312668E+00
        -11   -1    0    0    0    0  0.00000000000E+00  0.00000000000E+00  0.45593999997E+02  0.45594000000E+02  0.51100000000E-03 0.  1.
         11   -1    0    0    0    0 -0.00000000000E+00 -0.00000000000E+00 -0.45593999997E+02  0.45594000000E+02  0.51100000000E-03 0. -1.
    9900012    2    1    2    0    0  0.24618223043E+02 -0.11795155115E+02 -0.33740794193E+02  0.47787265182E+02  0.19999973269E+02 0.  0.
        -12    1    1    2    0    0 -0.24618223043E+02  0.11795155115E+02  0.33740794193E+02  0.43400734818E+02  0.00000000000E+00 0.  1.
         11    1    3    3    0    0  0.20275048806E+02 -0.13714515052E+02 -0.28613505033E+02  0.37654989015E+02  0.51100000000E-03 0. -1.
        -11    1    3    3    0    0 -0.16734169180E+01  0.74984771250E+00  0.40232255423E+00  0.18773543811E+01  0.51100000000E-03 0.  1.
         12    1    3    3    0    0  0.60165911552E+01  0.11695122247E+01 -0.55296117149E+01  0.82549217858E+01  0.00000000000E+00 0. -1.
</event>
<event>
 7    1  0.2811980E-010  0.4778728E+02  0.7816164E-02  0.1312668E+00
        -11   -1    0    0    0    0  0.00000000000E+00  0.00000000000E+00  0.45593999997E+02  0.45594000000E+02  0.51100000000E-03 0. -1.
         11   -1    0    0    0    0 -0.00000000000E+00 -0.00000000000E+00 -0.45593999997E+02  0.45594000000E+02  0.51100000000E-03 0.  1.
    9900012    2    1    2    0    0  0.27698704469E+02  0.31703858216E+02  0.10548431281E+02  0.47787282753E+02  0.20000053384E+02 0.  0.
        -12    1    1    2    0    0 -0.27698704469E+02 -0.31703858216E+02 -0.10548431281E+02  0.43400717247E+02  0.00000000000E+00 0.  1.
         11    1    3    3    0    0  0.18841236725E+02  0.24123823675E+02  0.68161479537E+01  0.31359383655E+02  0.51100000000E-03 0. -1.
        -11    1    3    3    0    0  0.68430680318E+01 -0.12345203422E+01  0.17796481164E+01  0.71776575735E+01  0.51100000000E-03 0.  1.
         12    1    3    3    0    0  0.20143997123E+01  0.88145548831E+01  0.19526352113E+01  0.92502415242E+01  0.00000000000E+00 0. -1.
</event>
<event>
 7    1  0.2811980E-010  0.4778728E+02  0.7816164E-02  0.1312668E+00
        -11   -1    0    0    0    0  0.00000000000E+00  0.00000000000E+00  0.45593999997E+02  0.45594000000E+02  0.51100000000E-03 0. -1.
         11   -1    0    0    0    0 -0.00000000000E+00 -0.00000000000E+00 -0.45593999997E+02  0.45594000000E+02  0.51100000000E-03 0.  1.
    9900012    2    1    2    0    0 -0.41779023203E+02 -0.62804863887E+01  0.99343502411E+01  0.47787278764E+02  0.20000035198E+02 0.  0.
        -12    1    1    2    0    0  0.41779023203E+02  0.62804863887E+01 -0.99343502411E+01  0.43400721236E+02  0.00000000000E+00 0.  1.
         11    1    3    3    0    0 -0.80490631434E+01 -0.45748877114E+01  0.49905811752E+01  0.10517742904E+02  0.51100000000E-03 0. -1.
        -11    1    3    3    0    0 -0.33837524704E+02  0.95582150092E+00  0.30232256690E+01  0.33985755348E+02  0.51100000000E-03 0.  1.
        -12    1    3    3    0    0  0.10756464465E+00 -0.26614201782E+01  0.19205433969E+01  0.32837805130E+01  0.00000000000E+00 0.  1.
</event>
<event>
 7    1  0.2811980E-010  0.4778727E+02  0.7816164E-02  0.1312668E+00
        -11   -1    0    0    0    0  0.00000000000E+00  0.00000000000E+00  0.45593999997E+02  0.45594000000E+02  0.51100000000E-03 0. -1.
         11   -1    0    0    0    0 -0.00000000000E+00 -0.00000000000E+00 -0.45593999997E+02  0.45594000000E+02  0.51100000000E-03 0.  1.
    9900012    2    1    2    0    0  0.22471456366E+02  0.36087586031E+02 -0.87374803432E+01  0.47787265219E+02  0.19999973441E+02 0.  0.
        -12    1    1    2    0    0 -0.22471456366E+02 -0.36087586031E+02  0.87374803432E+01  0.43400734781E+02  0.00000000000E+00 0.  1.
         11    1    3    3    0    0 -0.69842750479E+00  0.11397923834E+02 -0.21027184545E+01  0.11611283041E+02  0.51100000000E-03 0. -1.
        -11    1    3    3    0    0  0.23502678558E+02  0.21648127621E+02 -0.41247686941E+01  0.32218489194E+02  0.51100000000E-03 0.  1.
        -12    1    3    3    0    0 -0.33279468716E+00  0.30415345762E+01 -0.25099931946E+01  0.39574929841E+01  0.00000000000E+00 0.  1.
</event>
<event>
 7    1  0.2811980E-010  0.4778727E+02  0.7816164E-02  0.1312668E+00
        -11   -1    0    0    0    0  0.00000000000E+00  0.00000000000E+00  0.45593999997E+02  0.45594000000E+02  0.51100000000E-03 0.  1.
         11   -1    0    0    0    0 -0.00000000000E+00 -0.00000000000E+00 -0.45593999997E+02  0.45594000000E+02  0.51100000000E-03 0. -1.
    9900012    2    1    2    0    0 -0.43264587664E+02  0.33486410374E+01 -0.76511697692E+00  0.47787270208E+02  0.19999996185E+02 0.  0.
        -12    1    1    2    0    0  0.43264587664E+02 -0.33486410374E+01  0.76511697692E+00  0.43400729792E+02  0.00000000000E+00 0.  1.
         11    1    3    3    0    0 -0.29818783701E+02  0.75561795909E+01  0.19342015444E+01  0.30822018871E+02  0.51100000000E-03 0. -1.
        -11    1    3    3    0    0 -0.11513920470E+02 -0.26683120239E+01 -0.56642093870E+01  0.13106239807E+02  0.51100000000E-03 0.  1.
         12    1    3    3    0    0 -0.19318834934E+01 -0.15392265295E+01  0.29648908657E+01  0.38590115297E+01  0.00000000000E+00 0. -1.
</event>
<event>
 7    1  0.2811980E-010  0.4778727E+02  0.7816164E-02  0.1312668E+00
        -11   -1    0    0    0    0  0.00000000000E+00  0.00000000000E+00  0.45593999997E+02  0.45594000000E+02  0.51100000000E-03 0.  1.
         11   -1    0    0    0    0 -0.00000000000E+00 -0.00000000000E+00 -0.45593999997E+02  0.45594000000E+02  0.51100000000E-03 0. -1.
    9900012    2    1    2    0    0  0.21197084882E+02  0.37676033037E+02  0.38501697373E+01  0.47787266366E+02  0.19999978671E+02 0.  0.
        -12    1    1    2    0    0 -0.21197084882E+02 -0.37676033037E+02 -0.38501697373E+01  0.43400733634E+02  0.00000000000E+00 0.  1.
         11    1    3    3    0    0  0.93105932627E+01  0.87492782983E+01 -0.62251814915E-01  0.12776575957E+02  0.51100000000E-03 0. -1.
        -11    1    3    3    0    0 -0.10793482870E+01 -0.10822457548E+01 -0.11737076213E+01  0.19271321802E+01  0.51100000000E-03 0.  1.
        -12    1    3    3    0    0  0.12965839906E+02  0.30009000494E+02  0.50861291736E+01  0.33083558229E+02  0.00000000000E+00 0.  1.
</event>
<event>
 7    1  0.2811980E-010  0.4778728E+02  0.7816164E-02  0.1312668E+00
        -11   -1    0    0    0    0  0.00000000000E+00  0.00000000000E+00  0.45593999997E+02  0.45594000000E+02  0.51100000000E-03 0.  1.
         11   -1    0    0    0    0 -0.00000000000E+00 -0.00000000000E+00 -0.45593999997E+02  0.45594000000E+02  0.51100000000E-03 0. -1.
    9900012    2    1    2    0    0  0.26067568605E+02 -0.34359938431E+02  0.48475889164E+01  0.47787278574E+02  0.20000034331E+02 0.  0.
        -12    1    1    2    0    0 -0.26067568605E+02  0.34359938431E+02 -0.48475889164E+01  0.43400721426E+02  0.00000000000E+00 0.  1.
         11    1    3    3    0    0  0.18995240225E+02 -0.19025053380E+02  0.52079902839E+01  0.27384210238E+02  0.51100000000E-03 0. -1.
        -11    1    3    3    0    0 -0.27103823484E-01 -0.12116764620E+02  0.19509245140E+01  0.12272849147E+02  0.51100000000E-03 0.  1.
        -12    1    3    3    0    0  0.70994322038E+01 -0.32181204318E+01 -0.23113258815E+01  0.81302191890E+01  0.00000000000E+00 0.  1.
</event>
<event>
 7    1  0.2811980E-010  0.4778727E+02  0.7816164E-02  0.1312668E+00
        -11   -1    0    0    0    0  0.00000000000E+00  0.00000000000E+00  0.45593999997E+02  0.45594000000E+02  0.51100000000E-03 0. -1.
         11   -1    0    0    0    0 -0.00000000000E+00 -0.00000000000E+00 -0.45593999997E+02  0.45594000000E+02  0.51100000000E-03 0.  1.
    9900012    2    1    2    0    0 -0.26848785556E+02 -0.21654542846E+02  0.26340968023E+02  0.47787272954E+02  0.20000008708E+02 0.  0.
        -12    1    1    2    0    0  0.26848785556E+02  0.21654542846E+02 -0.26340968023E+02  0.43400727046E+02  0.00000000000E+00 0.  1.
         11    1    3    3    0    0 -0.37013921693E-01 -0.61362772850E+00 -0.20368593384E+01  0.21276055192E+01  0.51100000000E-03 0.  1.
        -11    1    3    3    0    0 -0.22032069536E+02 -0.11662981784E+02  0.22622268477E+02  0.33663099433E+02  0.51100000000E-03 0. -1.
        -12    1    3    3    0    0 -0.47797020982E+01 -0.93779333334E+01  0.57555588852E+01  0.11996568002E+02  0.00000000000E+00 0.  1.
</event>
<event>
 7    1  0.2811980E-010  0.4778727E+02  0.7816164E-02  0.1312668E+00
        -11   -1    0    0    0    0  0.00000000000E+00  0.00000000000E+00  0.45593999997E+02  0.45594000000E+02  0.51100000000E-03 0.  1.
         11   -1    0    0    0    0 -0.00000000000E+00 -0.00000000000E+00 -0.45593999997E+02  0.45594000000E+02  0.51100000000E-03 0. -1.
    9900012    2    1    2    0    0  0.93617679362E+01  0.35895526723E+02 -0.22527579118E+02  0.47787270069E+02  0.19999995555E+02 0.  0.
        -12    1    1    2    0    0 -0.93617679362E+01 -0.35895526723E+02  0.22527579118E+02  0.43400729931E+02  0.00000000000E+00 0.  1.
         11    1    3    3    0    0  0.48675529020E+01  0.19309277018E+02 -0.10469508021E+02  0.22497818754E+02  0.51100000000E-03 0. -1.
        -11    1    3    3    0    0 -0.13539561196E+01  0.37587264070E+01  0.27450848135E+01  0.48473407422E+01  0.51100000000E-03 0.  1.
        -12    1    3    3    0    0  0.58481711537E+01  0.12827523298E+02 -0.14803155910E+02  0.20442110574E+02  0.00000000000E+00 0.  1.
</event>
<event>
 7    1  0.2811980E-010  0.4778727E+02  0.7816164E-02  0.1312668E+00
        -11   -1    0    0    0    0  0.00000000000E+00  0.00000000000E+00  0.45593999997E+02  0.45594000000E+02  0.51100000000E-03 0.  1.
         11   -1    0    0    0    0 -0.00000000000E+00 -0.00000000000E+00 -0.45593999997E+02  0.45594000000E+02  0.51100000000E-03 0. -1.
    9900012    2    1    2    0    0  0.35411630652E+01  0.21306251672E+02 -0.37644745824E+02  0.47787273229E+02  0.20000009959E+02 0.  0.
        -12    1    1    2    0    0 -0.35411630652E+01 -0.21306251672E+02  0.37644745824E+02  0.43400726771E+02  0.00000000000E+00 0.  1.
         11    1    3    3    0    0 -0.73861511744E+01  0.78931323273E+01 -0.19389639614E+02  0.22199434492E+02  0.51100000000E-03 0. -1.
        -11    1    3    3    0    0  0.87368704022E+01  0.92795728815E+01 -0.15815369682E+02  0.20311801883E+02  0.51100000000E-03 0.  1.
         12    1    3    3    0    0  0.21904438374E+01  0.41335464628E+01 -0.24397365270E+01  0.52760368541E+01  0.00000000000E+00 0. -1.
</event>
<event>
 7    1  0.2811980E-010  0.4778729E+02  0.7816164E-02  0.1312668E+00
        -11   -1    0    0    0    0  0.00000000000E+00  0.00000000000E+00  0.45593999997E+02  0.45594000000E+02  0.51100000000E-03 0.  1.
         11   -1    0    0    0    0 -0.00000000000E+00 -0.00000000000E+00 -0.45593999997E+02  0.45594000000E+02  0.51100000000E-03 0. -1.
    9900012    2    1    2    0    0 -0.24735989699E+01 -0.27862158807E+02 -0.33184377561E+02  0.47787291488E+02  0.20000093208E+02 0.  0.
        -12    1    1    2    0    0  0.24735989699E+01  0.27862158807E+02  0.33184377561E+02  0.43400708512E+02  0.00000000000E+00 0.  1.
         11    1    3    3    0    0  0.26515235948E+01 -0.28519282832E+01  0.37942144796E+00  0.39125481725E+01  0.51100000000E-03 0.  1.
        -11    1    3    3    0    0  0.11399775601E+01 -0.20505780491E+02 -0.24094285900E+02  0.31659456654E+02  0.51100000000E-03 0. -1.
        -12    1    3    3    0    0 -0.62651001248E+01 -0.45044500334E+01 -0.94695131095E+01  0.12215286661E+02  0.00000000000E+00 0.  1.
</event>
<event>
 7    1  0.2811980E-010  0.4778730E+02  0.7816164E-02  0.1312668E+00
        -11   -1    0    0    0    0  0.00000000000E+00  0.00000000000E+00  0.45593999997E+02  0.45594000000E+02  0.51100000000E-03 0.  1.
         11   -1    0    0    0    0 -0.00000000000E+00 -0.00000000000E+00 -0.45593999997E+02  0.45594000000E+02  0.51100000000E-03 0. -1.
    9900012    2    1    2    0    0 -0.18783404368E+02  0.12612918721E+02 -0.37036727026E+02  0.47787295546E+02  0.20000111711E+02 0.  0.
        -12    1    1    2    0    0  0.18783404368E+02 -0.12612918721E+02  0.37036727026E+02  0.43400704454E+02  0.00000000000E+00 0.  1.
         11    1    3    3    0    0 -0.97950842241E+01  0.19375859670E+01 -0.22739967025E+02  0.24835539352E+02  0.51100000000E-03 0. -1.
        -11    1    3    3    0    0 -0.11229260891E+02  0.10895200223E+02 -0.13073912233E+02  0.20389430336E+02  0.51100000000E-03 0.  1.
        -12    1    3    3    0    0  0.22409407478E+01 -0.21986746931E+00 -0.12228477673E+01  0.25623258578E+01  0.00000000000E+00 0.  1.
</event>
<event>
 7    1  0.2811980E-010  0.4778727E+02  0.7816164E-02  0.1312668E+00
        -11   -1    0    0    0    0  0.00000000000E+00  0.00000000000E+00  0.45593999997E+02  0.45594000000E+02  0.51100000000E-03 0.  1.
         11   -1    0    0    0    0 -0.00000000000E+00 -0.00000000000E+00 -0.45593999997E+02  0.45594000000E+02  0.51100000000E-03 0. -1.
    9900012    2    1    2    0    0 -0.34844198339E+02  0.12232956596E+02 -0.22800436051E+02  0.47787271099E+02  0.20000000250E+02 0.  0.
        -12    1    1    2    0    0  0.34844198339E+02 -0.12232956596E+02  0.22800436051E+02  0.43400728901E+02  0.00000000000E+00 0.  1.
         11    1    3    3    0    0 -0.29831289583E+02  0.10363986238E+02 -0.91892529588E+01  0.32890126469E+02  0.51100000000E-03 0. -1.
        -11    1    3    3    0    0 -0.21983886735E+01 -0.40604586203E-02 -0.84190318264E+01  0.87013232558E+01  0.51100000000E-03 0.  1.
         12    1    3    3    0    0 -0.28145200825E+01  0.18730308172E+01 -0.51921512662E+01  0.61958213748E+01  0.00000000000E+00 0. -1.
</event>
<event>
 7    1  0.2811980E-010  0.4778727E+02  0.7816164E-02  0.1312668E+00
        -11   -1    0    0    0    0  0.00000000000E+00  0.00000000000E+00  0.45593999997E+02  0.45594000000E+02  0.51100000000E-03 0.  1.
         11   -1    0    0    0    0 -0.00000000000E+00 -0.00000000000E+00 -0.45593999997E+02  0.45594000000E+02  0.51100000000E-03 0. -1.
    9900012    2    1    2    0    0 -0.29820400107E+02  0.30619383227E+02 -0.75379255498E+01  0.47787271741E+02  0.20000003178E+02 0.  0.
        -12    1    1    2    0    0  0.29820400107E+02 -0.30619383227E+02  0.75379255498E+01  0.43400728259E+02  0.00000000000E+00 0.  1.
         11    1    3    3    0    0 -0.10644280095E+02  0.54642823559E+01 -0.90432360247E+00  0.11999036705E+02  0.51100000000E-03 0. -1.
        -11    1    3    3    0    0 -0.18542913759E+02  0.21869479653E+02 -0.10626781996E+02  0.30578461159E+02  0.51100000000E-03 0.  1.
        -12    1    3    3    0    0 -0.63320625292E+00  0.32856212181E+01  0.39931800492E+01  0.52097738774E+01  0.00000000000E+00 0.  1.
</event>
<event>
 7    1  0.2811980E-010  0.4778728E+02  0.7816164E-02  0.1312668E+00
        -11   -1    0    0    0    0  0.00000000000E+00  0.00000000000E+00  0.45593999997E+02  0.45594000000E+02  0.51100000000E-03 0.  1.
         11   -1    0    0    0    0 -0.00000000000E+00 -0.00000000000E+00 -0.45593999997E+02  0.45594000000E+02  0.51100000000E-03 0. -1.
    9900012    2    1    2    0    0 -0.23180445893E+02 -0.27309751644E+02 -0.24504423313E+02  0.47787281475E+02  0.20000047555E+02 0.  0.
        -12    1    1    2    0    0  0.23180445893E+02  0.27309751644E+02  0.24504423313E+02  0.43400718525E+02  0.00000000000E+00 0.  1.
         11    1    3    3    0    0 -0.13888175427E+02 -0.85208238260E+01 -0.34441196714E+01  0.16653762816E+02  0.51100000000E-03 0.  1.
        -11    1    3    3    0    0 -0.90108257259E+01 -0.82457945825E+01 -0.94126279547E+01  0.15420300705E+02  0.51100000000E-03 0. -1.
         12    1    3    3    0    0 -0.28144474049E+00 -0.10543133235E+02 -0.11647675687E+02  0.15713217954E+02  0.00000000000E+00 0. -1.
</event>
<event>
 7    1  0.2811980E-010  0.4778727E+02  0.7816164E-02  0.1312668E+00
        -11   -1    0    0    0    0  0.00000000000E+00  0.00000000000E+00  0.45593999997E+02  0.45594000000E+02  0.51100000000E-03 0.  1.
         11   -1    0    0    0    0 -0.00000000000E+00 -0.00000000000E+00 -0.45593999997E+02  0.45594000000E+02  0.51100000000E-03 0. -1.
    9900012    2    1    2    0    0 -0.32951095415E+02 -0.24560656378E+01 -0.28139229441E+02  0.47787272114E+02  0.20000004876E+02 0.  0.
        -12    1    1    2    0    0  0.32951095415E+02  0.24560656378E+01  0.28139229441E+02  0.43400727886E+02  0.00000000000E+00 0.  1.
         11    1    3    3    0    0 -0.20303693424E+02  0.63967692421E+01 -0.19496333497E+02  0.28866341013E+02  0.51100000000E-03 0. -1.
        -11    1    3    3    0    0 -0.59143396406E+01 -0.28963389388E+01 -0.20045530784E+00  0.65885032614E+01  0.51100000000E-03 0.  1.
         12    1    3    3    0    0 -0.67330623505E+01 -0.59564959412E+01 -0.84424406369E+01  0.12332427840E+02  0.00000000000E+00 0. -1.
</event>
<event>
 7    1  0.2811980E-010  0.4778727E+02  0.7816164E-02  0.1312668E+00
        -11   -1    0    0    0    0  0.00000000000E+00  0.00000000000E+00  0.45593999997E+02  0.45594000000E+02  0.51100000000E-03 0.  1.
         11   -1    0    0    0    0 -0.00000000000E+00 -0.00000000000E+00 -0.45593999997E+02  0.45594000000E+02  0.51100000000E-03 0. -1.
    9900012    2    1    2    0    0 -0.79733656684E+00  0.37810573450E+02 -0.21291978930E+02  0.47787267552E+02  0.19999984079E+02 0.  0.
        -12    1    1    2    0    0  0.79733656684E+00 -0.37810573450E+02  0.21291978930E+02  0.43400732448E+02  0.00000000000E+00 0.  1.
         11    1    3    3    0    0 -0.50728531448E+00  0.31174956284E+02 -0.15405438192E+02  0.34777331178E+02  0.51100000000E-03 0. -1.
        -11    1    3    3    0    0  0.38305136231E+01  0.17656133491E+01 -0.50441264761E+01  0.65752138584E+01  0.51100000000E-03 0.  1.
        -12    1    3    3    0    0 -0.41205648754E+01  0.48700038170E+01 -0.84241426120E+00  0.64347225159E+01  0.00000000000E+00 0.  1.
</event>
<event>
 7    1  0.2811980E-010  0.4778727E+02  0.7816164E-02  0.1312668E+00
        -11   -1    0    0    0    0  0.00000000000E+00  0.00000000000E+00  0.45593999997E+02  0.45594000000E+02  0.51100000000E-03 0.  1.
         11   -1    0    0    0    0 -0.00000000000E+00 -0.00000000000E+00 -0.45593999997E+02  0.45594000000E+02  0.51100000000E-03 0. -1.
    9900012    2    1    2    0    0 -0.11557028392E+02 -0.28804439161E+02 -0.30337479570E+02  0.47787270890E+02  0.19999999295E+02 0.  0.
        -12    1    1    2    0    0  0.11557028392E+02  0.28804439161E+02  0.30337479570E+02  0.43400729110E+02  0.00000000000E+00 0.  1.
         11    1    3    3    0    0 -0.72559679035E+01 -0.13127224913E+02 -0.37358480801E+01  0.15457349878E+02  0.51100000000E-03 0. -1.
        -11    1    3    3    0    0  0.47482351206E+00 -0.44478224955E+00  0.53749964921E+00  0.84391631762E+00  0.51100000000E-03 0.  1.
         12    1    3    3    0    0 -0.47758840005E+01 -0.15232431998E+02 -0.27139131140E+02  0.31486004694E+02  0.00000000000E+00 0. -1.
</event>
<event>
 7    1  0.2811980E-010  0.4778727E+02  0.7816164E-02  0.1312668E+00
        -11   -1    0    0    0    0  0.00000000000E+00  0.00000000000E+00  0.45593999997E+02  0.45594000000E+02  0.51100000000E-03 0.  1.
         11   -1    0    0    0    0 -0.00000000000E+00 -0.00000000000E+00 -0.45593999997E+02  0.45594000000E+02  0.51100000000E-03 0. -1.
    9900012    2    1    2    0    0 -0.48970524457E+00  0.13832133212E+01 -0.43375915960E+02  0.47787272175E+02  0.20000005156E+02 0.  0.
        -12    1    1    2    0    0  0.48970524457E+00 -0.13832133212E+01  0.43375915960E+02  0.43400727825E+02  0.00000000000E+00 0.  1.
         11    1    3    3    0    0  0.41631800227E+01  0.37153330759E+01 -0.20192690214E+02  0.20949475080E+02  0.51100000000E-03 0. -1.
        -11    1    3    3    0    0 -0.71686554353E+01 -0.50732517162E+01 -0.20340668494E+02  0.22155592946E+02  0.51100000000E-03 0.  1.
        -12    1    3    3    0    0  0.25157701681E+01  0.27411319615E+01 -0.28425572515E+01  0.46822041494E+01  0.00000000000E+00 0.  1.
</event>
<event>
 7    1  0.2811980E-010  0.4778727E+02  0.7816164E-02  0.1312668E+00
        -11   -1    0    0    0    0  0.00000000000E+00  0.00000000000E+00  0.45593999997E+02  0.45594000000E+02  0.51100000000E-03 0.  1.
         11   -1    0    0    0    0 -0.00000000000E+00 -0.00000000000E+00 -0.45593999997E+02  0.45594000000E+02  0.51100000000E-03 0. -1.
    9900012    2    1    2    0    0  0.80922571014E+01 -0.13578603254E+02 -0.40419796907E+02  0.47787273355E+02  0.20000010534E+02 0.  0.
        -12    1    1    2    0    0 -0.80922571014E+01  0.13578603254E+02  0.40419796907E+02  0.43400726645E+02  0.00000000000E+00 0.  1.
         11    1    3    3    0    0  0.86955699486E+01 -0.30972023575E+01 -0.24443534480E+02  0.26128374946E+02  0.51100000000E-03 0. -1.
        -11    1    3    3    0    0 -0.22421660256E+01 -0.12078242495E+02 -0.12766976269E+02  0.17717418931E+02  0.51100000000E-03 0.  1.
        -12    1    3    3    0    0  0.16388531783E+01  0.15968415985E+01 -0.32092861575E+01  0.39414794775E+01  0.00000000000E+00 0.  1.
</event>
<event>
 7    1  0.2811980E-010  0.4778727E+02  0.7816164E-02  0.1312668E+00
        -11   -1    0    0    0    0  0.00000000000E+00  0.00000000000E+00  0.45593999997E+02  0.45594000000E+02  0.51100000000E-03 0. -1.
         11   -1    0    0    0    0 -0.00000000000E+00 -0.00000000000E+00 -0.45593999997E+02  0.45594000000E+02  0.51100000000E-03 0.  1.
    9900012    2    1    2    0    0  0.50842466466E+01 -0.23930870212E+02  0.35848111508E+02  0.47787271760E+02  0.20000003261E+02 0.  0.
        -12    1    1    2    0    0 -0.50842466466E+01  0.23930870212E+02 -0.35848111508E+02  0.43400728240E+02  0.00000000000E+00 0.  1.
         11    1    3    3    0    0  0.95840366766E+01 -0.71007301506E+01  0.94325497608E+01  0.15206811728E+02  0.51100000000E-03 0. -1.
        -11    1    3    3    0    0  0.62554229060E+00 -0.11263263677E+01 -0.15069634565E+00  0.12971599337E+01  0.51100000000E-03 0.  1.
         12    1    3    3    0    0 -0.51253323206E+01 -0.15703813694E+02  0.26566258093E+02  0.31283300098E+02  0.00000000000E+00 0. -1.
</event>
<event>
 7    1  0.2811980E-010  0.4778726E+02  0.7816164E-02  0.1312668E+00
        -11   -1    0    0    0    0  0.00000000000E+00  0.00000000000E+00  0.45593999997E+02  0.45594000000E+02  0.51100000000E-03 0.  1.
         11   -1    0    0    0    0 -0.00000000000E+00 -0.00000000000E+00 -0.45593999997E+02  0.45594000000E+02  0.51100000000E-03 0. -1.
    9900012    2    1    2    0    0 -0.18308689780E+02  0.38174808572E+02  0.95446190680E+01  0.47787264014E+02  0.19999967943E+02 0.  0.
        -12    1    1    2    0    0  0.18308689780E+02 -0.38174808572E+02 -0.95446190680E+01  0.43400735986E+02  0.00000000000E+00 0.  1.
         11    1    3    3    0    0 -0.19132235904E+02  0.28522934535E+02  0.62224451960E+01  0.34904427652E+02  0.51100000000E-03 0. -1.
        -11    1    3    3    0    0  0.85433520921E+00  0.10479184586E+02  0.45055059713E+01  0.11438653005E+02  0.51100000000E-03 0.  1.
         12    1    3    3    0    0 -0.30789085464E-01 -0.82731054915E+00 -0.11833320994E+01  0.14441833574E+01  0.00000000000E+00 0. -1.
</event>
<event>
 7    1  0.2811980E-010  0.4778727E+02  0.7816164E-02  0.1312668E+00
        -11   -1    0    0    0    0  0.00000000000E+00  0.00000000000E+00  0.45593999997E+02  0.45594000000E+02  0.51100000000E-03 0.  1.
         11   -1    0    0    0    0 -0.00000000000E+00 -0.00000000000E+00 -0.45593999997E+02  0.45594000000E+02  0.51100000000E-03 0. -1.
    9900012    2    1    2    0    0 -0.35181679136E+02  0.22858023554E+02 -0.11107805944E+02  0.47787272581E+02  0.20000007006E+02 0.  0.
        -12    1    1    2    0    0  0.35181679136E+02 -0.22858023554E+02  0.11107805944E+02  0.43400727419E+02  0.00000000000E+00 0.  1.
         11    1    3    3    0    0 -0.17679594679E+02  0.84150926331E+01 -0.26759292443E+01  0.19762146888E+02  0.51100000000E-03 0. -1.
        -11    1    3    3    0    0  0.16012822921E+01  0.43895334934E+01  0.42461979782E+00  0.46917386439E+01  0.51100000000E-03 0.  1.
        -12    1    3    3    0    0 -0.19103366750E+02  0.10053397427E+02 -0.88564964974E+01  0.23333387050E+02  0.00000000000E+00 0.  1.
</event>
<event>
 7    1  0.2811980E-010  0.4778727E+02  0.7816164E-02  0.1312668E+00
        -11   -1    0    0    0    0  0.00000000000E+00  0.00000000000E+00  0.45593999997E+02  0.45594000000E+02  0.51100000000E-03 0. -1.
         11   -1    0    0    0    0 -0.00000000000E+00 -0.00000000000E+00 -0.45593999997E+02  0.45594000000E+02  0.51100000000E-03 0.  1.
    9900012    2    1    2    0    0 -0.15492406079E+02 -0.39934508750E+02 -0.69888288820E+01  0.47787270002E+02  0.19999995245E+02 0.  0.
        -12    1    1    2    0    0  0.15492406079E+02  0.39934508750E+02  0.69888288820E+01  0.43400729998E+02  0.00000000000E+00 0.  1.
         11    1    3    3    0    0 -0.76388311713E+01 -0.28425062513E+02  0.37627958011E+01  0.29673128467E+02  0.51100000000E-03 0. -1.
        -11    1    3    3    0    0 -0.68978532644E+01 -0.67506234165E+01 -0.62819443475E+01  0.11515820475E+02  0.51100000000E-03 0.  1.
         12    1    3    3    0    0 -0.95572164336E+00 -0.47588228210E+01 -0.44696803356E+01  0.65983210594E+01  0.00000000000E+00 0. -1.
</event>
<event>
 7    1  0.2811980E-010  0.4778727E+02  0.7816164E-02  0.1312668E+00
        -11   -1    0    0    0    0  0.00000000000E+00  0.00000000000E+00  0.45593999997E+02  0.45594000000E+02  0.51100000000E-03 0. -1.
         11   -1    0    0    0    0 -0.00000000000E+00 -0.00000000000E+00 -0.45593999997E+02  0.45594000000E+02  0.51100000000E-03 0.  1.
    9900012    2    1    2    0    0  0.59182066443E+01  0.39575413412E+02  0.16804304928E+02  0.47787272117E+02  0.20000004892E+02 0.  0.
        -12    1    1    2    0    0 -0.59182066443E+01 -0.39575413412E+02 -0.16804304928E+02  0.43400727883E+02  0.00000000000E+00 0.  1.
         11    1    3    3    0    0  0.66984151821E+01  0.11535017344E+02  0.13972414085E+02  0.19317187857E+02  0.51100000000E-03 0. -1.
        -11    1    3    3    0    0  0.12505812940E+01  0.11506376308E+02  0.78825173547E-02  0.11574139783E+02  0.51100000000E-03 0.  1.
         12    1    3    3    0    0 -0.20307898318E+01  0.16534019759E+02  0.28240083253E+01  0.16895944477E+02  0.00000000000E+00 0. -1.
</event>
<event>
 7    1  0.2811980E-010  0.4778727E+02  0.7816164E-02  0.1312668E+00
        -11   -1    0    0    0    0  0.00000000000E+00  0.00000000000E+00  0.45593999997E+02  0.45594000000E+02  0.51100000000E-03 0.  1.
         11   -1    0    0    0    0 -0.00000000000E+00 -0.00000000000E+00 -0.45593999997E+02  0.45594000000E+02  0.51100000000E-03 0. -1.
    9900012    2    1    2    0    0 -0.38006153571E+02 -0.20718271419E+02 -0.31478509245E+01  0.47787269069E+02  0.19999990995E+02 0.  0.
        -12    1    1    2    0    0  0.38006153571E+02  0.20718271419E+02  0.31478509245E+01  0.43400730931E+02  0.00000000000E+00 0.  1.
         11    1    3    3    0    0 -0.25084777140E+02 -0.90947813311E+01 -0.35647359974E+01  0.26919666317E+02  0.51100000000E-03 0. -1.
        -11    1    3    3    0    0 -0.25355973656E+01 -0.77422530877E+01  0.41831334308E+01  0.91580752582E+01  0.51100000000E-03 0.  1.
        -12    1    3    3    0    0 -0.10385779066E+02 -0.38812370006E+01 -0.37662483579E+01  0.11709527495E+02  0.00000000000E+00 0.  1.
</event>
<event>
 7    1  0.2811980E-010  0.4778727E+02  0.7816164E-02  0.1312668E+00
        -11   -1    0    0    0    0  0.00000000000E+00  0.00000000000E+00  0.45593999997E+02  0.45594000000E+02  0.51100000000E-03 0.  1.
         11   -1    0    0    0    0 -0.00000000000E+00 -0.00000000000E+00 -0.45593999997E+02  0.45594000000E+02  0.51100000000E-03 0. -1.
    9900012    2    1    2    0    0 -0.16428884603E+02 -0.15786064413E+02 -0.36939347259E+02  0.47787268959E+02  0.19999990493E+02 0.  0.
        -12    1    1    2    0    0  0.16428884603E+02  0.15786064413E+02  0.36939347259E+02  0.43400731041E+02  0.00000000000E+00 0.  1.
         11    1    3    3    0    0 -0.10160169027E+02 -0.22594446400E+01 -0.12901789822E+02  0.16576800222E+02  0.51100000000E-03 0. -1.
        -11    1    3    3    0    0 -0.27726474570E+01 -0.13177923473E+02 -0.10089896037E+02  0.16827098481E+02  0.51100000000E-03 0.  1.
        -12    1    3    3    0    0 -0.34960681188E+01 -0.34869629966E+00 -0.13947661400E+02  0.14383370256E+02  0.00000000000E+00 0.  1.
</event>
<event>
 7    1  0.2811980E-010  0.4778725E+02  0.7816164E-02  0.1312668E+00
        -11   -1    0    0    0    0  0.00000000000E+00  0.00000000000E+00  0.45593999997E+02  0.45594000000E+02  0.51100000000E-03 0.  1.
         11   -1    0    0    0    0 -0.00000000000E+00 -0.00000000000E+00 -0.45593999997E+02  0.45594000000E+02  0.51100000000E-03 0. -1.
    9900012    2    1    2    0    0 -0.14070870915E+02  0.40999068944E+02 -0.21706286468E+01  0.47787254715E+02  0.19999925547E+02 0.  0.
        -12    1    1    2    0    0  0.14070870915E+02 -0.40999068944E+02  0.21706286468E+01  0.43400745285E+02  0.00000000000E+00 0.  1.
         11    1    3    3    0    0 -0.27715233505E+01  0.25239913550E+02 -0.60553407479E+01  0.26103672721E+02  0.51100000000E-03 0. -1.
        -11    1    3    3    0    0 -0.48316875010E+01  0.29509143726E+01 -0.22320081930E+01  0.60856355935E+01  0.51100000000E-03 0.  1.
         12    1    3    3    0    0 -0.64676600634E+01  0.12808241021E+02  0.61167202941E+01  0.15597946401E+02  0.00000000000E+00 0. -1.
</event>
<event>
 7    1  0.2811980E-010  0.4778729E+02  0.7816164E-02  0.1312668E+00
        -11   -1    0    0    0    0  0.00000000000E+00  0.00000000000E+00  0.45593999997E+02  0.45594000000E+02  0.51100000000E-03 0. -1.
         11   -1    0    0    0    0 -0.00000000000E+00 -0.00000000000E+00 -0.45593999997E+02  0.45594000000E+02  0.51100000000E-03 0.  1.
    9900012    2    1    2    0    0 -0.26774678461E+02  0.27626011496E+02  0.20088358302E+02  0.47787285061E+02  0.20000063908E+02 0.  0.
        -12    1    1    2    0    0  0.26774678461E+02 -0.27626011496E+02 -0.20088358302E+02  0.43400714939E+02  0.00000000000E+00 0.  1.
         11    1    3    3    0    0 -0.19541154023E+02  0.24062849979E+02  0.12112062004E+02  0.33280316944E+02  0.51100000000E-03 0. -1.
        -11    1    3    3    0    0 -0.91826669991E+01  0.41344404382E+01  0.63541454225E+01  0.11907566303E+02  0.51100000000E-03 0.  1.
         12    1    3    3    0    0  0.19491425606E+01 -0.57127892061E+00  0.16221508755E+01  0.25994018137E+01  0.00000000000E+00 0. -1.
</event>
<event>
 7    1  0.2811980E-010  0.4778727E+02  0.7816164E-02  0.1312668E+00
        -11   -1    0    0    0    0  0.00000000000E+00  0.00000000000E+00  0.45593999997E+02  0.45594000000E+02  0.51100000000E-03 0.  1.
         11   -1    0    0    0    0 -0.00000000000E+00 -0.00000000000E+00 -0.45593999997E+02  0.45594000000E+02  0.51100000000E-03 0. -1.
    9900012    2    1    2    0    0 -0.21965269520E+02  0.37026919394E+02 -0.54915875352E+01  0.47787270069E+02  0.19999995550E+02 0.  0.
        -12    1    1    2    0    0  0.21965269520E+02 -0.37026919394E+02  0.54915875352E+01  0.43400729931E+02  0.00000000000E+00 0.  1.
         11    1    3    3    0    0 -0.18414660546E+01  0.49272715351E+01 -0.32884964266E+01  0.62034837809E+01  0.51100000000E-03 0. -1.
        -11    1    3    3    0    0 -0.18256518017E+02  0.18150999545E+02 -0.70626208702E+01  0.26695315102E+02  0.51100000000E-03 0.  1.
        -12    1    3    3    0    0 -0.18672854486E+01  0.13948648314E+02  0.48595297616E+01  0.14888471185E+02  0.00000000000E+00 0.  1.
</event>
<event>
 7    1  0.2811980E-010  0.4778726E+02  0.7816164E-02  0.1312668E+00
        -11   -1    0    0    0    0  0.00000000000E+00  0.00000000000E+00  0.45593999997E+02  0.45594000000E+02  0.51100000000E-03 0.  1.
         11   -1    0    0    0    0 -0.00000000000E+00 -0.00000000000E+00 -0.45593999997E+02  0.45594000000E+02  0.51100000000E-03 0. -1.
    9900012    2    1    2    0    0  0.25040797606E+02 -0.13311992173E+01 -0.35423308329E+02  0.47787257967E+02  0.19999940373E+02 0.  0.
        -12    1    1    2    0    0 -0.25040797606E+02  0.13311992173E+01  0.35423308329E+02  0.43400742033E+02  0.00000000000E+00 0.  1.
         11    1    3    3    0    0  0.72248392464E+01  0.70560864309E+01 -0.17259783268E+02  0.19997169214E+02  0.51100000000E-03 0.  1.
        -11    1    3    3    0    0  0.11882999233E+02 -0.65408692188E+01 -0.76367911090E+01  0.15566284708E+02  0.51100000000E-03 0. -1.
        -12    1    3    3    0    0  0.59329591259E+01 -0.18464164294E+01 -0.10526733952E+02  0.12223804044E+02  0.00000000000E+00 0.  1.
</event>
<event>
 7    1  0.2811980E-010  0.4778727E+02  0.7816164E-02  0.1312668E+00
        -11   -1    0    0    0    0  0.00000000000E+00  0.00000000000E+00  0.45593999997E+02  0.45594000000E+02  0.51100000000E-03 0.  1.
         11   -1    0    0    0    0 -0.00000000000E+00 -0.00000000000E+00 -0.45593999997E+02  0.45594000000E+02  0.51100000000E-03 0. -1.
    9900012    2    1    2    0    0 -0.18607307087E+02  0.28391528842E+02 -0.27042786138E+02  0.47787273404E+02  0.20000010757E+02 0.  0.
        -12    1    1    2    0    0  0.18607307087E+02 -0.28391528842E+02  0.27042786138E+02  0.43400726596E+02  0.00000000000E+00 0.  1.
         11    1    3    3    0    0 -0.84906927726E+01  0.16557216498E+02 -0.19360861156E+02  0.26852862546E+02  0.51100000000E-03 0. -1.
        -11    1    3    3    0    0  0.89472784185E+00 -0.38496937448E+00  0.17284923031E+01  0.19840426490E+01  0.51100000000E-03 0.  1.
        -12    1    3    3    0    0 -0.11011342156E+02  0.12219281718E+02 -0.94104172845E+01  0.18950368209E+02  0.00000000000E+00 0.  1.
</event>
<event>
 7    1  0.2811980E-010  0.4778727E+02  0.7816164E-02  0.1312668E+00
        -11   -1    0    0    0    0  0.00000000000E+00  0.00000000000E+00  0.45593999997E+02  0.45594000000E+02  0.51100000000E-03 0. -1.
         11   -1    0    0    0    0 -0.00000000000E+00 -0.00000000000E+00 -0.45593999997E+02  0.45594000000E+02  0.51100000000E-03 0.  1.
    9900012    2    1    2    0    0  0.24626427129E+02 -0.35403039673E+02  0.48772115211E+01  0.47787270473E+02  0.19999997394E+02 0.  0.
        -12    1    1    2    0    0 -0.24626427129E+02  0.35403039673E+02 -0.48772115211E+01  0.43400729527E+02  0.00000000000E+00 0.  1.
         11    1    3    3    0    0  0.46426693228E+00 -0.64453665684E+01  0.10920669675E+01  0.65536939590E+01  0.51100000000E-03 0. -1.
        -11    1    3    3    0    0  0.69064516456E+01 -0.17444521230E+02  0.74156737033E+01  0.20174305738E+02  0.51100000000E-03 0.  1.
        -12    1    3    3    0    0  0.17255708551E+02 -0.11513151876E+02 -0.36305291496E+01  0.21059270776E+02  0.00000000000E+00 0.  1.
</event>
<event>
 7    1  0.2811980E-010  0.4778728E+02  0.7816164E-02  0.1312668E+00
        -11   -1    0    0    0    0  0.00000000000E+00  0.00000000000E+00  0.45593999997E+02  0.45594000000E+02  0.51100000000E-03 0.  1.
         11   -1    0    0    0    0 -0.00000000000E+00 -0.00000000000E+00 -0.45593999997E+02  0.45594000000E+02  0.51100000000E-03 0. -1.
    9900012    2    1    2    0    0 -0.26046436335E+02 -0.24228117897E+02 -0.24863704816E+02  0.47787281576E+02  0.20000048015E+02 0.  0.
        -12    1    1    2    0    0  0.26046436335E+02  0.24228117897E+02  0.24863704816E+02  0.43400718424E+02  0.00000000000E+00 0.  1.
         11    1    3    3    0    0 -0.24259509687E+02 -0.20758172963E+02 -0.20069884154E+02  0.37712409168E+02  0.51100000000E-03 0. -1.
        -11    1    3    3    0    0  0.13214077619E+01 -0.40309923110E+00  0.17365819679E+01  0.22190819399E+01  0.51100000000E-03 0.  1.
         12    1    3    3    0    0 -0.31083344098E+01 -0.30668457030E+01 -0.65304026297E+01  0.78557904679E+01  0.00000000000E+00 0. -1.
</event>
<event>
 7    1  0.2811980E-010  0.4778727E+02  0.7816164E-02  0.1312668E+00
        -11   -1    0    0    0    0  0.00000000000E+00  0.00000000000E+00  0.45593999997E+02  0.45594000000E+02  0.51100000000E-03 0.  1.
         11   -1    0    0    0    0 -0.00000000000E+00 -0.00000000000E+00 -0.45593999997E+02  0.45594000000E+02  0.51100000000E-03 0. -1.
    9900012    2    1    2    0    0 -0.37046276883E+02  0.22387408888E+02  0.31623792825E+01  0.47787270163E+02  0.19999995983E+02 0.  0.
        -12    1    1    2    0    0  0.37046276883E+02 -0.22387408888E+02 -0.31623792825E+01  0.43400729837E+02  0.00000000000E+00 0.  1.
         11    1    3    3    0    0 -0.15861909115E+02  0.81167551015E+01  0.92329715850E+01  0.20068124942E+02  0.51100000000E-03 0. -1.
        -11    1    3    3    0    0 -0.63331239523E+00 -0.11235886261E+01 -0.76421545809E+00  0.14991869524E+01  0.51100000000E-03 0.  1.
         12    1    3    3    0    0 -0.20551055373E+02  0.15394242412E+02 -0.53063768445E+01  0.26219958269E+02  0.00000000000E+00 0. -1.
</event>
<event>
 7    1  0.2811980E-010  0.4778727E+02  0.7816164E-02  0.1312668E+00
        -11   -1    0    0    0    0  0.00000000000E+00  0.00000000000E+00  0.45593999997E+02  0.45594000000E+02  0.51100000000E-03 0. -1.
         11   -1    0    0    0    0 -0.00000000000E+00 -0.00000000000E+00 -0.45593999997E+02  0.45594000000E+02  0.51100000000E-03 0.  1.
    9900012    2    1    2    0    0 -0.24629492625E+02 -0.26222075696E+02  0.24277849448E+02  0.47787272649E+02  0.20000007316E+02 0.  0.
        -12    1    1    2    0    0  0.24629492625E+02  0.26222075696E+02 -0.24277849448E+02  0.43400727351E+02  0.00000000000E+00 0.  1.
         11    1    3    3    0    0 -0.71910584165E+01 -0.88530240740E+01  0.15793464138E+02  0.19481295289E+02  0.51100000000E-03 0. -1.
        -11    1    3    3    0    0 -0.54044518454E-01 -0.20965519388E+01  0.43088215832E+01  0.47921179596E+01  0.51100000000E-03 0.  1.
         12    1    3    3    0    0 -0.17384389690E+02 -0.15272499683E+02  0.41755637274E+01  0.23513859400E+02  0.00000000000E+00 0. -1.
</event>
<event>
 7    1  0.2811980E-010  0.4778727E+02  0.7816164E-02  0.1312668E+00
        -11   -1    0    0    0    0  0.00000000000E+00  0.00000000000E+00  0.45593999997E+02  0.45594000000E+02  0.51100000000E-03 0.  1.
         11   -1    0    0    0    0 -0.00000000000E+00 -0.00000000000E+00 -0.45593999997E+02  0.45594000000E+02  0.51100000000E-03 0. -1.
    9900012    2    1    2    0    0  0.31167868682E+02 -0.27929083549E+02  0.11495816633E+02  0.47787267908E+02  0.19999985699E+02 0.  0.
        -12    1    1    2    0    0 -0.31167868682E+02  0.27929083549E+02 -0.11495816633E+02  0.43400732092E+02  0.00000000000E+00 0.  1.
         11    1    3    3    0    0  0.17206588581E+02 -0.16654885064E+02  0.10324432918E+02  0.26077687828E+02  0.51100000000E-03 0. -1.
        -11    1    3    3    0    0  0.12254375190E+02 -0.93961515880E+01 -0.39976682373E+01  0.15951135620E+02  0.51100000000E-03 0.  1.
        -12    1    3    3    0    0  0.17069049109E+01 -0.18780468972E+01  0.51690519517E+01  0.57584444603E+01  0.00000000000E+00 0.  1.
</event>
<event>
 7    1  0.2811980E-010  0.4778727E+02  0.7816164E-02  0.1312668E+00
        -11   -1    0    0    0    0  0.00000000000E+00  0.00000000000E+00  0.45593999997E+02  0.45594000000E+02  0.51100000000E-03 0.  1.
         11   -1    0    0    0    0 -0.00000000000E+00 -0.00000000000E+00 -0.45593999997E+02  0.45594000000E+02  0.51100000000E-03 0. -1.
    9900012    2    1    2    0    0 -0.37213226048E+02  0.98053397724E+01 -0.20066254001E+02  0.47787269239E+02  0.19999991770E+02 0.  0.
        -12    1    1    2    0    0  0.37213226048E+02 -0.98053397724E+01  0.20066254001E+02  0.43400730761E+02  0.00000000000E+00 0.  1.
         11    1    3    3    0    0 -0.12533394553E+02  0.44828452374E+01 -0.59213188583E+01  0.14568592853E+02  0.51100000000E-03 0. -1.
        -11    1    3    3    0    0 -0.18765288729E+02  0.88891377015E+01 -0.15829037005E+02  0.26109600589E+02  0.51100000000E-03 0.  1.
        -12    1    3    3    0    0 -0.59145427660E+01 -0.35666431665E+01  0.16841018621E+01  0.71090757971E+01  0.00000000000E+00 0.  1.
</event>
<event>
 7    1  0.2811980E-010  0.4778726E+02  0.7816164E-02  0.1312668E+00
        -11   -1    0    0    0    0  0.00000000000E+00  0.00000000000E+00  0.45593999997E+02  0.45594000000E+02  0.51100000000E-03 0.  1.
         11   -1    0    0    0    0 -0.00000000000E+00 -0.00000000000E+00 -0.45593999997E+02  0.45594000000E+02  0.51100000000E-03 0. -1.
    9900012    2    1    2    0    0  0.15784025984E+02 -0.34354018723E+02 -0.21314083772E+02  0.47787259848E+02  0.19999948952E+02 0.  0.
        -12    1    1    2    0    0 -0.15784025984E+02  0.34354018723E+02  0.21314083772E+02  0.43400740152E+02  0.00000000000E+00 0.  1.
         11    1    3    3    0    0  0.27698277310E+01 -0.15725084656E+01 -0.38141467354E+01  0.49691492345E+01  0.51100000000E-03 0. -1.
        -11    1    3    3    0    0  0.12647955805E+02 -0.31253628476E+02 -0.10017620857E+02  0.35172614444E+02  0.51100000000E-03 0.  1.
        -12    1    3    3    0    0  0.36624244764E+00 -0.15278817819E+01 -0.74823161791E+01  0.76454961693E+01  0.00000000000E+00 0.  1.
</event>
<event>
 7    1  0.2811980E-010  0.4778727E+02  0.7816164E-02  0.1312668E+00
        -11   -1    0    0    0    0  0.00000000000E+00  0.00000000000E+00  0.45593999997E+02  0.45594000000E+02  0.51100000000E-03 0.  1.
         11   -1    0    0    0    0 -0.00000000000E+00 -0.00000000000E+00 -0.45593999997E+02  0.45594000000E+02  0.51100000000E-03 0. -1.
    9900012    2    1    2    0    0  0.41689571026E+02  0.15041888349E+01 -0.11972487669E+02  0.47787269853E+02  0.19999994566E+02 0.  0.
        -12    1    1    2    0    0 -0.41689571026E+02 -0.15041888349E+01  0.11972487669E+02  0.43400730147E+02  0.00000000000E+00 0.  1.
         11    1    3    3    0    0  0.27167575083E+02  0.13067992658E+00 -0.40506716756E+01  0.27468202606E+02  0.51100000000E-03 0. -1.
        -11    1    3    3    0    0  0.81431151687E+01  0.47419941600E+01 -0.89936407371E+01  0.13026219990E+02  0.51100000000E-03 0.  1.
        -12    1    3    3    0    0  0.63788807743E+01 -0.33684852516E+01  0.10718247438E+01  0.72928472564E+01  0.00000000000E+00 0.  1.
</event>
<event>
 7    1  0.2811980E-010  0.4778726E+02  0.7816164E-02  0.1312668E+00
        -11   -1    0    0    0    0  0.00000000000E+00  0.00000000000E+00  0.45593999997E+02  0.45594000000E+02  0.51100000000E-03 0. -1.
         11   -1    0    0    0    0 -0.00000000000E+00 -0.00000000000E+00 -0.45593999997E+02  0.45594000000E+02  0.51100000000E-03 0.  1.
    9900012    2    1    2    0    0  0.39288877276E+02 -0.33289703743E+00  0.18436302706E+02  0.47787263192E+02  0.19999964196E+02 0.  0.
        -12    1    1    2    0    0 -0.39288877276E+02  0.33289703743E+00 -0.18436302706E+02  0.43400736808E+02  0.00000000000E+00 0.  1.
         11    1    3    3    0    0  0.62743552319E+01  0.66721151790E+01  0.51352283079E+01  0.10500248786E+02  0.51100000000E-03 0. -1.
        -11    1    3    3    0    0  0.18496063031E+02 -0.14444593530E+01  0.34176638496E+01  0.18864549741E+02  0.51100000000E-03 0.  1.
         12    1    3    3    0    0  0.14518459013E+02 -0.55605528634E+01  0.98834105484E+01  0.18422464665E+02  0.00000000000E+00 0. -1.
</event>
<event>
 7    1  0.2811980E-010  0.4778730E+02  0.7816164E-02  0.1312668E+00
        -11   -1    0    0    0    0  0.00000000000E+00  0.00000000000E+00  0.45593999997E+02  0.45594000000E+02  0.51100000000E-03 0. -1.
         11   -1    0    0    0    0 -0.00000000000E+00 -0.00000000000E+00 -0.45593999997E+02  0.45594000000E+02  0.51100000000E-03 0.  1.
    9900012    2    1    2    0    0  0.19547357780E+02  0.38316175467E+02  0.57786100758E+01  0.47787299165E+02  0.20000128211E+02 0.  0.
        -12    1    1    2    0    0 -0.19547357780E+02 -0.38316175467E+02 -0.57786100758E+01  0.43400700835E+02  0.00000000000E+00 0.  1.
         11    1    3    3    0    0  0.16569672507E+02  0.36721041226E+02  0.10639691115E+02  0.41667636638E+02  0.51100000000E-03 0. -1.
        -11    1    3    3    0    0  0.10360266320E+01 -0.21998065013E+00 -0.14296277045E+01  0.17792072120E+01  0.51100000000E-03 0.  1.
         12    1    3    3    0    0  0.19416586414E+01  0.18151148907E+01 -0.34314533349E+01  0.43404553144E+01  0.00000000000E+00 0. -1.
</event>
<event>
 7    1  0.2811980E-010  0.4778728E+02  0.7816164E-02  0.1312668E+00
        -11   -1    0    0    0    0  0.00000000000E+00  0.00000000000E+00  0.45593999997E+02  0.45594000000E+02  0.51100000000E-03 0.  1.
         11   -1    0    0    0    0 -0.00000000000E+00 -0.00000000000E+00 -0.45593999997E+02  0.45594000000E+02  0.51100000000E-03 0. -1.
    9900012    2    1    2    0    0 -0.31090289514E+02 -0.25661072669E+01 -0.30173363828E+02  0.47787275429E+02  0.20000019992E+02 0.  0.
        -12    1    1    2    0    0  0.31090289514E+02  0.25661072669E+01  0.30173363828E+02  0.43400724571E+02  0.00000000000E+00 0.  1.
         11    1    3    3    0    0 -0.22503544906E+02  0.57472256808E+01 -0.26519136257E+02  0.35252017310E+02  0.51100000000E-03 0. -1.
        -11    1    3    3    0    0 -0.57919672052E+01 -0.62164130010E+01 -0.26308335399E+01  0.88944904340E+01  0.51100000000E-03 0.  1.
         12    1    3    3    0    0 -0.27947774022E+01 -0.20969199467E+01 -0.10233940315E+01  0.36407676848E+01  0.00000000000E+00 0. -1.
</event>
<event>
 7    1  0.2811980E-010  0.4778727E+02  0.7816164E-02  0.1312668E+00
        -11   -1    0    0    0    0  0.00000000000E+00  0.00000000000E+00  0.45593999997E+02  0.45594000000E+02  0.51100000000E-03 0.  1.
         11   -1    0    0    0    0 -0.00000000000E+00 -0.00000000000E+00 -0.45593999997E+02  0.45594000000E+02  0.51100000000E-03 0. -1.
    9900012    2    1    2    0    0  0.38772385503E+02  0.32205011055E+01 -0.19234186230E+02  0.47787269304E+02  0.19999992066E+02 0.  0.
        -12    1    1    2    0    0 -0.38772385503E+02 -0.32205011055E+01  0.19234186230E+02  0.43400730696E+02  0.00000000000E+00 0.  1.
         11    1    3    3    0    0  0.80839452874E+01  0.30184410816E+01 -0.37729632813E+01  0.94178771576E+01  0.51100000000E-03 0. -1.
        -11    1    3    3    0    0  0.15473817742E+02  0.65074563939E+01 -0.13958077694E+02  0.21831490041E+02  0.51100000000E-03 0.  1.
        -12    1    3    3    0    0  0.15214622474E+02 -0.63053963701E+01 -0.15031452552E+01  0.16537902106E+02  0.00000000000E+00 0.  1.
</event>
<event>
 7    1  0.2811980E-010  0.4778727E+02  0.7816164E-02  0.1312668E+00
        -11   -1    0    0    0    0  0.00000000000E+00  0.00000000000E+00  0.45593999997E+02  0.45594000000E+02  0.51100000000E-03 0. -1.
         11   -1    0    0    0    0 -0.00000000000E+00 -0.00000000000E+00 -0.45593999997E+02  0.45594000000E+02  0.51100000000E-03 0.  1.
    9900012    2    1    2    0    0 -0.36132175861E+02  0.40928847973E+01  0.23692560007E+02  0.47787271456E+02  0.20000001879E+02 0.  0.
        -12    1    1    2    0    0  0.36132175861E+02 -0.40928847973E+01 -0.23692560007E+02  0.43400728544E+02  0.00000000000E+00 0.  1.
         11    1    3    3    0    0 -0.68439487985E+00  0.48342491294E+01  0.32198254123E+01  0.58485585355E+01  0.51100000000E-03 0.  1.
        -11    1    3    3    0    0 -0.22106496228E+02 -0.44061184525E+01  0.10399055867E+02  0.24824411745E+02  0.51100000000E-03 0. -1.
         12    1    3    3    0    0 -0.13341284753E+02  0.36647541204E+01  0.10073678729E+02  0.17114301176E+02  0.00000000000E+00 0. -1.
</event>
<event>
 7    1  0.2811980E-010  0.4778727E+02  0.7816164E-02  0.1312668E+00
        -11   -1    0    0    0    0  0.00000000000E+00  0.00000000000E+00  0.45593999997E+02  0.45594000000E+02  0.51100000000E-03 0. -1.
         11   -1    0    0    0    0 -0.00000000000E+00 -0.00000000000E+00 -0.45593999997E+02  0.45594000000E+02  0.51100000000E-03 0.  1.
    9900012    2    1    2    0    0  0.35546233847E+02  0.24725272007E+02  0.29579134710E+01  0.47787273409E+02  0.20000010780E+02 0.  0.
        -12    1    1    2    0    0 -0.35546233847E+02 -0.24725272007E+02 -0.29579134710E+01  0.43400726591E+02  0.00000000000E+00 0.  1.
         11    1    3    3    0    0  0.11869705743E+02  0.42874340645E+01 -0.66052724411E+01  0.14244354305E+02  0.51100000000E-03 0. -1.
        -11    1    3    3    0    0  0.27781316559E+01  0.50645287454E+01  0.39527195424E+01  0.69993898986E+01  0.51100000000E-03 0.  1.
         12    1    3    3    0    0  0.20898396449E+02  0.15373309197E+02  0.56104663697E+01  0.26543529205E+02  0.00000000000E+00 0. -1.
</event>
<event>
 7    1  0.2811980E-010  0.4778728E+02  0.7816164E-02  0.1312668E+00
        -11   -1    0    0    0    0  0.00000000000E+00  0.00000000000E+00  0.45593999997E+02  0.45594000000E+02  0.51100000000E-03 0.  1.
         11   -1    0    0    0    0 -0.00000000000E+00 -0.00000000000E+00 -0.45593999997E+02  0.45594000000E+02  0.51100000000E-03 0. -1.
    9900012    2    1    2    0    0 -0.17809459957E+02 -0.23615749481E+02 -0.31760692617E+02  0.47787284764E+02  0.20000062551E+02 0.  0.
        -12    1    1    2    0    0  0.17809459957E+02  0.23615749481E+02  0.31760692617E+02  0.43400715236E+02  0.00000000000E+00 0.  1.
         11    1    3    3    0    0 -0.90520493352E+01 -0.14175085255E+02 -0.65714415246E+01  0.18057034173E+02  0.51100000000E-03 0. -1.
        -11    1    3    3    0    0  0.52793547706E+00  0.65156610441E+00  0.21060188412E+00  0.86464308883E+00  0.51100000000E-03 0.  1.
         12    1    3    3    0    0 -0.92853460991E+01 -0.10092230331E+02 -0.25399852976E+02  0.28865607502E+02  0.00000000000E+00 0. -1.
</event>
<event>
 7    1  0.2811980E-010  0.4778727E+02  0.7816164E-02  0.1312668E+00
        -11   -1    0    0    0    0  0.00000000000E+00  0.00000000000E+00  0.45593999997E+02  0.45594000000E+02  0.51100000000E-03 0.  1.
         11   -1    0    0    0    0 -0.00000000000E+00 -0.00000000000E+00 -0.45593999997E+02  0.45594000000E+02  0.51100000000E-03 0. -1.
    9900012    2    1    2    0    0  0.29310772725E+02 -0.17576201846E+02 -0.26750316200E+02  0.47787266298E+02  0.19999978360E+02 0.  0.
        -12    1    1    2    0    0 -0.29310772725E+02  0.17576201846E+02  0.26750316200E+02  0.43400733702E+02  0.00000000000E+00 0.  1.
         11    1    3    3    0    0  0.64353688598E+01 -0.59748861305E+01 -0.48794964506E+00  0.87949605883E+01  0.51100000000E-03 0. -1.
        -11    1    3    3    0    0  0.42228215986E+01 -0.36432894310E+01 -0.14530259360E+02  0.15563875400E+02  0.51100000000E-03 0.  1.
        -12    1    3    3    0    0  0.18652582267E+02 -0.79580262845E+01 -0.11732107194E+02  0.23428430310E+02  0.00000000000E+00 0.  1.
</event>
<event>
 7    1  0.2811980E-010  0.4778728E+02  0.7816164E-02  0.1312668E+00
        -11   -1    0    0    0    0  0.00000000000E+00  0.00000000000E+00  0.45593999997E+02  0.45594000000E+02  0.51100000000E-03 0.  1.
         11   -1    0    0    0    0 -0.00000000000E+00 -0.00000000000E+00 -0.45593999997E+02  0.45594000000E+02  0.51100000000E-03 0. -1.
    9900012    2    1    2    0    0  0.49947886834E+01  0.39812144751E+02 -0.16542913058E+02  0.47787277009E+02  0.20000027194E+02 0.  0.
        -12    1    1    2    0    0 -0.49947886834E+01 -0.39812144751E+02  0.16542913058E+02  0.43400722991E+02  0.00000000000E+00 0.  1.
         11    1    3    3    0    0  0.40508443241E+01  0.31068210499E+02 -0.15075738844E+02  0.34769540481E+02  0.51100000000E-03 0. -1.
        -11    1    3    3    0    0  0.44816040847E+01  0.80960244970E+01 -0.17207813132E+01  0.94123045221E+01  0.51100000000E-03 0.  1.
         12    1    3    3    0    0 -0.35376597254E+01  0.64790975558E+00  0.25360709870E+00  0.36054320052E+01  0.00000000000E+00 0. -1.
</event>
<event>
 7    1  0.2811980E-010  0.4778726E+02  0.7816164E-02  0.1312668E+00
        -11   -1    0    0    0    0  0.00000000000E+00  0.00000000000E+00  0.45593999997E+02  0.45594000000E+02  0.51100000000E-03 0.  1.
         11   -1    0    0    0    0 -0.00000000000E+00 -0.00000000000E+00 -0.45593999997E+02  0.45594000000E+02  0.51100000000E-03 0. -1.
    9900012    2    1    2    0    0 -0.20771047788E+02  0.76649221230E+01 -0.37328761949E+02  0.47787263531E+02  0.19999965743E+02 0.  0.
        -12    1    1    2    0    0  0.20771047788E+02 -0.76649221230E+01  0.37328761949E+02  0.43400736469E+02  0.00000000000E+00 0.  1.
         11    1    3    3    0    0 -0.46847438705E+01  0.31950799396E+01 -0.36943748742E+01  0.67678480277E+01  0.51100000000E-03 0. -1.
        -11    1    3    3    0    0 -0.37428278042E+01 -0.21639624987E+01  0.27146037585E+00  0.43318800381E+01  0.51100000000E-03 0.  1.
        -12    1    3    3    0    0 -0.12343476114E+02  0.66338046821E+01 -0.33905847451E+02  0.36687535465E+02  0.00000000000E+00 0.  1.
</event>
<event>
 7    1  0.2811980E-010  0.4778727E+02  0.7816164E-02  0.1312668E+00
        -11   -1    0    0    0    0  0.00000000000E+00  0.00000000000E+00  0.45593999997E+02  0.45594000000E+02  0.51100000000E-03 0.  1.
         11   -1    0    0    0    0 -0.00000000000E+00 -0.00000000000E+00 -0.45593999997E+02  0.45594000000E+02  0.51100000000E-03 0. -1.
    9900012    2    1    2    0    0 -0.25358971516E+02 -0.24257212020E+02 -0.25536903534E+02  0.47787271740E+02  0.20000003173E+02 0.  0.
        -12    1    1    2    0    0  0.25358971516E+02  0.24257212020E+02  0.25536903534E+02  0.43400728260E+02  0.00000000000E+00 0.  1.
         11    1    3    3    0    0 -0.11326351245E+02 -0.89836750909E+01 -0.84955235645E+01  0.16768022291E+02  0.51100000000E-03 0. -1.
        -11    1    3    3    0    0 -0.95664343204E+01 -0.94374560173E+01 -0.11212421938E+01  0.13484784982E+02  0.51100000000E-03 0.  1.
        -12    1    3    3    0    0 -0.44661859505E+01 -0.58360809120E+01 -0.15920137776E+02  0.17534464467E+02  0.00000000000E+00 0.  1.
</event>
<event>
 7    1  0.2811980E-010  0.4778727E+02  0.7816164E-02  0.1312668E+00
        -11   -1    0    0    0    0  0.00000000000E+00  0.00000000000E+00  0.45593999997E+02  0.45594000000E+02  0.51100000000E-03 0.  1.
         11   -1    0    0    0    0 -0.00000000000E+00 -0.00000000000E+00 -0.45593999997E+02  0.45594000000E+02  0.51100000000E-03 0. -1.
    9900012    2    1    2    0    0  0.40385414727E+02 -0.15114555961E+02  0.49185415481E+01  0.47787267569E+02  0.19999984155E+02 0.  0.
        -12    1    1    2    0    0 -0.40385414727E+02  0.15114555961E+02 -0.49185415481E+01  0.43400732431E+02  0.00000000000E+00 0.  1.
         11    1    3    3    0    0  0.51188575872E+01  0.25090486200E+01 -0.32230115845E+01  0.65487275031E+01  0.51100000000E-03 0. -1.
        -11    1    3    3    0    0  0.41541591303E+01 -0.24006134669E+01  0.42027321859E+01  0.63783180529E+01  0.51100000000E-03 0.  1.
         12    1    3    3    0    0  0.31112398010E+02 -0.15222991114E+02  0.39388209467E+01  0.34860222013E+02  0.00000000000E+00 0. -1.
</event>
<event>
 7    1  0.2811980E-010  0.4778727E+02  0.7816164E-02  0.1312668E+00
        -11   -1    0    0    0    0  0.00000000000E+00  0.00000000000E+00  0.45593999997E+02  0.45594000000E+02  0.51100000000E-03 0.  1.
         11   -1    0    0    0    0 -0.00000000000E+00 -0.00000000000E+00 -0.45593999997E+02  0.45594000000E+02  0.51100000000E-03 0. -1.
    9900012    2    1    2    0    0 -0.24716749591E+02 -0.87834597698E+01 -0.34576824216E+02  0.47787266725E+02  0.19999980308E+02 0.  0.
        -12    1    1    2    0    0  0.24716749591E+02  0.87834597698E+01  0.34576824216E+02  0.43400733275E+02  0.00000000000E+00 0.  1.
         11    1    3    3    0    0 -0.81281029524E+01  0.23279050279E+01 -0.16592116884E+02  0.18622125077E+02  0.51100000000E-03 0. -1.
        -11    1    3    3    0    0 -0.88273041623E+01 -0.73394303942E+01 -0.29871777653E+01  0.11862199145E+02  0.51100000000E-03 0.  1.
         12    1    3    3    0    0 -0.77613424765E+01 -0.37719344035E+01 -0.14997529567E+02  0.17302942504E+02  0.00000000000E+00 0. -1.
</event>
<event>
 7    1  0.2811980E-010  0.4778727E+02  0.7816164E-02  0.1312668E+00
        -11   -1    0    0    0    0  0.00000000000E+00  0.00000000000E+00  0.45593999997E+02  0.45594000000E+02  0.51100000000E-03 0. -1.
         11   -1    0    0    0    0 -0.00000000000E+00 -0.00000000000E+00 -0.45593999997E+02  0.45594000000E+02  0.51100000000E-03 0.  1.
    9900012    2    1    2    0    0 -0.12176303177E+02  0.38703245170E+02 -0.15408429769E+02  0.47787271277E+02  0.20000001062E+02 0.  0.
        -12    1    1    2    0    0  0.12176303177E+02 -0.38703245170E+02  0.15408429769E+02  0.43400728723E+02  0.00000000000E+00 0.  1.
         11    1    3    3    0    0 -0.69246188050E+01  0.14378261735E+02  0.19334659158E+01  0.16075541883E+02  0.51100000000E-03 0. -1.
        -11    1    3    3    0    0 -0.10755529852E+01  0.12365374768E+02 -0.33895410801E+01  0.12866557285E+02  0.51100000000E-03 0.  1.
         12    1    3    3    0    0 -0.41761313873E+01  0.11959608666E+02 -0.13952354605E+02  0.18845172109E+02  0.00000000000E+00 0. -1.
</event>
<event>
 7    1  0.2811980E-010  0.4778727E+02  0.7816164E-02  0.1312668E+00
        -11   -1    0    0    0    0  0.00000000000E+00  0.00000000000E+00  0.45593999997E+02  0.45594000000E+02  0.51100000000E-03 0.  1.
         11   -1    0    0    0    0 -0.00000000000E+00 -0.00000000000E+00 -0.45593999997E+02  0.45594000000E+02  0.51100000000E-03 0. -1.
    9900012    2    1    2    0    0  0.29801290974E+02  0.14729544562E+02 -0.27902450583E+02  0.47787272181E+02  0.20000005181E+02 0.  0.
        -12    1    1    2    0    0 -0.29801290974E+02 -0.14729544562E+02  0.27902450583E+02  0.43400727819E+02  0.00000000000E+00 0.  1.
         11    1    3    3    0    0  0.18910848221E+02  0.70122361611E+01 -0.21165645384E+02  0.29236555563E+02  0.51100000000E-03 0. -1.
        -11    1    3    3    0    0  0.16356816188E+01 -0.11510399013E+01  0.21630599390E+01  0.29460440889E+01  0.51100000000E-03 0.  1.
        -12    1    3    3    0    0  0.92547611341E+01  0.88683483018E+01 -0.88998651385E+01  0.15604672529E+02  0.00000000000E+00 0.  1.
</event>
<event>
 7    1  0.2811980E-010  0.4778727E+02  0.7816164E-02  0.1312668E+00
        -11   -1    0    0    0    0  0.00000000000E+00  0.00000000000E+00  0.45593999997E+02  0.45594000000E+02  0.51100000000E-03 0.  1.
         11   -1    0    0    0    0 -0.00000000000E+00 -0.00000000000E+00 -0.45593999997E+02  0.45594000000E+02  0.51100000000E-03 0. -1.
    9900012    2    1    2    0    0  0.40554669621E+02 -0.17847176345E+01  0.15354388868E+02  0.47787266105E+02  0.19999977481E+02 0.  0.
        -12    1    1    2    0    0 -0.40554669621E+02  0.17847176345E+01 -0.15354388868E+02  0.43400733895E+02  0.00000000000E+00 0.  1.
         11    1    3    3    0    0  0.23577246125E+02  0.15480653358E+00  0.38164715062E+01  0.23884638472E+02  0.51100000000E-03 0. -1.
        -11    1    3    3    0    0  0.69611458249E+01 -0.63215567199E+01  0.81867705236E+01  0.12467671893E+02  0.51100000000E-03 0.  1.
         12    1    3    3    0    0  0.10016277671E+02  0.43820325518E+01  0.33511468377E+01  0.11434955741E+02  0.00000000000E+00 0. -1.
</event>
<event>
 7    1  0.2811980E-010  0.4778727E+02  0.7816164E-02  0.1312668E+00
        -11   -1    0    0    0    0  0.00000000000E+00  0.00000000000E+00  0.45593999997E+02  0.45594000000E+02  0.51100000000E-03 0.  1.
         11   -1    0    0    0    0 -0.00000000000E+00 -0.00000000000E+00 -0.45593999997E+02  0.45594000000E+02  0.51100000000E-03 0. -1.
    9900012    2    1    2    0    0  0.30794645861E+02  0.25214354751E+02 -0.17307490018E+02  0.47787272933E+02  0.20000008609E+02 0.  0.
        -12    1    1    2    0    0 -0.30794645861E+02 -0.25214354751E+02  0.17307490018E+02  0.43400727067E+02  0.00000000000E+00 0.  1.
         11    1    3    3    0    0  0.11432238092E+02  0.17032228109E+01 -0.87109473970E+01  0.14473342411E+02  0.51100000000E-03 0.  1.
        -11    1    3    3    0    0  0.19523997649E+02  0.23775152437E+02 -0.96290261564E+01  0.32236043532E+02  0.51100000000E-03 0. -1.
        -12    1    3    3    0    0 -0.16158988048E+00 -0.26402049647E+00  0.10324835349E+01  0.10778869894E+01  0.00000000000E+00 0.  1.
</event>
<event>
 7    1  0.2811980E-010  0.4778727E+02  0.7816164E-02  0.1312668E+00
        -11   -1    0    0    0    0  0.00000000000E+00  0.00000000000E+00  0.45593999997E+02  0.45594000000E+02  0.51100000000E-03 0.  1.
         11   -1    0    0    0    0 -0.00000000000E+00 -0.00000000000E+00 -0.45593999997E+02  0.45594000000E+02  0.51100000000E-03 0. -1.
    9900012    2    1    2    0    0  0.34252222007E+02  0.13672900816E+02 -0.22879262619E+02  0.47787267435E+02  0.19999983545E+02 0.  0.
        -12    1    1    2    0    0 -0.34252222007E+02 -0.13672900816E+02  0.22879262619E+02  0.43400732565E+02  0.00000000000E+00 0.  1.
         11    1    3    3    0    0  0.15642614467E+02  0.13979124079E+02 -0.13316707519E+02  0.24848380164E+02  0.51100000000E-03 0. -1.
        -11    1    3    3    0    0  0.19700228496E+02 -0.33831702965E+00 -0.94178027582E+01  0.21838234138E+02  0.51100000000E-03 0.  1.
        -12    1    3    3    0    0 -0.10906209561E+01  0.32093767240E-01 -0.14475234170E+00  0.11006531334E+01  0.00000000000E+00 0.  1.
</event>
<event>
 7    1  0.2811980E-010  0.4778727E+02  0.7816164E-02  0.1312668E+00
        -11   -1    0    0    0    0  0.00000000000E+00  0.00000000000E+00  0.45593999997E+02  0.45594000000E+02  0.51100000000E-03 0.  1.
         11   -1    0    0    0    0 -0.00000000000E+00 -0.00000000000E+00 -0.45593999997E+02  0.45594000000E+02  0.51100000000E-03 0. -1.
    9900012    2    1    2    0    0  0.19868695183E+02 -0.27367757715E+02 -0.27200445386E+02  0.47787269133E+02  0.19999991286E+02 0.  0.
        -12    1    1    2    0    0 -0.19868695183E+02  0.27367757715E+02  0.27200445386E+02  0.43400730867E+02  0.00000000000E+00 0.  1.
         11    1    3    3    0    0 -0.21613955014E+01 -0.81832233129E+01 -0.24961596460E+01  0.88242613029E+01  0.51100000000E-03 0.  1.
        -11    1    3    3    0    0  0.16308349651E+02 -0.17399989332E+02 -0.17435267445E+02  0.29541673078E+02  0.51100000000E-03 0. -1.
        -12    1    3    3    0    0  0.57217410328E+01 -0.17845450704E+01 -0.72690182943E+01  0.94213347525E+01  0.00000000000E+00 0.  1.
</event>
<event>
 7    1  0.2811980E-010  0.4778726E+02  0.7816164E-02  0.1312668E+00
        -11   -1    0    0    0    0  0.00000000000E+00  0.00000000000E+00  0.45593999997E+02  0.45594000000E+02  0.51100000000E-03 0.  1.
         11   -1    0    0    0    0 -0.00000000000E+00 -0.00000000000E+00 -0.45593999997E+02  0.45594000000E+02  0.51100000000E-03 0. -1.
    9900012    2    1    2    0    0  0.15290200291E+02 -0.51064378483E+01 -0.40295881528E+02  0.47787262673E+02  0.19999961831E+02 0.  0.
        -12    1    1    2    0    0 -0.15290200291E+02  0.51064378483E+01  0.40295881528E+02  0.43400737327E+02  0.00000000000E+00 0.  1.
         11    1    3    3    0    0  0.22488536494E+01 -0.90079605256E+00 -0.11959995564E+02  0.12202879595E+02  0.51100000000E-03 0. -1.
        -11    1    3    3    0    0 -0.31919599307E+00 -0.69121464235E+01 -0.14976214721E+02  0.16497474409E+02  0.51100000000E-03 0.  1.
        -12    1    3    3    0    0  0.13360542635E+02  0.27065046278E+01 -0.13359671243E+02  0.19086908669E+02  0.00000000000E+00 0.  1.
</event>
<event>
 7    1  0.2811980E-010  0.4778727E+02  0.7816164E-02  0.1312668E+00
        -11   -1    0    0    0    0  0.00000000000E+00  0.00000000000E+00  0.45593999997E+02  0.45594000000E+02  0.51100000000E-03 0. -1.
         11   -1    0    0    0    0 -0.00000000000E+00 -0.00000000000E+00 -0.45593999997E+02  0.45594000000E+02  0.51100000000E-03 0.  1.
    9900012    2    1    2    0    0  0.31230260664E+01 -0.35996310554E+02  0.24044449866E+02  0.47787271496E+02  0.20000002059E+02 0.  0.
        -12    1    1    2    0    0 -0.31230260664E+01  0.35996310554E+02 -0.24044449866E+02  0.43400728504E+02  0.00000000000E+00 0.  1.
         11    1    3    3    0    0  0.28564257848E+01 -0.42886455084E+01  0.40885292893E+01  0.65778203511E+01  0.51100000000E-03 0. -1.
        -11    1    3    3    0    0  0.77238694447E+01 -0.12897414264E+02  0.12807738504E+02  0.19749420745E+02  0.51100000000E-03 0.  1.
        -12    1    3    3    0    0 -0.74572691631E+01 -0.18810250781E+02  0.71481820725E+01  0.21460030400E+02  0.00000000000E+00 0.  1.
</event>
<event>
 7    1  0.2811980E-010  0.4778727E+02  0.7816164E-02  0.1312668E+00
        -11   -1    0    0    0    0  0.00000000000E+00  0.00000000000E+00  0.45593999997E+02  0.45594000000E+02  0.51100000000E-03 0.  1.
         11   -1    0    0    0    0 -0.00000000000E+00 -0.00000000000E+00 -0.45593999997E+02  0.45594000000E+02  0.51100000000E-03 0. -1.
    9900012    2    1    2    0    0  0.19438577244E+02 -0.87199383872E+01 -0.37811738165E+02  0.47787272428E+02  0.20000006308E+02 0.  0.
        -12    1    1    2    0    0 -0.19438577244E+02  0.87199383872E+01  0.37811738165E+02  0.43400727572E+02  0.00000000000E+00 0.  1.
         11    1    3    3    0    0  0.12925405924E+02 -0.26363160424E+01 -0.21927931919E+02  0.25590046484E+02  0.51100000000E-03 0. -1.
        -11    1    3    3    0    0 -0.29271157014E+01  0.11302463858E+01 -0.58827678966E+01  0.66672649271E+01  0.51100000000E-03 0.  1.
        -12    1    3    3    0    0  0.94402870217E+01 -0.72138687305E+01 -0.10001038349E+02  0.15529961017E+02  0.00000000000E+00 0.  1.
</event>
<event>
 7    1  0.2811980E-010  0.4778727E+02  0.7816164E-02  0.1312668E+00
        -11   -1    0    0    0    0  0.00000000000E+00  0.00000000000E+00  0.45593999997E+02  0.45594000000E+02  0.51100000000E-03 0.  1.
         11   -1    0    0    0    0 -0.00000000000E+00 -0.00000000000E+00 -0.45593999997E+02  0.45594000000E+02  0.51100000000E-03 0. -1.
    9900012    2    1    2    0    0 -0.38354720624E+02  0.13166670503E+02 -0.15465359216E+02  0.47787272564E+02  0.20000006930E+02 0.  0.
        -12    1    1    2    0    0  0.38354720624E+02 -0.13166670503E+02  0.15465359216E+02  0.43400727436E+02  0.00000000000E+00 0.  1.
         11    1    3    3    0    0 -0.12228173500E+02  0.84831933604E-01 -0.10795164493E+02  0.16311682939E+02  0.51100000000E-03 0. -1.
        -11    1    3    3    0    0 -0.18118556886E+02  0.13740642920E+02 -0.55075893115E+01  0.23397027840E+02  0.51100000000E-03 0.  1.
        -12    1    3    3    0    0 -0.80079902379E+01 -0.65880435016E+00  0.83739458878E+00  0.80785617853E+01  0.00000000000E+00 0.  1.
</event>
<event>
 7    1  0.2811980E-010  0.4778727E+02  0.7816164E-02  0.1312668E+00
        -11   -1    0    0    0    0  0.00000000000E+00  0.00000000000E+00  0.45593999997E+02  0.45594000000E+02  0.51100000000E-03 0.  1.
         11   -1    0    0    0    0 -0.00000000000E+00 -0.00000000000E+00 -0.45593999997E+02  0.45594000000E+02  0.51100000000E-03 0. -1.
    9900012    2    1    2    0    0 -0.34009206487E+02  0.42567620844E+01 -0.26624747602E+02  0.47787270350E+02  0.19999996833E+02 0.  0.
        -12    1    1    2    0    0  0.34009206487E+02 -0.42567620844E+01  0.26624747602E+02  0.43400729650E+02  0.00000000000E+00 0.  1.
         11    1    3    3    0    0 -0.20637075048E+02 -0.10707821496E+01 -0.77428040227E+01  0.22067769605E+02  0.51100000000E-03 0. -1.
        -11    1    3    3    0    0  0.13154363677E+00  0.38302387361E+01 -0.34217524884E+01  0.51377449194E+01  0.51100000000E-03 0.  1.
        -12    1    3    3    0    0 -0.13503675076E+02  0.14973054979E+01 -0.15460191091E+02  0.20581755826E+02  0.00000000000E+00 0.  1.
</event>
<event>
 7    1  0.2811980E-010  0.4778727E+02  0.7816164E-02  0.1312668E+00
        -11   -1    0    0    0    0  0.00000000000E+00  0.00000000000E+00  0.45593999997E+02  0.45594000000E+02  0.51100000000E-03 0.  1.
         11   -1    0    0    0    0 -0.00000000000E+00 -0.00000000000E+00 -0.45593999997E+02  0.45594000000E+02  0.51100000000E-03 0. -1.
    9900012    2    1    2    0    0  0.27542077854E+02  0.91381176226E+01 -0.32273085176E+02  0.47787271055E+02  0.20000000048E+02 0.  0.
        -12    1    1    2    0    0 -0.27542077854E+02 -0.91381176226E+01  0.32273085176E+02  0.43400728945E+02  0.00000000000E+00 0.  1.
         11    1    3    3    0    0 -0.10752492400E+01  0.72780422948E+00 -0.52374628339E+01  0.53960056637E+01  0.51100000000E-03 0. -1.
        -11    1    3    3    0    0  0.23061593294E+02  0.82775303881E+00 -0.21137324291E+02  0.31293908972E+02  0.51100000000E-03 0.  1.
        -12    1    3    3    0    0  0.55557338003E+01  0.75825603543E+01 -0.58982980510E+01  0.11097356419E+02  0.00000000000E+00 0.  1.
</event>
<event>
 7    1  0.2811980E-010  0.4778727E+02  0.7816164E-02  0.1312668E+00
        -11   -1    0    0    0    0  0.00000000000E+00  0.00000000000E+00  0.45593999997E+02  0.45594000000E+02  0.51100000000E-03 0.  1.
         11   -1    0    0    0    0 -0.00000000000E+00 -0.00000000000E+00 -0.45593999997E+02  0.45594000000E+02  0.51100000000E-03 0. -1.
    9900012    2    1    2    0    0  0.60039175312E-01 -0.11303549051E+02 -0.41902856867E+02  0.47787271440E+02  0.20000001805E+02 0.  0.
        -12    1    1    2    0    0 -0.60039175312E-01  0.11303549051E+02  0.41902856867E+02  0.43400728560E+02  0.00000000000E+00 0.  1.
         11    1    3    3    0    0  0.47703191822E+01 -0.64672131695E+00 -0.18990775092E+02  0.19591419868E+02  0.51100000000E-03 0. -1.
        -11    1    3    3    0    0 -0.64580018320E+01 -0.68603526315E+01 -0.69825388632E+01  0.11727151194E+02  0.51100000000E-03 0.  1.
        -12    1    3    3    0    0  0.17477218252E+01 -0.37964751025E+01 -0.15929542912E+02  0.16468700379E+02  0.00000000000E+00 0.  1.
</event>
<event>
 7    1  0.2811980E-010  0.4778727E+02  0.7816164E-02  0.1312668E+00
        -11   -1    0    0    0    0  0.00000000000E+00  0.00000000000E+00  0.45593999997E+02  0.45594000000E+02  0.51100000000E-03 0.  1.
         11   -1    0    0    0    0 -0.00000000000E+00 -0.00000000000E+00 -0.45593999997E+02  0.45594000000E+02  0.51100000000E-03 0. -1.
    9900012    2    1    2    0    0 -0.25036552136E+02  0.21710111192E+01 -0.35384755927E+02  0.47787272078E+02  0.20000004713E+02 0.  0.
        -12    1    1    2    0    0  0.25036552136E+02 -0.21710111192E+01  0.35384755927E+02  0.43400727922E+02  0.00000000000E+00 0.  1.
         11    1    3    3    0    0 -0.33824100137E+01 -0.56717304186E+00 -0.76291646241E+01  0.83646001628E+01  0.51100000000E-03 0. -1.
        -11    1    3    3    0    0  0.22599203146E+01  0.13408609380E+01 -0.78455456163E+01  0.82739189120E+01  0.51100000000E-03 0.  1.
        -12    1    3    3    0    0 -0.23914062437E+02  0.13973232231E+01 -0.19910045687E+02  0.31148753003E+02  0.00000000000E+00 0.  1.
</event>
<event>
 7    1  0.2811980E-010  0.4778727E+02  0.7816164E-02  0.1312668E+00
        -11   -1    0    0    0    0  0.00000000000E+00  0.00000000000E+00  0.45593999997E+02  0.45594000000E+02  0.51100000000E-03 0.  1.
         11   -1    0    0    0    0 -0.00000000000E+00 -0.00000000000E+00 -0.45593999997E+02  0.45594000000E+02  0.51100000000E-03 0. -1.
    9900012    2    1    2    0    0  0.42286921931E+02 -0.94835473189E+01  0.23455936342E+01  0.47787271370E+02  0.20000001482E+02 0.  0.
        -12    1    1    2    0    0 -0.42286921931E+02  0.94835473189E+01 -0.23455936342E+01  0.43400728630E+02  0.00000000000E+00 0.  1.
         11    1    3    3    0    0  0.86263666063E+00 -0.56576418600E-01 -0.33773822698E+01  0.34862665069E+01  0.51100000000E-03 0. -1.
        -11    1    3    3    0    0  0.23369592727E+02 -0.47651985764E+01  0.87603187376E+01  0.25408427074E+02  0.51100000000E-03 0.  1.
         12    1    3    3    0    0  0.18054692543E+02 -0.46617723239E+01 -0.30373428336E+01  0.18892577789E+02  0.00000000000E+00 0. -1.
</event>
<event>
 7    1  0.2811980E-010  0.4778726E+02  0.7816164E-02  0.1312668E+00
        -11   -1    0    0    0    0  0.00000000000E+00  0.00000000000E+00  0.45593999997E+02  0.45594000000E+02  0.51100000000E-03 0.  1.
         11   -1    0    0    0    0 -0.00000000000E+00 -0.00000000000E+00 -0.45593999997E+02  0.45594000000E+02  0.51100000000E-03 0. -1.
    9900012    2    1    2    0    0  0.39158560351E+02 -0.13326326094E+02 -0.13139261899E+02  0.47787262458E+02  0.19999960850E+02 0.  0.
        -12    1    1    2    0    0 -0.39158560351E+02  0.13326326094E+02  0.13139261899E+02  0.43400737542E+02  0.00000000000E+00 0.  1.
         11    1    3    3    0    0  0.11671225052E+02  0.74498321119E+00 -0.96186446211E+01  0.15142351826E+02  0.51100000000E-03 0. -1.
        -11    1    3    3    0    0  0.22634850390E+02 -0.79233296898E+01  0.18039426856E+00  0.23982246515E+02  0.51100000000E-03 0.  1.
        -12    1    3    3    0    0  0.48524849094E+01 -0.61479796150E+01 -0.37010115469E+01  0.86626641175E+01  0.00000000000E+00 0.  1.
</event>
<event>
 7    1  0.2811980E-010  0.4778727E+02  0.7816164E-02  0.1312668E+00
        -11   -1    0    0    0    0  0.00000000000E+00  0.00000000000E+00  0.45593999997E+02  0.45594000000E+02  0.51100000000E-03 0.  1.
         11   -1    0    0    0    0 -0.00000000000E+00 -0.00000000000E+00 -0.45593999997E+02  0.45594000000E+02  0.51100000000E-03 0. -1.
    9900012    2    1    2    0    0  0.14561939268E+02  0.23648457973E+02 -0.33351518511E+02  0.47787269283E+02  0.19999991971E+02 0.  0.
        -12    1    1    2    0    0 -0.14561939268E+02 -0.23648457973E+02  0.33351518511E+02  0.43400730717E+02  0.00000000000E+00 0.  1.
         11    1    3    3    0    0  0.11978325227E+02  0.78156307013E+01 -0.73044383103E+01  0.16059862322E+02  0.51100000000E-03 0.  1.
        -11    1    3    3    0    0  0.51620604527E+01  0.13365235330E+02 -0.18684565845E+02  0.23545474822E+02  0.51100000000E-03 0. -1.
        -12    1    3    3    0    0 -0.25784464117E+01  0.24675919417E+01 -0.73625143557E+01  0.81819321390E+01  0.00000000000E+00 0.  1.
</event>
<event>
 7    1  0.2811980E-010  0.4778727E+02  0.7816164E-02  0.1312668E+00
        -11   -1    0    0    0    0  0.00000000000E+00  0.00000000000E+00  0.45593999997E+02  0.45594000000E+02  0.51100000000E-03 0.  1.
         11   -1    0    0    0    0 -0.00000000000E+00 -0.00000000000E+00 -0.45593999997E+02  0.45594000000E+02  0.51100000000E-03 0. -1.
    9900012    2    1    2    0    0  0.11162472629E+02 -0.83761790218E+01 -0.41095770493E+02  0.47787268179E+02  0.19999986934E+02 0.  0.
        -12    1    1    2    0    0 -0.11162472629E+02  0.83761790218E+01  0.41095770493E+02  0.43400731821E+02  0.00000000000E+00 0.  1.
         11    1    3    3    0    0  0.46952694495E+01 -0.51198141602E+01 -0.59740889089E+01  0.91623027013E+01  0.51100000000E-03 0. -1.
        -11    1    3    3    0    0 -0.70978568778E+00 -0.22861094828E+01  0.35203481295E+00  0.24195084336E+01  0.51100000000E-03 0.  1.
        -12    1    3    3    0    0  0.71769888672E+01 -0.97025537882E+00 -0.35473716397E+02  0.36205457044E+02  0.00000000000E+00 0.  1.
</event>
<event>
 7    1  0.2811980E-010  0.4778727E+02  0.7816164E-02  0.1312668E+00
        -11   -1    0    0    0    0  0.00000000000E+00  0.00000000000E+00  0.45593999997E+02  0.45594000000E+02  0.51100000000E-03 0. -1.
         11   -1    0    0    0    0 -0.00000000000E+00 -0.00000000000E+00 -0.45593999997E+02  0.45594000000E+02  0.51100000000E-03 0.  1.
    9900012    2    1    2    0    0 -0.39652823506E+02 -0.44118714091E+01  0.17082507910E+02  0.47787273072E+02  0.20000009246E+02 0.  0.
        -12    1    1    2    0    0  0.39652823506E+02  0.44118714091E+01 -0.17082507910E+02  0.43400726928E+02  0.00000000000E+00 0.  1.
         11    1    3    3    0    0 -0.35424137880E+02 -0.56074287001E+01  0.21006205547E+02  0.41564088742E+02  0.51100000000E-03 0. -1.
        -11    1    3    3    0    0 -0.32407988553E+01  0.13155744872E+01 -0.19297004789E+01  0.39946536334E+01  0.51100000000E-03 0.  1.
         12    1    3    3    0    0 -0.98788677089E+00 -0.12001719618E+00 -0.19939971586E+01  0.22285306971E+01  0.00000000000E+00 0. -1.
</event>
<event>
 7    1  0.2811980E-010  0.4778730E+02  0.7816164E-02  0.1312668E+00
        -11   -1    0    0    0    0  0.00000000000E+00  0.00000000000E+00  0.45593999997E+02  0.45594000000E+02  0.51100000000E-03 0. -1.
         11   -1    0    0    0    0 -0.00000000000E+00 -0.00000000000E+00 -0.45593999997E+02  0.45594000000E+02  0.51100000000E-03 0.  1.
    9900012    2    1    2    0    0 -0.38403073283E+02  0.14840830139E+02  0.13732249049E+02  0.47787297923E+02  0.20000122551E+02 0.  0.
        -12    1    1    2    0    0  0.38403073283E+02 -0.14840830139E+02 -0.13732249049E+02  0.43400702077E+02  0.00000000000E+00 0.  1.
         11    1    3    3    0    0 -0.15441068948E+02  0.50412726737E+01 -0.97144671657E+00  0.16272207884E+02  0.51100000000E-03 0. -1.
        -11    1    3    3    0    0 -0.22476557254E+02  0.90484829201E+01  0.16632562099E+02  0.29388990989E+02  0.51100000000E-03 0.  1.
        -12    1    3    3    0    0 -0.48544708182E+00  0.75107454473E+00 -0.19288663332E+01  0.21260990504E+01  0.00000000000E+00 0.  1.
</event>
<event>
 7    1  0.2811980E-010  0.4778727E+02  0.7816164E-02  0.1312668E+00
        -11   -1    0    0    0    0  0.00000000000E+00  0.00000000000E+00  0.45593999997E+02  0.45594000000E+02  0.51100000000E-03 0.  1.
         11   -1    0    0    0    0 -0.00000000000E+00 -0.00000000000E+00 -0.45593999997E+02  0.45594000000E+02  0.51100000000E-03 0. -1.
    9900012    2    1    2    0    0  0.42313190519E+02 -0.42779503485E+00 -0.96454404519E+01  0.47787267033E+02  0.19999981712E+02 0.  0.
        -12    1    1    2    0    0 -0.42313190519E+02  0.42779503485E+00  0.96454404519E+01  0.43400732967E+02  0.00000000000E+00 0.  1.
         11    1    3    3    0    0  0.29735316426E+02 -0.36179424078E+01 -0.33584482802E+01  0.30142291309E+02  0.51100000000E-03 0. -1.
        -11    1    3    3    0    0 -0.13221886692E+01  0.77555515597E+00  0.93519575228E+00  0.17956224640E+01  0.51100000000E-03 0.  1.
         12    1    3    3    0    0  0.13900062762E+02  0.24145922170E+01 -0.72221879239E+01  0.15849353260E+02  0.00000000000E+00 0. -1.
</event>
<event>
 7    1  0.2811980E-010  0.4778727E+02  0.7816164E-02  0.1312668E+00
        -11   -1    0    0    0    0  0.00000000000E+00  0.00000000000E+00  0.45593999997E+02  0.45594000000E+02  0.51100000000E-03 0.  1.
         11   -1    0    0    0    0 -0.00000000000E+00 -0.00000000000E+00 -0.45593999997E+02  0.45594000000E+02  0.51100000000E-03 0. -1.
    9900012    2    1    2    0    0 -0.21721668066E+02  0.37571351516E+02  0.43103664327E+00  0.47787272922E+02  0.20000008561E+02 0.  0.
        -12    1    1    2    0    0  0.21721668066E+02 -0.37571351516E+02 -0.43103664327E+00  0.43400727078E+02  0.00000000000E+00 0.  1.
         11    1    3    3    0    0 -0.16102674183E+02  0.22274731642E+02 -0.16281971958E+01  0.27533812158E+02  0.51100000000E-03 0. -1.
        -11    1    3    3    0    0 -0.90979962660E+01  0.87551897135E+01  0.26009819169E+00  0.12629114550E+02  0.51100000000E-03 0.  1.
         12    1    3    3    0    0  0.34790023830E+01  0.65414301599E+01  0.17991356474E+01  0.76243462143E+01  0.00000000000E+00 0. -1.
</event>
<event>
 7    1  0.2811980E-010  0.4778727E+02  0.7816164E-02  0.1312668E+00
        -11   -1    0    0    0    0  0.00000000000E+00  0.00000000000E+00  0.45593999997E+02  0.45594000000E+02  0.51100000000E-03 0.  1.
         11   -1    0    0    0    0 -0.00000000000E+00 -0.00000000000E+00 -0.45593999997E+02  0.45594000000E+02  0.51100000000E-03 0. -1.
    9900012    2    1    2    0    0  0.26251021458E+02  0.30815434243E+02 -0.15649797438E+02  0.47787271031E+02  0.19999999940E+02 0.  0.
        -12    1    1    2    0    0 -0.26251021458E+02 -0.30815434243E+02  0.15649797438E+02  0.43400728969E+02  0.00000000000E+00 0.  1.
         11    1    3    3    0    0  0.86857059910E+01  0.24477137471E+02 -0.90753642580E+01  0.27512433262E+02  0.51100000000E-03 0. -1.
        -11    1    3    3    0    0  0.12573019036E+02  0.28890600402E+01 -0.58455098040E+01  0.14163243298E+02  0.51100000000E-03 0.  1.
         12    1    3    3    0    0  0.49922964309E+01  0.34492367315E+01 -0.72892337625E+00  0.61115944706E+01  0.00000000000E+00 0. -1.
</event>
<event>
 7    1  0.2811980E-010  0.4778727E+02  0.7816164E-02  0.1312668E+00
        -11   -1    0    0    0    0  0.00000000000E+00  0.00000000000E+00  0.45593999997E+02  0.45594000000E+02  0.51100000000E-03 0.  1.
         11   -1    0    0    0    0 -0.00000000000E+00 -0.00000000000E+00 -0.45593999997E+02  0.45594000000E+02  0.51100000000E-03 0. -1.
    9900012    2    1    2    0    0 -0.47660766066E+01 -0.17933337166E+02 -0.39233955015E+02  0.47787270809E+02  0.19999998928E+02 0.  0.
        -12    1    1    2    0    0  0.47660766066E+01  0.17933337166E+02  0.39233955015E+02  0.43400729191E+02  0.00000000000E+00 0.  1.
         11    1    3    3    0    0  0.26520498041E+01 -0.12358802900E+02 -0.13360521317E+02  0.18392305657E+02  0.51100000000E-03 0. -1.
        -11    1    3    3    0    0 -0.17963663879E+01  0.28115866281E+01 -0.34291428669E+01  0.47844511315E+01  0.51100000000E-03 0.  1.
         12    1    3    3    0    0 -0.56217600228E+01 -0.83861208942E+01 -0.22444290832E+02  0.24610514020E+02  0.00000000000E+00 0. -1.
</event>
<event>
 7    1  0.2811980E-010  0.4778727E+02  0.7816164E-02  0.1312668E+00
        -11   -1    0    0    0    0  0.00000000000E+00  0.00000000000E+00  0.45593999997E+02  0.45594000000E+02  0.51100000000E-03 0.  1.
         11   -1    0    0    0    0 -0.00000000000E+00 -0.00000000000E+00 -0.45593999997E+02  0.45594000000E+02  0.51100000000E-03 0. -1.
    9900012    2    1    2    0    0 -0.22995681605E+02  0.84026877454E+01 -0.35835965509E+02  0.47787274686E+02  0.20000016603E+02 0.  0.
        -12    1    1    2    0    0  0.22995681605E+02 -0.84026877454E+01  0.35835965509E+02  0.43400725314E+02  0.00000000000E+00 0.  1.
         11    1    3    3    0    0 -0.70336976165E+01  0.27011971564E+01 -0.73330478009E+01  0.10513941152E+02  0.51100000000E-03 0. -1.
        -11    1    3    3    0    0 -0.32904344838E+01  0.84090144965E+01 -0.47185761378E+01  0.10188397564E+02  0.51100000000E-03 0.  1.
        -12    1    3    3    0    0 -0.12671549504E+02 -0.27075239075E+01 -0.23784341570E+02  0.27084935970E+02  0.00000000000E+00 0.  1.
</event>
<event>
 7    1  0.2811980E-010  0.4778727E+02  0.7816164E-02  0.1312668E+00
        -11   -1    0    0    0    0  0.00000000000E+00  0.00000000000E+00  0.45593999997E+02  0.45594000000E+02  0.51100000000E-03 0. -1.
         11   -1    0    0    0    0 -0.00000000000E+00 -0.00000000000E+00 -0.45593999997E+02  0.45594000000E+02  0.51100000000E-03 0.  1.
    9900012    2    1    2    0    0 -0.30308814837E+02 -0.25981404667E+02  0.17028375726E+02  0.47787271606E+02  0.20000002560E+02 0.  0.
        -12    1    1    2    0    0  0.30308814837E+02  0.25981404667E+02 -0.17028375726E+02  0.43400728394E+02  0.00000000000E+00 0.  1.
         11    1    3    3    0    0 -0.37072883905E+01  0.22305082894E+01  0.29873717686E+00  0.43368650660E+01  0.51100000000E-03 0. -1.
        -11    1    3    3    0    0 -0.25803396354E+01 -0.26655526926E+00 -0.69846953671E+00  0.26864594359E+01  0.51100000000E-03 0.  1.
         12    1    3    3    0    0 -0.24021186811E+02 -0.27945357687E+02  0.17428108086E+02  0.40763947104E+02  0.00000000000E+00 0. -1.
</event>
<event>
 7    1  0.2811980E-010  0.4778727E+02  0.7816164E-02  0.1312668E+00
        -11   -1    0    0    0    0  0.00000000000E+00  0.00000000000E+00  0.45593999997E+02  0.45594000000E+02  0.51100000000E-03 0.  1.
         11   -1    0    0    0    0 -0.00000000000E+00 -0.00000000000E+00 -0.45593999997E+02  0.45594000000E+02  0.51100000000E-03 0. -1.
    9900012    2    1    2    0    0  0.27994187090E+02 -0.14856700176E+02 -0.29651768954E+02  0.47787268981E+02  0.19999990590E+02 0.  0.
        -12    1    1    2    0    0 -0.27994187090E+02  0.14856700176E+02  0.29651768954E+02  0.43400731019E+02  0.00000000000E+00 0.  1.
         11    1    3    3    0    0  0.34617675375E+01  0.47747448395E+00 -0.11918587709E+02  0.12420328079E+02  0.51100000000E-03 0. -1.
        -11    1    3    3    0    0  0.46027445393E+01 -0.78863756884E+01 -0.35506350542E+01  0.97973051571E+01  0.51100000000E-03 0.  1.
         12    1    3    3    0    0  0.19929675013E+02 -0.74477989719E+01 -0.14182546191E+02  0.25569635744E+02  0.00000000000E+00 0. -1.
</event>
<event>
 7    1  0.2811980E-010  0.4778728E+02  0.7816164E-02  0.1312668E+00
        -11   -1    0    0    0    0  0.00000000000E+00  0.00000000000E+00  0.45593999997E+02  0.45594000000E+02  0.51100000000E-03 0.  1.
         11   -1    0    0    0    0 -0.00000000000E+00 -0.00000000000E+00 -0.45593999997E+02  0.45594000000E+02  0.51100000000E-03 0. -1.
    9900012    2    1    2    0    0  0.21408953737E+02  0.16762838493E+02 -0.33827309484E+02  0.47787275105E+02  0.20000018514E+02 0.  0.
        -12    1    1    2    0    0 -0.21408953737E+02 -0.16762838493E+02  0.33827309484E+02  0.43400724895E+02  0.00000000000E+00 0.  1.
         11    1    3    3    0    0  0.35777658748E+01  0.11789973575E+02 -0.74406786552E+01  0.14393317362E+02  0.51100000000E-03 0. -1.
        -11    1    3    3    0    0  0.14820156431E+02  0.57077289155E+01 -0.15955369810E+02  0.22511975303E+02  0.51100000000E-03 0.  1.
         12    1    3    3    0    0  0.30110314314E+01 -0.73486399814E+00 -0.10431261020E+02  0.10881982440E+02  0.00000000000E+00 0. -1.
</event>
<event>
 7    1  0.2811980E-010  0.4778728E+02  0.7816164E-02  0.1312668E+00
        -11   -1    0    0    0    0  0.00000000000E+00  0.00000000000E+00  0.45593999997E+02  0.45594000000E+02  0.51100000000E-03 0.  1.
         11   -1    0    0    0    0 -0.00000000000E+00 -0.00000000000E+00 -0.45593999997E+02  0.45594000000E+02  0.51100000000E-03 0. -1.
    9900012    2    1    2    0    0  0.67198811785E+01 -0.42739113916E+02  0.34400924263E+01  0.47787275383E+02  0.20000019783E+02 0.  0.
        -12    1    1    2    0    0 -0.67198811785E+01  0.42739113916E+02 -0.34400924263E+01  0.43400724617E+02  0.00000000000E+00 0.  1.
         11    1    3    3    0    0 -0.14968514309E+01 -0.11965257894E+02  0.25313041560E+00  0.12061178879E+02  0.51100000000E-03 0. -1.
        -11    1    3    3    0    0  0.54148230180E+00 -0.65521878686E+01 -0.58077556257E+01  0.87723653947E+01  0.51100000000E-03 0.  1.
        -12    1    3    3    0    0  0.76752503076E+01 -0.24221668152E+02  0.89947176364E+01  0.26953731110E+02  0.00000000000E+00 0.  1.
</event>
<event>
 7    1  0.2811980E-010  0.4778723E+02  0.7816164E-02  0.1312668E+00
        -11   -1    0    0    0    0  0.00000000000E+00  0.00000000000E+00  0.45593999997E+02  0.45594000000E+02  0.51100000000E-03 0.  1.
         11   -1    0    0    0    0 -0.00000000000E+00 -0.00000000000E+00 -0.45593999997E+02  0.45594000000E+02  0.51100000000E-03 0. -1.
    9900012    2    1    2    0    0  0.41889975151E+02 -0.67656619518E+01 -0.91149503714E+01  0.47787233646E+02  0.19999829485E+02 0.  0.
        -12    1    1    2    0    0 -0.41889975151E+02  0.67656619518E+01  0.91149503714E+01  0.43400766354E+02  0.00000000000E+00 0.  1.
         11    1    3    3    0    0  0.19747773452E+02 -0.59460534494E+01 -0.74730247926E+01  0.21935729022E+02  0.51100000000E-03 0. -1.
        -11    1    3    3    0    0  0.82127818915E+01  0.61033454377E+01 -0.10380562194E+01  0.10284851623E+02  0.51100000000E-03 0.  1.
        -12    1    3    3    0    0  0.13929419808E+02 -0.69229539401E+01 -0.60386935941E+00  0.15566653001E+02  0.00000000000E+00 0.  1.
</event>
<event>
 7    1  0.2811980E-010  0.4778728E+02  0.7816164E-02  0.1312668E+00
        -11   -1    0    0    0    0  0.00000000000E+00  0.00000000000E+00  0.45593999997E+02  0.45594000000E+02  0.51100000000E-03 0. -1.
         11   -1    0    0    0    0 -0.00000000000E+00 -0.00000000000E+00 -0.45593999997E+02  0.45594000000E+02  0.51100000000E-03 0.  1.
    9900012    2    1    2    0    0 -0.46280618757E+01 -0.40730438031E+02  0.14256063314E+02  0.47787275580E+02  0.20000020679E+02 0.  0.
        -12    1    1    2    0    0  0.46280618757E+01  0.40730438031E+02 -0.14256063314E+02  0.43400724420E+02  0.00000000000E+00 0.  1.
         11    1    3    3    0    0 -0.43932659222E+01 -0.10972282144E+02 -0.35784429307E+01  0.12348968175E+02  0.51100000000E-03 0.  1.
        -11    1    3    3    0    0  0.34018455237E+01 -0.11162458703E+02  0.64489198885E+01  0.13332726850E+02  0.51100000000E-03 0. -1.
         12    1    3    3    0    0 -0.36366414771E+01 -0.18595697185E+02  0.11385586357E+02  0.22105580556E+02  0.00000000000E+00 0. -1.
</event>
<event>
 7    1  0.2811980E-010  0.4778728E+02  0.7816164E-02  0.1312668E+00
        -11   -1    0    0    0    0  0.00000000000E+00  0.00000000000E+00  0.45593999997E+02  0.45594000000E+02  0.51100000000E-03 0.  1.
         11   -1    0    0    0    0 -0.00000000000E+00 -0.00000000000E+00 -0.45593999997E+02  0.45594000000E+02  0.51100000000E-03 0. -1.
    9900012    2    1    2    0    0 -0.70818136246E+01 -0.13921870786E+02 -0.40492618499E+02  0.47787277387E+02  0.20000028919E+02 0.  0.
        -12    1    1    2    0    0  0.70818136246E+01  0.13921870786E+02  0.40492618499E+02  0.43400722613E+02  0.00000000000E+00 0.  1.
         11    1    3    3    0    0 -0.29837116127E+01 -0.43834192013E-01 -0.10281326091E+02  0.10705611747E+02  0.51100000000E-03 0. -1.
        -11    1    3    3    0    0 -0.88917733675E+01 -0.14101590551E+02 -0.24277218493E+02  0.29449988585E+02  0.51100000000E-03 0.  1.
        -12    1    3    3    0    0  0.47936713555E+01  0.22355395695E+00 -0.59340739157E+01  0.76316770551E+01  0.00000000000E+00 0.  1.
</event>
<event>
 7    1  0.2811980E-010  0.4778727E+02  0.7816164E-02  0.1312668E+00
        -11   -1    0    0    0    0  0.00000000000E+00  0.00000000000E+00  0.45593999997E+02  0.45594000000E+02  0.51100000000E-03 0.  1.
         11   -1    0    0    0    0 -0.00000000000E+00 -0.00000000000E+00 -0.45593999997E+02  0.45594000000E+02  0.51100000000E-03 0. -1.
    9900012    2    1    2    0    0 -0.14003241756E+02  0.71259526807E+01 -0.40456812166E+02  0.47787266919E+02  0.19999981192E+02 0.  0.
        -12    1    1    2    0    0  0.14003241756E+02 -0.71259526807E+01  0.40456812166E+02  0.43400733081E+02  0.00000000000E+00 0.  1.
         11    1    3    3    0    0 -0.91238409367E+01  0.83806491777E+01 -0.31946500285E+02  0.34264539028E+02  0.51100000000E-03 0. -1.
        -11    1    3    3    0    0 -0.29543969515E+01 -0.51153670369E+01 -0.33293369455E+01  0.67808499487E+01  0.51100000000E-03 0.  1.
        -12    1    3    3    0    0 -0.19250038682E+01  0.38606705399E+01 -0.51809749360E+01  0.67418779429E+01  0.00000000000E+00 0.  1.
</event>
<event>
 7    1  0.2811980E-010  0.4778732E+02  0.7816164E-02  0.1312668E+00
        -11   -1    0    0    0    0  0.00000000000E+00  0.00000000000E+00  0.45593999997E+02  0.45594000000E+02  0.51100000000E-03 0.  1.
         11   -1    0    0    0    0 -0.00000000000E+00 -0.00000000000E+00 -0.45593999997E+02  0.45594000000E+02  0.51100000000E-03 0. -1.
    9900012    2    1    2    0    0  0.33795501672E+02  0.26976921917E+02 -0.37052891571E+01  0.47787315476E+02  0.20000202581E+02 0.  0.
        -12    1    1    2    0    0 -0.33795501672E+02 -0.26976921917E+02  0.37052891571E+01  0.43400684524E+02  0.00000000000E+00 0.  1.
         11    1    3    3    0    0  0.13363187396E+02  0.13454705944E+02 -0.95334962856E+01  0.21224783653E+02  0.51100000000E-03 0. -1.
        -11    1    3    3    0    0  0.14499080838E+02  0.12722913895E+02  0.68878745239E+01  0.20482643845E+02  0.51100000000E-03 0.  1.
         12    1    3    3    0    0  0.59332334385E+01  0.79930207715E+00 -0.10596673953E+01  0.60798879788E+01  0.00000000000E+00 0. -1.
</event>
<event>
 7    1  0.2811980E-010  0.4778727E+02  0.7816164E-02  0.1312668E+00
        -11   -1    0    0    0    0  0.00000000000E+00  0.00000000000E+00  0.45593999997E+02  0.45594000000E+02  0.51100000000E-03 0.  1.
         11   -1    0    0    0    0 -0.00000000000E+00 -0.00000000000E+00 -0.45593999997E+02  0.45594000000E+02  0.51100000000E-03 0. -1.
    9900012    2    1    2    0    0  0.24502089221E+02 -0.18885148794E+02 -0.30440468221E+02  0.47787270436E+02  0.19999997227E+02 0.  0.
        -12    1    1    2    0    0 -0.24502089221E+02  0.18885148794E+02  0.30440468221E+02  0.43400729564E+02  0.00000000000E+00 0.  1.
         11    1    3    3    0    0 -0.84097234301E+00  0.20358419860E+00 -0.30740019016E+01  0.31934572112E+01  0.51100000000E-03 0.  1.
        -11    1    3    3    0    0  0.11792754405E+02 -0.16591791524E+01 -0.15446483491E+02  0.19504250419E+02  0.51100000000E-03 0. -1.
        -12    1    3    3    0    0  0.13550307159E+02 -0.17429553840E+02 -0.11919982828E+02  0.25089562806E+02  0.00000000000E+00 0.  1.
</event>
<event>
 7    1  0.2811980E-010  0.4778726E+02  0.7816164E-02  0.1312668E+00
        -11   -1    0    0    0    0  0.00000000000E+00  0.00000000000E+00  0.45593999997E+02  0.45594000000E+02  0.51100000000E-03 0. -1.
         11   -1    0    0    0    0 -0.00000000000E+00 -0.00000000000E+00 -0.45593999997E+02  0.45594000000E+02  0.51100000000E-03 0.  1.
    9900012    2    1    2    0    0  0.10741749865E+01  0.41637432509E+02  0.12198130620E+02  0.47787262351E+02  0.19999960365E+02 0.  0.
        -12    1    1    2    0    0 -0.10741749865E+01 -0.41637432509E+02 -0.12198130620E+02  0.43400737649E+02  0.00000000000E+00 0.  1.
         11    1    3    3    0    0 -0.37889606648E+01  0.17357307388E+02  0.11869253027E+02  0.21366129980E+02  0.51100000000E-03 0. -1.
        -11    1    3    3    0    0 -0.20760019745E+01  0.14763701346E+01 -0.37317358167E+00  0.25746284695E+01  0.51100000000E-03 0.  1.
         12    1    3    3    0    0  0.69391376258E+01  0.22803754987E+02  0.70205117486E+00  0.23846503902E+02  0.00000000000E+00 0. -1.
</event>
<event>
 7    1  0.2811980E-010  0.4778727E+02  0.7816164E-02  0.1312668E+00
        -11   -1    0    0    0    0  0.00000000000E+00  0.00000000000E+00  0.45593999997E+02  0.45594000000E+02  0.51100000000E-03 0.  1.
         11   -1    0    0    0    0 -0.00000000000E+00 -0.00000000000E+00 -0.45593999997E+02  0.45594000000E+02  0.51100000000E-03 0. -1.
    9900012    2    1    2    0    0  0.16529918446E+01 -0.43025991720E+00 -0.43367104626E+02  0.47787271097E+02  0.20000000240E+02 0.  0.
        -12    1    1    2    0    0 -0.16529918446E+01  0.43025991720E+00  0.43367104626E+02  0.43400728903E+02  0.00000000000E+00 0.  1.
         11    1    3    3    0    0  0.16095200761E+01 -0.60066972460E+01 -0.27327861387E+02  0.28026469184E+02  0.51100000000E-03 0. -1.
        -11    1    3    3    0    0 -0.15034140261E+01  0.74909543290E+01 -0.15440902192E+02  0.17227771511E+02  0.51100000000E-03 0.  1.
         12    1    3    3    0    0  0.15468857945E+01 -0.19145170003E+01 -0.59834104733E+00  0.25330304014E+01  0.00000000000E+00 0. -1.
</event>
<event>
 7    1  0.2811980E-010  0.4778727E+02  0.7816164E-02  0.1312668E+00
        -11   -1    0    0    0    0  0.00000000000E+00  0.00000000000E+00  0.45593999997E+02  0.45594000000E+02  0.51100000000E-03 0. -1.
         11   -1    0    0    0    0 -0.00000000000E+00 -0.00000000000E+00 -0.45593999997E+02  0.45594000000E+02  0.51100000000E-03 0.  1.
    9900012    2    1    2    0    0 -0.27688179494E+02 -0.59676966905E+01  0.32884257824E+02  0.47787273046E+02  0.20000009125E+02 0.  0.
        -12    1    1    2    0    0  0.27688179494E+02  0.59676966905E+01 -0.32884257824E+02  0.43400726954E+02  0.00000000000E+00 0.  1.
         11    1    3    3    0    0 -0.66824079085E+01 -0.49906537331E+01  0.19890980089E+02  0.21568780432E+02  0.51100000000E-03 0. -1.
        -11    1    3    3    0    0 -0.56207636988E+01 -0.39746470848E+01  0.23583668359E+01  0.72768604769E+01  0.51100000000E-03 0.  1.
         12    1    3    3    0    0 -0.15385007887E+02  0.29976041274E+01  0.10634910899E+02  0.18941632137E+02  0.00000000000E+00 0. -1.
</event>
<event>
 7    1  0.2811980E-010  0.4778727E+02  0.7816164E-02  0.1312668E+00
        -11   -1    0    0    0    0  0.00000000000E+00  0.00000000000E+00  0.45593999997E+02  0.45594000000E+02  0.51100000000E-03 0. -1.
         11   -1    0    0    0    0 -0.00000000000E+00 -0.00000000000E+00 -0.45593999997E+02  0.45594000000E+02  0.51100000000E-03 0.  1.
    9900012    2    1    2    0    0  0.14311829636E+02 -0.13457754422E+02  0.38699918895E+02  0.47787270236E+02  0.19999996312E+02 0.  0.
        -12    1    1    2    0    0 -0.14311829636E+02  0.13457754422E+02 -0.38699918895E+02  0.43400729764E+02  0.00000000000E+00 0.  1.
         11    1    3    3    0    0  0.13800649107E+02 -0.24217684030E+01  0.25764016611E+02  0.29327588209E+02  0.51100000000E-03 0. -1.
        -11    1    3    3    0    0 -0.25009773490E+01 -0.72875532949E+01  0.10624867345E+02  0.13124447687E+02  0.51100000000E-03 0.  1.
         12    1    3    3    0    0  0.30121578780E+01 -0.37484327239E+01  0.23110349389E+01  0.53352343394E+01  0.00000000000E+00 0. -1.
</event>
<event>
 7    1  0.2811980E-010  0.4778727E+02  0.7816164E-02  0.1312668E+00
        -11   -1    0    0    0    0  0.00000000000E+00  0.00000000000E+00  0.45593999997E+02  0.45594000000E+02  0.51100000000E-03 0. -1.
         11   -1    0    0    0    0 -0.00000000000E+00 -0.00000000000E+00 -0.45593999997E+02  0.45594000000E+02  0.51100000000E-03 0.  1.
    9900012    2    1    2    0    0 -0.80233400017E+01  0.42450858157E+02  0.41441792664E+01  0.47787267693E+02  0.19999984718E+02 0.  0.
        -12    1    1    2    0    0  0.80233400017E+01 -0.42450858157E+02 -0.41441792664E+01  0.43400732307E+02  0.00000000000E+00 0.  1.
         11    1    3    3    0    0  0.38091138270E+01  0.12273903199E+02  0.51128770106E+01  0.13831108396E+02  0.51100000000E-03 0. -1.
        -11    1    3    3    0    0 -0.97426980013E+01  0.14055128122E+02  0.26386707085E+01  0.17304027689E+02  0.51100000000E-03 0.  1.
         12    1    3    3    0    0 -0.20897558274E+01  0.16121826835E+02 -0.36073684527E+01  0.16652131608E+02  0.00000000000E+00 0. -1.
</event>
<event>
 7    1  0.2811980E-010  0.4778727E+02  0.7816164E-02  0.1312668E+00
        -11   -1    0    0    0    0  0.00000000000E+00  0.00000000000E+00  0.45593999997E+02  0.45594000000E+02  0.51100000000E-03 0.  1.
         11   -1    0    0    0    0 -0.00000000000E+00 -0.00000000000E+00 -0.45593999997E+02  0.45594000000E+02  0.51100000000E-03 0. -1.
    9900012    2    1    2    0    0 -0.83270116225E+01  0.18630919031E+02 -0.38303696463E+02  0.47787269254E+02  0.19999991837E+02 0.  0.
        -12    1    1    2    0    0  0.83270116225E+01 -0.18630919031E+02  0.38303696463E+02  0.43400730746E+02  0.00000000000E+00 0.  1.
         11    1    3    3    0    0 -0.14557199405E+02  0.14967196316E+02 -0.30207987871E+02  0.36721268382E+02  0.51100000000E-03 0. -1.
        -11    1    3    3    0    0  0.44593721899E+01  0.16798221759E+01 -0.42170791295E+01  0.63632978491E+01  0.51100000000E-03 0.  1.
         12    1    3    3    0    0  0.17708155928E+01  0.19839005392E+01 -0.38786294625E+01  0.47027030228E+01  0.00000000000E+00 0. -1.
</event>
<event>
 7    1  0.2811980E-010  0.4778730E+02  0.7816164E-02  0.1312668E+00
        -11   -1    0    0    0    0  0.00000000000E+00  0.00000000000E+00  0.45593999997E+02  0.45594000000E+02  0.51100000000E-03 0.  1.
         11   -1    0    0    0    0 -0.00000000000E+00 -0.00000000000E+00 -0.45593999997E+02  0.45594000000E+02  0.51100000000E-03 0. -1.
    9900012    2    1    2    0    0 -0.41260863318E+01 -0.23563191904E+02 -0.36212876792E+02  0.47787296703E+02  0.20000116987E+02 0.  0.
        -12    1    1    2    0    0  0.41260863318E+01  0.23563191904E+02  0.36212876792E+02  0.43400703297E+02  0.00000000000E+00 0.  1.
         11    1    3    3    0    0 -0.50284400042E+01 -0.69317878269E+01 -0.17604687699E+02  0.19577025325E+02  0.51100000000E-03 0. -1.
        -11    1    3    3    0    0  0.58178295752E+01 -0.13555897277E+02 -0.16260194009E+02  0.21954575866E+02  0.51100000000E-03 0.  1.
        -12    1    3    3    0    0 -0.49154759028E+01 -0.30755067996E+01 -0.23479950843E+01  0.62556955122E+01  0.00000000000E+00 0.  1.
</event>
<event>
 7    1  0.2811980E-010  0.4778727E+02  0.7816164E-02  0.1312668E+00
        -11   -1    0    0    0    0  0.00000000000E+00  0.00000000000E+00  0.45593999997E+02  0.45594000000E+02  0.51100000000E-03 0.  1.
         11   -1    0    0    0    0 -0.00000000000E+00 -0.00000000000E+00 -0.45593999997E+02  0.45594000000E+02  0.51100000000E-03 0. -1.
    9900012    2    1    2    0    0 -0.23615854304E+02  0.14164418286E+02 -0.33545252541E+02  0.47787270883E+02  0.19999999263E+02 0.  0.
        -12    1    1    2    0    0  0.23615854304E+02 -0.14164418286E+02  0.33545252541E+02  0.43400729117E+02  0.00000000000E+00 0.  1.
         11    1    3    3    0    0 -0.60343694183E+01  0.28646064040E+01 -0.59294385599E+01  0.89318433721E+01  0.51100000000E-03 0. -1.
        -11    1    3    3    0    0 -0.86924794435E+01 -0.15808523726E+01 -0.23617740245E+01  0.91452867590E+01  0.51100000000E-03 0.  1.
        -12    1    3    3    0    0 -0.88890054423E+01  0.12880664254E+02 -0.25254039956E+02  0.29710140752E+02  0.00000000000E+00 0.  1.
</event>
<event>
 7    1  0.2811980E-010  0.4778727E+02  0.7816164E-02  0.1312668E+00
        -11   -1    0    0    0    0  0.00000000000E+00  0.00000000000E+00  0.45593999997E+02  0.45594000000E+02  0.51100000000E-03 0.  1.
         11   -1    0    0    0    0 -0.00000000000E+00 -0.00000000000E+00 -0.45593999997E+02  0.45594000000E+02  0.51100000000E-03 0. -1.
    9900012    2    1    2    0    0  0.34661533285E+02  0.14293165116E+02 -0.21861082032E+02  0.47787269979E+02  0.19999995144E+02 0.  0.
        -12    1    1    2    0    0 -0.34661533285E+02 -0.14293165116E+02  0.21861082032E+02  0.43400730021E+02  0.00000000000E+00 0.  1.
         11    1    3    3    0    0  0.90436504425E+01 -0.94341066581E+00 -0.11044453290E+02  0.14305858441E+02  0.51100000000E-03 0. -1.
        -11    1    3    3    0    0  0.14968081515E+02  0.12390484753E+02 -0.23316274825E+01  0.19570489612E+02  0.51100000000E-03 0.  1.
         12    1    3    3    0    0  0.10649801327E+02  0.28460910287E+01 -0.84850012598E+01  0.13910921926E+02  0.00000000000E+00 0. -1.
</event>
<event>
 7    1  0.2811980E-010  0.4778727E+02  0.7816164E-02  0.1312668E+00
        -11   -1    0    0    0    0  0.00000000000E+00  0.00000000000E+00  0.45593999997E+02  0.45594000000E+02  0.51100000000E-03 0.  1.
         11   -1    0    0    0    0 -0.00000000000E+00 -0.00000000000E+00 -0.45593999997E+02  0.45594000000E+02  0.51100000000E-03 0. -1.
    9900012    2    1    2    0    0 -0.56293587560E+01  0.10037710413E+02 -0.41847077558E+02  0.47787271775E+02  0.20000003329E+02 0.  0.
        -12    1    1    2    0    0  0.56293587560E+01 -0.10037710413E+02  0.41847077558E+02  0.43400728225E+02  0.00000000000E+00 0.  1.
         11    1    3    3    0    0 -0.11711050973E+02  0.25876072128E+01 -0.22547504347E+02  0.25538879743E+02  0.51100000000E-03 0. -1.
        -11    1    3    3    0    0  0.47078307154E+01  0.81119888850E+01 -0.15048275792E+02  0.17731853775E+02  0.51100000000E-03 0.  1.
         12    1    3    3    0    0  0.13738615013E+01 -0.66188568438E+00 -0.42512974189E+01  0.45165382571E+01  0.00000000000E+00 0. -1.
</event>
<event>
 7    1  0.3401905E-010  0.4778727E+02  0.7816164E-02  0.1312668E+00
        -11   -1    0    0    0    0  0.00000000000E+00  0.00000000000E+00  0.45593999997E+02  0.45594000000E+02  0.51100000000E-03 0.  1.
         11   -1    0    0    0    0 -0.00000000000E+00 -0.00000000000E+00 -0.45593999997E+02  0.45594000000E+02  0.51100000000E-03 0. -1.
    9900012    2    1    2    0    0 -0.66774757701E+01 -0.38589268495E+02 -0.18705700401E+02  0.47787267827E+02  0.19999985330E+02 0.  0.
        -12    1    1    2    0    0  0.66774757701E+01  0.38589268495E+02  0.18705700401E+02  0.43400732173E+02  0.00000000000E+00 0.  1.
         11    1    3    3    0    0 -0.67261238448E+01 -0.28888914209E+02 -0.13065882364E+02  0.32411840250E+02  0.51100000000E-03 0. -1.
        -11    1    3    3    0    0 -0.21241663632E+01  0.43720220773E+00  0.16298912737E+01  0.27128904022E+01  0.51100000000E-03 0.  1.
        -12    1    3    3    0    0  0.21728144380E+01 -0.10137556494E+02 -0.72697093108E+01  0.12662537175E+02  0.00000000000E+00 0.  1.
</event>
<event>
 7    1  0.2811980E-010  0.4778727E+02  0.7816164E-02  0.1312668E+00
        -11   -1    0    0    0    0  0.00000000000E+00  0.00000000000E+00  0.45593999997E+02  0.45594000000E+02  0.51100000000E-03 0.  1.
         11   -1    0    0    0    0 -0.00000000000E+00 -0.00000000000E+00 -0.45593999997E+02  0.45594000000E+02  0.51100000000E-03 0. -1.
    9900012    2    1    2    0    0 -0.39976015577E+01  0.33104314464E+01 -0.43089252420E+02  0.47787269030E+02  0.19999990816E+02 0.  0.
        -12    1    1    2    0    0  0.39976015577E+01 -0.33104314464E+01  0.43089252420E+02  0.43400730970E+02  0.00000000000E+00 0.  1.
         11    1    3    3    0    0 -0.19970320628E+00  0.30119595413E+01 -0.10947464124E+02  0.11356000733E+02  0.51100000000E-03 0. -1.
        -11    1    3    3    0    0 -0.10821904905E+01 -0.54647575450E+01 -0.28608943336E+02  0.29146292223E+02  0.51100000000E-03 0.  1.
        -12    1    3    3    0    0 -0.27157078609E+01  0.57632294501E+01 -0.35328449598E+01  0.72849760735E+01  0.00000000000E+00 0.  1.
</event>
<event>
 7    1  0.3212732E-010  0.4778727E+02  0.7816164E-02  0.1312668E+00
        -11   -1    0    0    0    0  0.00000000000E+00  0.00000000000E+00  0.45593999997E+02  0.45594000000E+02  0.51100000000E-03 0.  1.
         11   -1    0    0    0    0 -0.00000000000E+00 -0.00000000000E+00 -0.45593999997E+02  0.45594000000E+02  0.51100000000E-03 0. -1.
    9900012    2    1    2    0    0  0.38869330796E+02 -0.64077336409E+01 -0.18213720044E+02  0.47787268154E+02  0.19999986819E+02 0.  0.
        -12    1    1    2    0    0 -0.38869330796E+02  0.64077336409E+01  0.18213720044E+02  0.43400731846E+02  0.00000000000E+00 0.  1.
         11    1    3    3    0    0  0.24868470026E+02 -0.87606179563E+00 -0.93327358223E+01  0.26576460334E+02  0.51100000000E-03 0. -1.
        -11    1    3    3    0    0  0.71193515798E+01 -0.33863865166E+01 -0.11148541462E+02  0.13654404328E+02  0.51100000000E-03 0.  1.
        -12    1    3    3    0    0  0.68815091904E+01 -0.21452853286E+01  0.22675572408E+01  0.75564034910E+01  0.00000000000E+00 0.  1.
</event>
<event>
 7    1  0.2811980E-010  0.4778725E+02  0.7816164E-02  0.1312668E+00
        -11   -1    0    0    0    0  0.00000000000E+00  0.00000000000E+00  0.45593999997E+02  0.45594000000E+02  0.51100000000E-03 0.  1.
         11   -1    0    0    0    0 -0.00000000000E+00 -0.00000000000E+00 -0.45593999997E+02  0.45594000000E+02  0.51100000000E-03 0. -1.
    9900012    2    1    2    0    0  0.30273132563E+01  0.27193709077E+02 -0.33689209150E+02  0.47787248255E+02  0.19999896092E+02 0.  0.
        -12    1    1    2    0    0 -0.30273132563E+01 -0.27193709077E+02  0.33689209150E+02  0.43400751745E+02  0.00000000000E+00 0.  1.
         11    1    3    3    0    0  0.77338772227E+01  0.11603020356E+02 -0.60373889470E+01  0.15195163831E+02  0.51100000000E-03 0. -1.
        -11    1    3    3    0    0  0.26525849572E+00  0.69753617080E+01 -0.14591051089E+02  0.16174820097E+02  0.51100000000E-03 0.  1.
         12    1    3    3    0    0 -0.49718224622E+01  0.86153270127E+01 -0.13060769114E+02  0.16417264327E+02  0.00000000000E+00 0. -1.
</event>
<event>
 7    1  0.2811980E-010  0.4778727E+02  0.7816164E-02  0.1312668E+00
        -11   -1    0    0    0    0  0.00000000000E+00  0.00000000000E+00  0.45593999997E+02  0.45594000000E+02  0.51100000000E-03 0.  1.
         11   -1    0    0    0    0 -0.00000000000E+00 -0.00000000000E+00 -0.45593999997E+02  0.45594000000E+02  0.51100000000E-03 0. -1.
    9900012    2    1    2    0    0 -0.27176180309E+02  0.17236015814E+02 -0.29120409779E+02  0.47787270939E+02  0.19999999521E+02 0.  0.
        -12    1    1    2    0    0  0.27176180309E+02 -0.17236015814E+02  0.29120409779E+02  0.43400729061E+02  0.00000000000E+00 0.  1.
         11    1    3    3    0    0 -0.58819345183E+01  0.31525265473E+01 -0.95779831664E+01  0.11673617225E+02  0.51100000000E-03 0. -1.
        -11    1    3    3    0    0 -0.14988567853E+02  0.47637705588E+01 -0.19249326923E+02  0.24857338222E+02  0.51100000000E-03 0.  1.
        -12    1    3    3    0    0 -0.63056779371E+01  0.93197187079E+01 -0.29309968925E+00  0.11256315493E+02  0.00000000000E+00 0.  1.
</event>
<event>
 7    1  0.2811980E-010  0.4778726E+02  0.7816164E-02  0.1312668E+00
        -11   -1    0    0    0    0  0.00000000000E+00  0.00000000000E+00  0.45593999997E+02  0.45594000000E+02  0.51100000000E-03 0.  1.
         11   -1    0    0    0    0 -0.00000000000E+00 -0.00000000000E+00 -0.45593999997E+02  0.45594000000E+02  0.51100000000E-03 0. -1.
    9900012    2    1    2    0    0 -0.37131039218E+02  0.10758504088E+01 -0.22444426977E+02  0.47787264640E+02  0.19999970798E+02 0.  0.
        -12    1    1    2    0    0  0.37131039218E+02 -0.10758504088E+01  0.22444426977E+02  0.43400735360E+02  0.00000000000E+00 0.  1.
         11    1    3    3    0    0 -0.16970449312E+02 -0.40627190961E+01 -0.16066385040E+02  0.23719834839E+02  0.51100000000E-03 0. -1.
        -11    1    3    3    0    0 -0.15439444334E+02  0.14849951994E+01 -0.25062417678E+00  0.15512719453E+02  0.51100000000E-03 0.  1.
        -12    1    3    3    0    0 -0.47211455723E+01  0.36535743054E+01 -0.61274177601E+01  0.85547103473E+01  0.00000000000E+00 0.  1.
</event>
<event>
 7    1  0.2811980E-010  0.4778727E+02  0.7816164E-02  0.1312668E+00
        -11   -1    0    0    0    0  0.00000000000E+00  0.00000000000E+00  0.45593999997E+02  0.45594000000E+02  0.51100000000E-03 0. -1.
         11   -1    0    0    0    0 -0.00000000000E+00 -0.00000000000E+00 -0.45593999997E+02  0.45594000000E+02  0.51100000000E-03 0.  1.
    9900012    2    1    2    0    0 -0.19004499933E+02  0.24148838229E+02  0.30647767161E+02  0.47787273768E+02  0.20000012418E+02 0.  0.
        -12    1    1    2    0    0  0.19004499933E+02 -0.24148838229E+02 -0.30647767161E+02  0.43400726232E+02  0.00000000000E+00 0.  1.
         11    1    3    3    0    0 -0.45011678889E+01  0.86787867674E+01  0.22210075650E+02  0.24266629613E+02  0.51100000000E-03 0. -1.
        -11    1    3    3    0    0 -0.93608760111E+01  0.12138368953E+02  0.36829503802E+01  0.15764838226E+02  0.51100000000E-03 0.  1.
         12    1    3    3    0    0 -0.51424560327E+01  0.33316825089E+01  0.47547411304E+01  0.77558059288E+01  0.00000000000E+00 0. -1.
</event>
<event>
 7    1  0.2811980E-010  0.4778728E+02  0.7816164E-02  0.1312668E+00
        -11   -1    0    0    0    0  0.00000000000E+00  0.00000000000E+00  0.45593999997E+02  0.45594000000E+02  0.51100000000E-03 0. -1.
         11   -1    0    0    0    0 -0.00000000000E+00 -0.00000000000E+00 -0.45593999997E+02  0.45594000000E+02  0.51100000000E-03 0.  1.
    9900012    2    1    2    0    0  0.31141229151E+02  0.28274070052E+02  0.10696877178E+02  0.47787281438E+02  0.20000047389E+02 0.  0.
        -12    1    1    2    0    0 -0.31141229151E+02 -0.28274070052E+02 -0.10696877178E+02  0.43400718562E+02  0.00000000000E+00 0.  1.
         11    1    3    3    0    0  0.71031853082E+01  0.49437708789E+01 -0.33808638008E+01  0.92911975722E+01  0.51100000000E-03 0. -1.
        -11    1    3    3    0    0  0.18580027028E+02  0.23895677275E+02  0.12786252968E+02  0.32858926672E+02  0.51100000000E-03 0.  1.
        -12    1    3    3    0    0  0.54580168149E+01 -0.56537810214E+00  0.12914880112E+01  0.56371571943E+01  0.00000000000E+00 0.  1.
</event>
<event>
 7    1  0.2811980E-010  0.4778727E+02  0.7816164E-02  0.1312668E+00
        -11   -1    0    0    0    0  0.00000000000E+00  0.00000000000E+00  0.45593999997E+02  0.45594000000E+02  0.51100000000E-03 0. -1.
         11   -1    0    0    0    0 -0.00000000000E+00 -0.00000000000E+00 -0.45593999997E+02  0.45594000000E+02  0.51100000000E-03 0.  1.
    9900012    2    1    2    0    0 -0.35252794467E+02 -0.24215727333E+02  0.73798544569E+01  0.47787271667E+02  0.20000002838E+02 0.  0.
        -12    1    1    2    0    0  0.35252794467E+02  0.24215727333E+02 -0.73798544569E+01  0.43400728333E+02  0.00000000000E+00 0.  1.
         11    1    3    3    0    0 -0.25053884946E+02 -0.21099258489E+02  0.60847728030E+01  0.33315166517E+02  0.51100000000E-03 0. -1.
        -11    1    3    3    0    0 -0.86663928212E+01  0.18340289077E+01 -0.77390923851E+00  0.88920730055E+01  0.51100000000E-03 0.  1.
        -12    1    3    3    0    0 -0.15325167000E+01 -0.49504977516E+01  0.20689908924E+01  0.55800321449E+01  0.00000000000E+00 0.  1.
</event>
<event>
 7    1  0.2811980E-010  0.4778727E+02  0.7816164E-02  0.1312668E+00
        -11   -1    0    0    0    0  0.00000000000E+00  0.00000000000E+00  0.45593999997E+02  0.45594000000E+02  0.51100000000E-03 0.  1.
         11   -1    0    0    0    0 -0.00000000000E+00 -0.00000000000E+00 -0.45593999997E+02  0.45594000000E+02  0.51100000000E-03 0. -1.
    9900012    2    1    2    0    0 -0.40245282241E+01 -0.22576762290E+02 -0.36847203080E+02  0.47787269617E+02  0.19999993493E+02 0.  0.
        -12    1    1    2    0    0  0.40245282241E+01  0.22576762290E+02  0.36847203080E+02  0.43400730383E+02  0.00000000000E+00 0.  1.
         11    1    3    3    0    0 -0.16948133294E+01  0.24095648242E+01 -0.10589483619E+01  0.31304579151E+01  0.51100000000E-03 0. -1.
        -11    1    3    3    0    0 -0.40235726092E+00 -0.10794213919E+02 -0.81620610104E+01  0.13538692171E+02  0.51100000000E-03 0.  1.
         12    1    3    3    0    0 -0.19273576337E+01 -0.14192113195E+02 -0.27626193708E+02  0.31118119531E+02  0.00000000000E+00 0. -1.
</event>
<event>
 7    1  0.2811980E-010  0.4778727E+02  0.7816164E-02  0.1312668E+00
        -11   -1    0    0    0    0  0.00000000000E+00  0.00000000000E+00  0.45593999997E+02  0.45594000000E+02  0.51100000000E-03 0.  1.
         11   -1    0    0    0    0 -0.00000000000E+00 -0.00000000000E+00 -0.45593999997E+02  0.45594000000E+02  0.51100000000E-03 0. -1.
    9900012    2    1    2    0    0  0.15725482843E+02  0.33565791425E+02 -0.22575879096E+02  0.47787268652E+02  0.19999989091E+02 0.  0.
        -12    1    1    2    0    0 -0.15725482843E+02 -0.33565791425E+02  0.22575879096E+02  0.43400731348E+02  0.00000000000E+00 0.  1.
         11    1    3    3    0    0  0.32279320393E+01  0.11659130077E+02 -0.12715689286E+02  0.17551171291E+02  0.51100000000E-03 0. -1.
        -11    1    3    3    0    0  0.27432878484E+01  0.66027516730E-01  0.21352798034E+01  0.34769825930E+01  0.51100000000E-03 0.  1.
        -12    1    3    3    0    0  0.97542629550E+01  0.21840633831E+02 -0.11995469613E+02  0.26759114768E+02  0.00000000000E+00 0.  1.
</event>
<event>
 7    1  0.2811980E-010  0.4778727E+02  0.7816164E-02  0.1312668E+00
        -11   -1    0    0    0    0  0.00000000000E+00  0.00000000000E+00  0.45593999997E+02  0.45594000000E+02  0.51100000000E-03 0. -1.
         11   -1    0    0    0    0 -0.00000000000E+00 -0.00000000000E+00 -0.45593999997E+02  0.45594000000E+02  0.51100000000E-03 0.  1.
    9900012    2    1    2    0    0 -0.39545822073E+02 -0.84350807200E+01 -0.15767072129E+02  0.47787271968E+02  0.20000004212E+02 0.  0.
        -12    1    1    2    0    0  0.39545822073E+02  0.84350807200E+01  0.15767072129E+02  0.43400728032E+02  0.00000000000E+00 0.  1.
         11    1    3    3    0    0 -0.28743299198E+02 -0.89316227122E+01 -0.17782433826E+02  0.34959492074E+02  0.51100000000E-03 0. -1.
        -11    1    3    3    0    0 -0.41041853351E+01 -0.28555604040E+01  0.18638602439E+01  0.53359664313E+01  0.51100000000E-03 0.  1.
         12    1    3    3    0    0 -0.66983375396E+01  0.33521023962E+01  0.15150145254E+00  0.74918134627E+01  0.00000000000E+00 0. -1.
</event>
<event>
 7    1  0.3196822E-010  0.4778727E+02  0.7816164E-02  0.1312668E+00
        -11   -1    0    0    0    0  0.00000000000E+00  0.00000000000E+00  0.45593999997E+02  0.45594000000E+02  0.51100000000E-03 0. -1.
         11   -1    0    0    0    0 -0.00000000000E+00 -0.00000000000E+00 -0.45593999997E+02  0.45594000000E+02  0.51100000000E-03 0.  1.
    9900012    2    1    2    0    0 -0.95472173504E+01 -0.11066370074E+02  0.40865745986E+02  0.47787273039E+02  0.20000009094E+02 0.  0.
        -12    1    1    2    0    0  0.95472173504E+01  0.11066370074E+02 -0.40865745986E+02  0.43400726961E+02  0.00000000000E+00 0.  1.
         11    1    3    3    0    0 -0.11511319618E+02 -0.73037473890E+01  0.13434768071E+02  0.19140224624E+02  0.51100000000E-03 0.  1.
        -11    1    3    3    0    0  0.10892743404E+01  0.16357445014E+01  0.14124973953E+02  0.14261033206E+02  0.51100000000E-03 0. -1.
        -12    1    3    3    0    0  0.87482792680E+00 -0.53983671861E+01  0.13306003961E+02  0.14386015209E+02  0.00000000000E+00 0.  1.
</event>
<event>
 7    1  0.2811980E-010  0.4778727E+02  0.7816164E-02  0.1312668E+00
        -11   -1    0    0    0    0  0.00000000000E+00  0.00000000000E+00  0.45593999997E+02  0.45594000000E+02  0.51100000000E-03 0.  1.
         11   -1    0    0    0    0 -0.00000000000E+00 -0.00000000000E+00 -0.45593999997E+02  0.45594000000E+02  0.51100000000E-03 0. -1.
    9900012    2    1    2    0    0  0.86835964872E-01 -0.16626372689E+02 -0.40089644127E+02  0.47787269874E+02  0.19999994661E+02 0.  0.
        -12    1    1    2    0    0 -0.86835964872E-01  0.16626372689E+02  0.40089644127E+02  0.43400730126E+02  0.00000000000E+00 0.  1.
         11    1    3    3    0    0 -0.45453681717E+01 -0.49534793365E+01 -0.47962977310E+01  0.82584382022E+01  0.51100000000E-03 0. -1.
        -11    1    3    3    0    0  0.79342161467E+01 -0.96298483334E+01 -0.18653199195E+02  0.22441648898E+02  0.51100000000E-03 0.  1.
        -12    1    3    3    0    0 -0.33020120101E+01 -0.20430450193E+01 -0.16640147201E+02  0.17087182773E+02  0.00000000000E+00 0.  1.
</event>
<event>
 7    1  0.2811980E-010  0.4778726E+02  0.7816164E-02  0.1312668E+00
        -11   -1    0    0    0    0  0.00000000000E+00  0.00000000000E+00  0.45593999997E+02  0.45594000000E+02  0.51100000000E-03 0.  1.
         11   -1    0    0    0    0 -0.00000000000E+00 -0.00000000000E+00 -0.45593999997E+02  0.45594000000E+02  0.51100000000E-03 0. -1.
    9900012    2    1    2    0    0 -0.82227775837E+00 -0.27047954801E+02 -0.33931638049E+02  0.47787261984E+02  0.19999958689E+02 0.  0.
        -12    1    1    2    0    0  0.82227775837E+00  0.27047954801E+02  0.33931638049E+02  0.43400738016E+02  0.00000000000E+00 0.  1.
         11    1    3    3    0    0 -0.66020049923E+00 -0.28324014568E+02 -0.27786678796E+02  0.39683563156E+02  0.51100000000E-03 0. -1.
        -11    1    3    3    0    0 -0.81058050023E+00  0.15628386015E+01 -0.68685514058E+01  0.70905926351E+01  0.51100000000E-03 0.  1.
        -12    1    3    3    0    0  0.64850324109E+00 -0.28677883475E+00  0.72359215309E+00  0.10131061927E+01  0.00000000000E+00 0.  1.
</event>
<event>
 7    1  0.2811980E-010  0.4778727E+02  0.7816164E-02  0.1312668E+00
        -11   -1    0    0    0    0  0.00000000000E+00  0.00000000000E+00  0.45593999997E+02  0.45594000000E+02  0.51100000000E-03 0.  1.
         11   -1    0    0    0    0 -0.00000000000E+00 -0.00000000000E+00 -0.45593999997E+02  0.45594000000E+02  0.51100000000E-03 0. -1.
    9900012    2    1    2    0    0 -0.62227631213E+01 -0.33054688092E+02 -0.27427868062E+02  0.47787272677E+02  0.20000007444E+02 0.  0.
        -12    1    1    2    0    0  0.62227631213E+01  0.33054688092E+02  0.27427868062E+02  0.43400727323E+02  0.00000000000E+00 0.  1.
         11    1    3    3    0    0 -0.34101761287E+01 -0.22654313238E+02 -0.77865983831E+01  0.24196659359E+02  0.51100000000E-03 0. -1.
        -11    1    3    3    0    0  0.65340998984E+00  0.38164214680E+00  0.16545708413E+00  0.77457836973E+00  0.51100000000E-03 0.  1.
         12    1    3    3    0    0 -0.34659969824E+01 -0.10782017001E+02 -0.19806726763E+02  0.22816034948E+02  0.00000000000E+00 0. -1.
</event>
<event>
 7    1  0.2811980E-010  0.4778724E+02  0.7816164E-02  0.1312668E+00
        -11   -1    0    0    0    0  0.00000000000E+00  0.00000000000E+00  0.45593999997E+02  0.45594000000E+02  0.51100000000E-03 0. -1.
         11   -1    0    0    0    0 -0.00000000000E+00 -0.00000000000E+00 -0.45593999997E+02  0.45594000000E+02  0.51100000000E-03 0.  1.
    9900012    2    1    2    0    0 -0.26748325131E+02 -0.25889740269E+02  0.22313107171E+02  0.47787236181E+02  0.19999841042E+02 0.  0.
        -12    1    1    2    0    0  0.26748325131E+02  0.25889740269E+02 -0.22313107171E+02  0.43400763819E+02  0.00000000000E+00 0.  1.
         11    1    3    3    0    0 -0.17752446431E+01 -0.41945081106E+01  0.68447524199E+01  0.82216803504E+01  0.51100000000E-03 0. -1.
        -11    1    3    3    0    0 -0.35859660559E+01  0.18197520472E+01 -0.39529273056E+00  0.40406567129E+01  0.51100000000E-03 0.  1.
        -12    1    3    3    0    0 -0.21387114432E+02 -0.23514984205E+02  0.15863647481E+02  0.35524899118E+02  0.00000000000E+00 0.  1.
</event>
<event>
 7    1  0.2811980E-010  0.4778728E+02  0.7816164E-02  0.1312668E+00
        -11   -1    0    0    0    0  0.00000000000E+00  0.00000000000E+00  0.45593999997E+02  0.45594000000E+02  0.51100000000E-03 0.  1.
         11   -1    0    0    0    0 -0.00000000000E+00 -0.00000000000E+00 -0.45593999997E+02  0.45594000000E+02  0.51100000000E-03 0. -1.
    9900012    2    1    2    0    0  0.25340255957E+02  0.20319584198E+02 -0.28785559064E+02  0.47787280137E+02  0.20000041458E+02 0.  0.
        -12    1    1    2    0    0 -0.25340255957E+02 -0.20319584198E+02  0.28785559064E+02  0.43400719863E+02  0.00000000000E+00 0.  1.
         11    1    3    3    0    0  0.18286697691E+01  0.37333765629E+01 -0.10976199351E+02  0.11737081670E+02  0.51100000000E-03 0. -1.
        -11    1    3    3    0    0  0.20785770926E+02  0.18593027080E+02 -0.15094456535E+02  0.31711063485E+02  0.51100000000E-03 0.  1.
        -12    1    3    3    0    0  0.27258152621E+01 -0.20068194448E+01 -0.27149031783E+01  0.43391349823E+01  0.00000000000E+00 0.  1.
</event>
<event>
 7    1  0.2811980E-010  0.4778727E+02  0.7816164E-02  0.1312668E+00
        -11   -1    0    0    0    0  0.00000000000E+00  0.00000000000E+00  0.45593999997E+02  0.45594000000E+02  0.51100000000E-03 0.  1.
         11   -1    0    0    0    0 -0.00000000000E+00 -0.00000000000E+00 -0.45593999997E+02  0.45594000000E+02  0.51100000000E-03 0. -1.
    9900012    2    1    2    0    0 -0.36941054869E+01 -0.21188061340E+02 -0.37696723847E+02  0.47787270196E+02  0.19999996131E+02 0.  0.
        -12    1    1    2    0    0  0.36941054869E+01  0.21188061340E+02  0.37696723847E+02  0.43400729804E+02  0.00000000000E+00 0.  1.
         11    1    3    3    0    0  0.21494583449E+01 -0.13749167543E+02 -0.21068170581E+02  0.25249308727E+02  0.51100000000E-03 0. -1.
        -11    1    3    3    0    0 -0.90856750799E+01 -0.37856678507E+01 -0.82653280752E+01  0.12852875989E+02  0.51100000000E-03 0.  1.
        -12    1    3    3    0    0  0.32421112480E+01 -0.36532259469E+01 -0.83632251908E+01  0.96850854801E+01  0.00000000000E+00 0.  1.
</event>
<event>
 7    1  0.2811980E-010  0.4778726E+02  0.7816164E-02  0.1312668E+00
        -11   -1    0    0    0    0  0.00000000000E+00  0.00000000000E+00  0.45593999997E+02  0.45594000000E+02  0.51100000000E-03 0.  1.
         11   -1    0    0    0    0 -0.00000000000E+00 -0.00000000000E+00 -0.45593999997E+02  0.45594000000E+02  0.51100000000E-03 0. -1.
    9900012    2    1    2    0    0 -0.36503306489E+02 -0.16414813535E+02  0.16783528576E+02  0.47787258999E+02  0.19999945079E+02 0.  0.
        -12    1    1    2    0    0  0.36503306489E+02  0.16414813535E+02 -0.16783528576E+02  0.43400741001E+02  0.00000000000E+00 0.  1.
         11    1    3    3    0    0 -0.94570746860E+01 -0.27224492543E+01 -0.15016123258E+01  0.99550405021E+01  0.51100000000E-03 0. -1.
        -11    1    3    3    0    0 -0.18579606665E+02 -0.15382264942E+02  0.15847621564E+02  0.28861097832E+02  0.51100000000E-03 0.  1.
         12    1    3    3    0    0 -0.84666251370E+01  0.16899006607E+01  0.24375193378E+01  0.89711206645E+01  0.00000000000E+00 0. -1.
</event>
<event>
 7    1  0.2811980E-010  0.4778729E+02  0.7816164E-02  0.1312668E+00
        -11   -1    0    0    0    0  0.00000000000E+00  0.00000000000E+00  0.45593999997E+02  0.45594000000E+02  0.51100000000E-03 0. -1.
         11   -1    0    0    0    0 -0.00000000000E+00 -0.00000000000E+00 -0.45593999997E+02  0.45594000000E+02  0.51100000000E-03 0.  1.
    9900012    2    1    2    0    0 -0.10730091506E+02  0.14701821352E+02  0.39399784993E+02  0.47787291800E+02  0.20000094630E+02 0.  0.
        -12    1    1    2    0    0  0.10730091506E+02 -0.14701821352E+02 -0.39399784993E+02  0.43400708200E+02  0.00000000000E+00 0.  1.
         11    1    3    3    0    0  0.41118382112E+01  0.34736434239E+01  0.18393144021E+02  0.19164580855E+02  0.51100000000E-03 0. -1.
        -11    1    3    3    0    0 -0.10466117644E+02  0.10599792403E+02  0.14762028143E+02  0.20971711725E+02  0.51100000000E-03 0.  1.
        -12    1    3    3    0    0 -0.43758120728E+01  0.62838552510E+00  0.62446128295E+01  0.76509992194E+01  0.00000000000E+00 0.  1.
</event>
<event>
 7    1  0.2811980E-010  0.4778727E+02  0.7816164E-02  0.1312668E+00
        -11   -1    0    0    0    0  0.00000000000E+00  0.00000000000E+00  0.45593999997E+02  0.45594000000E+02  0.51100000000E-03 0.  1.
         11   -1    0    0    0    0 -0.00000000000E+00 -0.00000000000E+00 -0.45593999997E+02  0.45594000000E+02  0.51100000000E-03 0. -1.
    9900012    2    1    2    0    0  0.21707542288E+02  0.31541919335E+02  0.20433138828E+02  0.47787271551E+02  0.20000002310E+02 0.  0.
        -12    1    1    2    0    0 -0.21707542288E+02 -0.31541919335E+02 -0.20433138828E+02  0.43400728449E+02  0.00000000000E+00 0.  1.
         11    1    3    3    0    0  0.30886225347E+01  0.17088407052E+02  0.53797601828E+01  0.18179523223E+02  0.51100000000E-03 0. -1.
        -11    1    3    3    0    0  0.13852256689E+02  0.53320084368E+01  0.64105141072E+01  0.16168179265E+02  0.51100000000E-03 0.  1.
         12    1    3    3    0    0  0.47666630642E+01  0.91215038465E+01  0.86428645378E+01  0.13439569063E+02  0.00000000000E+00 0. -1.
</event>
<event>
 7    1  0.2811980E-010  0.4778727E+02  0.7816164E-02  0.1312668E+00
        -11   -1    0    0    0    0  0.00000000000E+00  0.00000000000E+00  0.45593999997E+02  0.45594000000E+02  0.51100000000E-03 0. -1.
         11   -1    0    0    0    0 -0.00000000000E+00 -0.00000000000E+00 -0.45593999997E+02  0.45594000000E+02  0.51100000000E-03 0.  1.
    9900012    2    1    2    0    0 -0.11704319519E+02 -0.30314579850E+02  0.28769050154E+02  0.47787273121E+02  0.20000009468E+02 0.  0.
        -12    1    1    2    0    0  0.11704319519E+02  0.30314579850E+02 -0.28769050154E+02  0.43400726879E+02  0.00000000000E+00 0.  1.
         11    1    3    3    0    0  0.25829866735E+01 -0.10454320940E+02  0.11774080220E+02  0.15955989839E+02  0.51100000000E-03 0. -1.
        -11    1    3    3    0    0 -0.10913674408E+02 -0.18219997859E+02  0.91305791284E+01  0.23118046772E+02  0.51100000000E-03 0.  1.
        -12    1    3    3    0    0 -0.33736317843E+01 -0.16402610508E+01  0.78643908057E+01  0.87132365098E+01  0.00000000000E+00 0.  1.
</event>
<event>
 7    1  0.2811980E-010  0.4778727E+02  0.7816164E-02  0.1312668E+00
        -11   -1    0    0    0    0  0.00000000000E+00  0.00000000000E+00  0.45593999997E+02  0.45594000000E+02  0.51100000000E-03 0. -1.
         11   -1    0    0    0    0 -0.00000000000E+00 -0.00000000000E+00 -0.45593999997E+02  0.45594000000E+02  0.51100000000E-03 0.  1.
    9900012    2    1    2    0    0  0.43207782839E+02  0.32949422020E+01  0.24195586485E+01  0.47787269522E+02  0.19999993056E+02 0.  0.
        -12    1    1    2    0    0 -0.43207782839E+02 -0.32949422020E+01 -0.24195586485E+01  0.43400730478E+02  0.00000000000E+00 0.  1.
         11    1    3    3    0    0  0.82391643875E+01 -0.13334861829E+01  0.32712955875E+01  0.89645630282E+01  0.51100000000E-03 0. -1.
        -11    1    3    3    0    0 -0.12986361909E+01 -0.15503961092E+01 -0.10970040519E+00  0.20253934165E+01  0.51100000000E-03 0.  1.
        -12    1    3    3    0    0  0.36267254643E+02  0.61788244941E+01 -0.74203653388E+00  0.36797313077E+02  0.00000000000E+00 0.  1.
</event>
<event>
 7    1  0.2811980E-010  0.4778728E+02  0.7816164E-02  0.1312668E+00
        -11   -1    0    0    0    0  0.00000000000E+00  0.00000000000E+00  0.45593999997E+02  0.45594000000E+02  0.51100000000E-03 0.  1.
         11   -1    0    0    0    0 -0.00000000000E+00 -0.00000000000E+00 -0.45593999997E+02  0.45594000000E+02  0.51100000000E-03 0. -1.
    9900012    2    1    2    0    0  0.20080555560E+02  0.32870563446E+02 -0.19998006184E+02  0.47787275304E+02  0.20000019420E+02 0.  0.
        -12    1    1    2    0    0 -0.20080555560E+02 -0.32870563446E+02  0.19998006184E+02  0.43400724696E+02  0.00000000000E+00 0.  1.
         11    1    3    3    0    0  0.10643017510E+02  0.14497121054E+02  0.10633985640E+01  0.18015858496E+02  0.51100000000E-03 0. -1.
        -11    1    3    3    0    0  0.38155815026E+01  0.10227954226E+02 -0.88524213543E+01  0.14054717142E+02  0.51100000000E-03 0.  1.
         12    1    3    3    0    0  0.56219565467E+01  0.81454881652E+01 -0.12208983394E+02  0.15716699665E+02  0.00000000000E+00 0. -1.
</event>
<event>
 7    1  0.2811980E-010  0.4778727E+02  0.7816164E-02  0.1312668E+00
        -11   -1    0    0    0    0  0.00000000000E+00  0.00000000000E+00  0.45593999997E+02  0.45594000000E+02  0.51100000000E-03 0.  1.
         11   -1    0    0    0    0 -0.00000000000E+00 -0.00000000000E+00 -0.45593999997E+02  0.45594000000E+02  0.51100000000E-03 0. -1.
    9900012    2    1    2    0    0  0.21127924838E+02 -0.36442330949E+02 -0.10449443776E+02  0.47787267654E+02  0.19999984541E+02 0.  0.
        -12    1    1    2    0    0 -0.21127924838E+02  0.36442330949E+02  0.10449443776E+02  0.43400732346E+02  0.00000000000E+00 0.  1.
         11    1    3    3    0    0  0.43911488184E+01  0.15622565535E+01  0.78136790752E+00  0.47258194583E+01  0.51100000000E-03 0. -1.
        -11    1    3    3    0    0  0.43331302469E+01 -0.10993335866E+02 -0.39558692838E+01  0.12461073519E+02  0.51100000000E-03 0.  1.
         12    1    3    3    0    0  0.12403645773E+02 -0.27011251636E+02 -0.72749423999E+01  0.30600374676E+02  0.00000000000E+00 0. -1.
</event>
<event>
 7    1  0.2811980E-010  0.4778728E+02  0.7816164E-02  0.1312668E+00
        -11   -1    0    0    0    0  0.00000000000E+00  0.00000000000E+00  0.45593999997E+02  0.45594000000E+02  0.51100000000E-03 0.  1.
         11   -1    0    0    0    0 -0.00000000000E+00 -0.00000000000E+00 -0.45593999997E+02  0.45594000000E+02  0.51100000000E-03 0. -1.
    9900012    2    1    2    0    0 -0.32354659192E+02 -0.26904692087E+02 -0.10627157146E+02  0.47787275389E+02  0.20000019810E+02 0.  0.
        -12    1    1    2    0    0  0.32354659192E+02  0.26904692087E+02  0.10627157146E+02  0.43400724611E+02  0.00000000000E+00 0.  1.
         11    1    3    3    0    0 -0.30965834580E+02 -0.23817754428E+02 -0.14606760607E+02  0.41707622720E+02  0.51100000000E-03 0. -1.
        -11    1    3    3    0    0 -0.12045133735E+01 -0.27131849364E+00  0.27249753156E+01  0.29916478609E+01  0.51100000000E-03 0.  1.
        -12    1    3    3    0    0 -0.18431123807E+00 -0.28156191652E+01  0.12546281451E+01  0.30880048086E+01  0.00000000000E+00 0.  1.
</event>
<event>
 7    1  0.2811980E-010  0.4778727E+02  0.7816164E-02  0.1312668E+00
        -11   -1    0    0    0    0  0.00000000000E+00  0.00000000000E+00  0.45593999997E+02  0.45594000000E+02  0.51100000000E-03 0. -1.
         11   -1    0    0    0    0 -0.00000000000E+00 -0.00000000000E+00 -0.45593999997E+02  0.45594000000E+02  0.51100000000E-03 0.  1.
    9900012    2    1    2    0    0  0.30520616513E+02  0.23899899901E+02 -0.19516918776E+02  0.47787269981E+02  0.19999995152E+02 0.  0.
        -12    1    1    2    0    0 -0.30520616513E+02 -0.23899899901E+02  0.19516918776E+02  0.43400730019E+02  0.00000000000E+00 0.  1.
         11    1    3    3    0    0  0.86435285195E+01  0.60039198207E+01 -0.12774882527E+02  0.16551593951E+02  0.51100000000E-03 0. -1.
        -11    1    3    3    0    0  0.19862398099E+02  0.19526445199E+02 -0.56353580063E+01  0.28417497788E+02  0.51100000000E-03 0.  1.
        -12    1    3    3    0    0  0.20146898947E+01 -0.16304651187E+01 -0.11066782428E+01  0.28181782428E+01  0.00000000000E+00 0.  1.
</event>
<event>
 7    1  0.2811980E-010  0.4778728E+02  0.7816164E-02  0.1312668E+00
        -11   -1    0    0    0    0  0.00000000000E+00  0.00000000000E+00  0.45593999997E+02  0.45594000000E+02  0.51100000000E-03 0.  1.
         11   -1    0    0    0    0 -0.00000000000E+00 -0.00000000000E+00 -0.45593999997E+02  0.45594000000E+02  0.51100000000E-03 0. -1.
    9900012    2    1    2    0    0 -0.13315608325E+02 -0.36645773780E+02 -0.19063160270E+02  0.47787282950E+02  0.20000054280E+02 0.  0.
        -12    1    1    2    0    0  0.13315608325E+02  0.36645773780E+02  0.19063160270E+02  0.43400717050E+02  0.00000000000E+00 0.  1.
         11    1    3    3    0    0 -0.11176802224E+02 -0.23682766700E+02 -0.10089476081E+02  0.28064067317E+02  0.51100000000E-03 0. -1.
        -11    1    3    3    0    0  0.24578501459E+01  0.11548255710E+01 -0.14473427307E+01  0.30772472569E+01  0.51100000000E-03 0.  1.
         12    1    3    3    0    0 -0.45966562469E+01 -0.14117832651E+02 -0.75263414576E+01  0.16645968376E+02  0.00000000000E+00 0. -1.
</event>
<event>
 7    1  0.2811980E-010  0.4778727E+02  0.7816164E-02  0.1312668E+00
        -11   -1    0    0    0    0  0.00000000000E+00  0.00000000000E+00  0.45593999997E+02  0.45594000000E+02  0.51100000000E-03 0. -1.
         11   -1    0    0    0    0 -0.00000000000E+00 -0.00000000000E+00 -0.45593999997E+02  0.45594000000E+02  0.51100000000E-03 0.  1.
    9900012    2    1    2    0    0  0.35530271748E+02  0.15370711304E+02  0.19620507235E+02  0.47787270967E+02  0.19999999646E+02 0.  0.
        -12    1    1    2    0    0 -0.35530271748E+02 -0.15370711304E+02 -0.19620507235E+02  0.43400729033E+02  0.00000000000E+00 0.  1.
         11    1    3    3    0    0 -0.90514515548E+00  0.46279624566E+01  0.50760460019E+00  0.47428880382E+01  0.51100000000E-03 0. -1.
        -11    1    3    3    0    0  0.45548073050E+01 -0.61980230555E+00  0.11973966356E+01  0.47501772017E+01  0.51100000000E-03 0.  1.
         12    1    3    3    0    0  0.31880609598E+02  0.11362551153E+02  0.17915505999E+02  0.38294205727E+02  0.00000000000E+00 0. -1.
</event>
<event>
 7    1  0.2811980E-010  0.4778727E+02  0.7816164E-02  0.1312668E+00
        -11   -1    0    0    0    0  0.00000000000E+00  0.00000000000E+00  0.45593999997E+02  0.45594000000E+02  0.51100000000E-03 0.  1.
         11   -1    0    0    0    0 -0.00000000000E+00 -0.00000000000E+00 -0.45593999997E+02  0.45594000000E+02  0.51100000000E-03 0. -1.
    9900012    2    1    2    0    0  0.21849750857E+01  0.41752878338E+02 -0.11642436141E+02  0.47787270918E+02  0.19999999422E+02 0.  0.
        -12    1    1    2    0    0 -0.21849750857E+01 -0.41752878338E+02  0.11642436141E+02  0.43400729082E+02  0.00000000000E+00 0.  1.
         11    1    3    3    0    0  0.49327823372E+01  0.12756809264E+02  0.65315993455E+00  0.13692886560E+02  0.51100000000E-03 0. -1.
        -11    1    3    3    0    0  0.70232297985E+00  0.10907335173E+02 -0.11196365276E+02  0.15646782858E+02  0.51100000000E-03 0.  1.
        -12    1    3    3    0    0 -0.34501302314E+01  0.18088733901E+02 -0.10992307990E+01  0.18447601500E+02  0.00000000000E+00 0.  1.
</event>
<event>
 7    1  0.2811980E-010  0.4778727E+02  0.7816164E-02  0.1312668E+00
        -11   -1    0    0    0    0  0.00000000000E+00  0.00000000000E+00  0.45593999997E+02  0.45594000000E+02  0.51100000000E-03 0.  1.
         11   -1    0    0    0    0 -0.00000000000E+00 -0.00000000000E+00 -0.45593999997E+02  0.45594000000E+02  0.51100000000E-03 0. -1.
    9900012    2    1    2    0    0 -0.38933283442E+02 -0.17416548691E+02 -0.80303511022E+01  0.47787271127E+02  0.20000000376E+02 0.  0.
        -12    1    1    2    0    0  0.38933283442E+02  0.17416548691E+02  0.80303511022E+01  0.43400728873E+02  0.00000000000E+00 0.  1.
         11    1    3    3    0    0 -0.17771820239E+02 -0.42486418445E+01 -0.55838609370E-01  0.18272702875E+02  0.51100000000E-03 0. -1.
        -11    1    3    3    0    0 -0.77502143914E+00 -0.67657431099E+01 -0.32223784038E+00  0.68176077583E+01  0.51100000000E-03 0.  1.
        -12    1    3    3    0    0 -0.20386441763E+02 -0.64021637372E+01 -0.76522746525E+01  0.22696960494E+02  0.00000000000E+00 0.  1.
</event>
<event>
 7    1  0.2811980E-010  0.4778727E+02  0.7816164E-02  0.1312668E+00
        -11   -1    0    0    0    0  0.00000000000E+00  0.00000000000E+00  0.45593999997E+02  0.45594000000E+02  0.51100000000E-03 0. -1.
         11   -1    0    0    0    0 -0.00000000000E+00 -0.00000000000E+00 -0.45593999997E+02  0.45594000000E+02  0.51100000000E-03 0.  1.
    9900012    2    1    2    0    0  0.23166429834E+02  0.21042498052E+02  0.30069136357E+02  0.47787272394E+02  0.20000006153E+02 0.  0.
        -12    1    1    2    0    0 -0.23166429834E+02 -0.21042498052E+02 -0.30069136357E+02  0.43400727606E+02  0.00000000000E+00 0.  1.
         11    1    3    3    0    0  0.68432589054E+01  0.18436612685E+02  0.14459753527E+02  0.24409493073E+02  0.51100000000E-03 0. -1.
        -11    1    3    3    0    0  0.92268725319E+01 -0.26449051081E+00  0.11308304851E+02  0.14597359036E+02  0.51100000000E-03 0.  1.
         12    1    3    3    0    0  0.70962983969E+01  0.28703758777E+01  0.43010779782E+01  0.87804202856E+01  0.00000000000E+00 0. -1.
</event>
<event>
 7    1  0.2811980E-010  0.4778727E+02  0.7816164E-02  0.1312668E+00
        -11   -1    0    0    0    0  0.00000000000E+00  0.00000000000E+00  0.45593999997E+02  0.45594000000E+02  0.51100000000E-03 0.  1.
         11   -1    0    0    0    0 -0.00000000000E+00 -0.00000000000E+00 -0.45593999997E+02  0.45594000000E+02  0.51100000000E-03 0. -1.
    9900012    2    1    2    0    0 -0.41029326697E+02 -0.25248811001E+01 -0.13922735202E+02  0.47787271558E+02  0.20000002344E+02 0.  0.
        -12    1    1    2    0    0  0.41029326697E+02  0.25248811001E+01  0.13922735202E+02  0.43400728442E+02  0.00000000000E+00 0.  1.
         11    1    3    3    0    0 -0.11007850855E+02  0.69473630819E+01 -0.12598995849E+01  0.13077690219E+02  0.51100000000E-03 0. -1.
        -11    1    3    3    0    0 -0.40699702579E+01 -0.17785031093E+01  0.74376779608E+00  0.45034344677E+01  0.51100000000E-03 0.  1.
         12    1    3    3    0    0 -0.25951505584E+02 -0.76937410727E+01 -0.13406603413E+02  0.30206146872E+02  0.00000000000E+00 0. -1.
</event>
<event>
 7    1  0.2811980E-010  0.4778727E+02  0.7816164E-02  0.1312668E+00
        -11   -1    0    0    0    0  0.00000000000E+00  0.00000000000E+00  0.45593999997E+02  0.45594000000E+02  0.51100000000E-03 0.  1.
         11   -1    0    0    0    0 -0.00000000000E+00 -0.00000000000E+00 -0.45593999997E+02  0.45594000000E+02  0.51100000000E-03 0. -1.
    9900012    2    1    2    0    0  0.24900547094E+02 -0.35429512053E+02 -0.28871440078E+01  0.47787272237E+02  0.20000005436E+02 0.  0.
        -12    1    1    2    0    0 -0.24900547094E+02  0.35429512053E+02  0.28871440078E+01  0.43400727763E+02  0.00000000000E+00 0.  1.
         11    1    3    3    0    0  0.11576525218E+02 -0.18337469819E+02  0.71510105208E+01  0.22834528399E+02  0.51100000000E-03 0. -1.
        -11    1    3    3    0    0  0.23868073067E+01 -0.69738929393E+01 -0.78281466008E+00  0.74124780540E+01  0.51100000000E-03 0.  1.
         12    1    3    3    0    0  0.10937214568E+02 -0.10118149295E+02 -0.92553398685E+01  0.17540265783E+02  0.00000000000E+00 0. -1.
</event>
<event>
 7    1  0.2811980E-010  0.4778727E+02  0.7816164E-02  0.1312668E+00
        -11   -1    0    0    0    0  0.00000000000E+00  0.00000000000E+00  0.45593999997E+02  0.45594000000E+02  0.51100000000E-03 0.  1.
         11   -1    0    0    0    0 -0.00000000000E+00 -0.00000000000E+00 -0.45593999997E+02  0.45594000000E+02  0.51100000000E-03 0. -1.
    9900012    2    1    2    0    0 -0.27333915565E+02 -0.51749419094E+01 -0.33312166280E+02  0.47787269751E+02  0.19999994104E+02 0.  0.
        -12    1    1    2    0    0  0.27333915565E+02  0.51749419094E+01  0.33312166280E+02  0.43400730249E+02  0.00000000000E+00 0.  1.
         11    1    3    3    0    0 -0.20653483000E+02 -0.35613153383E+01 -0.34791384862E+02  0.40616373396E+02  0.51100000000E-03 0. -1.
        -11    1    3    3    0    0 -0.47654072491E+01 -0.62760911794E+00  0.14360690864E+01  0.50165021815E+01  0.51100000000E-03 0.  1.
         12    1    3    3    0    0 -0.19150253154E+01 -0.98601745309E+00  0.43149496037E-01  0.21543941736E+01  0.00000000000E+00 0. -1.
</event>
<event>
 7    1  0.2811980E-010  0.4778727E+02  0.7816164E-02  0.1312668E+00
        -11   -1    0    0    0    0  0.00000000000E+00  0.00000000000E+00  0.45593999997E+02  0.45594000000E+02  0.51100000000E-03 0. -1.
         11   -1    0    0    0    0 -0.00000000000E+00 -0.00000000000E+00 -0.45593999997E+02  0.45594000000E+02  0.51100000000E-03 0.  1.
    9900012    2    1    2    0    0 -0.24874198009E+02 -0.27102729561E+02  0.23029104777E+02  0.47787270247E+02  0.19999996365E+02 0.  0.
        -12    1    1    2    0    0  0.24874198009E+02  0.27102729561E+02 -0.23029104777E+02  0.43400729753E+02  0.00000000000E+00 0.  1.
         11    1    3    3    0    0 -0.16490565681E+02 -0.16918604556E+02  0.17413860904E+02  0.29349965731E+02  0.51100000000E-03 0. -1.
        -11    1    3    3    0    0  0.24789142148E+01 -0.81090710817E+00  0.27806490206E+01  0.38124264268E+01  0.51100000000E-03 0.  1.
         12    1    3    3    0    0 -0.10862546543E+02 -0.93732178968E+01  0.28345948524E+01  0.14624878089E+02  0.00000000000E+00 0. -1.
</event>
<event>
 7    1  0.2811980E-010  0.4778727E+02  0.7816164E-02  0.1312668E+00
        -11   -1    0    0    0    0  0.00000000000E+00  0.00000000000E+00  0.45593999997E+02  0.45594000000E+02  0.51100000000E-03 0.  1.
         11   -1    0    0    0    0 -0.00000000000E+00 -0.00000000000E+00 -0.45593999997E+02  0.45594000000E+02  0.51100000000E-03 0. -1.
    9900012    2    1    2    0    0  0.19303640473E+02  0.20659609405E+01 -0.38816552628E+02  0.47787268577E+02  0.19999988751E+02 0.  0.
        -12    1    1    2    0    0 -0.19303640473E+02 -0.20659609405E+01  0.38816552628E+02  0.43400731423E+02  0.00000000000E+00 0.  1.
         11    1    3    3    0    0  0.75335365246E+01  0.38107553222E+01 -0.72268042531E+01  0.11113178153E+02  0.51100000000E-03 0. -1.
        -11    1    3    3    0    0 -0.79099743279E+00 -0.54297261690E+01 -0.10622604568E+02  0.11956058350E+02  0.51100000000E-03 0.  1.
        -12    1    3    3    0    0  0.12561101381E+02  0.36849317873E+01 -0.20967143807E+02  0.24718032074E+02  0.00000000000E+00 0.  1.
</event>
<event>
 7    1  0.2811980E-010  0.4778727E+02  0.7816164E-02  0.1312668E+00
        -11   -1    0    0    0    0  0.00000000000E+00  0.00000000000E+00  0.45593999997E+02  0.45594000000E+02  0.51100000000E-03 0.  1.
         11   -1    0    0    0    0 -0.00000000000E+00 -0.00000000000E+00 -0.45593999997E+02  0.45594000000E+02  0.51100000000E-03 0. -1.
    9900012    2    1    2    0    0  0.23273862067E+02  0.23737258466E+02 -0.27901492399E+02  0.47787269902E+02  0.19999994790E+02 0.  0.
        -12    1    1    2    0    0 -0.23273862067E+02 -0.23737258466E+02  0.27901492399E+02  0.43400730098E+02  0.00000000000E+00 0.  1.
         11    1    3    3    0    0  0.19364232818E+02  0.10134329351E+02 -0.20000502779E+02  0.29625972654E+02  0.51100000000E-03 0. -1.
        -11    1    3    3    0    0 -0.13225015031E+01  0.34163689113E+00  0.67588928515E+00  0.15239923156E+01  0.51100000000E-03 0.  1.
         12    1    3    3    0    0  0.52321307518E+01  0.13261292224E+02 -0.85768789047E+01  0.16637304932E+02  0.00000000000E+00 0. -1.
</event>
<event>
 7    1  0.2811980E-010  0.4778727E+02  0.7816164E-02  0.1312668E+00
        -11   -1    0    0    0    0  0.00000000000E+00  0.00000000000E+00  0.45593999997E+02  0.45594000000E+02  0.51100000000E-03 0.  1.
         11   -1    0    0    0    0 -0.00000000000E+00 -0.00000000000E+00 -0.45593999997E+02  0.45594000000E+02  0.51100000000E-03 0. -1.
    9900012    2    1    2    0    0  0.32166602351E+02 -0.14541856910E+02 -0.25248116522E+02  0.47787270776E+02  0.19999998778E+02 0.  0.
        -12    1    1    2    0    0 -0.32166602351E+02  0.14541856910E+02  0.25248116522E+02  0.43400729224E+02  0.00000000000E+00 0.  1.
         11    1    3    3    0    0  0.10714230320E+02 -0.13192409757E+02 -0.12375843892E+02  0.21023698981E+02  0.51100000000E-03 0. -1.
        -11    1    3    3    0    0  0.19437450515E+02 -0.20232723499E+00 -0.73629689229E+01  0.20786263023E+02  0.51100000000E-03 0.  1.
        -12    1    3    3    0    0  0.20149215160E+01 -0.11471199180E+01 -0.55093037070E+01  0.59773087722E+01  0.00000000000E+00 0.  1.
</event>
<event>
 7    1  0.2811980E-010  0.4778727E+02  0.7816164E-02  0.1312668E+00
        -11   -1    0    0    0    0  0.00000000000E+00  0.00000000000E+00  0.45593999997E+02  0.45594000000E+02  0.51100000000E-03 0.  1.
         11   -1    0    0    0    0 -0.00000000000E+00 -0.00000000000E+00 -0.45593999997E+02  0.45594000000E+02  0.51100000000E-03 0. -1.
    9900012    2    1    2    0    0  0.29718596954E+01  0.11984474081E+02 -0.41607253614E+02  0.47787272790E+02  0.20000007957E+02 0.  0.
        -12    1    1    2    0    0 -0.29718596954E+01 -0.11984474081E+02  0.41607253614E+02  0.43400727210E+02  0.00000000000E+00 0.  1.
         11    1    3    3    0    0 -0.20849465514E+01  0.13349437471E+02 -0.28381212169E+02  0.31433225850E+02  0.51100000000E-03 0. -1.
        -11    1    3    3    0    0  0.61799127864E+01 -0.16902977323E+01 -0.13675064069E+02  0.15101516680E+02  0.51100000000E-03 0.  1.
         12    1    3    3    0    0 -0.11231065396E+01  0.32533434258E+00  0.44902262395E+00  0.12525302593E+01  0.00000000000E+00 0. -1.
</event>
<event>
 7    1  0.2811980E-010  0.4778728E+02  0.7816164E-02  0.1312668E+00
        -11   -1    0    0    0    0  0.00000000000E+00  0.00000000000E+00  0.45593999997E+02  0.45594000000E+02  0.51100000000E-03 0. -1.
         11   -1    0    0    0    0 -0.00000000000E+00 -0.00000000000E+00 -0.45593999997E+02  0.45594000000E+02  0.51100000000E-03 0.  1.
    9900012    2    1    2    0    0 -0.10859164691E+02 -0.14207667061E+02  0.39545462087E+02  0.47787276126E+02  0.20000023169E+02 0.  0.
        -12    1    1    2    0    0  0.10859164691E+02  0.14207667061E+02 -0.39545462087E+02  0.43400723874E+02  0.00000000000E+00 0.  1.
         11    1    3    3    0    0 -0.28489257854E+01 -0.97105485812E+01  0.31133140877E+02  0.32736578823E+02  0.51100000000E-03 0. -1.
        -11    1    3    3    0    0 -0.51748079028E+01  0.17942820579E+01  0.46858176342E+01  0.72079797513E+01  0.51100000000E-03 0.  1.
         12    1    3    3    0    0 -0.28354310030E+01 -0.62914005380E+01  0.37265035757E+01  0.78427175521E+01  0.00000000000E+00 0. -1.
</event>
<event>
 7    1  0.2811980E-010  0.4778727E+02  0.7816164E-02  0.1312668E+00
        -11   -1    0    0    0    0  0.00000000000E+00  0.00000000000E+00  0.45593999997E+02  0.45594000000E+02  0.51100000000E-03 0.  1.
         11   -1    0    0    0    0 -0.00000000000E+00 -0.00000000000E+00 -0.45593999997E+02  0.45594000000E+02  0.51100000000E-03 0. -1.
    9900012    2    1    2    0    0 -0.86185542136E+01 -0.10862226073E+02 -0.41126094828E+02  0.47787272957E+02  0.20000008722E+02 0.  0.
        -12    1    1    2    0    0  0.86185542136E+01  0.10862226073E+02  0.41126094828E+02  0.43400727043E+02  0.00000000000E+00 0.  1.
         11    1    3    3    0    0 -0.29281567322E+01  0.19628405839E+01 -0.13547226977E+02  0.13998364334E+02  0.51100000000E-03 0. -1.
        -11    1    3    3    0    0 -0.82594448437E+01 -0.13587277464E+02 -0.26491174887E+02  0.30896842641E+02  0.51100000000E-03 0.  1.
        -12    1    3    3    0    0  0.25690473623E+01  0.76221080671E+00 -0.10876929645E+01  0.28920659828E+01  0.00000000000E+00 0.  1.
</event>
<event>
 7    1  0.2811980E-010  0.4778727E+02  0.7816164E-02  0.1312668E+00
        -11   -1    0    0    0    0  0.00000000000E+00  0.00000000000E+00  0.45593999997E+02  0.45594000000E+02  0.51100000000E-03 0. -1.
         11   -1    0    0    0    0 -0.00000000000E+00 -0.00000000000E+00 -0.45593999997E+02  0.45594000000E+02  0.51100000000E-03 0.  1.
    9900012    2    1    2    0    0 -0.22032189413E+02 -0.33271380611E+02  0.17065207796E+02  0.47787268955E+02  0.19999990474E+02 0.  0.
        -12    1    1    2    0    0  0.22032189413E+02  0.33271380611E+02 -0.17065207796E+02  0.43400731045E+02  0.00000000000E+00 0.  1.
         11    1    3    3    0    0 -0.10297779641E+02 -0.19507263259E+02  0.83619401654E+01  0.23590244360E+02  0.51100000000E-03 0. -1.
        -11    1    3    3    0    0 -0.64415464677E+01  0.81667876541E+00  0.51399284742E+01  0.82812650050E+01  0.51100000000E-03 0.  1.
        -12    1    3    3    0    0 -0.52928633040E+01 -0.14580796118E+02  0.35633391567E+01  0.15915759590E+02  0.00000000000E+00 0.  1.
</event>
<event>
 7    1  0.2811980E-010  0.4778727E+02  0.7816164E-02  0.1312668E+00
        -11   -1    0    0    0    0  0.00000000000E+00  0.00000000000E+00  0.45593999997E+02  0.45594000000E+02  0.51100000000E-03 0.  1.
         11   -1    0    0    0    0 -0.00000000000E+00 -0.00000000000E+00 -0.45593999997E+02  0.45594000000E+02  0.51100000000E-03 0. -1.
    9900012    2    1    2    0    0 -0.17002193382E+02 -0.39771308411E+02 -0.35765356840E+01  0.47787272356E+02  0.20000005980E+02 0.  0.
        -12    1    1    2    0    0  0.17002193382E+02  0.39771308411E+02  0.35765356840E+01  0.43400727644E+02  0.00000000000E+00 0.  1.
         11    1    3    3    0    0 -0.12918010475E+02 -0.32675432855E+02 -0.39346845578E+01  0.35355913928E+02  0.51100000000E-03 0. -1.
        -11    1    3    3    0    0 -0.45383515913E+01  0.42362675815E+00 -0.12543115141E+01  0.47275144031E+01  0.51100000000E-03 0.  1.
        -12    1    3    3    0    0  0.45416868414E+00 -0.75195023145E+01  0.16124603880E+01  0.77038440245E+01  0.00000000000E+00 0.  1.
</event>
<event>
 7    1  0.2811980E-010  0.4778727E+02  0.7816164E-02  0.1312668E+00
        -11   -1    0    0    0    0  0.00000000000E+00  0.00000000000E+00  0.45593999997E+02  0.45594000000E+02  0.51100000000E-03 0.  1.
         11   -1    0    0    0    0 -0.00000000000E+00 -0.00000000000E+00 -0.45593999997E+02  0.45594000000E+02  0.51100000000E-03 0. -1.
    9900012    2    1    2    0    0  0.27554735623E+02 -0.93946247292E+01 -0.32188528098E+02  0.47787265327E+02  0.19999973932E+02 0.  0.
        -12    1    1    2    0    0 -0.27554735623E+02  0.93946247292E+01  0.32188528098E+02  0.43400734673E+02  0.00000000000E+00 0.  1.
         11    1    3    3    0    0  0.15462026135E+02 -0.48997434062E+00 -0.18677938985E+02  0.24252417035E+02  0.51100000000E-03 0. -1.
        -11    1    3    3    0    0  0.56431571959E+01 -0.48546296586E+01  0.63338988763E+00  0.74708657645E+01  0.51100000000E-03 0.  1.
        -12    1    3    3    0    0  0.64495522917E+01 -0.40500207300E+01 -0.14143979001E+02  0.16063982527E+02  0.00000000000E+00 0.  1.
</event>
<event>
 7    1  0.2811980E-010  0.4778726E+02  0.7816164E-02  0.1312668E+00
        -11   -1    0    0    0    0  0.00000000000E+00  0.00000000000E+00  0.45593999997E+02  0.45594000000E+02  0.51100000000E-03 0.  1.
         11   -1    0    0    0    0 -0.00000000000E+00 -0.00000000000E+00 -0.45593999997E+02  0.45594000000E+02  0.51100000000E-03 0. -1.
    9900012    2    1    2    0    0 -0.26267333114E+02 -0.11697446433E+02 -0.32508788874E+02  0.47787258117E+02  0.19999941057E+02 0.  0.
        -12    1    1    2    0    0  0.26267333114E+02  0.11697446433E+02  0.32508788874E+02  0.43400741883E+02  0.00000000000E+00 0.  1.
         11    1    3    3    0    0 -0.20680295773E+02 -0.79955433129E+01 -0.31525321041E+02  0.38541525828E+02  0.51100000000E-03 0. -1.
        -11    1    3    3    0    0 -0.56613890209E+01 -0.52008990101E+01 -0.71266881814E+00  0.77206588621E+01  0.51100000000E-03 0.  1.
         12    1    3    3    0    0  0.74351679960E-01  0.14989958902E+01 -0.27079901513E+00  0.15250734270E+01  0.00000000000E+00 0. -1.
</event>
<event>
 7    1  0.2811980E-010  0.4778721E+02  0.7816164E-02  0.1312668E+00
        -11   -1    0    0    0    0  0.00000000000E+00  0.00000000000E+00  0.45593999997E+02  0.45594000000E+02  0.51100000000E-03 0.  1.
         11   -1    0    0    0    0 -0.00000000000E+00 -0.00000000000E+00 -0.45593999997E+02  0.45594000000E+02  0.51100000000E-03 0. -1.
    9900012    2    1    2    0    0 -0.14793692215E+02 -0.98279657659E+01 -0.39600336255E+02  0.47787206552E+02  0.19999705949E+02 0.  0.
        -12    1    1    2    0    0  0.14793692215E+02  0.98279657659E+01  0.39600336255E+02  0.43400793448E+02  0.00000000000E+00 0.  1.
         11    1    3    3    0    0 -0.57050218853E+01  0.24682592292E+01 -0.66365897132E+01  0.90930688778E+01  0.51100000000E-03 0. -1.
        -11    1    3    3    0    0 -0.29583839475E+01 -0.12748055172E+02 -0.16117519600E+02  0.20761488014E+02  0.51100000000E-03 0.  1.
        -12    1    3    3    0    0 -0.61302863827E+01  0.45183017712E+00 -0.16846226942E+02  0.17932649660E+02  0.00000000000E+00 0.  1.
</event>
<event>
 7    1  0.2811980E-010  0.4778727E+02  0.7816164E-02  0.1312668E+00
        -11   -1    0    0    0    0  0.00000000000E+00  0.00000000000E+00  0.45593999997E+02  0.45594000000E+02  0.51100000000E-03 0.  1.
         11   -1    0    0    0    0 -0.00000000000E+00 -0.00000000000E+00 -0.45593999997E+02  0.45594000000E+02  0.51100000000E-03 0. -1.
    9900012    2    1    2    0    0 -0.84926379810E+01 -0.28638944007E+02 -0.31485058860E+02  0.47787274831E+02  0.20000017266E+02 0.  0.
        -12    1    1    2    0    0  0.84926379810E+01  0.28638944007E+02  0.31485058860E+02  0.43400725169E+02  0.00000000000E+00 0.  1.
         11    1    3    3    0    0 -0.25862478119E+01 -0.13839266510E+02 -0.38226557528E+01  0.14588580210E+02  0.51100000000E-03 0. -1.
        -11    1    3    3    0    0 -0.63393709635E+00 -0.15822886072E+01  0.38532885927E+00  0.17475674721E+01  0.51100000000E-03 0.  1.
         12    1    3    3    0    0 -0.52724530728E+01 -0.13217388890E+02 -0.28047731967E+02  0.31451127149E+02  0.00000000000E+00 0. -1.
</event>
<event>
 7    1  0.2811980E-010  0.4778727E+02  0.7816164E-02  0.1312668E+00
        -11   -1    0    0    0    0  0.00000000000E+00  0.00000000000E+00  0.45593999997E+02  0.45594000000E+02  0.51100000000E-03 0. -1.
         11   -1    0    0    0    0 -0.00000000000E+00 -0.00000000000E+00 -0.45593999997E+02  0.45594000000E+02  0.51100000000E-03 0.  1.
    9900012    2    1    2    0    0  0.16834378213E+02 -0.36696122623E+02  0.15925499620E+02  0.47787271394E+02  0.20000001593E+02 0.  0.
        -12    1    1    2    0    0 -0.16834378213E+02  0.36696122623E+02 -0.15925499620E+02  0.43400728606E+02  0.00000000000E+00 0.  1.
         11    1    3    3    0    0  0.24502190622E+01 -0.22810823466E+02  0.97168255374E+01  0.24914934064E+02  0.51100000000E-03 0. -1.
        -11    1    3    3    0    0 -0.98918055568E+00  0.33987993307E+00  0.52234735918E+00  0.11691208515E+01  0.51100000000E-03 0.  1.
         12    1    3    3    0    0  0.15373339706E+02 -0.14225179091E+02  0.56863267233E+01  0.21703216478E+02  0.00000000000E+00 0. -1.
</event>
<event>
 7    1  0.2811980E-010  0.4778727E+02  0.7816164E-02  0.1312668E+00
        -11   -1    0    0    0    0  0.00000000000E+00  0.00000000000E+00  0.45593999997E+02  0.45594000000E+02  0.51100000000E-03 0.  1.
         11   -1    0    0    0    0 -0.00000000000E+00 -0.00000000000E+00 -0.45593999997E+02  0.45594000000E+02  0.51100000000E-03 0. -1.
    9900012    2    1    2    0    0 -0.25341806545E+01 -0.37159444837E+02 -0.22279515325E+02  0.47787271719E+02  0.20000003075E+02 0.  0.
        -12    1    1    2    0    0  0.25341806545E+01  0.37159444837E+02  0.22279515325E+02  0.43400728281E+02  0.00000000000E+00 0.  1.
         11    1    3    3    0    0  0.64162829355E+01 -0.23981988116E+02 -0.14145294255E+02  0.28572605595E+02  0.51100000000E-03 0. -1.
        -11    1    3    3    0    0 -0.57827140981E+01 -0.11266805242E+02 -0.32262173397E+01  0.13068632724E+02  0.51100000000E-03 0.  1.
         12    1    3    3    0    0 -0.31677494919E+01 -0.19106514796E+01 -0.49080037310E+01  0.61460333991E+01  0.00000000000E+00 0. -1.
</event>
<event>
 7    1  0.2811980E-010  0.4778727E+02  0.7816164E-02  0.1312668E+00
        -11   -1    0    0    0    0  0.00000000000E+00  0.00000000000E+00  0.45593999997E+02  0.45594000000E+02  0.51100000000E-03 0. -1.
         11   -1    0    0    0    0 -0.00000000000E+00 -0.00000000000E+00 -0.45593999997E+02  0.45594000000E+02  0.51100000000E-03 0.  1.
    9900012    2    1    2    0    0 -0.14712179028E+01 -0.41444852271E+02 -0.12797787151E+02  0.47787267082E+02  0.19999981933E+02 0.  0.
        -12    1    1    2    0    0  0.14712179028E+01  0.41444852271E+02  0.12797787151E+02  0.43400732918E+02  0.00000000000E+00 0.  1.
         11    1    3    3    0    0 -0.41265930945E+00 -0.27434811724E+02 -0.41395527239E+01  0.27748424803E+02  0.51100000000E-03 0. -1.
        -11    1    3    3    0    0  0.16684938043E+01 -0.40141375416E+01 -0.86463320321E+01  0.96776148739E+01  0.51100000000E-03 0.  1.
        -12    1    3    3    0    0 -0.27270523976E+01 -0.99959030054E+01 -0.11902394963E-01  0.10361227405E+02  0.00000000000E+00 0.  1.
</event>
<event>
 7    1  0.2811980E-010  0.4778727E+02  0.7816164E-02  0.1312668E+00
        -11   -1    0    0    0    0  0.00000000000E+00  0.00000000000E+00  0.45593999997E+02  0.45594000000E+02  0.51100000000E-03 0.  1.
         11   -1    0    0    0    0 -0.00000000000E+00 -0.00000000000E+00 -0.45593999997E+02  0.45594000000E+02  0.51100000000E-03 0. -1.
    9900012    2    1    2    0    0 -0.20464243381E+02 -0.65614887617E+01 -0.37706561138E+02  0.47787272532E+02  0.20000006781E+02 0.  0.
        -12    1    1    2    0    0  0.20464243381E+02  0.65614887617E+01  0.37706561138E+02  0.43400727468E+02  0.00000000000E+00 0.  1.
         11    1    3    3    0    0 -0.14028604856E+02  0.16765842383E+01 -0.12571680469E+02  0.18911896758E+02  0.51100000000E-03 0. -1.
        -11    1    3    3    0    0 -0.27178193411E+00 -0.71892593085E+01 -0.86878786191E+01  0.11280006648E+02  0.51100000000E-03 0.  1.
        -12    1    3    3    0    0 -0.61638565916E+01 -0.10488136915E+01 -0.16447002050E+02  0.17595369126E+02  0.00000000000E+00 0.  1.
</event>
<event>
 7    1  0.2811980E-010  0.4778729E+02  0.7816164E-02  0.1312668E+00
        -11   -1    0    0    0    0  0.00000000000E+00  0.00000000000E+00  0.45593999997E+02  0.45594000000E+02  0.51100000000E-03 0.  1.
         11   -1    0    0    0    0 -0.00000000000E+00 -0.00000000000E+00 -0.45593999997E+02  0.45594000000E+02  0.51100000000E-03 0. -1.
    9900012    2    1    2    0    0  0.19522218199E+02  0.30549780996E+02 -0.23858241794E+02  0.47787287750E+02  0.20000076169E+02 0.  0.
        -12    1    1    2    0    0 -0.19522218199E+02 -0.30549780996E+02  0.23858241794E+02  0.43400712250E+02  0.00000000000E+00 0.  1.
         11    1    3    3    0    0  0.19283373983E+01  0.19931476254E+02 -0.12485604335E+02  0.23598147103E+02  0.51100000000E-03 0. -1.
        -11    1    3    3    0    0  0.16142807136E+02  0.11052612252E+02 -0.11457458619E+02  0.22672093377E+02  0.51100000000E-03 0.  1.
        -12    1    3    3    0    0  0.14510736644E+01 -0.43430751039E+00  0.84821160404E-01  0.15170472710E+01  0.00000000000E+00 0.  1.
</event>
<event>
 7    1  0.2811980E-010  0.4778727E+02  0.7816164E-02  0.1312668E+00
        -11   -1    0    0    0    0  0.00000000000E+00  0.00000000000E+00  0.45593999997E+02  0.45594000000E+02  0.51100000000E-03 0.  1.
         11   -1    0    0    0    0 -0.00000000000E+00 -0.00000000000E+00 -0.45593999997E+02  0.45594000000E+02  0.51100000000E-03 0. -1.
    9900012    2    1    2    0    0 -0.34019035262E+02  0.30895289681E+01 -0.26772809511E+02  0.47787270991E+02  0.19999999755E+02 0.  0.
        -12    1    1    2    0    0  0.34019035262E+02 -0.30895289681E+01  0.26772809511E+02  0.43400729009E+02  0.00000000000E+00 0.  1.
         11    1    3    3    0    0 -0.26831558564E+02  0.66206120953E+01 -0.22017171894E+02  0.35334415207E+02  0.51100000000E-03 0. -1.
        -11    1    3    3    0    0 -0.81359550887E+01 -0.20591202737E+01 -0.11847005194E+01  0.84756862311E+01  0.51100000000E-03 0.  1.
         12    1    3    3    0    0  0.94847839075E+00 -0.14719628535E+01 -0.35709370972E+01  0.39771695528E+01  0.00000000000E+00 0. -1.
</event>
<event>
 7    1  0.2811980E-010  0.4778726E+02  0.7816164E-02  0.1312668E+00
        -11   -1    0    0    0    0  0.00000000000E+00  0.00000000000E+00  0.45593999997E+02  0.45594000000E+02  0.51100000000E-03 0.  1.
         11   -1    0    0    0    0 -0.00000000000E+00 -0.00000000000E+00 -0.45593999997E+02  0.45594000000E+02  0.51100000000E-03 0. -1.
    9900012    2    1    2    0    0  0.10049422008E+02  0.19004806752E+02 -0.37702133628E+02  0.47787257581E+02  0.19999938614E+02 0.  0.
        -12    1    1    2    0    0 -0.10049422008E+02 -0.19004806752E+02  0.37702133628E+02  0.43400742419E+02  0.00000000000E+00 0.  1.
         11    1    3    3    0    0  0.92875358532E+00  0.11418301973E+02 -0.88385073003E+01  0.14469257573E+02  0.51100000000E-03 0.  1.
        -11    1    3    3    0    0  0.21712244419E+01  0.30809805222E+01 -0.22656747900E+02  0.22968127530E+02  0.51100000000E-03 0. -1.
        -12    1    3    3    0    0  0.69494439812E+01  0.45055242573E+01 -0.62068784277E+01  0.10349872477E+02  0.00000000000E+00 0.  1.
</event>
<event>
 7    1  0.2811980E-010  0.4778727E+02  0.7816164E-02  0.1312668E+00
        -11   -1    0    0    0    0  0.00000000000E+00  0.00000000000E+00  0.45593999997E+02  0.45594000000E+02  0.51100000000E-03 0. -1.
         11   -1    0    0    0    0 -0.00000000000E+00 -0.00000000000E+00 -0.45593999997E+02  0.45594000000E+02  0.51100000000E-03 0.  1.
    9900012    2    1    2    0    0  0.85539177288E+01  0.42405638843E+02 -0.34950817794E+01  0.47787270619E+02  0.19999998060E+02 0.  0.
        -12    1    1    2    0    0 -0.85539177288E+01 -0.42405638843E+02  0.34950817794E+01  0.43400729381E+02  0.00000000000E+00 0.  1.
         11    1    3    3    0    0  0.62176724425E+01  0.26980751008E+02  0.10328649888E+00  0.27688102931E+02  0.51100000000E-03 0. -1.
        -11    1    3    3    0    0 -0.39531785936E+01  0.10701321859E+01 -0.96047293902E+00  0.42065796577E+01  0.51100000000E-03 0.  1.
        -12    1    3    3    0    0  0.62894238800E+01  0.14354755648E+02 -0.26378953393E+01  0.15892588030E+02  0.00000000000E+00 0.  1.
</event>
<event>
 7    1  0.2811980E-010  0.4778727E+02  0.7816164E-02  0.1312668E+00
        -11   -1    0    0    0    0  0.00000000000E+00  0.00000000000E+00  0.45593999997E+02  0.45594000000E+02  0.51100000000E-03 0.  1.
         11   -1    0    0    0    0 -0.00000000000E+00 -0.00000000000E+00 -0.45593999997E+02  0.45594000000E+02  0.51100000000E-03 0. -1.
    9900012    2    1    2    0    0 -0.35967012497E+01  0.33647199477E+02 -0.27176332592E+02  0.47787270218E+02  0.19999996230E+02 0.  0.
        -12    1    1    2    0    0  0.35967012497E+01 -0.33647199477E+02  0.27176332592E+02  0.43400729782E+02  0.00000000000E+00 0.  1.
         11    1    3    3    0    0 -0.92188031988E+01  0.17922957142E+02 -0.13293861037E+02  0.24144263639E+02  0.51100000000E-03 0. -1.
        -11    1    3    3    0    0  0.19103901025E+01  0.75761852018E+00 -0.59650688918E+01  0.63091697799E+01  0.51100000000E-03 0.  1.
         12    1    3    3    0    0  0.37117118466E+01  0.14966623814E+02 -0.79174026632E+01  0.17333836799E+02  0.00000000000E+00 0. -1.
</event>
<event>
 7    1  0.2811980E-010  0.4778727E+02  0.7816164E-02  0.1312668E+00
        -11   -1    0    0    0    0  0.00000000000E+00  0.00000000000E+00  0.45593999997E+02  0.45594000000E+02  0.51100000000E-03 0.  1.
         11   -1    0    0    0    0 -0.00000000000E+00 -0.00000000000E+00 -0.45593999997E+02  0.45594000000E+02  0.51100000000E-03 0. -1.
    9900012    2    1    2    0    0  0.16515051278E+02 -0.10970975786E+02 -0.38607174113E+02  0.47787272801E+02  0.20000008011E+02 0.  0.
        -12    1    1    2    0    0 -0.16515051278E+02  0.10970975786E+02  0.38607174113E+02  0.43400727199E+02  0.00000000000E+00 0.  1.
         11    1    3    3    0    0  0.12761944674E+02 -0.61038658397E+01 -0.34520323742E+02  0.37306529745E+02  0.51100000000E-03 0. -1.
        -11    1    3    3    0    0 -0.12862429039E+01  0.10757243197E+01  0.11524773857E-01  0.16768233960E+01  0.51100000000E-03 0.  1.
         12    1    3    3    0    0  0.50393495072E+01 -0.59428342660E+01 -0.40983751441E+01  0.88039196606E+01  0.00000000000E+00 0. -1.
</event>
<event>
 7    1  0.2811980E-010  0.4778727E+02  0.7816164E-02  0.1312668E+00
        -11   -1    0    0    0    0  0.00000000000E+00  0.00000000000E+00  0.45593999997E+02  0.45594000000E+02  0.51100000000E-03 0.  1.
         11   -1    0    0    0    0 -0.00000000000E+00 -0.00000000000E+00 -0.45593999997E+02  0.45594000000E+02  0.51100000000E-03 0. -1.
    9900012    2    1    2    0    0  0.13850731375E+02  0.13650972017E+02 -0.38799890381E+02  0.47787270856E+02  0.19999999143E+02 0.  0.
        -12    1    1    2    0    0 -0.13850731375E+02 -0.13650972017E+02  0.38799890381E+02  0.43400729144E+02  0.00000000000E+00 0.  1.
         11    1    3    3    0    0  0.81037498771E+01  0.63767622379E+01 -0.18026122084E+02  0.20767160046E+02  0.51100000000E-03 0. -1.
        -11    1    3    3    0    0  0.40869080794E+01 -0.15789104027E+01 -0.16459783698E+02  0.17032916819E+02  0.51100000000E-03 0.  1.
        -12    1    3    3    0    0  0.16600734184E+01  0.88531201818E+01 -0.43139845982E+01  0.99871939914E+01  0.00000000000E+00 0.  1.
</event>
<event>
 7    1  0.2811980E-010  0.4778727E+02  0.7816164E-02  0.1312668E+00
        -11   -1    0    0    0    0  0.00000000000E+00  0.00000000000E+00  0.45593999997E+02  0.45594000000E+02  0.51100000000E-03 0. -1.
         11   -1    0    0    0    0 -0.00000000000E+00 -0.00000000000E+00 -0.45593999997E+02  0.45594000000E+02  0.51100000000E-03 0.  1.
    9900012    2    1    2    0    0  0.37489687547E+02 -0.11525502780E+02  0.18582501395E+02  0.47787271379E+02  0.20000001526E+02 0.  0.
        -12    1    1    2    0    0 -0.37489687547E+02  0.11525502780E+02 -0.18582501395E+02  0.43400728621E+02  0.00000000000E+00 0.  1.
         11    1    3    3    0    0  0.31136277005E+02 -0.16415549966E+02  0.11835539579E+02  0.37135131935E+02  0.51100000000E-03 0. -1.
        -11    1    3    3    0    0  0.57458602432E+01  0.35355155931E+01  0.57446152674E+01  0.88608907721E+01  0.51100000000E-03 0.  1.
         12    1    3    3    0    0  0.60755029894E+00  0.13545315930E+01  0.10023465488E+01  0.17912486723E+01  0.00000000000E+00 0. -1.
</event>
<event>
 7    1  0.2811980E-010  0.4778729E+02  0.7816164E-02  0.1312668E+00
        -11   -1    0    0    0    0  0.00000000000E+00  0.00000000000E+00  0.45593999997E+02  0.45594000000E+02  0.51100000000E-03 0. -1.
         11   -1    0    0    0    0 -0.00000000000E+00 -0.00000000000E+00 -0.45593999997E+02  0.45594000000E+02  0.51100000000E-03 0.  1.
    9900012    2    1    2    0    0 -0.10871260492E+01 -0.37794168395E+02  0.21308239063E+02  0.47787285032E+02  0.20000063776E+02 0.  0.
        -12    1    1    2    0    0  0.10871260492E+01  0.37794168395E+02 -0.21308239063E+02  0.43400714968E+02  0.00000000000E+00 0.  1.
         11    1    3    3    0    0 -0.14001536712E+01  0.11255442092E+01  0.38748099662E+00  0.18377763339E+01  0.51100000000E-03 0. -1.
        -11    1    3    3    0    0  0.53963011658E+01 -0.25975437507E+02  0.10333753087E+02  0.28471562533E+02  0.51100000000E-03 0.  1.
         12    1    3    3    0    0 -0.50832735438E+01 -0.12944275097E+02  0.10587004980E+02  0.17477946165E+02  0.00000000000E+00 0. -1.
</event>
<event>
 7    1  0.2811980E-010  0.4778727E+02  0.7816164E-02  0.1312668E+00
        -11   -1    0    0    0    0  0.00000000000E+00  0.00000000000E+00  0.45593999997E+02  0.45594000000E+02  0.51100000000E-03 0.  1.
         11   -1    0    0    0    0 -0.00000000000E+00 -0.00000000000E+00 -0.45593999997E+02  0.45594000000E+02  0.51100000000E-03 0. -1.
    9900012    2    1    2    0    0 -0.36170418067E+01 -0.43134853584E+02 -0.31503324619E+01  0.47787272128E+02  0.20000004941E+02 0.  0.
        -12    1    1    2    0    0  0.36170418067E+01  0.43134853584E+02  0.31503324619E+01  0.43400727872E+02  0.00000000000E+00 0.  1.
         11    1    3    3    0    0  0.55634605081E+00 -0.17854664910E+02 -0.58857864111E+01  0.18808005262E+02  0.51100000000E-03 0. -1.
        -11    1    3    3    0    0 -0.89028591871E+01 -0.15573311412E+02  0.29498033795E+01  0.18179391362E+02  0.51100000000E-03 0.  1.
        -12    1    3    3    0    0  0.47294713296E+01 -0.97068772618E+01 -0.21434943026E+00  0.10799875504E+02  0.00000000000E+00 0.  1.
</event>
<event>
 7    1  0.2811980E-010  0.4778727E+02  0.7816164E-02  0.1312668E+00
        -11   -1    0    0    0    0  0.00000000000E+00  0.00000000000E+00  0.45593999997E+02  0.45594000000E+02  0.51100000000E-03 0.  1.
         11   -1    0    0    0    0 -0.00000000000E+00 -0.00000000000E+00 -0.45593999997E+02  0.45594000000E+02  0.51100000000E-03 0. -1.
    9900012    2    1    2    0    0 -0.51784122757E+01  0.31618915041E+02 -0.29275440449E+02  0.47787272407E+02  0.20000006213E+02 0.  0.
        -12    1    1    2    0    0  0.51784122757E+01 -0.31618915041E+02  0.29275440449E+02  0.43400727593E+02  0.00000000000E+00 0.  1.
         11    1    3    3    0    0 -0.38191969829E+01  0.30051357472E+02 -0.29087241010E+02  0.41996880138E+02  0.51100000000E-03 0. -1.
        -11    1    3    3    0    0 -0.21056289842E+01  0.17345482608E+01  0.20581775430E+01  0.34173712335E+01  0.51100000000E-03 0.  1.
        -12    1    3    3    0    0  0.74641369137E+00 -0.16699069118E+00 -0.22463769825E+01  0.23730210360E+01  0.00000000000E+00 0.  1.
</event>
<event>
 7    1  0.2811980E-010  0.4778727E+02  0.7816164E-02  0.1312668E+00
        -11   -1    0    0    0    0  0.00000000000E+00  0.00000000000E+00  0.45593999997E+02  0.45594000000E+02  0.51100000000E-03 0. -1.
         11   -1    0    0    0    0 -0.00000000000E+00 -0.00000000000E+00 -0.45593999997E+02  0.45594000000E+02  0.51100000000E-03 0.  1.
    9900012    2    1    2    0    0 -0.29768624071E+02  0.28992224755E+02  0.12526099414E+02  0.47787271413E+02  0.20000001682E+02 0.  0.
        -12    1    1    2    0    0  0.29768624071E+02 -0.28992224755E+02 -0.12526099414E+02  0.43400728587E+02  0.00000000000E+00 0.  1.
         11    1    3    3    0    0 -0.26616060068E+02  0.23526152499E+02  0.16461615793E+02  0.39152002500E+02  0.51100000000E-03 0. -1.
        -11    1    3    3    0    0 -0.15498651497E+01  0.54104333225E+01 -0.16907599452E+01  0.58765244978E+01  0.51100000000E-03 0.  1.
         12    1    3    3    0    0 -0.16026988528E+01  0.55638934049E-01 -0.22447564342E+01  0.27587444160E+01  0.00000000000E+00 0. -1.
</event>
<event>
 7    1  0.2811980E-010  0.4778726E+02  0.7816164E-02  0.1312668E+00
        -11   -1    0    0    0    0  0.00000000000E+00  0.00000000000E+00  0.45593999997E+02  0.45594000000E+02  0.51100000000E-03 0.  1.
         11   -1    0    0    0    0 -0.00000000000E+00 -0.00000000000E+00 -0.45593999997E+02  0.45594000000E+02  0.51100000000E-03 0. -1.
    9900012    2    1    2    0    0  0.32156252191E+02  0.17859963714E+02 -0.23035219843E+02  0.47787260236E+02  0.19999950720E+02 0.  0.
        -12    1    1    2    0    0 -0.32156252191E+02 -0.17859963714E+02  0.23035219843E+02  0.43400739764E+02  0.00000000000E+00 0.  1.
         11    1    3    3    0    0  0.89402588908E+01  0.67484477530E+01 -0.75194489756E+01  0.13491178202E+02  0.51100000000E-03 0. -1.
        -11    1    3    3    0    0  0.82873050035E+01  0.12096578592E+02 -0.34192513289E+01  0.15056490885E+02  0.51100000000E-03 0.  1.
        -12    1    3    3    0    0  0.14928688297E+02 -0.98506263094E+00 -0.12096519538E+02  0.19239591149E+02  0.00000000000E+00 0.  1.
</event>
<event>
 7    1  0.2811980E-010  0.4778727E+02  0.7816164E-02  0.1312668E+00
        -11   -1    0    0    0    0  0.00000000000E+00  0.00000000000E+00  0.45593999997E+02  0.45594000000E+02  0.51100000000E-03 0.  1.
         11   -1    0    0    0    0 -0.00000000000E+00 -0.00000000000E+00 -0.45593999997E+02  0.45594000000E+02  0.51100000000E-03 0. -1.
    9900012    2    1    2    0    0 -0.12976885746E+02  0.15865665359E+02 -0.38255781203E+02  0.47787266177E+02  0.19999977806E+02 0.  0.
        -12    1    1    2    0    0  0.12976885746E+02 -0.15865665359E+02  0.38255781203E+02  0.43400733823E+02  0.00000000000E+00 0.  1.
         11    1    3    3    0    0 -0.34741909074E+01  0.70292291012E+01 -0.32372745170E+01  0.84829246594E+01  0.51100000000E-03 0. -1.
        -11    1    3    3    0    0 -0.55800655430E+01  0.86801776545E+01 -0.33569518283E+02  0.35119726274E+02  0.51100000000E-03 0.  1.
         12    1    3    3    0    0 -0.39226292954E+01  0.15625860349E+00 -0.14489884031E+01  0.41846152431E+01  0.00000000000E+00 0. -1.
</event>
<event>
 7    1  0.2811980E-010  0.4778727E+02  0.7816164E-02  0.1312668E+00
        -11   -1    0    0    0    0  0.00000000000E+00  0.00000000000E+00  0.45593999997E+02  0.45594000000E+02  0.51100000000E-03 0.  1.
         11   -1    0    0    0    0 -0.00000000000E+00 -0.00000000000E+00 -0.45593999997E+02  0.45594000000E+02  0.51100000000E-03 0. -1.
    9900012    2    1    2    0    0  0.24800366919E+02 -0.35165377044E+02 -0.56534383655E+01  0.47787270660E+02  0.19999998245E+02 0.  0.
        -12    1    1    2    0    0 -0.24800366919E+02  0.35165377044E+02  0.56534383655E+01  0.43400729340E+02  0.00000000000E+00 0.  1.
         11    1    3    3    0    0  0.21935689154E+01 -0.99666852101E+01 -0.86833117278E-01  0.10205591551E+02  0.51100000000E-03 0. -1.
        -11    1    3    3    0    0  0.33880534028E+01 -0.12405357019E+02 -0.66331198395E+01  0.14469625693E+02  0.51100000000E-03 0.  1.
        -12    1    3    3    0    0  0.19218744601E+02 -0.12793334815E+02  0.10665145913E+01  0.23112053416E+02  0.00000000000E+00 0.  1.
</event>
<event>
 7    1  0.2811980E-010  0.4778727E+02  0.7816164E-02  0.1312668E+00
        -11   -1    0    0    0    0  0.00000000000E+00  0.00000000000E+00  0.45593999997E+02  0.45594000000E+02  0.51100000000E-03 0.  1.
         11   -1    0    0    0    0 -0.00000000000E+00 -0.00000000000E+00 -0.45593999997E+02  0.45594000000E+02  0.51100000000E-03 0. -1.
    9900012    2    1    2    0    0  0.18154406517E+02 -0.38081655251E+02  0.10189602880E+02  0.47787274782E+02  0.20000017040E+02 0.  0.
        -12    1    1    2    0    0 -0.18154406517E+02  0.38081655251E+02 -0.10189602880E+02  0.43400725218E+02  0.00000000000E+00 0.  1.
         11    1    3    3    0    0 -0.22609766379E+01 -0.12717432518E+02  0.17827363312E+01  0.13039296541E+02  0.51100000000E-03 0. -1.
        -11    1    3    3    0    0  0.13776614528E+02 -0.19437530435E+02  0.97600937004E+01  0.25746303164E+02  0.51100000000E-03 0.  1.
         12    1    3    3    0    0  0.66387686264E+01 -0.59266922974E+01 -0.13532271517E+01  0.90016750768E+01  0.00000000000E+00 0. -1.
</event>
<event>
 7    1  0.2811980E-010  0.4778727E+02  0.7816164E-02  0.1312668E+00
        -11   -1    0    0    0    0  0.00000000000E+00  0.00000000000E+00  0.45593999997E+02  0.45594000000E+02  0.51100000000E-03 0.  1.
         11   -1    0    0    0    0 -0.00000000000E+00 -0.00000000000E+00 -0.45593999997E+02  0.45594000000E+02  0.51100000000E-03 0. -1.
    9900012    2    1    2    0    0  0.23489831005E+02  0.35943702349E+02  0.63167479324E+01  0.47787271854E+02  0.20000003692E+02 0.  0.
        -12    1    1    2    0    0 -0.23489831005E+02 -0.35943702349E+02 -0.63167479324E+01  0.43400728146E+02  0.00000000000E+00 0.  1.
         11    1    3    3    0    0  0.21603822530E+02  0.33222787678E+02  0.14727856183E+01  0.39656624500E+02  0.51100000000E-03 0. -1.
        -11    1    3    3    0    0  0.22515074448E+01  0.27783408718E+01  0.59624000438E+01  0.69526022694E+01  0.51100000000E-03 0.  1.
         12    1    3    3    0    0 -0.36549896999E+00 -0.57426201442E-01 -0.11184377297E+01  0.11780450844E+01  0.00000000000E+00 0. -1.
</event>
<event>
 7    1  0.2811980E-010  0.4778727E+02  0.7816164E-02  0.1312668E+00
        -11   -1    0    0    0    0  0.00000000000E+00  0.00000000000E+00  0.45593999997E+02  0.45594000000E+02  0.51100000000E-03 0.  1.
         11   -1    0    0    0    0 -0.00000000000E+00 -0.00000000000E+00 -0.45593999997E+02  0.45594000000E+02  0.51100000000E-03 0. -1.
    9900012    2    1    2    0    0 -0.21829012626E+02 -0.35873258225E+02  0.10964810907E+02  0.47787268138E+02  0.19999986747E+02 0.  0.
        -12    1    1    2    0    0  0.21829012626E+02  0.35873258225E+02 -0.10964810907E+02  0.43400731862E+02  0.00000000000E+00 0.  1.
         11    1    3    3    0    0  0.13760771173E+00 -0.12557178978E+02  0.32308504238E+01  0.12966883761E+02  0.51100000000E-03 0. -1.
        -11    1    3    3    0    0 -0.16613756227E+02 -0.10866039493E+02  0.76315194054E+01  0.21267999411E+02  0.51100000000E-03 0.  1.
        -12    1    3    3    0    0 -0.53528641113E+01 -0.12450039755E+02  0.10244107758E+00  0.13552384966E+02  0.00000000000E+00 0.  1.
</event>
<event>
 7    1  0.2811980E-010  0.4778727E+02  0.7816164E-02  0.1312668E+00
        -11   -1    0    0    0    0  0.00000000000E+00  0.00000000000E+00  0.45593999997E+02  0.45594000000E+02  0.51100000000E-03 0.  1.
         11   -1    0    0    0    0 -0.00000000000E+00 -0.00000000000E+00 -0.45593999997E+02  0.45594000000E+02  0.51100000000E-03 0. -1.
    9900012    2    1    2    0    0 -0.12945202412E+02  0.39297124841E+02 -0.13106530380E+02  0.47787269305E+02  0.19999992068E+02 0.  0.
        -12    1    1    2    0    0  0.12945202412E+02 -0.39297124841E+02  0.13106530380E+02  0.43400730695E+02  0.00000000000E+00 0.  1.
         11    1    3    3    0    0  0.30869594635E+00  0.98493655767E+01 -0.10193053951E+02  0.14177575412E+02  0.51100000000E-03 0. -1.
        -11    1    3    3    0    0  0.12704716535E+01  0.24340618792E+01  0.34078300631E+00  0.27667469658E+01  0.51100000000E-03 0.  1.
         12    1    3    3    0    0 -0.14524370012E+02  0.27013697385E+02 -0.32542594351E+01  0.30842946927E+02  0.00000000000E+00 0. -1.
</event>
<event>
 7    1  0.2811980E-010  0.4778728E+02  0.7816164E-02  0.1312668E+00
        -11   -1    0    0    0    0  0.00000000000E+00  0.00000000000E+00  0.45593999997E+02  0.45594000000E+02  0.51100000000E-03 0. -1.
         11   -1    0    0    0    0 -0.00000000000E+00 -0.00000000000E+00 -0.45593999997E+02  0.45594000000E+02  0.51100000000E-03 0.  1.
    9900012    2    1    2    0    0 -0.24064330438E+02  0.15520458702E+02  0.32613579477E+02  0.47787283370E+02  0.20000056195E+02 0.  0.
        -12    1    1    2    0    0  0.24064330438E+02 -0.15520458702E+02 -0.32613579477E+02  0.43400716630E+02  0.00000000000E+00 0.  1.
         11    1    3    3    0    0 -0.40295130656E+01  0.36611877063E+01  0.17517878295E+02  0.18344408717E+02  0.51100000000E-03 0. -1.
        -11    1    3    3    0    0  0.25071686893E+00  0.32038037284E+01  0.21999195153E+01  0.38944657417E+01  0.51100000000E-03 0.  1.
         12    1    3    3    0    0 -0.20285534241E+02  0.86554672669E+01  0.12895781667E+02  0.25548408911E+02  0.00000000000E+00 0. -1.
</event>
<event>
 7    1  0.2811980E-010  0.4778727E+02  0.7816164E-02  0.1312668E+00
        -11   -1    0    0    0    0  0.00000000000E+00  0.00000000000E+00  0.45593999997E+02  0.45594000000E+02  0.51100000000E-03 0. -1.
         11   -1    0    0    0    0 -0.00000000000E+00 -0.00000000000E+00 -0.45593999997E+02  0.45594000000E+02  0.51100000000E-03 0.  1.
    9900012    2    1    2    0    0 -0.33560764778E+02 -0.26368602988E+02  0.78737164559E+01  0.47787267669E+02  0.19999984611E+02 0.  0.
        -12    1    1    2    0    0  0.33560764778E+02  0.26368602988E+02 -0.78737164559E+01  0.43400732331E+02  0.00000000000E+00 0.  1.
         11    1    3    3    0    0 -0.17675377894E+02 -0.13592223795E+02  0.41541936983E+01  0.22680935980E+02  0.51100000000E-03 0. -1.
        -11    1    3    3    0    0  0.47924905646E-01 -0.23403171219E+01  0.54990683422E+01  0.59765486629E+01  0.51100000000E-03 0.  1.
        -12    1    3    3    0    0 -0.15933311789E+02 -0.10436062072E+02 -0.17795455846E+01  0.19129783026E+02  0.00000000000E+00 0.  1.
</event>
<event>
 7    1  0.2811980E-010  0.4778724E+02  0.7816164E-02  0.1312668E+00
        -11   -1    0    0    0    0  0.00000000000E+00  0.00000000000E+00  0.45593999997E+02  0.45594000000E+02  0.51100000000E-03 0. -1.
         11   -1    0    0    0    0 -0.00000000000E+00 -0.00000000000E+00 -0.45593999997E+02  0.45594000000E+02  0.51100000000E-03 0.  1.
    9900012    2    1    2    0    0 -0.32865363235E+02  0.20204249367E+02  0.19881710556E+02  0.47787237245E+02  0.19999845896E+02 0.  0.
        -12    1    1    2    0    0  0.32865363235E+02 -0.20204249367E+02 -0.19881710556E+02  0.43400762755E+02  0.00000000000E+00 0.  1.
         11    1    3    3    0    0 -0.83743217475E+01 -0.27304114291E+01  0.62707048629E+01  0.10812314786E+02  0.51100000000E-03 0. -1.
        -11    1    3    3    0    0 -0.15806924316E+02  0.19327883334E+02  0.95601067005E+01  0.26736147270E+02  0.51100000000E-03 0.  1.
         12    1    3    3    0    0 -0.86841171717E+01  0.36067774629E+01  0.40508989924E+01  0.10238775189E+02  0.00000000000E+00 0. -1.
</event>
<event>
 7    1  0.2811980E-010  0.4778727E+02  0.7816164E-02  0.1312668E+00
        -11   -1    0    0    0    0  0.00000000000E+00  0.00000000000E+00  0.45593999997E+02  0.45594000000E+02  0.51100000000E-03 0.  1.
         11   -1    0    0    0    0 -0.00000000000E+00 -0.00000000000E+00 -0.45593999997E+02  0.45594000000E+02  0.51100000000E-03 0. -1.
    9900012    2    1    2    0    0  0.20832006715E+02 -0.18231096250E+02 -0.33425708268E+02  0.47787270197E+02  0.19999996135E+02 0.  0.
        -12    1    1    2    0    0 -0.20832006715E+02  0.18231096250E+02  0.33425708268E+02  0.43400729803E+02  0.00000000000E+00 0.  1.
         11    1    3    3    0    0  0.10342941950E+02 -0.70665631920E+01 -0.15239540326E+02  0.19727046235E+02  0.51100000000E-03 0. -1.
        -11    1    3    3    0    0  0.70310504602E+01 -0.17350070699E+01 -0.16306425222E+02  0.17842237076E+02  0.51100000000E-03 0.  1.
        -12    1    3    3    0    0  0.34580143045E+01 -0.94295259885E+01 -0.18797427191E+01  0.10217986885E+02  0.00000000000E+00 0.  1.
</event>
<event>
 7    1  0.2811980E-010  0.4778726E+02  0.7816164E-02  0.1312668E+00
        -11   -1    0    0    0    0  0.00000000000E+00  0.00000000000E+00  0.45593999997E+02  0.45594000000E+02  0.51100000000E-03 0.  1.
         11   -1    0    0    0    0 -0.00000000000E+00 -0.00000000000E+00 -0.45593999997E+02  0.45594000000E+02  0.51100000000E-03 0. -1.
    9900012    2    1    2    0    0 -0.31843975402E+02  0.15072150490E+02 -0.25345914729E+02  0.47787264024E+02  0.19999967992E+02 0.  0.
        -12    1    1    2    0    0  0.31843975402E+02 -0.15072150490E+02  0.25345914729E+02  0.43400735976E+02  0.00000000000E+00 0.  1.
         11    1    3    3    0    0 -0.16186255515E+01 -0.13195898779E+01  0.68860582916E+00  0.21989643860E+01  0.51100000000E-03 0.  1.
        -11    1    3    3    0    0 -0.88361317300E+00  0.52008487999E+01 -0.73484539840E+01  0.90459591363E+01  0.51100000000E-03 0. -1.
        -12    1    3    3    0    0 -0.29341736677E+02  0.11190891568E+02 -0.18686066574E+02  0.36542340502E+02  0.00000000000E+00 0.  1.
</event>
<event>
 7    1  0.2811980E-010  0.4778728E+02  0.7816164E-02  0.1312668E+00
        -11   -1    0    0    0    0  0.00000000000E+00  0.00000000000E+00  0.45593999997E+02  0.45594000000E+02  0.51100000000E-03 0.  1.
         11   -1    0    0    0    0 -0.00000000000E+00 -0.00000000000E+00 -0.45593999997E+02  0.45594000000E+02  0.51100000000E-03 0. -1.
    9900012    2    1    2    0    0  0.31540223973E+01  0.50929762371E+01 -0.42985306718E+02  0.47787275837E+02  0.20000021852E+02 0.  0.
        -12    1    1    2    0    0 -0.31540223973E+01 -0.50929762371E+01  0.42985306718E+02  0.43400724163E+02  0.00000000000E+00 0.  1.
         11    1    3    3    0    0 -0.22290175590E+01  0.35650016438E+01 -0.20542906469E+02  0.20968756817E+02  0.51100000000E-03 0. -1.
        -11    1    3    3    0    0  0.47535933296E+00 -0.14002686079E+01  0.15574426719E+01  0.21476374478E+01  0.51100000000E-03 0.  1.
        -12    1    3    3    0    0  0.49076806232E+01  0.29282432012E+01 -0.23999842920E+02  0.24670881572E+02  0.00000000000E+00 0.  1.
</event>
<event>
 7    1  0.2811980E-010  0.4778731E+02  0.7816164E-02  0.1312668E+00
        -11   -1    0    0    0    0  0.00000000000E+00  0.00000000000E+00  0.45593999997E+02  0.45594000000E+02  0.51100000000E-03 0.  1.
         11   -1    0    0    0    0 -0.00000000000E+00 -0.00000000000E+00 -0.45593999997E+02  0.45594000000E+02  0.51100000000E-03 0. -1.
    9900012    2    1    2    0    0  0.32974695341E+02 -0.38593249877E+01 -0.27953444613E+02  0.47787308901E+02  0.20000172602E+02 0.  0.
        -12    1    1    2    0    0 -0.32974695341E+02  0.38593249877E+01  0.27953444613E+02  0.43400691099E+02  0.00000000000E+00 0.  1.
         11    1    3    3    0    0  0.27064288176E+02 -0.36876882719E+01 -0.15631101492E+02  0.31470717713E+02  0.51100000000E-03 0. -1.
        -11    1    3    3    0    0  0.16095314340E+01 -0.32036838204E+01 -0.98892715267E+01  0.10519119405E+02  0.51100000000E-03 0.  1.
        -12    1    3    3    0    0  0.43008757310E+01  0.30320471047E+01 -0.24330715939E+01  0.57974717834E+01  0.00000000000E+00 0.  1.
</event>
<event>
 7    1  0.2811980E-010  0.4778726E+02  0.7816164E-02  0.1312668E+00
        -11   -1    0    0    0    0  0.00000000000E+00  0.00000000000E+00  0.45593999997E+02  0.45594000000E+02  0.51100000000E-03 0.  1.
         11   -1    0    0    0    0 -0.00000000000E+00 -0.00000000000E+00 -0.45593999997E+02  0.45594000000E+02  0.51100000000E-03 0. -1.
    9900012    2    1    2    0    0 -0.22900014315E+02 -0.31200342335E+02 -0.19640566667E+02  0.47787264102E+02  0.19999968347E+02 0.  0.
        -12    1    1    2    0    0  0.22900014315E+02  0.31200342335E+02  0.19640566667E+02  0.43400735898E+02  0.00000000000E+00 0.  1.
         11    1    3    3    0    0 -0.82847585123E+01 -0.81650253601E+01 -0.31055803873E+01  0.12039497188E+02  0.51100000000E-03 0. -1.
        -11    1    3    3    0    0 -0.16658290701E+02 -0.19705685201E+02 -0.91217026922E+01  0.27368195749E+02  0.51100000000E-03 0.  1.
        -12    1    3    3    0    0  0.20430348983E+01 -0.33296317743E+01 -0.74132835878E+01  0.83795711645E+01  0.00000000000E+00 0.  1.
</event>
<event>
 7    1  0.2811980E-010  0.4778727E+02  0.7816164E-02  0.1312668E+00
        -11   -1    0    0    0    0  0.00000000000E+00  0.00000000000E+00  0.45593999997E+02  0.45594000000E+02  0.51100000000E-03 0.  1.
         11   -1    0    0    0    0 -0.00000000000E+00 -0.00000000000E+00 -0.45593999997E+02  0.45594000000E+02  0.51100000000E-03 0. -1.
    9900012    2    1    2    0    0 -0.21702252890E+02 -0.22627393141E+02 -0.30010607524E+02  0.47787271149E+02  0.20000000478E+02 0.  0.
        -12    1    1    2    0    0  0.21702252890E+02  0.22627393141E+02  0.30010607524E+02  0.43400728851E+02  0.00000000000E+00 0.  1.
         11    1    3    3    0    0 -0.70246633436E+01 -0.13629443009E+01 -0.14876913064E+02  0.16508363178E+02  0.51100000000E-03 0.  1.
        -11    1    3    3    0    0 -0.94368956185E+01 -0.15505342141E+02 -0.56547097889E+01  0.19011743131E+02  0.51100000000E-03 0. -1.
        -12    1    3    3    0    0 -0.52406939277E+01 -0.57591066985E+01 -0.94789846710E+01  0.12267164840E+02  0.00000000000E+00 0.  1.
</event>
<event>
 7    1  0.2811980E-010  0.4778727E+02  0.7816164E-02  0.1312668E+00
        -11   -1    0    0    0    0  0.00000000000E+00  0.00000000000E+00  0.45593999997E+02  0.45594000000E+02  0.51100000000E-03 0.  1.
         11   -1    0    0    0    0 -0.00000000000E+00 -0.00000000000E+00 -0.45593999997E+02  0.45594000000E+02  0.51100000000E-03 0. -1.
    9900012    2    1    2    0    0 -0.14025466655E+02  0.20272547536E+02 -0.35720209912E+02  0.47787270805E+02  0.19999998910E+02 0.  0.
        -12    1    1    2    0    0  0.14025466655E+02 -0.20272547536E+02  0.35720209912E+02  0.43400729195E+02  0.00000000000E+00 0.  1.
         11    1    3    3    0    0 -0.39886706998E+01  0.14758139433E+02 -0.13533758656E+02  0.20417512020E+02  0.51100000000E-03 0. -1.
        -11    1    3    3    0    0  0.27991231464E+00 -0.20299166717E+01 -0.80741147595E+01  0.83300805524E+01  0.51100000000E-03 0.  1.
        -12    1    3    3    0    0 -0.10316708269E+02  0.75443247754E+01 -0.14112336496E+02  0.19039678233E+02  0.00000000000E+00 0.  1.
</event>
<event>
 7    1  0.2811980E-010  0.4778726E+02  0.7816164E-02  0.1312668E+00
        -11   -1    0    0    0    0  0.00000000000E+00  0.00000000000E+00  0.45593999997E+02  0.45594000000E+02  0.51100000000E-03 0.  1.
         11   -1    0    0    0    0 -0.00000000000E+00 -0.00000000000E+00 -0.45593999997E+02  0.45594000000E+02  0.51100000000E-03 0. -1.
    9900012    2    1    2    0    0  0.22569082364E+02 -0.36893201680E+02 -0.36266804292E+01  0.47787255537E+02  0.19999929296E+02 0.  0.
        -12    1    1    2    0    0 -0.22569082364E+02  0.36893201680E+02  0.36266804292E+01  0.43400744463E+02  0.00000000000E+00 0.  1.
         11    1    3    3    0    0  0.75634425481E+01 -0.28240522577E+01 -0.48500382064E+01  0.94182697560E+01  0.51100000000E-03 0. -1.
        -11    1    3    3    0    0  0.11151452972E+02 -0.16659961110E+02  0.36393529113E+01  0.20375330609E+02  0.51100000000E-03 0.  1.
         12    1    3    3    0    0  0.38541868439E+01 -0.17409188313E+02 -0.24159951341E+01  0.17993655172E+02  0.00000000000E+00 0. -1.
</event>
<event>
 7    1  0.2811980E-010  0.4778727E+02  0.7816164E-02  0.1312668E+00
        -11   -1    0    0    0    0  0.00000000000E+00  0.00000000000E+00  0.45593999997E+02  0.45594000000E+02  0.51100000000E-03 0.  1.
         11   -1    0    0    0    0 -0.00000000000E+00 -0.00000000000E+00 -0.45593999997E+02  0.45594000000E+02  0.51100000000E-03 0. -1.
    9900012    2    1    2    0    0 -0.11956508162E+01  0.42576746283E+02 -0.83315545715E+01  0.47787266060E+02  0.19999977274E+02 0.  0.
        -12    1    1    2    0    0  0.11956508162E+01 -0.42576746283E+02  0.83315545715E+01  0.43400733940E+02  0.00000000000E+00 0.  1.
         11    1    3    3    0    0 -0.31399603855E+01  0.26487409395E+02 -0.64214162858E+01  0.27434955714E+02  0.51100000000E-03 0. -1.
        -11    1    3    3    0    0  0.14817502183E+01  0.13367010729E+01  0.39865442898E+01  0.44581261874E+01  0.51100000000E-03 0.  1.
        -12    1    3    3    0    0  0.46255935108E+00  0.14752635816E+02 -0.58966825755E+01  0.15894184158E+02  0.00000000000E+00 0.  1.
</event>
<event>
 7    1  0.2811980E-010  0.4778727E+02  0.7816164E-02  0.1312668E+00
        -11   -1    0    0    0    0  0.00000000000E+00  0.00000000000E+00  0.45593999997E+02  0.45594000000E+02  0.51100000000E-03 0.  1.
         11   -1    0    0    0    0 -0.00000000000E+00 -0.00000000000E+00 -0.45593999997E+02  0.45594000000E+02  0.51100000000E-03 0. -1.
    9900012    2    1    2    0    0  0.39546111253E+02  0.17857509179E+02 -0.91536433450E+00  0.47787269118E+02  0.19999991215E+02 0.  0.
        -12    1    1    2    0    0 -0.39546111253E+02 -0.17857509179E+02  0.91536433450E+00  0.43400730882E+02  0.00000000000E+00 0.  1.
         11    1    3    3    0    0  0.34105442110E+02  0.14201828294E+02  0.54384619171E+01  0.37342334912E+02  0.51100000000E-03 0. -1.
        -11    1    3    3    0    0  0.44605941825E+01 -0.40149277123E-02 -0.39491520796E+01  0.59575766037E+01  0.51100000000E-03 0.  1.
         12    1    3    3    0    0  0.98007495966E+00  0.36596958129E+01 -0.24046741720E+01  0.44873576014E+01  0.00000000000E+00 0. -1.
</event>
<event>
 7    1  0.2811980E-010  0.4778727E+02  0.7816164E-02  0.1312668E+00
        -11   -1    0    0    0    0  0.00000000000E+00  0.00000000000E+00  0.45593999997E+02  0.45594000000E+02  0.51100000000E-03 0. -1.
         11   -1    0    0    0    0 -0.00000000000E+00 -0.00000000000E+00 -0.45593999997E+02  0.45594000000E+02  0.51100000000E-03 0.  1.
    9900012    2    1    2    0    0  0.13706383364E+02  0.40528654416E+02  0.72929087655E+01  0.47787270836E+02  0.19999999050E+02 0.  0.
        -12    1    1    2    0    0 -0.13706383364E+02 -0.40528654416E+02 -0.72929087655E+01  0.43400729164E+02  0.00000000000E+00 0.  1.
         11    1    3    3    0    0  0.10126009545E+02  0.81719895986E+01  0.42862782292E+01  0.13699987760E+02  0.51100000000E-03 0. -1.
        -11    1    3    3    0    0 -0.22199348620E+01  0.11299192982E+02 -0.19783736127E+01  0.11683913524E+02  0.51100000000E-03 0.  1.
        -12    1    3    3    0    0  0.58003086806E+01  0.21057471836E+02  0.49850041489E+01  0.22403369552E+02  0.00000000000E+00 0.  1.
</event>
<event>
 7    1  0.2811980E-010  0.4778727E+02  0.7816164E-02  0.1312668E+00
        -11   -1    0    0    0    0  0.00000000000E+00  0.00000000000E+00  0.45593999997E+02  0.45594000000E+02  0.51100000000E-03 0.  1.
         11   -1    0    0    0    0 -0.00000000000E+00 -0.00000000000E+00 -0.45593999997E+02  0.45594000000E+02  0.51100000000E-03 0. -1.
    9900012    2    1    2    0    0  0.29419100276E+01  0.24948685538E+02 -0.35391127840E+02  0.47787266429E+02  0.19999978957E+02 0.  0.
        -12    1    1    2    0    0 -0.29419100276E+01 -0.24948685538E+02  0.35391127840E+02  0.43400733571E+02  0.00000000000E+00 0.  1.
         11    1    3    3    0    0  0.28349614717E+01  0.23202745957E+02 -0.22040092121E+02  0.32127403996E+02  0.51100000000E-03 0. -1.
        -11    1    3    3    0    0  0.37341181352E+01  0.14114183461E+00 -0.38553698023E+01  0.53691187208E+01  0.51100000000E-03 0.  1.
         12    1    3    3    0    0 -0.36271695793E+01  0.16047977459E+01 -0.94956659165E+01  0.10290743713E+02  0.00000000000E+00 0. -1.
</event>
<event>
 7    1  0.2811980E-010  0.4778727E+02  0.7816164E-02  0.1312668E+00
        -11   -1    0    0    0    0  0.00000000000E+00  0.00000000000E+00  0.45593999997E+02  0.45594000000E+02  0.51100000000E-03 0.  1.
         11   -1    0    0    0    0 -0.00000000000E+00 -0.00000000000E+00 -0.45593999997E+02  0.45594000000E+02  0.51100000000E-03 0. -1.
    9900012    2    1    2    0    0  0.10017828898E+02  0.37835310449E+02 -0.18755150747E+02  0.47787270834E+02  0.19999999039E+02 0.  0.
        -12    1    1    2    0    0 -0.10017828898E+02 -0.37835310449E+02  0.18755150747E+02  0.43400729166E+02  0.00000000000E+00 0.  1.
         11    1    3    3    0    0  0.51669059424E+00  0.48129761485E+01 -0.60412281257E+01  0.77413271539E+01  0.51100000000E-03 0. -1.
        -11    1    3    3    0    0  0.21170640688E+01  0.29728821738E+02 -0.11081238430E+02  0.31797462912E+02  0.51100000000E-03 0.  1.
        -12    1    3    3    0    0  0.73840742353E+01  0.32935125625E+01 -0.16326841912E+01  0.82484807680E+01  0.00000000000E+00 0.  1.
</event>
<event>
 7    1  0.2811980E-010  0.4778727E+02  0.7816164E-02  0.1312668E+00
        -11   -1    0    0    0    0  0.00000000000E+00  0.00000000000E+00  0.45593999997E+02  0.45594000000E+02  0.51100000000E-03 0.  1.
         11   -1    0    0    0    0 -0.00000000000E+00 -0.00000000000E+00 -0.45593999997E+02  0.45594000000E+02  0.51100000000E-03 0. -1.
    9900012    2    1    2    0    0  0.42028980797E+02 -0.31283719835E+01 -0.10363459693E+02  0.47787271493E+02  0.20000002046E+02 0.  0.
        -12    1    1    2    0    0 -0.42028980797E+02  0.31283719835E+01  0.10363459693E+02  0.43400728507E+02  0.00000000000E+00 0.  1.
         11    1    3    3    0    0  0.26105290172E+02 -0.34394683406E+01  0.29004918480E+00  0.26332494113E+02  0.51100000000E-03 0. -1.
        -11    1    3    3    0    0  0.16973121052E+02  0.14452924919E+01 -0.93421326940E+01  0.19428102125E+02  0.51100000000E-03 0.  1.
         12    1    3    3    0    0 -0.10494304272E+01 -0.11341961348E+01 -0.13113761838E+01  0.20266752550E+01  0.00000000000E+00 0. -1.
</event>
<event>
 7    1  0.2811980E-010  0.4778727E+02  0.7816164E-02  0.1312668E+00
        -11   -1    0    0    0    0  0.00000000000E+00  0.00000000000E+00  0.45593999997E+02  0.45594000000E+02  0.51100000000E-03 0.  1.
         11   -1    0    0    0    0 -0.00000000000E+00 -0.00000000000E+00 -0.45593999997E+02  0.45594000000E+02  0.51100000000E-03 0. -1.
    9900012    2    1    2    0    0  0.18707002193E+02 -0.82227503993E+01 -0.38289136753E+02  0.47787267880E+02  0.19999985574E+02 0.  0.
        -12    1    1    2    0    0 -0.18707002193E+02  0.82227503993E+01  0.38289136753E+02  0.43400732120E+02  0.00000000000E+00 0.  1.
         11    1    3    3    0    0  0.13647734458E+02 -0.62517919604E+01 -0.24683398929E+02  0.28889716881E+02  0.51100000000E-03 0. -1.
        -11    1    3    3    0    0  0.44430186352E+01  0.94450135577E+00  0.41727155847E+00  0.45614266648E+01  0.51100000000E-03 0.  1.
        -12    1    3    3    0    0  0.61624910052E+00 -0.29154597948E+01 -0.14023009383E+02  0.14336124334E+02  0.00000000000E+00 0.  1.
</event>
<event>
 7    1  0.2811980E-010  0.4778726E+02  0.7816164E-02  0.1312668E+00
        -11   -1    0    0    0    0  0.00000000000E+00  0.00000000000E+00  0.45593999997E+02  0.45594000000E+02  0.51100000000E-03 0.  1.
         11   -1    0    0    0    0 -0.00000000000E+00 -0.00000000000E+00 -0.45593999997E+02  0.45594000000E+02  0.51100000000E-03 0. -1.
    9900012    2    1    2    0    0 -0.13563777523E+02 -0.97743766396E+01 -0.40051336685E+02  0.47787261877E+02  0.19999958202E+02 0.  0.
        -12    1    1    2    0    0  0.13563777523E+02  0.97743766396E+01  0.40051336685E+02  0.43400738123E+02  0.00000000000E+00 0.  1.
         11    1    3    3    0    0 -0.31091272573E+00 -0.49696226945E+01 -0.81472115626E+01  0.95483439902E+01  0.51100000000E-03 0. -1.
        -11    1    3    3    0    0  0.15763030915E+01  0.21905023210E+01 -0.40640068331E+00  0.27291378916E+01  0.51100000000E-03 0.  1.
        -12    1    3    3    0    0 -0.14829167888E+02 -0.69952562661E+01 -0.31497724439E+02  0.35509779995E+02  0.00000000000E+00 0.  1.
</event>
<event>
 7    1  0.2811980E-010  0.4778730E+02  0.7816164E-02  0.1312668E+00
        -11   -1    0    0    0    0  0.00000000000E+00  0.00000000000E+00  0.45593999997E+02  0.45594000000E+02  0.51100000000E-03 0. -1.
         11   -1    0    0    0    0 -0.00000000000E+00 -0.00000000000E+00 -0.45593999997E+02  0.45594000000E+02  0.51100000000E-03 0.  1.
    9900012    2    1    2    0    0 -0.43206270309E+02  0.25378701946E+01  0.32246264195E+01  0.47787299606E+02  0.20000130223E+02 0.  0.
        -12    1    1    2    0    0  0.43206270309E+02 -0.25378701946E+01 -0.32246264195E+01  0.43400700394E+02  0.00000000000E+00 0.  1.
         11    1    3    3    0    0 -0.29552828771E+02  0.58432127125E+01  0.23093802769E+01  0.30213342428E+02  0.51100000000E-03 0. -1.
        -11    1    3    3    0    0 -0.91766382335E+01 -0.62150248309E+01  0.35259919523E+01  0.11630556411E+02  0.51100000000E-03 0.  1.
        -12    1    3    3    0    0 -0.44768033049E+01  0.29096823130E+01 -0.26107458097E+01  0.59434007669E+01  0.00000000000E+00 0.  1.
</event>
<event>
 7    1  0.2811980E-010  0.4778728E+02  0.7816164E-02  0.1312668E+00
        -11   -1    0    0    0    0  0.00000000000E+00  0.00000000000E+00  0.45593999997E+02  0.45594000000E+02  0.51100000000E-03 0. -1.
         11   -1    0    0    0    0 -0.00000000000E+00 -0.00000000000E+00 -0.45593999997E+02  0.45594000000E+02  0.51100000000E-03 0.  1.
    9900012    2    1    2    0    0  0.75954451549E+01 -0.30268250121E+02  0.30162300932E+02  0.47787283992E+02  0.20000059034E+02 0.  0.
        -12    1    1    2    0    0 -0.75954451549E+01  0.30268250121E+02 -0.30162300932E+02  0.43400716008E+02  0.00000000000E+00 0.  1.
         11    1    3    3    0    0 -0.69669591782E+00 -0.24334734833E+02  0.26737928266E+02  0.36160496579E+02  0.51100000000E-03 0. -1.
        -11    1    3    3    0    0  0.62455429793E+01 -0.43692880607E+01  0.44819126747E+01  0.88422297385E+01  0.51100000000E-03 0.  1.
        -12    1    3    3    0    0  0.20465980934E+01 -0.15642272271E+01 -0.10575400089E+01  0.27845576749E+01  0.00000000000E+00 0.  1.
</event>
<event>
 7    1  0.2811980E-010  0.4778727E+02  0.7816164E-02  0.1312668E+00
        -11   -1    0    0    0    0  0.00000000000E+00  0.00000000000E+00  0.45593999997E+02  0.45594000000E+02  0.51100000000E-03 0. -1.
         11   -1    0    0    0    0 -0.00000000000E+00 -0.00000000000E+00 -0.45593999997E+02  0.45594000000E+02  0.51100000000E-03 0.  1.
    9900012    2    1    2    0    0 -0.14927807852E+02 -0.33140015468E+02  0.23717568007E+02  0.47787272994E+02  0.20000008889E+02 0.  0.
        -12    1    1    2    0    0  0.14927807852E+02  0.33140015468E+02 -0.23717568007E+02  0.43400727006E+02  0.00000000000E+00 0.  1.
         11    1    3    3    0    0 -0.73215631692E+01 -0.85296423235E+01  0.82179356070E+00  0.11270999526E+02  0.51100000000E-03 0. -1.
        -11    1    3    3    0    0  0.20409532741E+00 -0.18537275633E+02  0.15485909140E+02  0.24155447108E+02  0.51100000000E-03 0.  1.
         12    1    3    3    0    0 -0.78103400099E+01 -0.60730975111E+01  0.74098653059E+01  0.12360826360E+02  0.00000000000E+00 0. -1.
</event>
<event>
 7    1  0.2811980E-010  0.4778728E+02  0.7816164E-02  0.1312668E+00
        -11   -1    0    0    0    0  0.00000000000E+00  0.00000000000E+00  0.45593999997E+02  0.45594000000E+02  0.51100000000E-03 0.  1.
         11   -1    0    0    0    0 -0.00000000000E+00 -0.00000000000E+00 -0.45593999997E+02  0.45594000000E+02  0.51100000000E-03 0. -1.
    9900012    2    1    2    0    0 -0.27087269420E+02  0.21592586600E+02 -0.26146946051E+02  0.47787277097E+02  0.20000027596E+02 0.  0.
        -12    1    1    2    0    0  0.27087269420E+02 -0.21592586600E+02  0.26146946051E+02  0.43400722903E+02  0.00000000000E+00 0.  1.
         11    1    3    3    0    0 -0.25126496594E+02  0.11039896844E+02 -0.20299821974E+02  0.34136533595E+02  0.51100000000E-03 0. -1.
        -11    1    3    3    0    0 -0.20401358851E+01  0.10206326007E+02 -0.69345267705E+01  0.12506754446E+02  0.51100000000E-03 0.  1.
         12    1    3    3    0    0  0.79363059707E-01  0.34636374953E+00  0.10874026935E+01  0.11439890559E+01  0.00000000000E+00 0. -1.
</event>
<event>
 7    1  0.2811980E-010  0.4778727E+02  0.7816164E-02  0.1312668E+00
        -11   -1    0    0    0    0  0.00000000000E+00  0.00000000000E+00  0.45593999997E+02  0.45594000000E+02  0.51100000000E-03 0.  1.
         11   -1    0    0    0    0 -0.00000000000E+00 -0.00000000000E+00 -0.45593999997E+02  0.45594000000E+02  0.51100000000E-03 0. -1.
    9900012    2    1    2    0    0 -0.19404909924E+02  0.76800904166E+01 -0.38053770744E+02  0.47787265147E+02  0.19999973111E+02 0.  0.
        -12    1    1    2    0    0  0.19404909924E+02 -0.76800904166E+01  0.38053770744E+02  0.43400734853E+02  0.00000000000E+00 0.  1.
         11    1    3    3    0    0 -0.14690083392E+02 -0.25418597089E+01 -0.15699274409E+02  0.21650099724E+02  0.51100000000E-03 0. -1.
        -11    1    3    3    0    0  0.17463558215E+01  0.41506897896E+01 -0.56439843568E+01  0.72202869794E+01  0.51100000000E-03 0.  1.
         12    1    3    3    0    0 -0.64611823533E+01  0.60712603360E+01 -0.16710511978E+02  0.18916878443E+02  0.00000000000E+00 0. -1.
</event>
<event>
 7    1  0.2811980E-010  0.4778727E+02  0.7816164E-02  0.1312668E+00
        -11   -1    0    0    0    0  0.00000000000E+00  0.00000000000E+00  0.45593999997E+02  0.45594000000E+02  0.51100000000E-03 0.  1.
         11   -1    0    0    0    0 -0.00000000000E+00 -0.00000000000E+00 -0.45593999997E+02  0.45594000000E+02  0.51100000000E-03 0. -1.
    9900012    2    1    2    0    0 -0.87322523323E+00 -0.30435404684E+02 -0.30928092429E+02  0.47787270952E+02  0.19999999578E+02 0.  0.
        -12    1    1    2    0    0  0.87322523323E+00  0.30435404684E+02  0.30928092429E+02  0.43400729048E+02  0.00000000000E+00 0.  1.
         11    1    3    3    0    0 -0.25689718223E+01 -0.16773322587E+02 -0.22569904521E+02  0.28237290188E+02  0.51100000000E-03 0. -1.
        -11    1    3    3    0    0  0.55391059028E+01 -0.73576095889E+01 -0.12377360824E+01  0.92923680478E+01  0.51100000000E-03 0.  1.
        -12    1    3    3    0    0 -0.38433593137E+01 -0.63044725082E+01 -0.71204518258E+01  0.10257612716E+02  0.00000000000E+00 0.  1.
</event>
<event>
 7    1  0.2811980E-010  0.4778727E+02  0.7816164E-02  0.1312668E+00
        -11   -1    0    0    0    0  0.00000000000E+00  0.00000000000E+00  0.45593999997E+02  0.45594000000E+02  0.51100000000E-03 0. -1.
         11   -1    0    0    0    0 -0.00000000000E+00 -0.00000000000E+00 -0.45593999997E+02  0.45594000000E+02  0.51100000000E-03 0.  1.
    9900012    2    1    2    0    0  0.22229127691E+02  0.34106956319E+02  0.15040106934E+02  0.47787269547E+02  0.19999993174E+02 0.  0.
        -12    1    1    2    0    0 -0.22229127691E+02 -0.34106956319E+02 -0.15040106934E+02  0.43400730453E+02  0.00000000000E+00 0.  1.
         11    1    3    3    0    0  0.50175288500E+01  0.95428694027E+01  0.74404375552E+01  0.13099697076E+02  0.51100000000E-03 0. -1.
        -11    1    3    3    0    0  0.14669907492E+02  0.26673547757E+02  0.76349977130E+01  0.31384351612E+02  0.51100000000E-03 0.  1.
        -12    1    3    3    0    0  0.25416913493E+01 -0.21094608412E+01 -0.35328333929E-01  0.33032208596E+01  0.00000000000E+00 0.  1.
</event>
<event>
 7    1  0.2811980E-010  0.4778727E+02  0.7816164E-02  0.1312668E+00
        -11   -1    0    0    0    0  0.00000000000E+00  0.00000000000E+00  0.45593999997E+02  0.45594000000E+02  0.51100000000E-03 0. -1.
         11   -1    0    0    0    0 -0.00000000000E+00 -0.00000000000E+00 -0.45593999997E+02  0.45594000000E+02  0.51100000000E-03 0.  1.
    9900012    2    1    2    0    0  0.42159304973E+02 -0.87253289955E+01  0.54850093345E+01  0.47787266259E+02  0.19999978180E+02 0.  0.
        -12    1    1    2    0    0 -0.42159304973E+02  0.87253289955E+01 -0.54850093345E+01  0.43400733741E+02  0.00000000000E+00 0.  1.
         11    1    3    3    0    0  0.22693903016E+02 -0.73979807551E+00 -0.39333386065E+01  0.23044124808E+02  0.51100000000E-03 0. -1.
        -11    1    3    3    0    0  0.17502418277E+02 -0.99204326608E+01  0.84635090419E+01  0.21826145223E+02  0.51100000000E-03 0.  1.
        -12    1    3    3    0    0  0.19629836797E+01  0.19349017408E+01  0.95483889901E+00  0.29169962284E+01  0.00000000000E+00 0.  1.
</event>
<event>
 7    1  0.2811980E-010  0.4778728E+02  0.7816164E-02  0.1312668E+00
        -11   -1    0    0    0    0  0.00000000000E+00  0.00000000000E+00  0.45593999997E+02  0.45594000000E+02  0.51100000000E-03 0.  1.
         11   -1    0    0    0    0 -0.00000000000E+00 -0.00000000000E+00 -0.45593999997E+02  0.45594000000E+02  0.51100000000E-03 0. -1.
    9900012    2    1    2    0    0 -0.18383648607E+02  0.17233596369E+02 -0.35336487651E+02  0.47787277202E+02  0.20000028076E+02 0.  0.
        -12    1    1    2    0    0  0.18383648607E+02 -0.17233596369E+02  0.35336487651E+02  0.43400722798E+02  0.00000000000E+00 0.  1.
         11    1    3    3    0    0 -0.17658634863E+02  0.56199745280E+01 -0.24823757402E+02  0.30977902298E+02  0.51100000000E-03 0. -1.
        -11    1    3    3    0    0 -0.97581741728E+00  0.70212422290E+01 -0.98901548913E+01  0.12168205542E+02  0.51100000000E-03 0.  1.
         12    1    3    3    0    0  0.25080367411E+00  0.45923796116E+01 -0.62257535691E+00  0.46411693628E+01  0.00000000000E+00 0. -1.
</event>
<event>
 7    1  0.2811980E-010  0.4778727E+02  0.7816164E-02  0.1312668E+00
        -11   -1    0    0    0    0  0.00000000000E+00  0.00000000000E+00  0.45593999997E+02  0.45594000000E+02  0.51100000000E-03 0. -1.
         11   -1    0    0    0    0 -0.00000000000E+00 -0.00000000000E+00 -0.45593999997E+02  0.45594000000E+02  0.51100000000E-03 0.  1.
    9900012    2    1    2    0    0  0.44896564863E+01 -0.25763048953E+02  0.34637141857E+02  0.47787270712E+02  0.19999998482E+02 0.  0.
        -12    1    1    2    0    0 -0.44896564863E+01  0.25763048953E+02 -0.34637141857E+02  0.43400729288E+02  0.00000000000E+00 0.  1.
         11    1    3    3    0    0  0.79733106886E+01 -0.19714084664E+02  0.28771049276E+02  0.35776977153E+02  0.51100000000E-03 0. -1.
        -11    1    3    3    0    0 -0.27016162887E+01  0.57225086565E+00  0.43824589231E+01  0.51799756851E+01  0.51100000000E-03 0.  1.
        -12    1    3    3    0    0 -0.78203791355E+00 -0.66212151549E+01  0.14836336580E+01  0.68303178738E+01  0.00000000000E+00 0.  1.
</event>
<event>
 7    1  0.2811980E-010  0.4778726E+02  0.7816164E-02  0.1312668E+00
        -11   -1    0    0    0    0  0.00000000000E+00  0.00000000000E+00  0.45593999997E+02  0.45594000000E+02  0.51100000000E-03 0. -1.
         11   -1    0    0    0    0 -0.00000000000E+00 -0.00000000000E+00 -0.45593999997E+02  0.45594000000E+02  0.51100000000E-03 0.  1.
    9900012    2    1    2    0    0 -0.28908234743E+02 -0.11454252685E+02  0.30277686979E+02  0.47787259576E+02  0.19999947711E+02 0.  0.
        -12    1    1    2    0    0  0.28908234743E+02  0.11454252685E+02 -0.30277686979E+02  0.43400740424E+02  0.00000000000E+00 0.  1.
         11    1    3    3    0    0 -0.61894275665E+01 -0.14761946248E+00  0.73558989401E+00  0.62347331827E+01  0.51100000000E-03 0. -1.
        -11    1    3    3    0    0 -0.17781886461E+02 -0.55770835659E+01  0.28304659287E+02  0.33888834220E+02  0.51100000000E-03 0.  1.
        -12    1    3    3    0    0 -0.49369207158E+01 -0.57295496565E+01  0.12374377985E+01  0.76636921732E+01  0.00000000000E+00 0.  1.
</event>
<event>
 7    1  0.2811980E-010  0.4778728E+02  0.7816164E-02  0.1312668E+00
        -11   -1    0    0    0    0  0.00000000000E+00  0.00000000000E+00  0.45593999997E+02  0.45594000000E+02  0.51100000000E-03 0.  1.
         11   -1    0    0    0    0 -0.00000000000E+00 -0.00000000000E+00 -0.45593999997E+02  0.45594000000E+02  0.51100000000E-03 0. -1.
    9900012    2    1    2    0    0  0.21599857901E+02  0.23511605358E+01 -0.37570480177E+02  0.47787276528E+02  0.20000025001E+02 0.  0.
        -12    1    1    2    0    0 -0.21599857901E+02 -0.23511605358E+01  0.37570480177E+02  0.43400723472E+02  0.00000000000E+00 0.  1.
         11    1    3    3    0    0  0.24959276782E+01  0.16146570504E+01 -0.15708816654E+01  0.33622078807E+01  0.51100000000E-03 0. -1.
        -11    1    3    3    0    0  0.10727462890E+01  0.67598101695E+01 -0.73642244755E+01  0.10053736644E+02  0.51100000000E-03 0.  1.
        -12    1    3    3    0    0  0.18031183934E+02 -0.60233066841E+01 -0.28635374036E+02  0.34371332003E+02  0.00000000000E+00 0.  1.
</event>
<event>
 7    1  0.2811980E-010  0.4778726E+02  0.7816164E-02  0.1312668E+00
        -11   -1    0    0    0    0  0.00000000000E+00  0.00000000000E+00  0.45593999997E+02  0.45594000000E+02  0.51100000000E-03 0.  1.
         11   -1    0    0    0    0 -0.00000000000E+00 -0.00000000000E+00 -0.45593999997E+02  0.45594000000E+02  0.51100000000E-03 0. -1.
    9900012    2    1    2    0    0 -0.37174562388E+02  0.20612522487E+02 -0.87635523970E+01  0.47787262418E+02  0.19999960669E+02 0.  0.
        -12    1    1    2    0    0  0.37174562388E+02 -0.20612522487E+02  0.87635523970E+01  0.43400737582E+02  0.00000000000E+00 0.  1.
         11    1    3    3    0    0 -0.12908668114E+02  0.13263282997E+01  0.33086612464E+01  0.13391792215E+02  0.51100000000E-03 0.  1.
        -11    1    3    3    0    0 -0.16333142460E+02  0.12809258168E+02 -0.35203623562E+01  0.21053303513E+02  0.51100000000E-03 0. -1.
         12    1    3    3    0    0 -0.79327518144E+01  0.64769360194E+01 -0.85518512872E+01  0.13342166690E+02  0.00000000000E+00 0. -1.
</event>
<event>
 7    1  0.2811980E-010  0.4778727E+02  0.7816164E-02  0.1312668E+00
        -11   -1    0    0    0    0  0.00000000000E+00  0.00000000000E+00  0.45593999997E+02  0.45594000000E+02  0.51100000000E-03 0.  1.
         11   -1    0    0    0    0 -0.00000000000E+00 -0.00000000000E+00 -0.45593999997E+02  0.45594000000E+02  0.51100000000E-03 0. -1.
    9900012    2    1    2    0    0 -0.38020956759E+02 -0.18687859025E+02 -0.94230620862E+01  0.47787270434E+02  0.19999997216E+02 0.  0.
        -12    1    1    2    0    0  0.38020956759E+02  0.18687859025E+02  0.94230620862E+01  0.43400729566E+02  0.00000000000E+00 0.  1.
         11    1    3    3    0    0 -0.20351838826E+02 -0.78865495133E+01  0.41340864623E+01  0.22214537537E+02  0.51100000000E-03 0. -1.
        -11    1    3    3    0    0 -0.40490247774E+01 -0.53868220729E+01 -0.62684975126E+01  0.92036142368E+01  0.51100000000E-03 0.  1.
         12    1    3    3    0    0 -0.13620093155E+02 -0.54144874384E+01 -0.72886510359E+01  0.16369118660E+02  0.00000000000E+00 0. -1.
</event>
<event>
 7    1  0.2811980E-010  0.4778727E+02  0.7816164E-02  0.1312668E+00
        -11   -1    0    0    0    0  0.00000000000E+00  0.00000000000E+00  0.45593999997E+02  0.45594000000E+02  0.51100000000E-03 0.  1.
         11   -1    0    0    0    0 -0.00000000000E+00 -0.00000000000E+00 -0.45593999997E+02  0.45594000000E+02  0.51100000000E-03 0. -1.
    9900012    2    1    2    0    0  0.73065688604E+01 -0.33131641519E+02 -0.27065325534E+02  0.47787268848E+02  0.19999989988E+02 0.  0.
        -12    1    1    2    0    0 -0.73065688604E+01  0.33131641519E+02  0.27065325534E+02  0.43400731152E+02  0.00000000000E+00 0.  1.
         11    1    3    3    0    0  0.52799109225E+01 -0.17476684466E+02 -0.10527362476E+02  0.21074565719E+02  0.51100000000E-03 0. -1.
        -11    1    3    3    0    0 -0.56917058256E+01 -0.52513399278E+01 -0.41379211219E+01  0.87803461045E+01  0.51100000000E-03 0.  1.
        -12    1    3    3    0    0  0.77183637634E+01 -0.10403617125E+02 -0.12400041936E+02  0.17932357025E+02  0.00000000000E+00 0.  1.
</event>
<event>
 7    1  0.2811980E-010  0.4778727E+02  0.7816164E-02  0.1312668E+00
        -11   -1    0    0    0    0  0.00000000000E+00  0.00000000000E+00  0.45593999997E+02  0.45594000000E+02  0.51100000000E-03 0. -1.
         11   -1    0    0    0    0 -0.00000000000E+00 -0.00000000000E+00 -0.45593999997E+02  0.45594000000E+02  0.51100000000E-03 0.  1.
    9900012    2    1    2    0    0  0.32709173140E+02 -0.27438949480E+02  0.77998227272E+01  0.47787272003E+02  0.20000004372E+02 0.  0.
        -12    1    1    2    0    0 -0.32709173140E+02  0.27438949480E+02 -0.77998227272E+01  0.43400727997E+02  0.00000000000E+00 0.  1.
         11    1    3    3    0    0  0.10975941968E+02 -0.10685236395E+02  0.79801929493E-01  0.15318353290E+02  0.51100000000E-03 0. -1.
        -11    1    3    3    0    0 -0.23586975995E+01 -0.33473908737E+00  0.63757740497E+00  0.24661731146E+01  0.51100000000E-03 0.  1.
        -12    1    3    3    0    0  0.24091928771E+02 -0.16418973998E+02  0.70824433927E+01  0.30002745599E+02  0.00000000000E+00 0.  1.
</event>
<event>
 7    1  0.2811980E-010  0.4778727E+02  0.7816164E-02  0.1312668E+00
        -11   -1    0    0    0    0  0.00000000000E+00  0.00000000000E+00  0.45593999997E+02  0.45594000000E+02  0.51100000000E-03 0.  1.
         11   -1    0    0    0    0 -0.00000000000E+00 -0.00000000000E+00 -0.45593999997E+02  0.45594000000E+02  0.51100000000E-03 0. -1.
    9900012    2    1    2    0    0  0.13902480485E+02  0.40744676908E+02 -0.54968540946E+01  0.47787273452E+02  0.20000010978E+02 0.  0.
        -12    1    1    2    0    0 -0.13902480485E+02 -0.40744676908E+02  0.54968540946E+01  0.43400726548E+02  0.00000000000E+00 0.  1.
         11    1    3    3    0    0  0.14181994219E+02  0.22245850729E+02 -0.10631990135E+02  0.28443734796E+02  0.51100000000E-03 0. -1.
        -11    1    3    3    0    0  0.91216723186E+00  0.11220232916E+02  0.27009943859E+01  0.11576745945E+02  0.51100000000E-03 0.  1.
         12    1    3    3    0    0 -0.11916809658E+01  0.72785932631E+01  0.24341416549E+01  0.77667927107E+01  0.00000000000E+00 0. -1.
</event>
<event>
 7    1  0.2811980E-010  0.4778727E+02  0.7816164E-02  0.1312668E+00
        -11   -1    0    0    0    0  0.00000000000E+00  0.00000000000E+00  0.45593999997E+02  0.45594000000E+02  0.51100000000E-03 0.  1.
         11   -1    0    0    0    0 -0.00000000000E+00 -0.00000000000E+00 -0.45593999997E+02  0.45594000000E+02  0.51100000000E-03 0. -1.
    9900012    2    1    2    0    0 -0.14653433960E+02 -0.65646821385E+01 -0.40321272333E+02  0.47787272115E+02  0.20000004880E+02 0.  0.
        -12    1    1    2    0    0  0.14653433960E+02  0.65646821385E+01  0.40321272333E+02  0.43400727885E+02  0.00000000000E+00 0.  1.
         11    1    3    3    0    0 -0.35195236974E+01  0.29228801692E+01 -0.15707793409E+02  0.16360472169E+02  0.51100000000E-03 0. -1.
        -11    1    3    3    0    0 -0.99557106441E+01 -0.89865004779E+01 -0.99301490044E+01  0.16687756733E+02  0.51100000000E-03 0.  1.
        -12    1    3    3    0    0 -0.11781996182E+01 -0.50106182983E+00 -0.14683329920E+02  0.14739043213E+02  0.00000000000E+00 0.  1.
</event>
<event>
 7    1  0.2811980E-010  0.4778727E+02  0.7816164E-02  0.1312668E+00
        -11   -1    0    0    0    0  0.00000000000E+00  0.00000000000E+00  0.45593999997E+02  0.45594000000E+02  0.51100000000E-03 0. -1.
         11   -1    0    0    0    0 -0.00000000000E+00 -0.00000000000E+00 -0.45593999997E+02  0.45594000000E+02  0.51100000000E-03 0.  1.
    9900012    2    1    2    0    0  0.24878200193E+02 -0.26776811331E+02  0.23403008006E+02  0.47787271278E+02  0.20000001064E+02 0.  0.
        -12    1    1    2    0    0 -0.24878200193E+02  0.26776811331E+02 -0.23403008006E+02  0.43400728722E+02  0.00000000000E+00 0.  1.
         11    1    3    3    0    0  0.56324641835E+01 -0.17003416238E+02  0.13861742325E+02  0.22649254228E+02  0.51100000000E-03 0. -1.
        -11    1    3    3    0    0  0.92525000401E+00 -0.37202145433E+01  0.62998230471E+00  0.38849661238E+01  0.51100000000E-03 0.  1.
         12    1    3    3    0    0  0.18320486005E+02 -0.60531805496E+01  0.89112833762E+01  0.21253050925E+02  0.00000000000E+00 0. -1.
</event>
<event>
 7    1  0.2811980E-010  0.4778727E+02  0.7816164E-02  0.1312668E+00
        -11   -1    0    0    0    0  0.00000000000E+00  0.00000000000E+00  0.45593999997E+02  0.45594000000E+02  0.51100000000E-03 0. -1.
         11   -1    0    0    0    0 -0.00000000000E+00 -0.00000000000E+00 -0.45593999997E+02  0.45594000000E+02  0.51100000000E-03 0.  1.
    9900012    2    1    2    0    0 -0.29939198638E+02 -0.29052024995E+02  0.11968606116E+02  0.47787270700E+02  0.19999998430E+02 0.  0.
        -12    1    1    2    0    0  0.29939198638E+02  0.29052024995E+02 -0.11968606116E+02  0.43400729300E+02  0.00000000000E+00 0.  1.
         11    1    3    3    0    0 -0.12898058292E+02 -0.76794421697E+01 -0.17180259595E+01  0.15109114904E+02  0.51100000000E-03 0. -1.
        -11    1    3    3    0    0 -0.10267479568E+02 -0.11967513676E+02  0.14677371234E+01  0.15836564425E+02  0.51100000000E-03 0.  1.
         12    1    3    3    0    0 -0.67736607780E+01 -0.94050691500E+01  0.12218894952E+02  0.16841591371E+02  0.00000000000E+00 0. -1.
</event>
<event>
 7    1  0.2907767E-010  0.4778727E+02  0.7816164E-02  0.1312668E+00
        -11   -1    0    0    0    0  0.00000000000E+00  0.00000000000E+00  0.45593999997E+02  0.45594000000E+02  0.51100000000E-03 0.  1.
         11   -1    0    0    0    0 -0.00000000000E+00 -0.00000000000E+00 -0.45593999997E+02  0.45594000000E+02  0.51100000000E-03 0. -1.
    9900012    2    1    2    0    0 -0.35048527844E+02 -0.25401385709E+02 -0.31612656064E+01  0.47787270741E+02  0.19999998618E+02 0.  0.
        -12    1    1    2    0    0  0.35048527844E+02  0.25401385709E+02  0.31612656064E+01  0.43400729259E+02  0.00000000000E+00 0.  1.
         11    1    3    3    0    0 -0.18450858761E+02 -0.17257046257E+02 -0.22528581413E+01  0.25363659132E+02  0.51100000000E-03 0. -1.
        -11    1    3    3    0    0 -0.59058716482E+01  0.60238833683E+00 -0.52694186467E+01  0.79378186404E+01  0.51100000000E-03 0.  1.
        -12    1    3    3    0    0 -0.10691797435E+02 -0.87467277891E+01  0.43610111816E+01  0.14485792968E+02  0.00000000000E+00 0.  1.
</event>
<event>
 7    1  0.2811980E-010  0.4778727E+02  0.7816164E-02  0.1312668E+00
        -11   -1    0    0    0    0  0.00000000000E+00  0.00000000000E+00  0.45593999997E+02  0.45594000000E+02  0.51100000000E-03 0.  1.
         11   -1    0    0    0    0 -0.00000000000E+00 -0.00000000000E+00 -0.45593999997E+02  0.45594000000E+02  0.51100000000E-03 0. -1.
    9900012    2    1    2    0    0 -0.17170298281E+02  0.22750366780E+02 -0.32729579003E+02  0.47787266442E+02  0.19999979015E+02 0.  0.
        -12    1    1    2    0    0  0.17170298281E+02 -0.22750366780E+02  0.32729579003E+02  0.43400733558E+02  0.00000000000E+00 0.  1.
         11    1    3    3    0    0 -0.67501886262E+01 -0.17784148816E+01 -0.10780051327E+02  0.12842792253E+02  0.51100000000E-03 0. -1.
        -11    1    3    3    0    0  0.59749711485E+00  0.23631991103E+01 -0.20187237050E+01  0.31649578979E+01  0.51100000000E-03 0.  1.
         12    1    3    3    0    0 -0.11017606770E+02  0.22165582551E+02 -0.19930803971E+02  0.31779516291E+02  0.00000000000E+00 0. -1.
</event>
<event>
 7    1  0.2811980E-010  0.4778729E+02  0.7816164E-02  0.1312668E+00
        -11   -1    0    0    0    0  0.00000000000E+00  0.00000000000E+00  0.45593999997E+02  0.45594000000E+02  0.51100000000E-03 0. -1.
         11   -1    0    0    0    0 -0.00000000000E+00 -0.00000000000E+00 -0.45593999997E+02  0.45594000000E+02  0.51100000000E-03 0.  1.
    9900012    2    1    2    0    0 -0.26360941257E+02 -0.29609882016E+02  0.17662879654E+02  0.47787289699E+02  0.20000085054E+02 0.  0.
        -12    1    1    2    0    0  0.26360941257E+02  0.29609882016E+02 -0.17662879654E+02  0.43400710301E+02  0.00000000000E+00 0.  1.
         11    1    3    3    0    0 -0.24985567792E+02 -0.20710189881E+02  0.14514051476E+02  0.35550643500E+02  0.51100000000E-03 0. -1.
        -11    1    3    3    0    0 -0.13675664628E+00 -0.76786581970E+01 -0.99361142639E+00  0.77438852016E+01  0.51100000000E-03 0.  1.
        -12    1    3    3    0    0 -0.12386168194E+01 -0.12210339380E+01  0.41424396046E+01  0.44927609975E+01  0.00000000000E+00 0.  1.
</event>
<event>
 7    1  0.2811980E-010  0.4778727E+02  0.7816164E-02  0.1312668E+00
        -11   -1    0    0    0    0  0.00000000000E+00  0.00000000000E+00  0.45593999997E+02  0.45594000000E+02  0.51100000000E-03 0.  1.
         11   -1    0    0    0    0 -0.00000000000E+00 -0.00000000000E+00 -0.45593999997E+02  0.45594000000E+02  0.51100000000E-03 0. -1.
    9900012    2    1    2    0    0 -0.34493789920E+02  0.20191774045E+02 -0.16914315212E+02  0.47787270269E+02  0.19999996463E+02 0.  0.
        -12    1    1    2    0    0  0.34493789920E+02 -0.20191774045E+02  0.16914315212E+02  0.43400729731E+02  0.00000000000E+00 0.  1.
         11    1    3    3    0    0 -0.58821434731E+01  0.51577468812E+01 -0.28632741306E+01  0.83306844698E+01  0.51100000000E-03 0. -1.
        -11    1    3    3    0    0 -0.10525321718E+02  0.99075290054E+01 -0.14740398516E+02  0.20645117509E+02  0.51100000000E-03 0.  1.
        -12    1    3    3    0    0 -0.18086324729E+02  0.51264981582E+01  0.68935743502E+00  0.18811468290E+02  0.00000000000E+00 0.  1.
</event>
<event>
 7    1  0.2811980E-010  0.4778727E+02  0.7816164E-02  0.1312668E+00
        -11   -1    0    0    0    0  0.00000000000E+00  0.00000000000E+00  0.45593999997E+02  0.45594000000E+02  0.51100000000E-03 0. -1.
         11   -1    0    0    0    0 -0.00000000000E+00 -0.00000000000E+00 -0.45593999997E+02  0.45594000000E+02  0.51100000000E-03 0.  1.
    9900012    2    1    2    0    0  0.19125178779E+02 -0.38650750976E+02  0.48959540038E+01  0.47787269823E+02  0.19999994429E+02 0.  0.
        -12    1    1    2    0    0 -0.19125178779E+02  0.38650750976E+02 -0.48959540038E+01  0.43400730177E+02  0.00000000000E+00 0.  1.
         11    1    3    3    0    0  0.41727824306E+01 -0.25139937120E+02  0.90259668047E+01  0.27035099937E+02  0.51100000000E-03 0. -1.
        -11    1    3    3    0    0  0.75387886165E+01 -0.56989728415E+01 -0.30402527745E+01  0.99274751295E+01  0.51100000000E-03 0.  1.
         12    1    3    3    0    0  0.74136077319E+01 -0.78118410148E+01 -0.10897600264E+01  0.10824694756E+02  0.00000000000E+00 0. -1.
</event>
<event>
 7    1  0.3618343E-010  0.4778727E+02  0.7816164E-02  0.1312668E+00
        -11   -1    0    0    0    0  0.00000000000E+00  0.00000000000E+00  0.45593999997E+02  0.45594000000E+02  0.51100000000E-03 0. -1.
         11   -1    0    0    0    0 -0.00000000000E+00 -0.00000000000E+00 -0.45593999997E+02  0.45594000000E+02  0.51100000000E-03 0.  1.
    9900012    2    1    2    0    0 -0.39183709010E+02 -0.19965060360E+01  0.18554624635E+02  0.47787272086E+02  0.20000004749E+02 0.  0.
        -12    1    1    2    0    0  0.39183709010E+02  0.19965060360E+01 -0.18554624635E+02  0.43400727914E+02  0.00000000000E+00 0.  1.
         11    1    3    3    0    0 -0.18743104294E+02  0.39296190703E+00  0.13413727326E+02  0.23051821157E+02  0.51100000000E-03 0. -1.
        -11    1    3    3    0    0 -0.88755389984E+01 -0.73512865902E+01  0.14162838744E+01  0.11611307735E+02  0.51100000000E-03 0.  1.
        -12    1    3    3    0    0 -0.11565065718E+02  0.49618186472E+01  0.37246134353E+01  0.13124143194E+02  0.00000000000E+00 0.  1.
</event>
<event>
 7    1  0.2811980E-010  0.4778727E+02  0.7816164E-02  0.1312668E+00
        -11   -1    0    0    0    0  0.00000000000E+00  0.00000000000E+00  0.45593999997E+02  0.45594000000E+02  0.51100000000E-03 0.  1.
         11   -1    0    0    0    0 -0.00000000000E+00 -0.00000000000E+00 -0.45593999997E+02  0.45594000000E+02  0.51100000000E-03 0. -1.
    9900012    2    1    2    0    0 -0.39137925893E+01 -0.38506123336E+02 -0.19636289622E+02  0.47787272162E+02  0.20000005094E+02 0.  0.
        -12    1    1    2    0    0  0.39137925893E+01  0.38506123336E+02  0.19636289622E+02  0.43400727838E+02  0.00000000000E+00 0.  1.
         11    1    3    3    0    0  0.11443807033E+01 -0.16021907094E+02 -0.17242452455E+02  0.23565086060E+02  0.51100000000E-03 0. -1.
        -11    1    3    3    0    0 -0.62087816527E+00 -0.17166493211E+02 -0.16949028068E+01  0.17261131905E+02  0.51100000000E-03 0.  1.
         12    1    3    3    0    0 -0.44372951273E+01 -0.53177230314E+01 -0.69893435971E+00  0.69610541964E+01  0.00000000000E+00 0. -1.
</event>
<event>
 7    1  0.2811980E-010  0.4778727E+02  0.7816164E-02  0.1312668E+00
        -11   -1    0    0    0    0  0.00000000000E+00  0.00000000000E+00  0.45593999997E+02  0.45594000000E+02  0.51100000000E-03 0.  1.
         11   -1    0    0    0    0 -0.00000000000E+00 -0.00000000000E+00 -0.45593999997E+02  0.45594000000E+02  0.51100000000E-03 0. -1.
    9900012    2    1    2    0    0 -0.36806155689E+02  0.21581265353E+02  0.79485531300E+01  0.47787267198E+02  0.19999982464E+02 0.  0.
        -12    1    1    2    0    0  0.36806155689E+02 -0.21581265353E+02 -0.79485531300E+01  0.43400732802E+02  0.00000000000E+00 0.  1.
         11    1    3    3    0    0 -0.14446550896E+02  0.43878060582E+01  0.13190963213E+01  0.15155714769E+02  0.51100000000E-03 0. -1.
        -11    1    3    3    0    0 -0.40572464462E+01 -0.66876653178E+00 -0.32236698195E+01  0.52249923221E+01  0.51100000000E-03 0.  1.
        -12    1    3    3    0    0 -0.18302358347E+02  0.17862225827E+02  0.98531266281E+01  0.27406560107E+02  0.00000000000E+00 0.  1.
</event>
<event>
 7    1  0.2811980E-010  0.4778727E+02  0.7816164E-02  0.1312668E+00
        -11   -1    0    0    0    0  0.00000000000E+00  0.00000000000E+00  0.45593999997E+02  0.45594000000E+02  0.51100000000E-03 0.  1.
         11   -1    0    0    0    0 -0.00000000000E+00 -0.00000000000E+00 -0.45593999997E+02  0.45594000000E+02  0.51100000000E-03 0. -1.
    9900012    2    1    2    0    0 -0.41473081191E+02  0.49626599213E+01 -0.11788915578E+02  0.47787274344E+02  0.20000015042E+02 0.  0.
        -12    1    1    2    0    0  0.41473081191E+02 -0.49626599213E+01  0.11788915578E+02  0.43400725656E+02  0.00000000000E+00 0.  1.
         11    1    3    3    0    0 -0.39829717089E+01 -0.54665060109E+01 -0.40526149572E+01  0.78848233876E+01  0.51100000000E-03 0. -1.
        -11    1    3    3    0    0 -0.30446496489E+02  0.67538300500E+01 -0.57365887304E+01  0.31709806359E+02  0.51100000000E-03 0.  1.
         12    1    3    3    0    0 -0.70436129938E+01  0.36753358822E+01 -0.19997118909E+01  0.81926445974E+01  0.00000000000E+00 0. -1.
</event>
<event>
 7    1  0.2811980E-010  0.4778727E+02  0.7816164E-02  0.1312668E+00
        -11   -1    0    0    0    0  0.00000000000E+00  0.00000000000E+00  0.45593999997E+02  0.45594000000E+02  0.51100000000E-03 0.  1.
         11   -1    0    0    0    0 -0.00000000000E+00 -0.00000000000E+00 -0.45593999997E+02  0.45594000000E+02  0.51100000000E-03 0. -1.
    9900012    2    1    2    0    0 -0.34192829745E+02 -0.92903726471E+01 -0.25063172193E+02  0.47787271547E+02  0.20000002291E+02 0.  0.
        -12    1    1    2    0    0  0.34192829745E+02  0.92903726471E+01  0.25063172193E+02  0.43400728453E+02  0.00000000000E+00 0.  1.
         11    1    3    3    0    0 -0.37857474563E+01  0.78860204653E+00 -0.57581097630E+01  0.69361088007E+01  0.51100000000E-03 0. -1.
        -11    1    3    3    0    0 -0.94569865077E+01 -0.15089691924E+01 -0.15021057363E+02  0.17814144559E+02  0.51100000000E-03 0.  1.
        -12    1    3    3    0    0 -0.20950095781E+02 -0.85700055012E+01 -0.42840050673E+01  0.23037018187E+02  0.00000000000E+00 0.  1.
</event>
<event>
 7    1  0.2811980E-010  0.4778727E+02  0.7816164E-02  0.1312668E+00
        -11   -1    0    0    0    0  0.00000000000E+00  0.00000000000E+00  0.45593999997E+02  0.45594000000E+02  0.51100000000E-03 0. -1.
         11   -1    0    0    0    0 -0.00000000000E+00 -0.00000000000E+00 -0.45593999997E+02  0.45594000000E+02  0.51100000000E-03 0.  1.
    9900012    2    1    2    0    0 -0.80538746729E+01  0.42488890045E+02  0.36677775436E+01  0.47787271128E+02  0.20000000380E+02 0.  0.
        -12    1    1    2    0    0  0.80538746729E+01 -0.42488890045E+02 -0.36677775436E+01  0.43400728872E+02  0.00000000000E+00 0.  1.
         11    1    3    3    0    0 -0.11132429632E+02  0.15805315067E+02  0.24002891007E+01  0.19480769028E+02  0.51100000000E-03 0.  1.
        -11    1    3    3    0    0 -0.11546889076E+01  0.82316620651E+01 -0.31112214786E+01  0.88754304784E+01  0.51100000000E-03 0. -1.
         12    1    3    3    0    0  0.42332438666E+01  0.18451912913E+02  0.43787099214E+01  0.19431071621E+02  0.00000000000E+00 0. -1.
</event>
<event>
 7    1  0.2811980E-010  0.4778727E+02  0.7816164E-02  0.1312668E+00
        -11   -1    0    0    0    0  0.00000000000E+00  0.00000000000E+00  0.45593999997E+02  0.45594000000E+02  0.51100000000E-03 0. -1.
         11   -1    0    0    0    0 -0.00000000000E+00 -0.00000000000E+00 -0.45593999997E+02  0.45594000000E+02  0.51100000000E-03 0.  1.
    9900012    2    1    2    0    0  0.85518969286E+01  0.15079730840E+02  0.39788065191E+02  0.47787270110E+02  0.19999995740E+02 0.  0.
        -12    1    1    2    0    0 -0.85518969286E+01 -0.15079730840E+02 -0.39788065191E+02  0.43400729890E+02  0.00000000000E+00 0.  1.
         11    1    3    3    0    0 -0.98168882783E+00  0.69773577226E+01  0.35965408852E+01  0.79109000970E+01  0.51100000000E-03 0.  1.
        -11    1    3    3    0    0  0.10960940790E+02  0.96726732463E+01  0.31777108751E+02  0.34978385777E+02  0.51100000000E-03 0. -1.
         12    1    3    3    0    0 -0.14273550331E+01 -0.15703001288E+01  0.44144155548E+01  0.48979842359E+01  0.00000000000E+00 0. -1.
</event>
<event>
 7    1  0.2811980E-010  0.4778727E+02  0.7816164E-02  0.1312668E+00
        -11   -1    0    0    0    0  0.00000000000E+00  0.00000000000E+00  0.45593999997E+02  0.45594000000E+02  0.51100000000E-03 0.  1.
         11   -1    0    0    0    0 -0.00000000000E+00 -0.00000000000E+00 -0.45593999997E+02  0.45594000000E+02  0.51100000000E-03 0. -1.
    9900012    2    1    2    0    0 -0.18681151989E+02 -0.29086323483E+02 -0.26241636212E+02  0.47787272765E+02  0.20000007847E+02 0.  0.
        -12    1    1    2    0    0  0.18681151989E+02  0.29086323483E+02  0.26241636212E+02  0.43400727235E+02  0.00000000000E+00 0.  1.
         11    1    3    3    0    0 -0.15556072720E+02 -0.12459567980E+02 -0.18248886964E+02  0.27023214250E+02  0.51100000000E-03 0. -1.
        -11    1    3    3    0    0 -0.25489066731E+01 -0.64986959887E+00 -0.30554675921E+01  0.40317661380E+01  0.51100000000E-03 0.  1.
         12    1    3    3    0    0 -0.57617259626E+00 -0.15976885904E+02 -0.49372816561E+01  0.16732292378E+02  0.00000000000E+00 0. -1.
</event>
<event>
 7    1  0.2811980E-010  0.4778728E+02  0.7816164E-02  0.1312668E+00
        -11   -1    0    0    0    0  0.00000000000E+00  0.00000000000E+00  0.45593999997E+02  0.45594000000E+02  0.51100000000E-03 0.  1.
         11   -1    0    0    0    0 -0.00000000000E+00 -0.00000000000E+00 -0.45593999997E+02  0.45594000000E+02  0.51100000000E-03 0. -1.
    9900012    2    1    2    0    0  0.90335870677E+01  0.26021076649E+02 -0.33539838140E+02  0.47787275723E+02  0.20000021333E+02 0.  0.
        -12    1    1    2    0    0 -0.90335870677E+01 -0.26021076649E+02  0.33539838140E+02  0.43400724277E+02  0.00000000000E+00 0.  1.
         11    1    3    3    0    0  0.15791490286E+01  0.45524686965E-01 -0.12564984821E+02  0.12663910453E+02  0.51100000000E-03 0.  1.
        -11    1    3    3    0    0 -0.67572120349E+00  0.70324714783E+01 -0.84024744830E+01  0.10977879209E+02  0.51100000000E-03 0. -1.
         12    1    3    3    0    0  0.81301592426E+01  0.18943080483E+02 -0.12572378836E+02  0.24145486061E+02  0.00000000000E+00 0. -1.
</event>
<event>
 7    1  0.2811980E-010  0.4778727E+02  0.7816164E-02  0.1312668E+00
        -11   -1    0    0    0    0  0.00000000000E+00  0.00000000000E+00  0.45593999997E+02  0.45594000000E+02  0.51100000000E-03 0. -1.
         11   -1    0    0    0    0 -0.00000000000E+00 -0.00000000000E+00 -0.45593999997E+02  0.45594000000E+02  0.51100000000E-03 0.  1.
    9900012    2    1    2    0    0  0.23285753282E+02 -0.18762059200E+02  0.31454444953E+02  0.47787270990E+02  0.19999999750E+02 0.  0.
        -12    1    1    2    0    0 -0.23285753282E+02  0.18762059200E+02 -0.31454444953E+02  0.43400729010E+02  0.00000000000E+00 0.  1.
         11    1    3    3    0    0  0.71750934663E+01 -0.11432016828E+02  0.25680396435E+02  0.29011303596E+02  0.51100000000E-03 0. -1.
        -11    1    3    3    0    0  0.11783605440E+02 -0.63944375152E+01  0.48228888544E+01  0.14247892667E+02  0.51100000000E-03 0.  1.
         12    1    3    3    0    0  0.43270543763E+01 -0.93560485650E+00  0.95115966320E+00  0.45280747264E+01  0.00000000000E+00 0. -1.
</event>
<event>
 7    1  0.3147691E-010  0.4778727E+02  0.7816164E-02  0.1312668E+00
        -11   -1    0    0    0    0  0.00000000000E+00  0.00000000000E+00  0.45593999997E+02  0.45594000000E+02  0.51100000000E-03 0.  1.
         11   -1    0    0    0    0 -0.00000000000E+00 -0.00000000000E+00 -0.45593999997E+02  0.45594000000E+02  0.51100000000E-03 0. -1.
    9900012    2    1    2    0    0  0.17644441329E+02  0.35957708318E+02 -0.16713474815E+02  0.47787270309E+02  0.19999996648E+02 0.  0.
        -12    1    1    2    0    0 -0.17644441329E+02 -0.35957708318E+02  0.16713474815E+02  0.43400729691E+02  0.00000000000E+00 0.  1.
         11    1    3    3    0    0  0.80243028079E+01  0.20196662700E+02 -0.88457997825E+01  0.23463648348E+02  0.51100000000E-03 0. -1.
        -11    1    3    3    0    0  0.94937517276E+01  0.64192479907E+01  0.92050863963E+00  0.11497191094E+02  0.51100000000E-03 0.  1.
        -12    1    3    3    0    0  0.12638679384E+00  0.93417976275E+01 -0.87881836725E+01  0.12826430867E+02  0.00000000000E+00 0.  1.
</event>
<event>
 7    1  0.2811980E-010  0.4778727E+02  0.7816164E-02  0.1312668E+00
        -11   -1    0    0    0    0  0.00000000000E+00  0.00000000000E+00  0.45593999997E+02  0.45594000000E+02  0.51100000000E-03 0. -1.
         11   -1    0    0    0    0 -0.00000000000E+00 -0.00000000000E+00 -0.45593999997E+02  0.45594000000E+02  0.51100000000E-03 0.  1.
    9900012    2    1    2    0    0  0.46235513557E+01  0.25470040095E+02  0.34835656810E+02  0.47787272414E+02  0.20000006244E+02 0.  0.
        -12    1    1    2    0    0 -0.46235513557E+01 -0.25470040095E+02 -0.34835656810E+02  0.43400727586E+02  0.00000000000E+00 0.  1.
         11    1    3    3    0    0 -0.15960608476E+01  0.42319516651E+01  0.70285786384E+01  0.83580944636E+01  0.51100000000E-03 0. -1.
        -11    1    3    3    0    0  0.78784576731E+01  0.22839107502E+02  0.28152561240E+02  0.37098000370E+02  0.51100000000E-03 0.  1.
        -12    1    3    3    0    0 -0.16588454699E+01 -0.16010190721E+01 -0.34548306807E+00  0.23311775806E+01  0.00000000000E+00 0.  1.
</event>
<event>
 7    1  0.2811980E-010  0.4778726E+02  0.7816164E-02  0.1312668E+00
        -11   -1    0    0    0    0  0.00000000000E+00  0.00000000000E+00  0.45593999997E+02  0.45594000000E+02  0.51100000000E-03 0.  1.
         11   -1    0    0    0    0 -0.00000000000E+00 -0.00000000000E+00 -0.45593999997E+02  0.45594000000E+02  0.51100000000E-03 0. -1.
    9900012    2    1    2    0    0 -0.42415255762E+02  0.69775063634E+01 -0.59903811345E+01  0.47787260576E+02  0.19999952269E+02 0.  0.
        -12    1    1    2    0    0  0.42415255762E+02 -0.69775063634E+01  0.59903811345E+01  0.43400739424E+02  0.00000000000E+00 0.  1.
         11    1    3    3    0    0 -0.55643998299E+01  0.52034368572E+01 -0.51470561679E+01  0.91940463372E+01  0.51100000000E-03 0. -1.
        -11    1    3    3    0    0 -0.24658237234E+02 -0.41469478915E+01  0.11926582224E+00  0.25004800837E+02  0.51100000000E-03 0.  1.
         12    1    3    3    0    0 -0.12192618699E+02  0.59210173977E+01 -0.96259078893E+00  0.13588413402E+02  0.00000000000E+00 0. -1.
</event>
<event>
 7    1  0.2811980E-010  0.4778727E+02  0.7816164E-02  0.1312668E+00
        -11   -1    0    0    0    0  0.00000000000E+00  0.00000000000E+00  0.45593999997E+02  0.45594000000E+02  0.51100000000E-03 0.  1.
         11   -1    0    0    0    0 -0.00000000000E+00 -0.00000000000E+00 -0.45593999997E+02  0.45594000000E+02  0.51100000000E-03 0. -1.
    9900012    2    1    2    0    0  0.16970698722E+02 -0.18183882988E+02 -0.35566347003E+02  0.47787271264E+02  0.20000001002E+02 0.  0.
        -12    1    1    2    0    0 -0.16970698722E+02  0.18183882988E+02  0.35566347003E+02  0.43400728736E+02  0.00000000000E+00 0.  1.
         11    1    3    3    0    0  0.11246496312E+02 -0.12638404026E+02 -0.33570180035E+02  0.37592152419E+02  0.51100000000E-03 0. -1.
        -11    1    3    3    0    0  0.82314744362E+00 -0.40075901822E+01  0.10490681570E+01  0.42236116111E+01  0.51100000000E-03 0.  1.
         12    1    3    3    0    0  0.49010549666E+01 -0.15378887797E+01 -0.30452351254E+01  0.59715072346E+01  0.00000000000E+00 0. -1.
</event>
<event>
 7    1  0.2811980E-010  0.4778729E+02  0.7816164E-02  0.1312668E+00
        -11   -1    0    0    0    0  0.00000000000E+00  0.00000000000E+00  0.45593999997E+02  0.45594000000E+02  0.51100000000E-03 0.  1.
         11   -1    0    0    0    0 -0.00000000000E+00 -0.00000000000E+00 -0.45593999997E+02  0.45594000000E+02  0.51100000000E-03 0. -1.
    9900012    2    1    2    0    0 -0.10073929969E+02  0.42941296153E+01 -0.41996403576E+02  0.47787291164E+02  0.20000091732E+02 0.  0.
        -12    1    1    2    0    0  0.10073929969E+02 -0.42941296153E+01  0.41996403576E+02  0.43400708836E+02  0.00000000000E+00 0.  1.
         11    1    3    3    0    0 -0.90366175996E+01  0.10114005961E+02 -0.20377599375E+02  0.24478564720E+02  0.51100000000E-03 0. -1.
        -11    1    3    3    0    0  0.25319052265E+01 -0.10368950513E+01 -0.62989831463E+01  0.68675238887E+01  0.51100000000E-03 0.  1.
         12    1    3    3    0    0 -0.35692175955E+01 -0.47829812941E+01 -0.15319821054E+02  0.16441202555E+02  0.00000000000E+00 0. -1.
</event>
<event>
 7    1  0.2811980E-010  0.4778727E+02  0.7816164E-02  0.1312668E+00
        -11   -1    0    0    0    0  0.00000000000E+00  0.00000000000E+00  0.45593999997E+02  0.45594000000E+02  0.51100000000E-03 0.  1.
         11   -1    0    0    0    0 -0.00000000000E+00 -0.00000000000E+00 -0.45593999997E+02  0.45594000000E+02  0.51100000000E-03 0. -1.
    9900012    2    1    2    0    0 -0.28210303280E+02  0.23031802164E+02 -0.23608015162E+02  0.47787268417E+02  0.19999988020E+02 0.  0.
        -12    1    1    2    0    0  0.28210303280E+02 -0.23031802164E+02  0.23608015162E+02  0.43400731583E+02  0.00000000000E+00 0.  1.
         11    1    3    3    0    0 -0.26647353300E+02  0.15700924813E+02 -0.25003629735E+02  0.39771622774E+02  0.51100000000E-03 0. -1.
        -11    1    3    3    0    0  0.63566968740E+00  0.25386171747E+01  0.57839432618E+00  0.26801480125E+01  0.51100000000E-03 0.  1.
         12    1    3    3    0    0 -0.21986196674E+01  0.47922601761E+01  0.81722024646E+00  0.53354976308E+01  0.00000000000E+00 0. -1.
</event>
<event>
 7    1  0.2811980E-010  0.4778727E+02  0.7816164E-02  0.1312668E+00
        -11   -1    0    0    0    0  0.00000000000E+00  0.00000000000E+00  0.45593999997E+02  0.45594000000E+02  0.51100000000E-03 0.  1.
         11   -1    0    0    0    0 -0.00000000000E+00 -0.00000000000E+00 -0.45593999997E+02  0.45594000000E+02  0.51100000000E-03 0. -1.
    9900012    2    1    2    0    0 -0.38397742268E+02 -0.16908748000E+02 -0.11105455967E+02  0.47787268181E+02  0.19999986943E+02 0.  0.
        -12    1    1    2    0    0  0.38397742268E+02  0.16908748000E+02  0.11105455967E+02  0.43400731819E+02  0.00000000000E+00 0.  1.
         11    1    3    3    0    0 -0.20801759943E+02 -0.19360597466E+02 -0.92513564480E+01  0.29885340007E+02  0.51100000000E-03 0. -1.
        -11    1    3    3    0    0 -0.14399802274E+02  0.15409597853E+01 -0.15403453762E+01  0.14563705803E+02  0.51100000000E-03 0.  1.
         12    1    3    3    0    0 -0.31961800514E+01  0.91088968043E+00 -0.31375414294E+00  0.33382223703E+01  0.00000000000E+00 0. -1.
</event>
<event>
 7    1  0.2811980E-010  0.4778727E+02  0.7816164E-02  0.1312668E+00
        -11   -1    0    0    0    0  0.00000000000E+00  0.00000000000E+00  0.45593999997E+02  0.45594000000E+02  0.51100000000E-03 0.  1.
         11   -1    0    0    0    0 -0.00000000000E+00 -0.00000000000E+00 -0.45593999997E+02  0.45594000000E+02  0.51100000000E-03 0. -1.
    9900012    2    1    2    0    0 -0.22354108595E+02  0.30342345377E+02 -0.21523459804E+02  0.47787269407E+02  0.19999992535E+02 0.  0.
        -12    1    1    2    0    0  0.22354108595E+02 -0.30342345377E+02  0.21523459804E+02  0.43400730593E+02  0.00000000000E+00 0.  1.
         11    1    3    3    0    0 -0.56862388768E+01  0.13245134570E+02 -0.86098790221E+01  0.16789786162E+02  0.51100000000E-03 0. -1.
        -11    1    3    3    0    0 -0.10936227506E+02  0.69986717101E+01 -0.14286245738E+02  0.19304903400E+02  0.51100000000E-03 0.  1.
        -12    1    3    3    0    0 -0.57316422125E+01  0.10098539097E+02  0.13726649554E+01  0.11692579844E+02  0.00000000000E+00 0.  1.
</event>
<event>
 7    1  0.2811980E-010  0.4778727E+02  0.7816164E-02  0.1312668E+00
        -11   -1    0    0    0    0  0.00000000000E+00  0.00000000000E+00  0.45593999997E+02  0.45594000000E+02  0.51100000000E-03 0. -1.
         11   -1    0    0    0    0 -0.00000000000E+00 -0.00000000000E+00 -0.45593999997E+02  0.45594000000E+02  0.51100000000E-03 0.  1.
    9900012    2    1    2    0    0 -0.12488514997E+02  0.41359820652E+02  0.41261890225E+01  0.47787271815E+02  0.20000003512E+02 0.  0.
        -12    1    1    2    0    0  0.12488514997E+02 -0.41359820652E+02 -0.41261890225E+01  0.43400728185E+02  0.00000000000E+00 0.  1.
         11    1    3    3    0    0 -0.16467687987E+02  0.24188474795E+02  0.26280960822E+01  0.29379822155E+02  0.51100000000E-03 0. -1.
        -11    1    3    3    0    0  0.26689284008E+01  0.84916292963E+01 -0.17054747895E+01  0.90630895082E+01  0.51100000000E-03 0.  1.
         12    1    3    3    0    0  0.13102445892E+01  0.86797165602E+01  0.32035677297E+01  0.93443601519E+01  0.00000000000E+00 0. -1.
</event>
<event>
 7    1  0.2894933E-010  0.4778726E+02  0.7816164E-02  0.1312668E+00
        -11   -1    0    0    0    0  0.00000000000E+00  0.00000000000E+00  0.45593999997E+02  0.45594000000E+02  0.51100000000E-03 0. -1.
         11   -1    0    0    0    0 -0.00000000000E+00 -0.00000000000E+00 -0.45593999997E+02  0.45594000000E+02  0.51100000000E-03 0.  1.
    9900012    2    1    2    0    0  0.23917418275E+02 -0.20222729499E+02  0.30043671699E+02  0.47787263895E+02  0.19999967402E+02 0.  0.
        -12    1    1    2    0    0 -0.23917418275E+02  0.20222729499E+02 -0.30043671699E+02  0.43400736105E+02  0.00000000000E+00 0.  1.
         11    1    3    3    0    0  0.78466048079E+01 -0.90698870570E+01  0.21648185792E+02  0.24748252597E+02  0.51100000000E-03 0. -1.
        -11    1    3    3    0    0  0.15021597726E+01 -0.34478743553E+01 -0.12256256797E+01  0.39555631863E+01  0.51100000000E-03 0.  1.
         12    1    3    3    0    0  0.14568653695E+02 -0.77049680863E+01  0.96211115863E+01  0.19083448112E+02  0.00000000000E+00 0. -1.
</event>
<event>
 7    1  0.2811980E-010  0.4778727E+02  0.7816164E-02  0.1312668E+00
        -11   -1    0    0    0    0  0.00000000000E+00  0.00000000000E+00  0.45593999997E+02  0.45594000000E+02  0.51100000000E-03 0. -1.
         11   -1    0    0    0    0 -0.00000000000E+00 -0.00000000000E+00 -0.45593999997E+02  0.45594000000E+02  0.51100000000E-03 0.  1.
    9900012    2    1    2    0    0 -0.12979907575E+02 -0.41359779514E+02 -0.21245532336E+01  0.47787273180E+02  0.20000009736E+02 0.  0.
        -12    1    1    2    0    0  0.12979907575E+02  0.41359779514E+02  0.21245532336E+01  0.43400726820E+02  0.00000000000E+00 0.  1.
         11    1    3    3    0    0 -0.13558469930E+01 -0.13109030739E+02  0.68072625772E+01  0.14833200331E+02  0.51100000000E-03 0. -1.
        -11    1    3    3    0    0 -0.23485713953E+01 -0.57678380032E+01 -0.56571496672E+01  0.84135061329E+01  0.51100000000E-03 0.  1.
         12    1    3    3    0    0 -0.92754891870E+01 -0.22482910771E+02 -0.32746661436E+01  0.24540566716E+02  0.00000000000E+00 0. -1.
</event>
<event>
 7    1  0.2811980E-010  0.4778727E+02  0.7816164E-02  0.1312668E+00
        -11   -1    0    0    0    0  0.00000000000E+00  0.00000000000E+00  0.45593999997E+02  0.45594000000E+02  0.51100000000E-03 0.  1.
         11   -1    0    0    0    0 -0.00000000000E+00 -0.00000000000E+00 -0.45593999997E+02  0.45594000000E+02  0.51100000000E-03 0. -1.
    9900012    2    1    2    0    0  0.33287541192E+02 -0.60218567426E+01 -0.27190071411E+02  0.47787272580E+02  0.20000007003E+02 0.  0.
        -12    1    1    2    0    0 -0.33287541192E+02  0.60218567426E+01  0.27190071411E+02  0.43400727420E+02  0.00000000000E+00 0.  1.
         11    1    3    3    0    0  0.11350065432E+01  0.22032297638E+01 -0.88374423725E+01  0.91783903378E+01  0.51100000000E-03 0.  1.
        -11    1    3    3    0    0  0.27814313319E+02 -0.43525493097E+01 -0.15205118028E+02  0.31996504894E+02  0.51100000000E-03 0. -1.
        -12    1    3    3    0    0  0.43382213296E+01 -0.38725371967E+01 -0.31475110103E+01  0.66123773489E+01  0.00000000000E+00 0.  1.
</event>
<event>
 7    1  0.2811980E-010  0.4778727E+02  0.7816164E-02  0.1312668E+00
        -11   -1    0    0    0    0  0.00000000000E+00  0.00000000000E+00  0.45593999997E+02  0.45594000000E+02  0.51100000000E-03 0.  1.
         11   -1    0    0    0    0 -0.00000000000E+00 -0.00000000000E+00 -0.45593999997E+02  0.45594000000E+02  0.51100000000E-03 0. -1.
    9900012    2    1    2    0    0 -0.25440183863E+02  0.29258429407E+02 -0.19502935960E+02  0.47787272386E+02  0.20000006118E+02 0.  0.
        -12    1    1    2    0    0  0.25440183863E+02 -0.29258429407E+02  0.19502935960E+02  0.43400727614E+02  0.00000000000E+00 0.  1.
         11    1    3    3    0    0 -0.14967120982E+02  0.19185777276E+02 -0.17731057863E+02  0.30108124707E+02  0.51100000000E-03 0. -1.
        -11    1    3    3    0    0 -0.67468692025E+01  0.26778567481E+00  0.10104309639E+01  0.68273658315E+01  0.51100000000E-03 0.  1.
         12    1    3    3    0    0 -0.37261936781E+01  0.98048664567E+01 -0.27823090607E+01  0.10851781848E+02  0.00000000000E+00 0. -1.
</event>
<event>
 7    1  0.2811980E-010  0.4778727E+02  0.7816164E-02  0.1312668E+00
        -11   -1    0    0    0    0  0.00000000000E+00  0.00000000000E+00  0.45593999997E+02  0.45594000000E+02  0.51100000000E-03 0. -1.
         11   -1    0    0    0    0 -0.00000000000E+00 -0.00000000000E+00 -0.45593999997E+02  0.45594000000E+02  0.51100000000E-03 0.  1.
    9900012    2    1    2    0    0 -0.34189499141E+02 -0.26729853074E+02  0.46507320424E+00  0.47787272011E+02  0.20000004408E+02 0.  0.
        -12    1    1    2    0    0  0.34189499141E+02  0.26729853074E+02 -0.46507320424E+00  0.43400727989E+02  0.00000000000E+00 0.  1.
         11    1    3    3    0    0 -0.53257268734E+01 -0.15169065434E+01  0.10506000803E+01  0.56363226470E+01  0.51100000000E-03 0. -1.
        -11    1    3    3    0    0 -0.10101220257E+02 -0.12942457364E+02 -0.83584708710E+01  0.18422971771E+02  0.51100000000E-03 0.  1.
        -12    1    3    3    0    0 -0.18762552010E+02 -0.12270489167E+02  0.77729439950E+01  0.23727977594E+02  0.00000000000E+00 0.  1.
</event>
<event>
 7    1  0.2811980E-010  0.4778729E+02  0.7816164E-02  0.1312668E+00
        -11   -1    0    0    0    0  0.00000000000E+00  0.00000000000E+00  0.45593999997E+02  0.45594000000E+02  0.51100000000E-03 0.  1.
         11   -1    0    0    0    0 -0.00000000000E+00 -0.00000000000E+00 -0.45593999997E+02  0.45594000000E+02  0.51100000000E-03 0. -1.
    9900012    2    1    2    0    0  0.24213537155E+02 -0.35848081951E+02 -0.34987806768E+01  0.47787287710E+02  0.20000075984E+02 0.  0.
        -12    1    1    2    0    0 -0.24213537155E+02  0.35848081951E+02  0.34987806768E+01  0.43400712290E+02  0.00000000000E+00 0.  1.
         11    1    3    3    0    0  0.40440894485E+01 -0.20244000096E+02 -0.32199866443E+01  0.20893599824E+02  0.51100000000E-03 0. -1.
        -11    1    3    3    0    0  0.57949157975E+01 -0.44334718291E+01  0.38162872846E+01  0.82341223248E+01  0.51100000000E-03 0.  1.
         12    1    3    3    0    0  0.14374531909E+02 -0.11170610025E+02 -0.40950813171E+01  0.18659565561E+02  0.00000000000E+00 0. -1.
</event>
<event>
 7    1  0.2811980E-010  0.4778727E+02  0.7816164E-02  0.1312668E+00
        -11   -1    0    0    0    0  0.00000000000E+00  0.00000000000E+00  0.45593999997E+02  0.45594000000E+02  0.51100000000E-03 0. -1.
         11   -1    0    0    0    0 -0.00000000000E+00 -0.00000000000E+00 -0.45593999997E+02  0.45594000000E+02  0.51100000000E-03 0.  1.
    9900012    2    1    2    0    0  0.19217763782E+02  0.33961830684E+02  0.18997231477E+02  0.47787271988E+02  0.20000004303E+02 0.  0.
        -12    1    1    2    0    0 -0.19217763782E+02 -0.33961830684E+02 -0.18997231477E+02  0.43400728012E+02  0.00000000000E+00 0.  1.
         11    1    3    3    0    0  0.83694524763E+01  0.11303163608E+02  0.16423636292E+02  0.21622790560E+02  0.51100000000E-03 0. -1.
        -11    1    3    3    0    0  0.78357040807E+01  0.20946970130E+02  0.33488030475E+01  0.22613896130E+02  0.51100000000E-03 0.  1.
         12    1    3    3    0    0  0.30126072252E+01  0.17116969461E+01 -0.77520786253E+00  0.35505852981E+01  0.00000000000E+00 0. -1.
</event>
<event>
 7    1  0.2811980E-010  0.4778729E+02  0.7816164E-02  0.1312668E+00
        -11   -1    0    0    0    0  0.00000000000E+00  0.00000000000E+00  0.45593999997E+02  0.45594000000E+02  0.51100000000E-03 0. -1.
         11   -1    0    0    0    0 -0.00000000000E+00 -0.00000000000E+00 -0.45593999997E+02  0.45594000000E+02  0.51100000000E-03 0.  1.
    9900012    2    1    2    0    0 -0.79740097860E+01 -0.18261634426E+02  0.38555796034E+02  0.47787291114E+02  0.20000091505E+02 0.  0.
        -12    1    1    2    0    0  0.79740097860E+01  0.18261634426E+02 -0.38555796034E+02  0.43400708886E+02  0.00000000000E+00 0.  1.
         11    1    3    3    0    0 -0.11570740904E+00 -0.80475232223E+01  0.12216163793E+02  0.14629103742E+02  0.51100000000E-03 0. -1.
        -11    1    3    3    0    0 -0.41617301740E+01  0.33181261437E+01  0.11850135270E+02  0.12990599113E+02  0.51100000000E-03 0.  1.
        -12    1    3    3    0    0 -0.36965722029E+01 -0.13532237348E+02  0.14489496971E+02  0.20167588258E+02  0.00000000000E+00 0.  1.
</event>
<event>
 7    1  0.2811980E-010  0.4778727E+02  0.7816164E-02  0.1312668E+00
        -11   -1    0    0    0    0  0.00000000000E+00  0.00000000000E+00  0.45593999997E+02  0.45594000000E+02  0.51100000000E-03 0. -1.
         11   -1    0    0    0    0 -0.00000000000E+00 -0.00000000000E+00 -0.45593999997E+02  0.45594000000E+02  0.51100000000E-03 0.  1.
    9900012    2    1    2    0    0  0.20778801275E+02 -0.20551443458E+02  0.32085865120E+02  0.47787272458E+02  0.20000006446E+02 0.  0.
        -12    1    1    2    0    0 -0.20778801275E+02  0.20551443458E+02 -0.32085865120E+02  0.43400727542E+02  0.00000000000E+00 0.  1.
         11    1    3    3    0    0  0.12884142685E+02 -0.14538308734E+02  0.26689380148E+02  0.33010400884E+02  0.51100000000E-03 0. -1.
        -11    1    3    3    0    0  0.14875702654E+01  0.14998174422E+01 -0.16214475340E+01  0.26629701502E+01  0.51100000000E-03 0.  1.
         12    1    3    3    0    0  0.64070883249E+01 -0.75129521660E+01  0.70179325063E+01  0.12113901424E+02  0.00000000000E+00 0. -1.
</event>
<event>
 7    1  0.2811980E-010  0.4778726E+02  0.7816164E-02  0.1312668E+00
        -11   -1    0    0    0    0  0.00000000000E+00  0.00000000000E+00  0.45593999997E+02  0.45594000000E+02  0.51100000000E-03 0. -1.
         11   -1    0    0    0    0 -0.00000000000E+00 -0.00000000000E+00 -0.45593999997E+02  0.45594000000E+02  0.51100000000E-03 0.  1.
    9900012    2    1    2    0    0 -0.15861145407E+02 -0.37934080365E+02  0.13894369173E+02  0.47787264045E+02  0.19999968085E+02 0.  0.
        -12    1    1    2    0    0  0.15861145407E+02  0.37934080365E+02 -0.13894369173E+02  0.43400735955E+02  0.00000000000E+00 0.  1.
         11    1    3    3    0    0 -0.69711453418E+01 -0.10942084794E+02  0.13340379039E+02  0.18608917222E+02  0.51100000000E-03 0. -1.
        -11    1    3    3    0    0 -0.94443706766E+01 -0.25952943299E+02  0.15133089151E+01  0.27659383715E+02  0.51100000000E-03 0.  1.
        -12    1    3    3    0    0  0.55437061104E+00 -0.10390522715E+01 -0.95931878141E+00  0.15189631074E+01  0.00000000000E+00 0.  1.
</event>
<event>
 7    1  0.2811980E-010  0.4778727E+02  0.7816164E-02  0.1312668E+00
        -11   -1    0    0    0    0  0.00000000000E+00  0.00000000000E+00  0.45593999997E+02  0.45594000000E+02  0.51100000000E-03 0.  1.
         11   -1    0    0    0    0 -0.00000000000E+00 -0.00000000000E+00 -0.45593999997E+02  0.45594000000E+02  0.51100000000E-03 0. -1.
    9900012    2    1    2    0    0 -0.24750936724E+02 -0.17446421207E+01 -0.35608572041E+02  0.47787273651E+02  0.20000011883E+02 0.  0.
        -12    1    1    2    0    0  0.24750936724E+02  0.17446421207E+01  0.35608572041E+02  0.43400726349E+02  0.00000000000E+00 0.  1.
         11    1    3    3    0    0 -0.89740484163E+01 -0.25125283380E+01 -0.19024936069E+02  0.21184771331E+02  0.51100000000E-03 0. -1.
        -11    1    3    3    0    0 -0.25422473847E+01  0.43833296340E+01  0.15781950316E-01  0.50672329507E+01  0.51100000000E-03 0.  1.
        -12    1    3    3    0    0 -0.13234640923E+02 -0.36154434167E+01 -0.16599417922E+02  0.21535269369E+02  0.00000000000E+00 0.  1.
</event>
<event>
 7    1  0.2811980E-010  0.4778727E+02  0.7816164E-02  0.1312668E+00
        -11   -1    0    0    0    0  0.00000000000E+00  0.00000000000E+00  0.45593999997E+02  0.45594000000E+02  0.51100000000E-03 0. -1.
         11   -1    0    0    0    0 -0.00000000000E+00 -0.00000000000E+00 -0.45593999997E+02  0.45594000000E+02  0.51100000000E-03 0.  1.
    9900012    2    1    2    0    0  0.42811851358E+02 -0.52168019867E+01 -0.48532249114E+01  0.47787269226E+02  0.19999991711E+02 0.  0.
        -12    1    1    2    0    0 -0.42811851358E+02  0.52168019867E+01  0.48532249114E+01  0.43400730774E+02  0.00000000000E+00 0.  1.
         11    1    3    3    0    0  0.17017348075E+02 -0.91184823247E+01  0.22159684777E+01  0.19433151364E+02  0.51100000000E-03 0. -1.
        -11    1    3    3    0    0  0.14538684308E+02  0.62377082997E+01 -0.26626584900E+01  0.16042820723E+02  0.51100000000E-03 0.  1.
         12    1    3    3    0    0  0.11255818975E+02 -0.23360279616E+01 -0.44065348990E+01  0.12311297139E+02  0.00000000000E+00 0. -1.
</event>
<event>
 7    1  0.2811980E-010  0.4778728E+02  0.7816164E-02  0.1312668E+00
        -11   -1    0    0    0    0  0.00000000000E+00  0.00000000000E+00  0.45593999997E+02  0.45594000000E+02  0.51100000000E-03 0. -1.
         11   -1    0    0    0    0 -0.00000000000E+00 -0.00000000000E+00 -0.45593999997E+02  0.45594000000E+02  0.51100000000E-03 0.  1.
    9900012    2    1    2    0    0  0.25498111064E+01  0.14428677742E+02  0.40852596033E+02  0.47787275574E+02  0.20000020650E+02 0.  0.
        -12    1    1    2    0    0 -0.25498111064E+01 -0.14428677742E+02 -0.40852596033E+02  0.43400724426E+02  0.00000000000E+00 0.  1.
         11    1    3    3    0    0 -0.61584534850E+01  0.20561720834E+01  0.21571333959E+02  0.22527246658E+02  0.51100000000E-03 0. -1.
        -11    1    3    3    0    0  0.41456677693E+01  0.53095981321E+01  0.40448304483E+01  0.78574198815E+01  0.51100000000E-03 0.  1.
         12    1    3    3    0    0  0.45625968222E+01  0.70629075270E+01  0.15236431626E+02  0.17402609034E+02  0.00000000000E+00 0. -1.
</event>
<event>
 7    1  0.2811980E-010  0.4778728E+02  0.7816164E-02  0.1312668E+00
        -11   -1    0    0    0    0  0.00000000000E+00  0.00000000000E+00  0.45593999997E+02  0.45594000000E+02  0.51100000000E-03 0. -1.
         11   -1    0    0    0    0 -0.00000000000E+00 -0.00000000000E+00 -0.45593999997E+02  0.45594000000E+02  0.51100000000E-03 0.  1.
    9900012    2    1    2    0    0  0.89702337155E+01 -0.32088757876E+02  0.27811310904E+02  0.47787280085E+02  0.20000041219E+02 0.  0.
        -12    1    1    2    0    0 -0.89702337155E+01  0.32088757876E+02 -0.27811310904E+02  0.43400719915E+02  0.00000000000E+00 0.  1.
         11    1    3    3    0    0  0.19405493313E+01  0.36177742766E+00  0.78328512181E+01  0.80777579241E+01  0.51100000000E-03 0. -1.
        -11    1    3    3    0    0  0.54721457275E+01 -0.21914826099E+02  0.87218092217E+01  0.24213094353E+02  0.51100000000E-03 0.  1.
         12    1    3    3    0    0  0.15575386567E+01 -0.10535709205E+02  0.11256650464E+02  0.15496427808E+02  0.00000000000E+00 0. -1.
</event>
<event>
 7    1  0.2811980E-010  0.4778727E+02  0.7816164E-02  0.1312668E+00
        -11   -1    0    0    0    0  0.00000000000E+00  0.00000000000E+00  0.45593999997E+02  0.45594000000E+02  0.51100000000E-03 0.  1.
         11   -1    0    0    0    0 -0.00000000000E+00 -0.00000000000E+00 -0.45593999997E+02  0.45594000000E+02  0.51100000000E-03 0. -1.
    9900012    2    1    2    0    0 -0.19178835441E+02 -0.26726672343E+02 -0.28310430168E+02  0.47787271899E+02  0.20000003896E+02 0.  0.
        -12    1    1    2    0    0  0.19178835441E+02  0.26726672343E+02  0.28310430168E+02  0.43400728101E+02  0.00000000000E+00 0.  1.
         11    1    3    3    0    0 -0.11403332045E+02 -0.12361172610E+02 -0.20810271889E+02  0.26756344787E+02  0.51100000000E-03 0. -1.
        -11    1    3    3    0    0 -0.43067358280E+01 -0.12288781359E+02 -0.60222998387E+00  0.13035520780E+02  0.51100000000E-03 0.  1.
        -12    1    3    3    0    0 -0.34687675687E+01 -0.20767183736E+01 -0.68979282953E+01  0.79954063322E+01  0.00000000000E+00 0.  1.
</event>
<event>
 7    1  0.2811980E-010  0.4778727E+02  0.7816164E-02  0.1312668E+00
        -11   -1    0    0    0    0  0.00000000000E+00  0.00000000000E+00  0.45593999997E+02  0.45594000000E+02  0.51100000000E-03 0. -1.
         11   -1    0    0    0    0 -0.00000000000E+00 -0.00000000000E+00 -0.45593999997E+02  0.45594000000E+02  0.51100000000E-03 0.  1.
    9900012    2    1    2    0    0 -0.40672327395E+02  0.13185240049E+02  0.74521717514E+01  0.47787266888E+02  0.19999981048E+02 0.  0.
        -12    1    1    2    0    0  0.40672327395E+02 -0.13185240049E+02 -0.74521717514E+01  0.43400733112E+02  0.00000000000E+00 0.  1.
         11    1    3    3    0    0 -0.24568212866E+02 -0.16261233267E+00 -0.16189450559E+00  0.24569284407E+02  0.51100000000E-03 0. -1.
        -11    1    3    3    0    0 -0.36091505148E+01  0.70222490946E+01  0.33657429834E+01  0.85829002020E+01  0.51100000000E-03 0.  1.
         12    1    3    3    0    0 -0.12494964014E+02  0.63256032867E+01  0.42483232736E+01  0.14635082278E+02  0.00000000000E+00 0. -1.
</event>
<event>
 7    1  0.2811980E-010  0.4778727E+02  0.7816164E-02  0.1312668E+00
        -11   -1    0    0    0    0  0.00000000000E+00  0.00000000000E+00  0.45593999997E+02  0.45594000000E+02  0.51100000000E-03 0.  1.
         11   -1    0    0    0    0 -0.00000000000E+00 -0.00000000000E+00 -0.45593999997E+02  0.45594000000E+02  0.51100000000E-03 0. -1.
    9900012    2    1    2    0    0 -0.23187725446E+02 -0.19342483151E+02 -0.31174044996E+02  0.47787270200E+02  0.19999996148E+02 0.  0.
        -12    1    1    2    0    0  0.23187725446E+02  0.19342483151E+02  0.31174044996E+02  0.43400729800E+02  0.00000000000E+00 0.  1.
         11    1    3    3    0    0 -0.19497478191E+02 -0.21070272910E+02 -0.32089501691E+02  0.43056290776E+02  0.51100000000E-03 0. -1.
        -11    1    3    3    0    0 -0.11918043089E+01  0.46086577824E+00  0.13918490356E+01  0.18894546238E+01  0.51100000000E-03 0.  1.
         12    1    3    3    0    0 -0.24984429457E+01  0.12669239807E+01 -0.47639234019E+00  0.28415247998E+01  0.00000000000E+00 0. -1.
</event>
<event>
 7    1  0.2811980E-010  0.4778727E+02  0.7816164E-02  0.1312668E+00
        -11   -1    0    0    0    0  0.00000000000E+00  0.00000000000E+00  0.45593999997E+02  0.45594000000E+02  0.51100000000E-03 0.  1.
         11   -1    0    0    0    0 -0.00000000000E+00 -0.00000000000E+00 -0.45593999997E+02  0.45594000000E+02  0.51100000000E-03 0. -1.
    9900012    2    1    2    0    0 -0.30008017766E+02 -0.85740786747E+01 -0.30160029201E+02  0.47787270551E+02  0.19999997748E+02 0.  0.
        -12    1    1    2    0    0  0.30008017766E+02  0.85740786747E+01  0.30160029201E+02  0.43400729449E+02  0.00000000000E+00 0.  1.
         11    1    3    3    0    0 -0.15342687971E+02 -0.46090128523E+01 -0.16278959728E+02  0.22839562249E+02  0.51100000000E-03 0. -1.
        -11    1    3    3    0    0 -0.79777003584E+01 -0.63366375714E+01 -0.14613470232E+02  0.17814325449E+02  0.51100000000E-03 0.  1.
        -12    1    3    3    0    0 -0.66876294365E+01  0.23715717490E+01  0.73240075976E+00  0.71333828520E+01  0.00000000000E+00 0.  1.
</event>
<event>
 7    1  0.2811980E-010  0.4778727E+02  0.7816164E-02  0.1312668E+00
        -11   -1    0    0    0    0  0.00000000000E+00  0.00000000000E+00  0.45593999997E+02  0.45594000000E+02  0.51100000000E-03 0. -1.
         11   -1    0    0    0    0 -0.00000000000E+00 -0.00000000000E+00 -0.45593999997E+02  0.45594000000E+02  0.51100000000E-03 0.  1.
    9900012    2    1    2    0    0 -0.35234978350E+02 -0.19425589591E+02  0.16271633487E+02  0.47787270898E+02  0.19999999330E+02 0.  0.
        -12    1    1    2    0    0  0.35234978350E+02  0.19425589591E+02 -0.16271633487E+02  0.43400729102E+02  0.00000000000E+00 0.  1.
         11    1    3    3    0    0 -0.81795921527E+01 -0.92612977658E+01  0.47240848288E+01  0.13228542695E+02  0.51100000000E-03 0. -1.
        -11    1    3    3    0    0 -0.22576019145E+02 -0.20065736692E+01  0.50852625781E+01  0.23228492721E+02  0.51100000000E-03 0.  1.
        -12    1    3    3    0    0 -0.44793670522E+01 -0.81577181557E+01  0.64622860801E+01  0.11330235482E+02  0.00000000000E+00 0.  1.
</event>
<event>
 7    1  0.2811980E-010  0.4778727E+02  0.7816164E-02  0.1312668E+00
        -11   -1    0    0    0    0  0.00000000000E+00  0.00000000000E+00  0.45593999997E+02  0.45594000000E+02  0.51100000000E-03 0.  1.
         11   -1    0    0    0    0 -0.00000000000E+00 -0.00000000000E+00 -0.45593999997E+02  0.45594000000E+02  0.51100000000E-03 0. -1.
    9900012    2    1    2    0    0  0.34557995951E+02 -0.10320202397E+00 -0.26255621035E+02  0.47787269928E+02  0.19999994911E+02 0.  0.
        -12    1    1    2    0    0 -0.34557995951E+02  0.10320202397E+00  0.26255621035E+02  0.43400730072E+02  0.00000000000E+00 0.  1.
         11    1    3    3    0    0  0.75461742492E+01  0.20498417456E+01  0.58843956334E+00  0.78417382233E+01  0.51100000000E-03 0. -1.
        -11    1    3    3    0    0  0.11132224723E+02 -0.48597705112E+01 -0.17563895872E+02  0.21354958093E+02  0.51100000000E-03 0.  1.
        -12    1    3    3    0    0  0.15879596979E+02  0.27067267416E+01 -0.92801647265E+01  0.18590573612E+02  0.00000000000E+00 0.  1.
</event>
<event>
 7    1  0.2811980E-010  0.4778727E+02  0.7816164E-02  0.1312668E+00
        -11   -1    0    0    0    0  0.00000000000E+00  0.00000000000E+00  0.45593999997E+02  0.45594000000E+02  0.51100000000E-03 0.  1.
         11   -1    0    0    0    0 -0.00000000000E+00 -0.00000000000E+00 -0.45593999997E+02  0.45594000000E+02  0.51100000000E-03 0. -1.
    9900012    2    1    2    0    0 -0.42919534523E+02  0.19574333222E+00  0.64419367264E+01  0.47787270652E+02  0.19999998211E+02 0.  0.
        -12    1    1    2    0    0  0.42919534523E+02 -0.19574333222E+00 -0.64419367264E+01  0.43400729348E+02  0.00000000000E+00 0.  1.
         11    1    3    3    0    0 -0.86827033852E+00  0.74737503749E+00 -0.33609142274E+01  0.35508037868E+01  0.51100000000E-03 0. -1.
        -11    1    3    3    0    0 -0.84543883446E+01  0.37574785976E+01  0.25466194194E+01  0.95958636100E+01  0.51100000000E-03 0.  1.
         12    1    3    3    0    0 -0.33596875840E+02 -0.43091103029E+01  0.72562315344E+01  0.34640603255E+02  0.00000000000E+00 0. -1.
</event>
<event>
 7    1  0.2811980E-010  0.4778728E+02  0.7816164E-02  0.1312668E+00
        -11   -1    0    0    0    0  0.00000000000E+00  0.00000000000E+00  0.45593999997E+02  0.45594000000E+02  0.51100000000E-03 0.  1.
         11   -1    0    0    0    0 -0.00000000000E+00 -0.00000000000E+00 -0.45593999997E+02  0.45594000000E+02  0.51100000000E-03 0. -1.
    9900012    2    1    2    0    0 -0.22249728704E+02 -0.36305998712E+02 -0.83932474715E+01  0.47787279119E+02  0.20000036814E+02 0.  0.
        -12    1    1    2    0    0  0.22249728704E+02  0.36305998712E+02  0.83932474715E+01  0.43400720881E+02  0.00000000000E+00 0.  1.
         11    1    3    3    0    0 -0.92279528014E+01 -0.15385902344E+02 -0.11262862161E+02  0.21183322879E+02  0.51100000000E-03 0. -1.
        -11    1    3    3    0    0 -0.95742910997E+01 -0.12657199958E+02  0.62179651369E+01  0.17045082914E+02  0.51100000000E-03 0.  1.
         12    1    3    3    0    0 -0.34474848027E+01 -0.82628964100E+01 -0.33483504471E+01  0.95588733261E+01  0.00000000000E+00 0. -1.
</event>
<event>
 7    1  0.2811980E-010  0.4778727E+02  0.7816164E-02  0.1312668E+00
        -11   -1    0    0    0    0  0.00000000000E+00  0.00000000000E+00  0.45593999997E+02  0.45594000000E+02  0.51100000000E-03 0.  1.
         11   -1    0    0    0    0 -0.00000000000E+00 -0.00000000000E+00 -0.45593999997E+02  0.45594000000E+02  0.51100000000E-03 0. -1.
    9900012    2    1    2    0    0  0.43363905109E+02 -0.14882595333E+01 -0.99020873960E+00  0.47787266180E+02  0.19999977822E+02 0.  0.
        -12    1    1    2    0    0 -0.43363905109E+02  0.14882595333E+01  0.99020873960E+00  0.43400733820E+02  0.00000000000E+00 0.  1.
         11    1    3    3    0    0  0.14891984030E+02 -0.89363775384E+00 -0.59497226175E+01  0.16061412649E+02  0.51100000000E-03 0. -1.
        -11    1    3    3    0    0  0.98195400809E+00 -0.30967733935E+00  0.40932534716E+01  0.42207650933E+01  0.51100000000E-03 0.  1.
         12    1    3    3    0    0  0.27489967071E+02 -0.28494444009E+00  0.86626040623E+00  0.27505088438E+02  0.00000000000E+00 0. -1.
</event>
<event>
 7    1  0.2811980E-010  0.4778727E+02  0.7816164E-02  0.1312668E+00
        -11   -1    0    0    0    0  0.00000000000E+00  0.00000000000E+00  0.45593999997E+02  0.45594000000E+02  0.51100000000E-03 0. -1.
         11   -1    0    0    0    0 -0.00000000000E+00 -0.00000000000E+00 -0.45593999997E+02  0.45594000000E+02  0.51100000000E-03 0.  1.
    9900012    2    1    2    0    0 -0.38145172400E+02 -0.14247862745E+02  0.15018908011E+02  0.47787269959E+02  0.19999995051E+02 0.  0.
        -12    1    1    2    0    0  0.38145172400E+02  0.14247862745E+02 -0.15018908011E+02  0.43400730041E+02  0.00000000000E+00 0.  1.
         11    1    3    3    0    0 -0.31122158808E+02 -0.88753120779E+01  0.72637016179E+01  0.33168076441E+02  0.51100000000E-03 0. -1.
        -11    1    3    3    0    0 -0.58555775173E+01  0.63796850891E+00  0.20121342733E+01  0.62244257947E+01  0.51100000000E-03 0.  1.
         12    1    3    3    0    0 -0.11674360749E+01 -0.60105191759E+01  0.57430721197E+01  0.83947677231E+01  0.00000000000E+00 0. -1.
</event>
<event>
 7    1  0.2811980E-010  0.4778727E+02  0.7816164E-02  0.1312668E+00
        -11   -1    0    0    0    0  0.00000000000E+00  0.00000000000E+00  0.45593999997E+02  0.45594000000E+02  0.51100000000E-03 0.  1.
         11   -1    0    0    0    0 -0.00000000000E+00 -0.00000000000E+00 -0.45593999997E+02  0.45594000000E+02  0.51100000000E-03 0. -1.
    9900012    2    1    2    0    0  0.11443404785E+02  0.39586671277E+02 -0.13622304781E+02  0.47787271395E+02  0.20000001600E+02 0.  0.
        -12    1    1    2    0    0 -0.11443404785E+02 -0.39586671277E+02  0.13622304781E+02  0.43400728605E+02  0.00000000000E+00 0.  1.
         11    1    3    3    0    0  0.72329599608E+01  0.13998962932E+02 -0.13181454725E+02  0.20543549398E+02  0.51100000000E-03 0. -1.
        -11    1    3    3    0    0  0.39118581162E+01  0.14892464209E+02  0.35892674762E+01  0.15810470120E+02  0.51100000000E-03 0.  1.
        -12    1    3    3    0    0  0.29858670824E+00  0.10695244136E+02 -0.40301175326E+01  0.11433251877E+02  0.00000000000E+00 0.  1.
</event>
<event>
 7    1  0.2811980E-010  0.4778727E+02  0.7816164E-02  0.1312668E+00
        -11   -1    0    0    0    0  0.00000000000E+00  0.00000000000E+00  0.45593999997E+02  0.45594000000E+02  0.51100000000E-03 0.  1.
         11   -1    0    0    0    0 -0.00000000000E+00 -0.00000000000E+00 -0.45593999997E+02  0.45594000000E+02  0.51100000000E-03 0. -1.
    9900012    2    1    2    0    0 -0.41879387446E+02 -0.83012794754E+01 -0.77992926919E+01  0.47787270740E+02  0.19999998614E+02 0.  0.
        -12    1    1    2    0    0  0.41879387446E+02  0.83012794754E+01  0.77992926919E+01  0.43400729260E+02  0.00000000000E+00 0.  1.
         11    1    3    3    0    0 -0.34087611633E+02  0.17789950846E+01 -0.55605126429E+01  0.34583947020E+02  0.51100000000E-03 0. -1.
        -11    1    3    3    0    0 -0.65858139181E+01 -0.71260205136E+01 -0.90670617133E+00  0.97455235706E+01  0.51100000000E-03 0.  1.
        -12    1    3    3    0    0 -0.12059618950E+01 -0.29542540465E+01 -0.13320738777E+01  0.34578001502E+01  0.00000000000E+00 0.  1.
</event>
<event>
 7    1  0.2811980E-010  0.4778727E+02  0.7816164E-02  0.1312668E+00
        -11   -1    0    0    0    0  0.00000000000E+00  0.00000000000E+00  0.45593999997E+02  0.45594000000E+02  0.51100000000E-03 0. -1.
         11   -1    0    0    0    0 -0.00000000000E+00 -0.00000000000E+00 -0.45593999997E+02  0.45594000000E+02  0.51100000000E-03 0.  1.
    9900012    2    1    2    0    0  0.13157277446E+02 -0.40805075445E+02  0.67420337640E+01  0.47787272458E+02  0.20000006446E+02 0.  0.
        -12    1    1    2    0    0 -0.13157277446E+02  0.40805075445E+02 -0.67420337640E+01  0.43400727542E+02  0.00000000000E+00 0.  1.
         11    1    3    3    0    0 -0.54741577741E-01 -0.17429184195E+02  0.58948018606E+01  0.18399134425E+02  0.51100000000E-03 0. -1.
        -11    1    3    3    0    0  0.12692889111E+02 -0.10508265307E+02 -0.56715411768E-01  0.16478358251E+02  0.51100000000E-03 0.  1.
        -12    1    3    3    0    0  0.51912991242E+00 -0.12867625943E+02  0.90394731516E+00  0.12909779783E+02  0.00000000000E+00 0.  1.
</event>
<event>
 7    1  0.2811980E-010  0.4778727E+02  0.7816164E-02  0.1312668E+00
        -11   -1    0    0    0    0  0.00000000000E+00  0.00000000000E+00  0.45593999997E+02  0.45594000000E+02  0.51100000000E-03 0.  1.
         11   -1    0    0    0    0 -0.00000000000E+00 -0.00000000000E+00 -0.45593999997E+02  0.45594000000E+02  0.51100000000E-03 0. -1.
    9900012    2    1    2    0    0 -0.25131140818E+02  0.34457588663E+02 -0.80451287867E+01  0.47787265530E+02  0.19999974859E+02 0.  0.
        -12    1    1    2    0    0  0.25131140818E+02 -0.34457588663E+02  0.80451287867E+01  0.43400734470E+02  0.00000000000E+00 0.  1.
         11    1    3    3    0    0 -0.60691464723E+00  0.76587143825E+01 -0.39517034742E+01  0.86394566953E+01  0.51100000000E-03 0. -1.
        -11    1    3    3    0    0 -0.20670720950E+02  0.27178320643E+02 -0.94785867409E+00  0.34159014241E+02  0.51100000000E-03 0.  1.
        -12    1    3    3    0    0 -0.38535052205E+01 -0.37944636223E+00 -0.31455666385E+01  0.49887945942E+01  0.00000000000E+00 0.  1.
</event>
<event>
 7    1  0.2811980E-010  0.4778727E+02  0.7816164E-02  0.1312668E+00
        -11   -1    0    0    0    0  0.00000000000E+00  0.00000000000E+00  0.45593999997E+02  0.45594000000E+02  0.51100000000E-03 0.  1.
         11   -1    0    0    0    0 -0.00000000000E+00 -0.00000000000E+00 -0.45593999997E+02  0.45594000000E+02  0.51100000000E-03 0. -1.
    9900012    2    1    2    0    0  0.19403376283E+01 -0.42918381026E+02 -0.61539300146E+01  0.47787271958E+02  0.20000004163E+02 0.  0.
        -12    1    1    2    0    0 -0.19403376283E+01  0.42918381026E+02  0.61539300146E+01  0.43400728042E+02  0.00000000000E+00 0.  1.
         11    1    3    3    0    0 -0.15836975841E+01 -0.28233360812E+02 -0.14453756715E+00  0.28278112599E+02  0.51100000000E-03 0. -1.
        -11    1    3    3    0    0  0.60946780624E+01 -0.35113155968E+01 -0.15212653162E+01  0.71964356683E+01  0.51100000000E-03 0.  1.
        -12    1    3    3    0    0 -0.25706428500E+01 -0.11173704617E+02 -0.44881271312E+01  0.12312723690E+02  0.00000000000E+00 0.  1.
</event>
<event>
 7    1  0.2811980E-010  0.4778727E+02  0.7816164E-02  0.1312668E+00
        -11   -1    0    0    0    0  0.00000000000E+00  0.00000000000E+00  0.45593999997E+02  0.45594000000E+02  0.51100000000E-03 0. -1.
         11   -1    0    0    0    0 -0.00000000000E+00 -0.00000000000E+00 -0.45593999997E+02  0.45594000000E+02  0.51100000000E-03 0.  1.
    9900012    2    1    2    0    0  0.19369100283E+02  0.21108797000E+02  0.32601840488E+02  0.47787270055E+02  0.19999995487E+02 0.  0.
        -12    1    1    2    0    0 -0.19369100283E+02 -0.21108797000E+02 -0.32601840488E+02  0.43400729945E+02  0.00000000000E+00 0.  1.
         11    1    3    3    0    0  0.81449096207E+01  0.81475690856E+01  0.10440890240E+02  0.15547817339E+02  0.51100000000E-03 0. -1.
        -11    1    3    3    0    0  0.59620056041E+01  0.50217500233E+01  0.21292977836E+02  0.22674972757E+02  0.51100000000E-03 0.  1.
        -12    1    3    3    0    0  0.52621850585E+01  0.79394778915E+01  0.86797241153E+00  0.95644799590E+01  0.00000000000E+00 0.  1.
</event>
<event>
 7    1  0.2811980E-010  0.4778729E+02  0.7816164E-02  0.1312668E+00
        -11   -1    0    0    0    0  0.00000000000E+00  0.00000000000E+00  0.45593999997E+02  0.45594000000E+02  0.51100000000E-03 0. -1.
         11   -1    0    0    0    0 -0.00000000000E+00 -0.00000000000E+00 -0.45593999997E+02  0.45594000000E+02  0.51100000000E-03 0.  1.
    9900012    2    1    2    0    0 -0.16542093833E+02  0.16894783632E+02  0.36394329418E+02  0.47787288069E+02  0.20000077620E+02 0.  0.
        -12    1    1    2    0    0  0.16542093833E+02 -0.16894783632E+02 -0.36394329418E+02  0.43400711931E+02  0.00000000000E+00 0.  1.
         11    1    3    3    0    0 -0.94301205751E+01  0.15828063280E+01  0.21006100881E+02  0.23080050355E+02  0.51100000000E-03 0. -1.
        -11    1    3    3    0    0 -0.73406349809E+01  0.15820102704E+02  0.16146000261E+02  0.23766655133E+02  0.51100000000E-03 0.  1.
         12    1    3    3    0    0  0.22866172320E+00 -0.50812540035E+00 -0.75777172370E+00  0.94058258084E+00  0.00000000000E+00 0. -1.
</event>
<event>
 7    1 -0.2811980E-010  0.4778727E+02  0.7816164E-02  0.1312668E+00
        -11   -1    0    0    0    0  0.00000000000E+00  0.00000000000E+00  0.45593999997E+02  0.45594000000E+02  0.51100000000E-03 0.  1.
         11   -1    0    0    0    0 -0.00000000000E+00 -0.00000000000E+00 -0.45593999997E+02  0.45594000000E+02  0.51100000000E-03 0. -1.
    9900012    2    1    2    0    0 -0.42337328164E+02 -0.71576870222E+01  0.63199019264E+01  0.47787274200E+02  0.20000014388E+02 0.  0.
        -12    1    1    2    0    0  0.42337328164E+02  0.71576870222E+01 -0.63199019264E+01  0.43400725800E+02  0.00000000000E+00 0.  1.
         11    1    3    3    0    0 -0.24965067353E+01  0.25572689232E+01  0.77563879305E+00  0.36570187344E+01  0.51100000000E-03 0. -1.
        -11    1    3    3    0    0 -0.28429643857E+02 -0.37468893834E+01 -0.27588554919E+01  0.28807900197E+02  0.51100000000E-03 0.  1.
        -12    1    3    3    0    0 -0.11411177572E+02 -0.59680665620E+01  0.83031186253E+01  0.15322355268E+02  0.00000000000E+00 0.  1.
</event>
<event>
 7    1  0.2811980E-010  0.4778727E+02  0.7816164E-02  0.1312668E+00
        -11   -1    0    0    0    0  0.00000000000E+00  0.00000000000E+00  0.45593999997E+02  0.45594000000E+02  0.51100000000E-03 0.  1.
         11   -1    0    0    0    0 -0.00000000000E+00 -0.00000000000E+00 -0.45593999997E+02  0.45594000000E+02  0.51100000000E-03 0. -1.
    9900012    2    1    2    0    0 -0.27276689882E+01 -0.92837896235E+01 -0.42308327394E+02  0.47787268500E+02  0.19999988397E+02 0.  0.
        -12    1    1    2    0    0  0.27276689882E+01  0.92837896235E+01  0.42308327394E+02  0.43400731500E+02  0.00000000000E+00 0.  1.
         11    1    3    3    0    0  0.24321342277E+01 -0.79354520641E+01 -0.35857564865E+02  0.36805592437E+02  0.51100000000E-03 0. -1.
        -11    1    3    3    0    0 -0.61094035514E+01 -0.30941845382E+01 -0.44842035156E+01  0.81857724829E+01  0.51100000000E-03 0.  1.
        -12    1    3    3    0    0  0.94960033550E+00  0.17458469788E+01 -0.19665590135E+01  0.27959035792E+01  0.00000000000E+00 0.  1.
</event>
<event>
 7    1  0.2811980E-010  0.4778727E+02  0.7816164E-02  0.1312668E+00
        -11   -1    0    0    0    0  0.00000000000E+00  0.00000000000E+00  0.45593999997E+02  0.45594000000E+02  0.51100000000E-03 0.  1.
         11   -1    0    0    0    0 -0.00000000000E+00 -0.00000000000E+00 -0.45593999997E+02  0.45594000000E+02  0.51100000000E-03 0. -1.
    9900012    2    1    2    0    0 -0.22585928281E+02  0.17773207842E+01 -0.37018113174E+02  0.47787265808E+02  0.19999976124E+02 0.  0.
        -12    1    1    2    0    0  0.22585928281E+02 -0.17773207842E+01  0.37018113174E+02  0.43400734192E+02  0.00000000000E+00 0.  1.
         11    1    3    3    0    0 -0.16019625614E+02  0.64304401846E+01 -0.29368528751E+02  0.34065957304E+02  0.51100000000E-03 0. -1.
        -11    1    3    3    0    0  0.98630995280E+00 -0.21214836744E+01  0.42619813973E+00  0.23780549655E+01  0.51100000000E-03 0.  1.
         12    1    3    3    0    0 -0.75526126198E+01 -0.25316357260E+01 -0.80757825622E+01  0.11343253538E+02  0.00000000000E+00 0. -1.
</event>
<event>
 7    1  0.2811980E-010  0.4778728E+02  0.7816164E-02  0.1312668E+00
        -11   -1    0    0    0    0  0.00000000000E+00  0.00000000000E+00  0.45593999997E+02  0.45594000000E+02  0.51100000000E-03 0. -1.
         11   -1    0    0    0    0 -0.00000000000E+00 -0.00000000000E+00 -0.45593999997E+02  0.45594000000E+02  0.51100000000E-03 0.  1.
    9900012    2    1    2    0    0  0.19081634610E+02  0.16045236879E+02  0.35525547337E+02  0.47787275127E+02  0.20000018615E+02 0.  0.
        -12    1    1    2    0    0 -0.19081634610E+02 -0.16045236879E+02 -0.35525547337E+02  0.43400724873E+02  0.00000000000E+00 0.  1.
         11    1    3    3    0    0  0.13825670805E+02  0.11230098678E+02  0.16226670318E+02  0.24095001959E+02  0.51100000000E-03 0. -1.
        -11    1    3    3    0    0 -0.32817415550E+01  0.12649200259E+01  0.19208080163E+01  0.40074123823E+01  0.51100000000E-03 0.  1.
         12    1    3    3    0    0  0.85377053603E+01  0.35502181746E+01  0.17378069003E+02  0.19684860786E+02  0.00000000000E+00 0. -1.
</event>
<event>
 7    1  0.2811980E-010  0.4778727E+02  0.7816164E-02  0.1312668E+00
        -11   -1    0    0    0    0  0.00000000000E+00  0.00000000000E+00  0.45593999997E+02  0.45594000000E+02  0.51100000000E-03 0.  1.
         11   -1    0    0    0    0 -0.00000000000E+00 -0.00000000000E+00 -0.45593999997E+02  0.45594000000E+02  0.51100000000E-03 0. -1.
    9900012    2    1    2    0    0 -0.33526365964E+01  0.33216815018E+02 -0.27731319308E+02  0.47787273709E+02  0.20000012147E+02 0.  0.
        -12    1    1    2    0    0  0.33526365964E+01 -0.33216815018E+02  0.27731319308E+02  0.43400726291E+02  0.00000000000E+00 0.  1.
         11    1    3    3    0    0 -0.69723727903E+01  0.16056810401E+02 -0.23258048565E+02  0.29109654170E+02  0.51100000000E-03 0. -1.
        -11    1    3    3    0    0  0.30020401831E+01  0.12542298934E+02 -0.11353759352E+01  0.12946450733E+02  0.51100000000E-03 0.  1.
         12    1    3    3    0    0  0.61769601079E+00  0.46177056820E+01 -0.33378948080E+01  0.57311688054E+01  0.00000000000E+00 0. -1.
</event>
<event>
 7    1  0.2811980E-010  0.4778726E+02  0.7816164E-02  0.1312668E+00
        -11   -1    0    0    0    0  0.00000000000E+00  0.00000000000E+00  0.45593999997E+02  0.45594000000E+02  0.51100000000E-03 0. -1.
         11   -1    0    0    0    0 -0.00000000000E+00 -0.00000000000E+00 -0.45593999997E+02  0.45594000000E+02  0.51100000000E-03 0.  1.
    9900012    2    1    2    0    0 -0.29362008770E+02 -0.20738074875E+02  0.24319305564E+02  0.47787263467E+02  0.19999965451E+02 0.  0.
        -12    1    1    2    0    0  0.29362008770E+02  0.20738074875E+02 -0.24319305564E+02  0.43400736533E+02  0.00000000000E+00 0.  1.
         11    1    3    3    0    0 -0.54615111222E+01 -0.41308386977E+01  0.65267429125E+01  0.94599315743E+01  0.51100000000E-03 0.  1.
        -11    1    3    3    0    0 -0.18003823924E+02 -0.64268998521E+01  0.18418542688E+02  0.26545911787E+02  0.51100000000E-03 0. -1.
        -12    1    3    3    0    0 -0.58966737232E+01 -0.10180336325E+02 -0.62598003686E+00  0.11781420105E+02  0.00000000000E+00 0.  1.
</event>
<event>
 7    1  0.2811980E-010  0.4778728E+02  0.7816164E-02  0.1312668E+00
        -11   -1    0    0    0    0  0.00000000000E+00  0.00000000000E+00  0.45593999997E+02  0.45594000000E+02  0.51100000000E-03 0. -1.
         11   -1    0    0    0    0 -0.00000000000E+00 -0.00000000000E+00 -0.45593999997E+02  0.45594000000E+02  0.51100000000E-03 0.  1.
    9900012    2    1    2    0    0 -0.71277579591E+01 -0.28430426569E+02  0.32008260444E+02  0.47787276215E+02  0.20000023574E+02 0.  0.
        -12    1    1    2    0    0  0.71277579591E+01  0.28430426569E+02 -0.32008260444E+02  0.43400723785E+02  0.00000000000E+00 0.  1.
         11    1    3    3    0    0 -0.74391963708E+01 -0.13043536998E+02  0.59744344523E+01  0.16160735359E+02  0.51100000000E-03 0. -1.
        -11    1    3    3    0    0 -0.31486827579E+01 -0.30977341790E+01  0.31600871796E+01  0.54310506716E+01  0.51100000000E-03 0.  1.
         12    1    3    3    0    0  0.34601211696E+01 -0.12289155392E+02  0.22873738812E+02  0.26195490184E+02  0.00000000000E+00 0. -1.
</event>
<event>
 7    1  0.2811980E-010  0.4778727E+02  0.7816164E-02  0.1312668E+00
        -11   -1    0    0    0    0  0.00000000000E+00  0.00000000000E+00  0.45593999997E+02  0.45594000000E+02  0.51100000000E-03 0. -1.
         11   -1    0    0    0    0 -0.00000000000E+00 -0.00000000000E+00 -0.45593999997E+02  0.45594000000E+02  0.51100000000E-03 0.  1.
    9900012    2    1    2    0    0  0.13508019072E+02 -0.35689227684E+01  0.41090384911E+02  0.47787268196E+02  0.19999987014E+02 0.  0.
        -12    1    1    2    0    0 -0.13508019072E+02  0.35689227684E+01 -0.41090384911E+02  0.43400731804E+02  0.00000000000E+00 0.  1.
         11    1    3    3    0    0  0.35697822479E+01 -0.54148790329E+01  0.75742438088E+01  0.99716312494E+01  0.51100000000E-03 0.  1.
        -11    1    3    3    0    0 -0.35907378402E+01 -0.75413332028E+00  0.84719028947E+01  0.92322940930E+01  0.51100000000E-03 0. -1.
        -12    1    3    3    0    0  0.13528974664E+02  0.26000895847E+01  0.25044238207E+02  0.28583342854E+02  0.00000000000E+00 0.  1.
</event>
<event>
 7    1  0.2811980E-010  0.4778727E+02  0.7816164E-02  0.1312668E+00
        -11   -1    0    0    0    0  0.00000000000E+00  0.00000000000E+00  0.45593999997E+02  0.45594000000E+02  0.51100000000E-03 0.  1.
         11   -1    0    0    0    0 -0.00000000000E+00 -0.00000000000E+00 -0.45593999997E+02  0.45594000000E+02  0.51100000000E-03 0. -1.
    9900012    2    1    2    0    0  0.19644811958E+02  0.19663004962E+02 -0.33332725692E+02  0.47787274164E+02  0.20000014225E+02 0.  0.
        -12    1    1    2    0    0 -0.19644811958E+02 -0.19663004962E+02  0.33332725692E+02  0.43400725836E+02  0.00000000000E+00 0.  1.
         11    1    3    3    0    0  0.37318026407E+01  0.12740466687E+02 -0.18097634239E+02  0.22444825855E+02  0.51100000000E-03 0. -1.
        -11    1    3    3    0    0  0.11441080518E+02 -0.64573514409E+00 -0.84589250894E+01  0.14243198770E+02  0.51100000000E-03 0.  1.
         12    1    3    3    0    0  0.44719288002E+01  0.75682734194E+01 -0.67761663632E+01  0.11099249539E+02  0.00000000000E+00 0. -1.
</event>
<event>
 7    1  0.2811980E-010  0.4778727E+02  0.7816164E-02  0.1312668E+00
        -11   -1    0    0    0    0  0.00000000000E+00  0.00000000000E+00  0.45593999997E+02  0.45594000000E+02  0.51100000000E-03 0.  1.
         11   -1    0    0    0    0 -0.00000000000E+00 -0.00000000000E+00 -0.45593999997E+02  0.45594000000E+02  0.51100000000E-03 0. -1.
    9900012    2    1    2    0    0  0.92185567818E+01 -0.38660525615E+02  0.17435742396E+02  0.47787272554E+02  0.20000006882E+02 0.  0.
        -12    1    1    2    0    0 -0.92185567818E+01  0.38660525615E+02 -0.17435742396E+02  0.43400727446E+02  0.00000000000E+00 0.  1.
         11    1    3    3    0    0  0.32696506343E+00 -0.34829207747E+01  0.25955938784E+01  0.43560017353E+01  0.51100000000E-03 0. -1.
        -11    1    3    3    0    0  0.72135760796E+01 -0.13630734840E+02  0.15423978830E+02  0.21811275418E+02  0.51100000000E-03 0.  1.
        -12    1    3    3    0    0  0.16780156388E+01 -0.21546870000E+02 -0.58383031268E+00  0.21619995401E+02  0.00000000000E+00 0.  1.
</event>
<event>
 7    1  0.2811980E-010  0.4778727E+02  0.7816164E-02  0.1312668E+00
        -11   -1    0    0    0    0  0.00000000000E+00  0.00000000000E+00  0.45593999997E+02  0.45594000000E+02  0.51100000000E-03 0.  1.
         11   -1    0    0    0    0 -0.00000000000E+00 -0.00000000000E+00 -0.45593999997E+02  0.45594000000E+02  0.51100000000E-03 0. -1.
    9900012    2    1    2    0    0 -0.18356582832E+02 -0.31119442183E+02 -0.24046610283E+02  0.47787270961E+02  0.19999999619E+02 0.  0.
        -12    1    1    2    0    0  0.18356582832E+02  0.31119442183E+02  0.24046610283E+02  0.43400729039E+02  0.00000000000E+00 0.  1.
         11    1    3    3    0    0  0.31833769783E+01 -0.15601839487E+01 -0.46600152930E+01  0.58552374616E+01  0.51100000000E-03 0. -1.
        -11    1    3    3    0    0 -0.14220154800E+02 -0.15060245568E+02 -0.85576378480E+01  0.22411090221E+02  0.51100000000E-03 0.  1.
         12    1    3    3    0    0 -0.73198050100E+01 -0.14499012666E+02 -0.10828957142E+02  0.19520943278E+02  0.00000000000E+00 0. -1.
</event>
<event>
 7    1  0.2811980E-010  0.4778728E+02  0.7816164E-02  0.1312668E+00
        -11   -1    0    0    0    0  0.00000000000E+00  0.00000000000E+00  0.45593999997E+02  0.45594000000E+02  0.51100000000E-03 0.  1.
         11   -1    0    0    0    0 -0.00000000000E+00 -0.00000000000E+00 -0.45593999997E+02  0.45594000000E+02  0.51100000000E-03 0. -1.
    9900012    2    1    2    0    0  0.23871400481E+02  0.29000395020E+02 -0.21742953357E+02  0.47787277737E+02  0.20000030514E+02 0.  0.
        -12    1    1    2    0    0 -0.23871400481E+02 -0.29000395020E+02  0.21742953357E+02  0.43400722263E+02  0.00000000000E+00 0.  1.
         11    1    3    3    0    0 -0.14234471873E+00  0.48914208856E+00 -0.19195391742E+01  0.19859891501E+01  0.51100000000E-03 0. -1.
        -11    1    3    3    0    0  0.64294960019E+01  0.63810494680E+00  0.13885631746E+01  0.66086083795E+01  0.51100000000E-03 0.  1.
        -12    1    3    3    0    0  0.17584249198E+02  0.27873147985E+02 -0.21211977357E+02  0.39192680208E+02  0.00000000000E+00 0.  1.
</event>
<event>
 7    1  0.2811980E-010  0.4778727E+02  0.7816164E-02  0.1312668E+00
        -11   -1    0    0    0    0  0.00000000000E+00  0.00000000000E+00  0.45593999997E+02  0.45594000000E+02  0.51100000000E-03 0. -1.
         11   -1    0    0    0    0 -0.00000000000E+00 -0.00000000000E+00 -0.45593999997E+02  0.45594000000E+02  0.51100000000E-03 0.  1.
    9900012    2    1    2    0    0  0.10816487487E+02 -0.40495667902E+01  0.41835724580E+02  0.47787271390E+02  0.20000001577E+02 0.  0.
        -12    1    1    2    0    0 -0.10816487487E+02  0.40495667902E+01 -0.41835724580E+02  0.43400728610E+02  0.00000000000E+00 0.  1.
         11    1    3    3    0    0  0.79969279480E+01 -0.28181046929E+01  0.35575999468E+02  0.36572452872E+02  0.51100000000E-03 0. -1.
        -11    1    3    3    0    0 -0.15736292952E+01  0.26007171843E+01  0.38533037796E+01  0.49079516410E+01  0.51100000000E-03 0.  1.
         12    1    3    3    0    0  0.43931888341E+01 -0.38321792816E+01  0.24064213319E+01  0.63068668771E+01  0.00000000000E+00 0. -1.
</event>
<event>
 7    1  0.2811980E-010  0.4778727E+02  0.7816164E-02  0.1312668E+00
        -11   -1    0    0    0    0  0.00000000000E+00  0.00000000000E+00  0.45593999997E+02  0.45594000000E+02  0.51100000000E-03 0.  1.
         11   -1    0    0    0    0 -0.00000000000E+00 -0.00000000000E+00 -0.45593999997E+02  0.45594000000E+02  0.51100000000E-03 0. -1.
    9900012    2    1    2    0    0 -0.18747212126E+02  0.38480289241E+02 -0.71716431142E+01  0.47787273192E+02  0.20000009790E+02 0.  0.
        -12    1    1    2    0    0  0.18747212126E+02 -0.38480289241E+02  0.71716431142E+01  0.43400726808E+02  0.00000000000E+00 0.  1.
         11    1    3    3    0    0 -0.10410088233E+02  0.24888329637E+02 -0.37867410459E+01  0.27242215350E+02  0.51100000000E-03 0. -1.
        -11    1    3    3    0    0 -0.61092749613E+01  0.12442775897E+01  0.24611838232E+01  0.67029018601E+01  0.51100000000E-03 0.  1.
         12    1    3    3    0    0 -0.22278489313E+01  0.12347682014E+02 -0.58460858915E+01  0.13842155982E+02  0.00000000000E+00 0. -1.
</event>
<event>
 7    1  0.2811980E-010  0.4778727E+02  0.7816164E-02  0.1312668E+00
        -11   -1    0    0    0    0  0.00000000000E+00  0.00000000000E+00  0.45593999997E+02  0.45594000000E+02  0.51100000000E-03 0.  1.
         11   -1    0    0    0    0 -0.00000000000E+00 -0.00000000000E+00 -0.45593999997E+02  0.45594000000E+02  0.51100000000E-03 0. -1.
    9900012    2    1    2    0    0  0.74051866978E+01  0.12020141207E+02 -0.41040254435E+02  0.47787273408E+02  0.20000010776E+02 0.  0.
        -12    1    1    2    0    0 -0.74051866978E+01 -0.12020141207E+02  0.41040254435E+02  0.43400726592E+02  0.00000000000E+00 0.  1.
         11    1    3    3    0    0  0.40330184352E+01  0.10054183031E+02 -0.19138578698E+02  0.21991749111E+02  0.51100000000E-03 0. -1.
        -11    1    3    3    0    0  0.31544335709E+00 -0.52480383027E+01 -0.54450773747E+01  0.75690341799E+01  0.51100000000E-03 0.  1.
        -12    1    3    3    0    0  0.30567249055E+01  0.72139964790E+01 -0.16456598362E+02  0.18226490117E+02  0.00000000000E+00 0.  1.
</event>
<event>
 7    1  0.2811980E-010  0.4778728E+02  0.7816164E-02  0.1312668E+00
        -11   -1    0    0    0    0  0.00000000000E+00  0.00000000000E+00  0.45593999997E+02  0.45594000000E+02  0.51100000000E-03 0.  1.
         11   -1    0    0    0    0 -0.00000000000E+00 -0.00000000000E+00 -0.45593999997E+02  0.45594000000E+02  0.51100000000E-03 0. -1.
    9900012    2    1    2    0    0  0.33810844478E+02  0.57207066253E+01 -0.26603063825E+02  0.47787277731E+02  0.20000030485E+02 0.  0.
        -12    1    1    2    0    0 -0.33810844478E+02 -0.57207066253E+01  0.26603063825E+02  0.43400722269E+02  0.00000000000E+00 0.  1.
         11    1    3    3    0    0  0.13095202214E+02  0.16606954905E+01 -0.55056031249E+01  0.14302233971E+02  0.51100000000E-03 0. -1.
        -11    1    3    3    0    0  0.16533668769E+01 -0.40706031818E+01 -0.77852154804E+00  0.44620094526E+01  0.51100000000E-03 0.  1.
        -12    1    3    3    0    0  0.19062275387E+02  0.81306143167E+01 -0.20318939152E+02  0.29023034307E+02  0.00000000000E+00 0.  1.
</event>
<event>
 7    1  0.2811980E-010  0.4778727E+02  0.7816164E-02  0.1312668E+00
        -11   -1    0    0    0    0  0.00000000000E+00  0.00000000000E+00  0.45593999997E+02  0.45594000000E+02  0.51100000000E-03 0.  1.
         11   -1    0    0    0    0 -0.00000000000E+00 -0.00000000000E+00 -0.45593999997E+02  0.45594000000E+02  0.51100000000E-03 0. -1.
    9900012    2    1    2    0    0  0.25194646774E+02 -0.24152960598E+01 -0.35256480859E+02  0.47787270470E+02  0.19999997382E+02 0.  0.
        -12    1    1    2    0    0 -0.25194646774E+02  0.24152960598E+01  0.35256480859E+02  0.43400729530E+02  0.00000000000E+00 0.  1.
         11    1    3    3    0    0  0.13584534748E+02  0.30485266271E+01 -0.18401601715E+02  0.23074922423E+02  0.51100000000E-03 0. -1.
        -11    1    3    3    0    0  0.74859021683E+01 -0.39517140366E+01 -0.13185720774E+01  0.85669952542E+01  0.51100000000E-03 0.  1.
        -12    1    3    3    0    0  0.41242098582E+01 -0.15121086503E+01 -0.15536307067E+02  0.16145352793E+02  0.00000000000E+00 0.  1.
</event>
<event>
 7    1  0.2811980E-010  0.4778728E+02  0.7816164E-02  0.1312668E+00
        -11   -1    0    0    0    0  0.00000000000E+00  0.00000000000E+00  0.45593999997E+02  0.45594000000E+02  0.51100000000E-03 0.  1.
         11   -1    0    0    0    0 -0.00000000000E+00 -0.00000000000E+00 -0.45593999997E+02  0.45594000000E+02  0.51100000000E-03 0. -1.
    9900012    2    1    2    0    0  0.18734381724E+02 -0.29574444417E+02 -0.25651467278E+02  0.47787278869E+02  0.20000035678E+02 0.  0.
        -12    1    1    2    0    0 -0.18734381724E+02  0.29574444417E+02  0.25651467278E+02  0.43400721131E+02  0.00000000000E+00 0.  1.
         11    1    3    3    0    0  0.75693926459E+01 -0.14217515159E+02 -0.17117698534E+02  0.23504234633E+02  0.51100000000E-03 0. -1.
        -11    1    3    3    0    0  0.30086077889E+01 -0.47346320779E+01  0.32166025726E+01  0.64664514312E+01  0.51100000000E-03 0.  1.
        -12    1    3    3    0    0  0.81563812893E+01 -0.10622297180E+02 -0.11750371316E+02  0.17816592805E+02  0.00000000000E+00 0.  1.
</event>
<event>
 7    1  0.2811980E-010  0.4778727E+02  0.7816164E-02  0.1312668E+00
        -11   -1    0    0    0    0  0.00000000000E+00  0.00000000000E+00  0.45593999997E+02  0.45594000000E+02  0.51100000000E-03 0. -1.
         11   -1    0    0    0    0 -0.00000000000E+00 -0.00000000000E+00 -0.45593999997E+02  0.45594000000E+02  0.51100000000E-03 0.  1.
    9900012    2    1    2    0    0 -0.18491126088E+01  0.43170273236E+02 -0.40659459626E+01  0.47787266996E+02  0.19999981541E+02 0.  0.
        -12    1    1    2    0    0  0.18491126088E+01 -0.43170273236E+02  0.40659459626E+01  0.43400733004E+02  0.00000000000E+00 0.  1.
         11    1    3    3    0    0  0.38810488534E+01  0.29651391487E+02 -0.18847845946E+01  0.29963644147E+02  0.51100000000E-03 0. -1.
        -11    1    3    3    0    0 -0.78768568718E+01  0.75567345824E+01 -0.32680196789E+01  0.11394255773E+02  0.51100000000E-03 0.  1.
         12    1    3    3    0    0  0.21466954096E+01  0.59621471663E+01  0.10868583110E+01  0.64293670763E+01  0.00000000000E+00 0. -1.
</event>
<event>
 7    1  0.2811980E-010  0.4778727E+02  0.7816164E-02  0.1312668E+00
        -11   -1    0    0    0    0  0.00000000000E+00  0.00000000000E+00  0.45593999997E+02  0.45594000000E+02  0.51100000000E-03 0. -1.
         11   -1    0    0    0    0 -0.00000000000E+00 -0.00000000000E+00 -0.45593999997E+02  0.45594000000E+02  0.51100000000E-03 0.  1.
    9900012    2    1    2    0    0 -0.36926597676E+02 -0.21116119836E+02 -0.86115731641E+01  0.47787270453E+02  0.19999997303E+02 0.  0.
        -12    1    1    2    0    0  0.36926597676E+02  0.21116119836E+02  0.86115731641E+01  0.43400729547E+02  0.00000000000E+00 0.  1.
         11    1    3    3    0    0 -0.25342403449E+02 -0.52742816085E+01 -0.64544559666E+01  0.26677995823E+02  0.51100000000E-03 0. -1.
        -11    1    3    3    0    0 -0.18986485376E+01 -0.83588908860E+01  0.49383198963E+00  0.85860231428E+01  0.51100000000E-03 0.  1.
         12    1    3    3    0    0 -0.96855456900E+01 -0.74829473412E+01 -0.26509491872E+01  0.12523251487E+02  0.00000000000E+00 0. -1.
</event>
<event>
 7    1  0.2811980E-010  0.4778727E+02  0.7816164E-02  0.1312668E+00
        -11   -1    0    0    0    0  0.00000000000E+00  0.00000000000E+00  0.45593999997E+02  0.45594000000E+02  0.51100000000E-03 0.  1.
         11   -1    0    0    0    0 -0.00000000000E+00 -0.00000000000E+00 -0.45593999997E+02  0.45594000000E+02  0.51100000000E-03 0. -1.
    9900012    2    1    2    0    0  0.94470983742E+01 -0.18966577734E+02 -0.37876700607E+02  0.47787272039E+02  0.20000004536E+02 0.  0.
        -12    1    1    2    0    0 -0.94470983742E+01  0.18966577734E+02  0.37876700607E+02  0.43400727961E+02  0.00000000000E+00 0.  1.
         11    1    3    3    0    0  0.81067363349E+01 -0.34950599475E+01 -0.20618448710E+02  0.22428888638E+02  0.51100000000E-03 0. -1.
        -11    1    3    3    0    0  0.38224540339E+01 -0.13577558161E+02 -0.95291729212E+01  0.17022525584E+02  0.51100000000E-03 0.  1.
         12    1    3    3    0    0 -0.24820919947E+01 -0.18939596260E+01 -0.77290789757E+01  0.83358578172E+01  0.00000000000E+00 0. -1.
</event>
<event>
 7    1  0.2811980E-010  0.4778727E+02  0.7816164E-02  0.1312668E+00
        -11   -1    0    0    0    0  0.00000000000E+00  0.00000000000E+00  0.45593999997E+02  0.45594000000E+02  0.51100000000E-03 0. -1.
         11   -1    0    0    0    0 -0.00000000000E+00 -0.00000000000E+00 -0.45593999997E+02  0.45594000000E+02  0.51100000000E-03 0.  1.
    9900012    2    1    2    0    0 -0.16347693917E+02  0.93345253739E+01  0.39105537789E+02  0.47787267908E+02  0.19999985700E+02 0.  0.
        -12    1    1    2    0    0  0.16347693917E+02 -0.93345253739E+01 -0.39105537789E+02  0.43400732092E+02  0.00000000000E+00 0.  1.
         11    1    3    3    0    0  0.16104952027E+01 -0.12134397108E+01  0.65275737448E+01  0.68319360349E+01  0.51100000000E-03 0. -1.
        -11    1    3    3    0    0 -0.18794800078E+02  0.12432873087E+02  0.31151412414E+02  0.38447774173E+02  0.51100000000E-03 0.  1.
        -12    1    3    3    0    0  0.83661095753E+00 -0.18849080021E+01  0.14265516294E+01  0.25075577007E+01  0.00000000000E+00 0.  1.
</event>
<event>
 7    1  0.2811980E-010  0.4778727E+02  0.7816164E-02  0.1312668E+00
        -11   -1    0    0    0    0  0.00000000000E+00  0.00000000000E+00  0.45593999997E+02  0.45594000000E+02  0.51100000000E-03 0.  1.
         11   -1    0    0    0    0 -0.00000000000E+00 -0.00000000000E+00 -0.45593999997E+02  0.45594000000E+02  0.51100000000E-03 0. -1.
    9900012    2    1    2    0    0  0.42292067100E+02 -0.22024406170E+01 -0.94949155337E+01  0.47787272987E+02  0.20000008859E+02 0.  0.
        -12    1    1    2    0    0 -0.42292067100E+02  0.22024406170E+01  0.94949155337E+01  0.43400727013E+02  0.00000000000E+00 0.  1.
         11    1    3    3    0    0  0.20327903718E+02  0.22583633220E+01 -0.50103584697E+01  0.21057719884E+02  0.51100000000E-03 0. -1.
        -11    1    3    3    0    0  0.51813593588E-01 -0.44379936333E+01 -0.76458034898E+00  0.45036713367E+01  0.51100000000E-03 0.  1.
        -12    1    3    3    0    0  0.21912349788E+02 -0.22810305739E-01 -0.37199767151E+01  0.22225881767E+02  0.00000000000E+00 0.  1.
</event>
<event>
 7    1  0.2811980E-010  0.4778727E+02  0.7816164E-02  0.1312668E+00
        -11   -1    0    0    0    0  0.00000000000E+00  0.00000000000E+00  0.45593999997E+02  0.45594000000E+02  0.51100000000E-03 0.  1.
         11   -1    0    0    0    0 -0.00000000000E+00 -0.00000000000E+00 -0.45593999997E+02  0.45594000000E+02  0.51100000000E-03 0. -1.
    9900012    2    1    2    0    0 -0.11564077089E+02 -0.41757771493E+02 -0.24867745383E+01  0.47787269515E+02  0.19999993028E+02 0.  0.
        -12    1    1    2    0    0  0.11564077089E+02  0.41757771493E+02  0.24867745383E+01  0.43400730485E+02  0.00000000000E+00 0.  1.
         11    1    3    3    0    0 -0.19837732006E+01 -0.20001315480E+02 -0.62724438943E+01  0.21055439433E+02  0.51100000000E-03 0. -1.
        -11    1    3    3    0    0 -0.11686735903E+02 -0.13487804089E+02  0.15663270355E+01  0.17915190087E+02  0.51100000000E-03 0.  1.
         12    1    3    3    0    0  0.21064320141E+01 -0.82686519244E+01  0.22193423205E+01  0.88166399956E+01  0.00000000000E+00 0. -1.
</event>
<event>
 7    1  0.2811980E-010  0.4778727E+02  0.7816164E-02  0.1312668E+00
        -11   -1    0    0    0    0  0.00000000000E+00  0.00000000000E+00  0.45593999997E+02  0.45594000000E+02  0.51100000000E-03 0. -1.
         11   -1    0    0    0    0 -0.00000000000E+00 -0.00000000000E+00 -0.45593999997E+02  0.45594000000E+02  0.51100000000E-03 0.  1.
    9900012    2    1    2    0    0 -0.13224421102E+02 -0.24319804063E+02  0.33425815005E+02  0.47787270837E+02  0.19999999055E+02 0.  0.
        -12    1    1    2    0    0  0.13224421102E+02  0.24319804063E+02 -0.33425815005E+02  0.43400729163E+02  0.00000000000E+00 0.  1.
         11    1    3    3    0    0 -0.11618398541E+02 -0.25800057502E+02  0.22422568091E+02  0.36102655191E+02  0.51100000000E-03 0. -1.
        -11    1    3    3    0    0 -0.59586922600E+00  0.21204770276E+01  0.38794071149E+01  0.44610853818E+01  0.51100000000E-03 0.  1.
         12    1    3    3    0    0 -0.10101533351E+01 -0.64022358817E+00  0.71238397984E+01  0.72235302642E+01  0.00000000000E+00 0. -1.
</event>
<event>
 7    1  0.2811980E-010  0.4778727E+02  0.7816164E-02  0.1312668E+00
        -11   -1    0    0    0    0  0.00000000000E+00  0.00000000000E+00  0.45593999997E+02  0.45594000000E+02  0.51100000000E-03 0.  1.
         11   -1    0    0    0    0 -0.00000000000E+00 -0.00000000000E+00 -0.45593999997E+02  0.45594000000E+02  0.51100000000E-03 0. -1.
    9900012    2    1    2    0    0 -0.39573763119E+02  0.80811182108E+01 -0.15881936417E+02  0.47787273009E+02  0.20000008958E+02 0.  0.
        -12    1    1    2    0    0  0.39573763119E+02 -0.80811182108E+01  0.15881936417E+02  0.43400726991E+02  0.00000000000E+00 0.  1.
         11    1    3    3    0    0 -0.31648070554E+02  0.11078344578E+02 -0.17632530851E+02  0.37884511780E+02  0.51100000000E-03 0. -1.
        -11    1    3    3    0    0 -0.39645455497E+01 -0.43724326264E+00 -0.14041819997E+01  0.42285376238E+01  0.51100000000E-03 0.  1.
         12    1    3    3    0    0 -0.39611470157E+01 -0.25599831041E+01  0.31547764336E+01  0.56742236050E+01  0.00000000000E+00 0. -1.
</event>
<event>
 7    1  0.2811980E-010  0.4778727E+02  0.7816164E-02  0.1312668E+00
        -11   -1    0    0    0    0  0.00000000000E+00  0.00000000000E+00  0.45593999997E+02  0.45594000000E+02  0.51100000000E-03 0.  1.
         11   -1    0    0    0    0 -0.00000000000E+00 -0.00000000000E+00 -0.45593999997E+02  0.45594000000E+02  0.51100000000E-03 0. -1.
    9900012    2    1    2    0    0 -0.18956768185E+00  0.35525761527E+02 -0.24930055182E+02  0.47787270520E+02  0.19999997610E+02 0.  0.
        -12    1    1    2    0    0  0.18956768185E+00 -0.35525761527E+02  0.24930055182E+02  0.43400729480E+02  0.00000000000E+00 0.  1.
         11    1    3    3    0    0 -0.37663153098E+01  0.11610031329E+02 -0.77502046493E+01  0.14458341220E+02  0.51100000000E-03 0. -1.
        -11    1    3    3    0    0  0.10869452279E+01  0.23908350591E+02 -0.18734489924E+02  0.30393614311E+02  0.51100000000E-03 0.  1.
        -12    1    3    3    0    0  0.24898024000E+01  0.73796080712E-02  0.15546393917E+01  0.29353149896E+01  0.00000000000E+00 0.  1.
</event>
<event>
 7    1  0.2811980E-010  0.4778727E+02  0.7816164E-02  0.1312668E+00
        -11   -1    0    0    0    0  0.00000000000E+00  0.00000000000E+00  0.45593999997E+02  0.45594000000E+02  0.51100000000E-03 0.  1.
         11   -1    0    0    0    0 -0.00000000000E+00 -0.00000000000E+00 -0.45593999997E+02  0.45594000000E+02  0.51100000000E-03 0. -1.
    9900012    2    1    2    0    0  0.71093557571E+01  0.30477757060E+02 -0.30069698063E+02  0.47787270095E+02  0.19999995672E+02 0.  0.
        -12    1    1    2    0    0 -0.71093557571E+01 -0.30477757060E+02  0.30069698063E+02  0.43400729905E+02  0.00000000000E+00 0.  1.
         11    1    3    3    0    0 -0.12346472707E+01  0.21267282773E+02 -0.95693864912E+01  0.23353689827E+02  0.51100000000E-03 0. -1.
        -11    1    3    3    0    0  0.53969000769E+01  0.74029440133E+01 -0.17897850003E+02  0.20106296166E+02  0.51100000000E-03 0.  1.
         12    1    3    3    0    0  0.29471029510E+01  0.18075302736E+01 -0.26024615684E+01  0.43272841031E+01  0.00000000000E+00 0. -1.
</event>
<event>
 7    1  0.2811980E-010  0.4778726E+02  0.7816164E-02  0.1312668E+00
        -11   -1    0    0    0    0  0.00000000000E+00  0.00000000000E+00  0.45593999997E+02  0.45594000000E+02  0.51100000000E-03 0. -1.
         11   -1    0    0    0    0 -0.00000000000E+00 -0.00000000000E+00 -0.45593999997E+02  0.45594000000E+02  0.51100000000E-03 0.  1.
    9900012    2    1    2    0    0  0.38439561461E+02  0.74791918184E+00  0.20136156981E+02  0.47787261684E+02  0.19999957322E+02 0.  0.
        -12    1    1    2    0    0 -0.38439561461E+02 -0.74791918184E+00 -0.20136156981E+02  0.43400738316E+02  0.00000000000E+00 0.  1.
         11    1    3    3    0    0  0.20684067640E+02 -0.67615077557E+01  0.88232412582E+01  0.23481870194E+02  0.51100000000E-03 0. -1.
        -11    1    3    3    0    0  0.11681567316E+02  0.23204927410E+01  0.20695392367E+01  0.12088287489E+02  0.51100000000E-03 0.  1.
         12    1    3    3    0    0  0.60739265054E+01  0.51889341965E+01  0.92433764864E+01  0.12217104000E+02  0.00000000000E+00 0. -1.
</event>
<event>
 7    1  0.2811980E-010  0.4778727E+02  0.7816164E-02  0.1312668E+00
        -11   -1    0    0    0    0  0.00000000000E+00  0.00000000000E+00  0.45593999997E+02  0.45594000000E+02  0.51100000000E-03 0. -1.
         11   -1    0    0    0    0 -0.00000000000E+00 -0.00000000000E+00 -0.45593999997E+02  0.45594000000E+02  0.51100000000E-03 0.  1.
    9900012    2    1    2    0    0  0.33553654354E+02 -0.18697661571E+02 -0.20203303793E+02  0.47787265526E+02  0.19999974838E+02 0.  0.
        -12    1    1    2    0    0 -0.33553654354E+02  0.18697661571E+02  0.20203303793E+02  0.43400734474E+02  0.00000000000E+00 0.  1.
         11    1    3    3    0    0  0.22228421310E+02 -0.50422809003E+01 -0.16213461350E+02  0.27971479043E+02  0.51100000000E-03 0. -1.
        -11    1    3    3    0    0 -0.83582308485E+00 -0.17144803645E+01 -0.18173034422E+01  0.26345085332E+01  0.51100000000E-03 0.  1.
         12    1    3    3    0    0  0.12161056128E+02 -0.11940900306E+02 -0.21725390016E+01  0.17181277950E+02  0.00000000000E+00 0. -1.
</event>
<event>
 7    1  0.2811980E-010  0.4778727E+02  0.7816164E-02  0.1312668E+00
        -11   -1    0    0    0    0  0.00000000000E+00  0.00000000000E+00  0.45593999997E+02  0.45594000000E+02  0.51100000000E-03 0.  1.
         11   -1    0    0    0    0 -0.00000000000E+00 -0.00000000000E+00 -0.45593999997E+02  0.45594000000E+02  0.51100000000E-03 0. -1.
    9900012    2    1    2    0    0  0.25744784800E+02 -0.41732793584E+01 -0.34690247298E+02  0.47787268870E+02  0.19999990087E+02 0.  0.
        -12    1    1    2    0    0 -0.25744784800E+02  0.41732793584E+01  0.34690247298E+02  0.43400731130E+02  0.00000000000E+00 0.  1.
         11    1    3    3    0    0  0.17541447852E+02  0.34538236117E+01 -0.28756988585E+02  0.33861418798E+02  0.51100000000E-03 0. -1.
        -11    1    3    3    0    0  0.87832100532E+01 -0.70026621935E+01 -0.64262526474E+01  0.12941359279E+02  0.51100000000E-03 0.  1.
         12    1    3    3    0    0 -0.57987310541E+00 -0.62444077672E+00  0.49299393460E+00  0.98449079303E+00  0.00000000000E+00 0. -1.
</event>
<event>
 7    1  0.2811980E-010  0.4778727E+02  0.7816164E-02  0.1312668E+00
        -11   -1    0    0    0    0  0.00000000000E+00  0.00000000000E+00  0.45593999997E+02  0.45594000000E+02  0.51100000000E-03 0. -1.
         11   -1    0    0    0    0 -0.00000000000E+00 -0.00000000000E+00 -0.45593999997E+02  0.45594000000E+02  0.51100000000E-03 0.  1.
    9900012    2    1    2    0    0  0.39751948607E+02  0.23617034199E+01  0.17257699981E+02  0.47787271092E+02  0.20000000219E+02 0.  0.
        -12    1    1    2    0    0 -0.39751948607E+02 -0.23617034199E+01 -0.17257699981E+02  0.43400728908E+02  0.00000000000E+00 0.  1.
         11    1    3    3    0    0  0.53527326652E+01  0.41169939213E+01  0.36127994711E+01  0.76585707683E+01  0.51100000000E-03 0. -1.
        -11    1    3    3    0    0  0.32700813222E+02 -0.68369995472E-01  0.75225109426E+01  0.33554970287E+02  0.51100000000E-03 0.  1.
        -12    1    3    3    0    0  0.16984027199E+01 -0.16869205059E+01  0.61223895669E+01  0.65737300371E+01  0.00000000000E+00 0.  1.
</event>
<event>
 7    1  0.2811980E-010  0.4778727E+02  0.7816164E-02  0.1312668E+00
        -11   -1    0    0    0    0  0.00000000000E+00  0.00000000000E+00  0.45593999997E+02  0.45594000000E+02  0.51100000000E-03 0.  1.
         11   -1    0    0    0    0 -0.00000000000E+00 -0.00000000000E+00 -0.45593999997E+02  0.45594000000E+02  0.51100000000E-03 0. -1.
    9900012    2    1    2    0    0 -0.39592155579E+02 -0.16565248031E+02 -0.64558080448E+01  0.47787266328E+02  0.19999978496E+02 0.  0.
        -12    1    1    2    0    0  0.39592155579E+02  0.16565248031E+02  0.64558080448E+01  0.43400733672E+02  0.00000000000E+00 0.  1.
         11    1    3    3    0    0 -0.32240527336E+02 -0.98606918043E+01 -0.18722327239E+00  0.33715276931E+02  0.51100000000E-03 0.  1.
        -11    1    3    3    0    0  0.44270606713E+00 -0.23961368429E+01  0.94264763804E+00  0.26126701404E+01  0.51100000000E-03 0. -1.
         12    1    3    3    0    0 -0.77943343109E+01 -0.43084193841E+01 -0.72112324105E+01  0.11459319256E+02  0.00000000000E+00 0. -1.
</event>
<event>
 7    1  0.2811980E-010  0.4778727E+02  0.7816164E-02  0.1312668E+00
        -11   -1    0    0    0    0  0.00000000000E+00  0.00000000000E+00  0.45593999997E+02  0.45594000000E+02  0.51100000000E-03 0.  1.
         11   -1    0    0    0    0 -0.00000000000E+00 -0.00000000000E+00 -0.45593999997E+02  0.45594000000E+02  0.51100000000E-03 0. -1.
    9900012    2    1    2    0    0  0.26780282889E+02 -0.33427511961E+02  0.70029405825E+01  0.47787270924E+02  0.19999999451E+02 0.  0.
        -12    1    1    2    0    0 -0.26780282889E+02  0.33427511961E+02 -0.70029405825E+01  0.43400729076E+02  0.00000000000E+00 0.  1.
         11    1    3    3    0    0  0.12752588519E+02 -0.88411796359E+01 -0.72539009914E+00  0.15534515195E+02  0.51100000000E-03 0. -1.
        -11    1    3    3    0    0  0.15455869783E+02 -0.20873392491E+02  0.98090997182E+01  0.27763300639E+02  0.51100000000E-03 0.  1.
        -12    1    3    3    0    0 -0.14281754127E+01 -0.37129398344E+01 -0.20807690366E+01  0.44894550902E+01  0.00000000000E+00 0.  1.
</event>
<event>
 7    1  0.2811980E-010  0.4778727E+02  0.7816164E-02  0.1312668E+00
        -11   -1    0    0    0    0  0.00000000000E+00  0.00000000000E+00  0.45593999997E+02  0.45594000000E+02  0.51100000000E-03 0. -1.
         11   -1    0    0    0    0 -0.00000000000E+00 -0.00000000000E+00 -0.45593999997E+02  0.45594000000E+02  0.51100000000E-03 0.  1.
    9900012    2    1    2    0    0  0.66637075598E+01 -0.37929975694E+02 -0.20013368547E+02  0.47787274486E+02  0.20000015691E+02 0.  0.
        -12    1    1    2    0    0 -0.66637075598E+01  0.37929975694E+02  0.20013368547E+02  0.43400725514E+02  0.00000000000E+00 0.  1.
         11    1    3    3    0    0  0.31114637434E+01 -0.35156016714E+02 -0.13338261274E+02  0.37729775137E+02  0.51100000000E-03 0. -1.
        -11    1    3    3    0    0  0.10504793345E+01  0.14727848269E+01 -0.41332621277E+01  0.45118131673E+01  0.51100000000E-03 0.  1.
         12    1    3    3    0    0  0.25017644818E+01 -0.42467438062E+01 -0.25418451449E+01  0.55456861811E+01  0.00000000000E+00 0. -1.
</event>
<event>
 7    1  0.2811980E-010  0.4778727E+02  0.7816164E-02  0.1312668E+00
        -11   -1    0    0    0    0  0.00000000000E+00  0.00000000000E+00  0.45593999997E+02  0.45594000000E+02  0.51100000000E-03 0.  1.
         11   -1    0    0    0    0 -0.00000000000E+00 -0.00000000000E+00 -0.45593999997E+02  0.45594000000E+02  0.51100000000E-03 0. -1.
    9900012    2    1    2    0    0  0.33333317098E+02 -0.18962145524E+02 -0.20321181310E+02  0.47787269575E+02  0.19999993299E+02 0.  0.
        -12    1    1    2    0    0 -0.33333317098E+02  0.18962145524E+02  0.20321181310E+02  0.43400730425E+02  0.00000000000E+00 0.  1.
         11    1    3    3    0    0  0.26598358209E+01 -0.10998862529E+01 -0.65800346597E+01  0.71820145327E+01  0.51100000000E-03 0. -1.
        -11    1    3    3    0    0  0.21923748440E+02 -0.66214988456E+01 -0.37521411274E+01  0.23207187592E+02  0.51100000000E-03 0.  1.
        -12    1    3    3    0    0  0.87497328368E+01 -0.11240760426E+02 -0.99890055233E+01  0.17398067450E+02  0.00000000000E+00 0.  1.
</event>
<event>
 7    1  0.2811980E-010  0.4778727E+02  0.7816164E-02  0.1312668E+00
        -11   -1    0    0    0    0  0.00000000000E+00  0.00000000000E+00  0.45593999997E+02  0.45594000000E+02  0.51100000000E-03 0. -1.
         11   -1    0    0    0    0 -0.00000000000E+00 -0.00000000000E+00 -0.45593999997E+02  0.45594000000E+02  0.51100000000E-03 0.  1.
    9900012    2    1    2    0    0 -0.22844422314E+02  0.21336449151E+02  0.30108329156E+02  0.47787272151E+02  0.20000005046E+02 0.  0.
        -12    1    1    2    0    0  0.22844422314E+02 -0.21336449151E+02 -0.30108329156E+02  0.43400727849E+02  0.00000000000E+00 0.  1.
         11    1    3    3    0    0 -0.10138228684E+02  0.16278741309E+02  0.88323291432E+01  0.21113766547E+02  0.51100000000E-03 0. -1.
        -11    1    3    3    0    0  0.43553583423E+00  0.20464008576E+01  0.57057261739E+01  0.60772328707E+01  0.51100000000E-03 0.  1.
         12    1    3    3    0    0 -0.13141729464E+02  0.30113069841E+01  0.15570273839E+02  0.20596272733E+02  0.00000000000E+00 0. -1.
</event>
<event>
 7    1  0.2811980E-010  0.4778727E+02  0.7816164E-02  0.1312668E+00
        -11   -1    0    0    0    0  0.00000000000E+00  0.00000000000E+00  0.45593999997E+02  0.45594000000E+02  0.51100000000E-03 0.  1.
         11   -1    0    0    0    0 -0.00000000000E+00 -0.00000000000E+00 -0.45593999997E+02  0.45594000000E+02  0.51100000000E-03 0. -1.
    9900012    2    1    2    0    0  0.40374057272E+02  0.15916215101E+02 -0.48258191541E+00  0.47787270870E+02  0.19999999205E+02 0.  0.
        -12    1    1    2    0    0 -0.40374057272E+02 -0.15916215101E+02  0.48258191541E+00  0.43400729130E+02  0.00000000000E+00 0.  1.
         11    1    3    3    0    0  0.31820965660E+02  0.11779443218E+02  0.50627349781E+01  0.34306856804E+02  0.51100000000E-03 0. -1.
        -11    1    3    3    0    0  0.25709529994E+01  0.46853269560E+00 -0.59013894291E+01  0.64541242370E+01  0.51100000000E-03 0.  1.
         12    1    3    3    0    0  0.59821386124E+01  0.36682391874E+01  0.35607253563E+00  0.70262898293E+01  0.00000000000E+00 0. -1.
</event>
<event>
 7    1  0.2811980E-010  0.4778726E+02  0.7816164E-02  0.1312668E+00
        -11   -1    0    0    0    0  0.00000000000E+00  0.00000000000E+00  0.45593999997E+02  0.45594000000E+02  0.51100000000E-03 0. -1.
         11   -1    0    0    0    0 -0.00000000000E+00 -0.00000000000E+00 -0.45593999997E+02  0.45594000000E+02  0.51100000000E-03 0.  1.
    9900012    2    1    2    0    0 -0.83975521534E+00  0.22990864385E+01  0.43331662403E+02  0.47787263210E+02  0.19999964281E+02 0.  0.
        -12    1    1    2    0    0  0.83975521534E+00 -0.22990864385E+01 -0.43331662403E+02  0.43400736790E+02  0.00000000000E+00 0.  1.
         11    1    3    3    0    0  0.41146794006E+01 -0.31855910979E+01  0.22788141455E+02  0.23374729270E+02  0.51100000000E-03 0. -1.
        -11    1    3    3    0    0 -0.50852736940E+01 -0.40646199055E+00  0.30281697197E+01  0.59325400972E+01  0.51100000000E-03 0.  1.
        -12    1    3    3    0    0  0.13083907809E+00  0.58911395270E+01  0.17515351228E+02  0.18479993843E+02  0.00000000000E+00 0.  1.
</event>
<event>
 7    1  0.2811980E-010  0.4778727E+02  0.7816164E-02  0.1312668E+00
        -11   -1    0    0    0    0  0.00000000000E+00  0.00000000000E+00  0.45593999997E+02  0.45594000000E+02  0.51100000000E-03 0.  1.
         11   -1    0    0    0    0 -0.00000000000E+00 -0.00000000000E+00 -0.45593999997E+02  0.45594000000E+02  0.51100000000E-03 0. -1.
    9900012    2    1    2    0    0  0.15759644416E+02 -0.36324072037E+02 -0.17771298846E+02  0.47787266549E+02  0.19999979502E+02 0.  0.
        -12    1    1    2    0    0 -0.15759644416E+02  0.36324072037E+02  0.17771298846E+02  0.43400733451E+02  0.00000000000E+00 0.  1.
         11    1    3    3    0    0  0.16590613758E+02 -0.20787410492E+02 -0.14596421798E+02  0.30338431558E+02  0.51100000000E-03 0. -1.
        -11    1    3    3    0    0  0.23748717547E+01 -0.29180885934E+01  0.77922326920E+00  0.38421928706E+01  0.51100000000E-03 0.  1.
         12    1    3    3    0    0 -0.32058410970E+01 -0.12618572951E+02 -0.39541003174E+01  0.13606642120E+02  0.00000000000E+00 0. -1.
</event>
<event>
 7    1  0.3179050E-010  0.4778727E+02  0.7816164E-02  0.1312668E+00
        -11   -1    0    0    0    0  0.00000000000E+00  0.00000000000E+00  0.45593999997E+02  0.45594000000E+02  0.51100000000E-03 0. -1.
         11   -1    0    0    0    0 -0.00000000000E+00 -0.00000000000E+00 -0.45593999997E+02  0.45594000000E+02  0.51100000000E-03 0.  1.
    9900012    2    1    2    0    0  0.18865559170E+02 -0.15318990329E+02  0.35958903691E+02  0.47787267953E+02  0.19999985906E+02 0.  0.
        -12    1    1    2    0    0 -0.18865559170E+02  0.15318990329E+02 -0.35958903691E+02  0.43400732047E+02  0.00000000000E+00 0.  1.
         11    1    3    3    0    0  0.86899119166E+01 -0.13381739651E+02  0.28170671508E+02  0.32375488548E+02  0.51100000000E-03 0. -1.
        -11    1    3    3    0    0  0.91139187954E+01  0.13073454136E+01  0.76904482995E+01  0.11996485450E+02  0.51100000000E-03 0.  1.
        -12    1    3    3    0    0  0.10617284582E+01 -0.32445960915E+01  0.97783883657E-01  0.34152939557E+01  0.00000000000E+00 0.  1.
</event>
<event>
 7    1  0.2811980E-010  0.4778727E+02  0.7816164E-02  0.1312668E+00
        -11   -1    0    0    0    0  0.00000000000E+00  0.00000000000E+00  0.45593999997E+02  0.45594000000E+02  0.51100000000E-03 0.  1.
         11   -1    0    0    0    0 -0.00000000000E+00 -0.00000000000E+00 -0.45593999997E+02  0.45594000000E+02  0.51100000000E-03 0. -1.
    9900012    2    1    2    0    0 -0.11696498146E+00  0.21158002004E+01 -0.43348972149E+02  0.47787266392E+02  0.19999978788E+02 0.  0.
        -12    1    1    2    0    0  0.11696498146E+00 -0.21158002004E+01  0.43348972149E+02  0.43400733608E+02  0.00000000000E+00 0.  1.
         11    1    3    3    0    0  0.20528064994E+01  0.48547855369E+01 -0.93840525695E+01  0.10763057187E+02  0.51100000000E-03 0. -1.
        -11    1    3    3    0    0  0.28532214196E+01 -0.72673336555E+01 -0.20941771034E+02  0.22349782666E+02  0.51100000000E-03 0.  1.
        -12    1    3    3    0    0 -0.50229929005E+01  0.45283483190E+01 -0.13023148546E+02  0.14674426538E+02  0.00000000000E+00 0.  1.
</event>
<event>
 7    1  0.2811980E-010  0.4778728E+02  0.7816164E-02  0.1312668E+00
        -11   -1    0    0    0    0  0.00000000000E+00  0.00000000000E+00  0.45593999997E+02  0.45594000000E+02  0.51100000000E-03 0. -1.
         11   -1    0    0    0    0 -0.00000000000E+00 -0.00000000000E+00 -0.45593999997E+02  0.45594000000E+02  0.51100000000E-03 0.  1.
    9900012    2    1    2    0    0  0.31683901083E+02  0.14908184488E+02  0.25641744041E+02  0.47787278922E+02  0.20000035918E+02 0.  0.
        -12    1    1    2    0    0 -0.31683901083E+02 -0.14908184488E+02 -0.25641744041E+02  0.43400721078E+02  0.00000000000E+00 0.  1.
         11    1    3    3    0    0  0.86577989594E+01  0.54991586590E+01  0.62361876569E+01  0.12003677167E+02  0.51100000000E-03 0. -1.
        -11    1    3    3    0    0  0.94024088787E+01  0.91078430612E+01  0.17752098212E+02  0.22056633677E+02  0.51100000000E-03 0.  1.
        -12    1    3    3    0    0  0.13623693245E+02  0.30118276817E+00  0.16534581722E+01  0.13726968078E+02  0.00000000000E+00 0.  1.
</event>
<event>
 7    1  0.2811980E-010  0.4778727E+02  0.7816164E-02  0.1312668E+00
        -11   -1    0    0    0    0  0.00000000000E+00  0.00000000000E+00  0.45593999997E+02  0.45594000000E+02  0.51100000000E-03 0.  1.
         11   -1    0    0    0    0 -0.00000000000E+00 -0.00000000000E+00 -0.45593999997E+02  0.45594000000E+02  0.51100000000E-03 0. -1.
    9900012    2    1    2    0    0  0.21513702759E+02  0.93700054725E+00 -0.37681638713E+02  0.47787271060E+02  0.20000000072E+02 0.  0.
        -12    1    1    2    0    0 -0.21513702759E+02 -0.93700054725E+00  0.37681638713E+02  0.43400728940E+02  0.00000000000E+00 0.  1.
         11    1    3    3    0    0  0.14884965562E+02 -0.24067438525E+01 -0.31426101681E+02  0.34856197195E+02  0.51100000000E-03 0. -1.
        -11    1    3    3    0    0  0.19945999192E+00  0.50215121536E+00 -0.58662277218E+01  0.58910583155E+01  0.51100000000E-03 0.  1.
         12    1    3    3    0    0  0.64292772052E+01  0.28415931844E+01 -0.38930931017E+00  0.70400155501E+01  0.00000000000E+00 0. -1.
</event>
<event>
 7    1  0.2811980E-010  0.4778727E+02  0.7816164E-02  0.1312668E+00
        -11   -1    0    0    0    0  0.00000000000E+00  0.00000000000E+00  0.45593999997E+02  0.45594000000E+02  0.51100000000E-03 0.  1.
         11   -1    0    0    0    0 -0.00000000000E+00 -0.00000000000E+00 -0.45593999997E+02  0.45594000000E+02  0.51100000000E-03 0. -1.
    9900012    2    1    2    0    0 -0.32610951054E+02  0.28624996976E+02 -0.87088924781E+00  0.47787273870E+02  0.20000012883E+02 0.  0.
        -12    1    1    2    0    0  0.32610951054E+02 -0.28624996976E+02  0.87088924781E+00  0.43400726130E+02  0.00000000000E+00 0.  1.
         11    1    3    3    0    0 -0.39315854580E+01 -0.84486873654E+00  0.38289604828E+01  0.55526665698E+01  0.51100000000E-03 0. -1.
        -11    1    3    3    0    0 -0.26617840526E+01  0.58514126691E+00 -0.17699755168E+01  0.32496612495E+01  0.51100000000E-03 0.  1.
         12    1    3    3    0    0 -0.26017581543E+02  0.28884724446E+02 -0.29298742138E+01  0.38984946051E+02  0.00000000000E+00 0. -1.
</event>
<event>
 7    1  0.2811980E-010  0.4778727E+02  0.7816164E-02  0.1312668E+00
        -11   -1    0    0    0    0  0.00000000000E+00  0.00000000000E+00  0.45593999997E+02  0.45594000000E+02  0.51100000000E-03 0. -1.
         11   -1    0    0    0    0 -0.00000000000E+00 -0.00000000000E+00 -0.45593999997E+02  0.45594000000E+02  0.51100000000E-03 0.  1.
    9900012    2    1    2    0    0  0.76846838554E+01 -0.39234992888E+02  0.16887394461E+02  0.47787272764E+02  0.20000007841E+02 0.  0.
        -12    1    1    2    0    0 -0.76846838554E+01  0.39234992888E+02 -0.16887394461E+02  0.43400727236E+02  0.00000000000E+00 0.  1.
         11    1    3    3    0    0  0.11668159364E+02 -0.30590427859E+02  0.16740178672E+02  0.36771643991E+02  0.51100000000E-03 0. -1.
        -11    1    3    3    0    0 -0.20896996498E+01 -0.77739992584E+01 -0.17035315878E+01  0.82282397406E+01  0.51100000000E-03 0.  1.
         12    1    3    3    0    0 -0.18937758591E+01 -0.87056577047E+00  0.18507473770E+01  0.27873890325E+01  0.00000000000E+00 0. -1.
</event>
<event>
 7    1  0.2811980E-010  0.4778727E+02  0.7816164E-02  0.1312668E+00
        -11   -1    0    0    0    0  0.00000000000E+00  0.00000000000E+00  0.45593999997E+02  0.45594000000E+02  0.51100000000E-03 0.  1.
         11   -1    0    0    0    0 -0.00000000000E+00 -0.00000000000E+00 -0.45593999997E+02  0.45594000000E+02  0.51100000000E-03 0. -1.
    9900012    2    1    2    0    0  0.29215874371E+02  0.26154149993E+02 -0.18601517031E+02  0.47787270594E+02  0.19999997947E+02 0.  0.
        -12    1    1    2    0    0 -0.29215874371E+02 -0.26154149993E+02  0.18601517031E+02  0.43400729406E+02  0.00000000000E+00 0.  1.
         11    1    3    3    0    0  0.10927919165E+02  0.18002387351E+02 -0.11446099250E+02  0.23969116711E+02  0.51100000000E-03 0. -1.
        -11    1    3    3    0    0  0.48189665713E+00  0.44810939333E+01 -0.19201281946E+01  0.48989100595E+01  0.51100000000E-03 0.  1.
         12    1    3    3    0    0  0.17806058549E+02  0.36706687091E+01 -0.52352895864E+01  0.18919243824E+02  0.00000000000E+00 0. -1.
</event>
<event>
 7    1  0.2811980E-010  0.4778727E+02  0.7816164E-02  0.1312668E+00
        -11   -1    0    0    0    0  0.00000000000E+00  0.00000000000E+00  0.45593999997E+02  0.45594000000E+02  0.51100000000E-03 0.  1.
         11   -1    0    0    0    0 -0.00000000000E+00 -0.00000000000E+00 -0.45593999997E+02  0.45594000000E+02  0.51100000000E-03 0. -1.
    9900012    2    1    2    0    0  0.23517475681E+02  0.16394015444E+02 -0.32585085646E+02  0.47787271765E+02  0.20000003285E+02 0.  0.
        -12    1    1    2    0    0 -0.23517475681E+02 -0.16394015444E+02  0.32585085646E+02  0.43400728235E+02  0.00000000000E+00 0.  1.
         11    1    3    3    0    0  0.17461066184E+02  0.72080765513E+01 -0.28028132392E+02  0.33799724933E+02  0.51100000000E-03 0. -1.
        -11    1    3    3    0    0 -0.91074911609E-01  0.22225945677E+01 -0.41277103442E+01  0.46889459582E+01  0.51100000000E-03 0.  1.
         12    1    3    3    0    0  0.61474844088E+01  0.69633443249E+01 -0.42924290905E+00  0.92986008742E+01  0.00000000000E+00 0. -1.
</event>
<event>
 7    1  0.2811980E-010  0.4778727E+02  0.7816164E-02  0.1312668E+00
        -11   -1    0    0    0    0  0.00000000000E+00  0.00000000000E+00  0.45593999997E+02  0.45594000000E+02  0.51100000000E-03 0. -1.
         11   -1    0    0    0    0 -0.00000000000E+00 -0.00000000000E+00 -0.45593999997E+02  0.45594000000E+02  0.51100000000E-03 0.  1.
    9900012    2    1    2    0    0 -0.20457815353E+02  0.64633717163E+01  0.37726993168E+02  0.47787269632E+02  0.19999993562E+02 0.  0.
        -12    1    1    2    0    0  0.20457815353E+02 -0.64633717163E+01 -0.37726993168E+02  0.43400730368E+02  0.00000000000E+00 0.  1.
         11    1    3    3    0    0 -0.12289402914E+02  0.65390911366E+01  0.32325486595E+02  0.35195542626E+02  0.51100000000E-03 0. -1.
        -11    1    3    3    0    0 -0.40168678631E+01  0.29205502368E+01 -0.24150960821E+00  0.49722397637E+01  0.51100000000E-03 0.  1.
        -12    1    3    3    0    0 -0.41515445762E+01 -0.29962696571E+01  0.56430161809E+01  0.76194872428E+01  0.00000000000E+00 0.  1.
</event>
<event>
 7    1  0.2811980E-010  0.4778725E+02  0.7816164E-02  0.1312668E+00
        -11   -1    0    0    0    0  0.00000000000E+00  0.00000000000E+00  0.45593999997E+02  0.45594000000E+02  0.51100000000E-03 0. -1.
         11   -1    0    0    0    0 -0.00000000000E+00 -0.00000000000E+00 -0.45593999997E+02  0.45594000000E+02  0.51100000000E-03 0.  1.
    9900012    2    1    2    0    0  0.20773447408E+02  0.31946181035E+02  0.20773318363E+02  0.47787247060E+02  0.19999890644E+02 0.  0.
        -12    1    1    2    0    0 -0.20773447408E+02 -0.31946181035E+02 -0.20773318363E+02  0.43400752940E+02  0.00000000000E+00 0.  1.
         11    1    3    3    0    0  0.22012761274E+02  0.20331332233E+02  0.13535669530E+02  0.32880679421E+02  0.51100000000E-03 0. -1.
        -11    1    3    3    0    0 -0.21150963762E+01  0.16532308401E+01  0.30553287644E+01  0.40671659680E+01  0.51100000000E-03 0.  1.
         12    1    3    3    0    0  0.87578251020E+00  0.99616179619E+01  0.41823200685E+01  0.10839401671E+02  0.00000000000E+00 0. -1.
</event>
<event>
 7    1  0.2811980E-010  0.4778725E+02  0.7816164E-02  0.1312668E+00
        -11   -1    0    0    0    0  0.00000000000E+00  0.00000000000E+00  0.45593999997E+02  0.45594000000E+02  0.51100000000E-03 0. -1.
         11   -1    0    0    0    0 -0.00000000000E+00 -0.00000000000E+00 -0.45593999997E+02  0.45594000000E+02  0.51100000000E-03 0.  1.
    9900012    2    1    2    0    0  0.31598776982E+02  0.25150884633E+02  0.15892615910E+02  0.47787251792E+02  0.19999912221E+02 0.  0.
        -12    1    1    2    0    0 -0.31598776982E+02 -0.25150884633E+02 -0.15892615910E+02  0.43400748208E+02  0.00000000000E+00 0.  1.
         11    1    3    3    0    0  0.20963406764E+02  0.91237832462E+01  0.12946137652E+02  0.26273757330E+02  0.51100000000E-03 0. -1.
        -11    1    3    3    0    0 -0.32639819681E+00  0.18871285969E+01  0.30739381515E+01  0.36217241950E+01  0.51100000000E-03 0.  1.
         12    1    3    3    0    0  0.10961768414E+02  0.14139972790E+02 -0.12745989400E+00  0.17891770267E+02  0.00000000000E+00 0. -1.
</event>
<event>
 7    1  0.2811980E-010  0.4778727E+02  0.7816164E-02  0.1312668E+00
        -11   -1    0    0    0    0  0.00000000000E+00  0.00000000000E+00  0.45593999997E+02  0.45594000000E+02  0.51100000000E-03 0.  1.
         11   -1    0    0    0    0 -0.00000000000E+00 -0.00000000000E+00 -0.45593999997E+02  0.45594000000E+02  0.51100000000E-03 0. -1.
    9900012    2    1    2    0    0  0.16525803463E+02 -0.26683325487E+02 -0.29975339832E+02  0.47787273771E+02  0.20000012432E+02 0.  0.
        -12    1    1    2    0    0 -0.16525803463E+02  0.26683325487E+02  0.29975339832E+02  0.43400726229E+02  0.00000000000E+00 0.  1.
         11    1    3    3    0    0  0.55647533609E+01 -0.62559185834E+01 -0.62295236972E+01  0.10435993630E+02  0.51100000000E-03 0. -1.
        -11    1    3    3    0    0  0.13508985761E+02 -0.80240170630E+01 -0.16401515308E+02  0.22713151494E+02  0.51100000000E-03 0.  1.
        -12    1    3    3    0    0 -0.25479356592E+01 -0.12403389840E+02 -0.73443008273E+01  0.14638128647E+02  0.00000000000E+00 0.  1.
</event>
<event>
 7    1  0.2811980E-010  0.4778727E+02  0.7816164E-02  0.1312668E+00
        -11   -1    0    0    0    0  0.00000000000E+00  0.00000000000E+00  0.45593999997E+02  0.45594000000E+02  0.51100000000E-03 0.  1.
         11   -1    0    0    0    0 -0.00000000000E+00 -0.00000000000E+00 -0.45593999997E+02  0.45594000000E+02  0.51100000000E-03 0. -1.
    9900012    2    1    2    0    0 -0.19947342771E+02  0.29414442468E+02 -0.24910189014E+02  0.47787269291E+02  0.19999992007E+02 0.  0.
        -12    1    1    2    0    0  0.19947342771E+02 -0.29414442468E+02  0.24910189014E+02  0.43400730709E+02  0.00000000000E+00 0.  1.
         11    1    3    3    0    0 -0.63305986330E+01 -0.64496904825E-01 -0.81576895378E+01  0.10326109517E+02  0.51100000000E-03 0. -1.
        -11    1    3    3    0    0 -0.29890775553E+01  0.23621940223E+01  0.10152339316E+00  0.38111484477E+01  0.51100000000E-03 0.  1.
         12    1    3    3    0    0 -0.10627666583E+02  0.27116745351E+02 -0.16854022869E+02  0.33650011327E+02  0.00000000000E+00 0. -1.
</event>
<event>
 7    1  0.2811980E-010  0.4778727E+02  0.7816164E-02  0.1312668E+00
        -11   -1    0    0    0    0  0.00000000000E+00  0.00000000000E+00  0.45593999997E+02  0.45594000000E+02  0.51100000000E-03 0.  1.
         11   -1    0    0    0    0 -0.00000000000E+00 -0.00000000000E+00 -0.45593999997E+02  0.45594000000E+02  0.51100000000E-03 0. -1.
    9900012    2    1    2    0    0  0.12242870813E+01  0.29618209013E+02 -0.31699940146E+02  0.47787269715E+02  0.19999993940E+02 0.  0.
        -12    1    1    2    0    0 -0.12242870813E+01 -0.29618209013E+02  0.31699940146E+02  0.43400730285E+02  0.00000000000E+00 0.  1.
         11    1    3    3    0    0 -0.18151234122E+00  0.18256098168E+01 -0.30096624417E+01  0.35247505170E+01  0.51100000000E-03 0. -1.
        -11    1    3    3    0    0 -0.42110305902E+01  0.17509659423E+02 -0.64583634915E+01  0.19131947391E+02  0.51100000000E-03 0.  1.
        -12    1    3    3    0    0  0.56168300127E+01  0.10282939773E+02 -0.22231914213E+02  0.25130571807E+02  0.00000000000E+00 0.  1.
</event>
<event>
 7    1  0.2811980E-010  0.4778726E+02  0.7816164E-02  0.1312668E+00
        -11   -1    0    0    0    0  0.00000000000E+00  0.00000000000E+00  0.45593999997E+02  0.45594000000E+02  0.51100000000E-03 0. -1.
         11   -1    0    0    0    0 -0.00000000000E+00 -0.00000000000E+00 -0.45593999997E+02  0.45594000000E+02  0.51100000000E-03 0.  1.
    9900012    2    1    2    0    0  0.19316374636E+02  0.16150672518E+02  0.35350494109E+02  0.47787262845E+02  0.19999962615E+02 0.  0.
        -12    1    1    2    0    0 -0.19316374636E+02 -0.16150672518E+02 -0.35350494109E+02  0.43400737155E+02  0.00000000000E+00 0.  1.
         11    1    3    3    0    0  0.15400585131E+02  0.76657582207E+01  0.28426903387E+02  0.33226957549E+02  0.51100000000E-03 0. -1.
        -11    1    3    3    0    0  0.59188741675E+01  0.27490887812E+01  0.22783574977E+01  0.69124144614E+01  0.51100000000E-03 0.  1.
         12    1    3    3    0    0 -0.20030846630E+01  0.57358255162E+01  0.46452332236E+01  0.76478908348E+01  0.00000000000E+00 0. -1.
</event>
<event>
 7    1  0.2811980E-010  0.4778727E+02  0.7816164E-02  0.1312668E+00
        -11   -1    0    0    0    0  0.00000000000E+00  0.00000000000E+00  0.45593999997E+02  0.45594000000E+02  0.51100000000E-03 0.  1.
         11   -1    0    0    0    0 -0.00000000000E+00 -0.00000000000E+00 -0.45593999997E+02  0.45594000000E+02  0.51100000000E-03 0. -1.
    9900012    2    1    2    0    0 -0.36454281620E+01 -0.42992735723E+02  0.46860048024E+01  0.47787272905E+02  0.20000008482E+02 0.  0.
        -12    1    1    2    0    0  0.36454281620E+01  0.42992735723E+02 -0.46860048024E+01  0.43400727095E+02  0.00000000000E+00 0.  1.
         11    1    3    3    0    0 -0.27544115170E+01 -0.80700595505E+01 -0.56695535110E+01  0.10239945372E+02  0.51100000000E-03 0. -1.
        -11    1    3    3    0    0 -0.42031397755E+01 -0.19165625844E+02  0.83409556128E+01  0.21320392556E+02  0.51100000000E-03 0.  1.
         12    1    3    3    0    0  0.33121231305E+01 -0.15757050328E+02  0.20146027005E+01  0.16226934976E+02  0.00000000000E+00 0. -1.
</event>
<event>
 7    1  0.2811980E-010  0.4778727E+02  0.7816164E-02  0.1312668E+00
        -11   -1    0    0    0    0  0.00000000000E+00  0.00000000000E+00  0.45593999997E+02  0.45594000000E+02  0.51100000000E-03 0.  1.
         11   -1    0    0    0    0 -0.00000000000E+00 -0.00000000000E+00 -0.45593999997E+02  0.45594000000E+02  0.51100000000E-03 0. -1.
    9900012    2    1    2    0    0 -0.50853884770E+01 -0.39520062226E+02 -0.17202516396E+02  0.47787273454E+02  0.20000010987E+02 0.  0.
        -12    1    1    2    0    0  0.50853884770E+01  0.39520062226E+02  0.17202516396E+02  0.43400726546E+02  0.00000000000E+00 0.  1.
         11    1    3    3    0    0 -0.22023278449E+00 -0.34228990048E+02 -0.11903474909E+02  0.36240377721E+02  0.51100000000E-03 0. -1.
        -11    1    3    3    0    0 -0.25447215514E+01 -0.40983212968E+00  0.14049893153E+01  0.29355690055E+01  0.51100000000E-03 0.  1.
        -12    1    3    3    0    0 -0.23204341411E+01 -0.48812400492E+01 -0.67040308023E+01  0.86113267282E+01  0.00000000000E+00 0.  1.
</event>
<event>
 7    1  0.2811980E-010  0.4778727E+02  0.7816164E-02  0.1312668E+00
        -11   -1    0    0    0    0  0.00000000000E+00  0.00000000000E+00  0.45593999997E+02  0.45594000000E+02  0.51100000000E-03 0.  1.
         11   -1    0    0    0    0 -0.00000000000E+00 -0.00000000000E+00 -0.45593999997E+02  0.45594000000E+02  0.51100000000E-03 0. -1.
    9900012    2    1    2    0    0  0.27046154184E+02 -0.32660310387E+02 -0.92429802879E+01  0.47787274023E+02  0.20000013583E+02 0.  0.
        -12    1    1    2    0    0 -0.27046154184E+02  0.32660310387E+02  0.92429802879E+01  0.43400725977E+02  0.00000000000E+00 0.  1.
         11    1    3    3    0    0  0.79627776358E+01 -0.11991381302E+02 -0.68383423889E+01  0.15936184615E+02  0.51100000000E-03 0. -1.
        -11    1    3    3    0    0  0.35542230110E+01  0.17926274294E+01  0.15247967360E+01  0.42627479001E+01  0.51100000000E-03 0.  1.
        -12    1    3    3    0    0  0.15529153537E+02 -0.22461556514E+02 -0.39294346350E+01  0.27588341508E+02  0.00000000000E+00 0.  1.
</event>
<event>
 7    1  0.2811980E-010  0.4778727E+02  0.7816164E-02  0.1312668E+00
        -11   -1    0    0    0    0  0.00000000000E+00  0.00000000000E+00  0.45593999997E+02  0.45594000000E+02  0.51100000000E-03 0.  1.
         11   -1    0    0    0    0 -0.00000000000E+00 -0.00000000000E+00 -0.45593999997E+02  0.45594000000E+02  0.51100000000E-03 0. -1.
    9900012    2    1    2    0    0 -0.41768828177E+02  0.11786224659E+02 -0.27147322840E+00  0.47787265021E+02  0.19999972536E+02 0.  0.
        -12    1    1    2    0    0  0.41768828177E+02 -0.11786224659E+02  0.27147322840E+00  0.43400734979E+02  0.00000000000E+00 0.  1.
         11    1    3    3    0    0 -0.85007299619E+01 -0.47451078716E+01 -0.99872088583E+00  0.97865163499E+01  0.51100000000E-03 0. -1.
        -11    1    3    3    0    0 -0.28771591141E+02  0.15442217298E+02 -0.18476250476E+01  0.32705966588E+02  0.51100000000E-03 0.  1.
        -12    1    3    3    0    0 -0.44965070743E+01  0.10891152318E+01  0.25748727050E+01  0.52947820828E+01  0.00000000000E+00 0.  1.
</event>
<event>
 7    1  0.2811980E-010  0.4778726E+02  0.7816164E-02  0.1312668E+00
        -11   -1    0    0    0    0  0.00000000000E+00  0.00000000000E+00  0.45593999997E+02  0.45594000000E+02  0.51100000000E-03 0. -1.
         11   -1    0    0    0    0 -0.00000000000E+00 -0.00000000000E+00 -0.45593999997E+02  0.45594000000E+02  0.51100000000E-03 0.  1.
    9900012    2    1    2    0    0 -0.29531749354E+02  0.31708965684E+02  0.24578716118E+01  0.47787264321E+02  0.19999969343E+02 0.  0.
        -12    1    1    2    0    0  0.29531749354E+02 -0.31708965684E+02 -0.24578716118E+01  0.43400735679E+02  0.00000000000E+00 0.  1.
         11    1    3    3    0    0 -0.81748637076E+01  0.69687685549E+00  0.38765058503E+01  0.90742124649E+01  0.51100000000E-03 0. -1.
        -11    1    3    3    0    0 -0.17046625723E+02  0.27051300795E+02 -0.41696729983E+01  0.32245100348E+02  0.51100000000E-03 0.  1.
        -12    1    3    3    0    0 -0.43102599230E+01  0.39607880331E+01  0.27510387598E+01  0.64679515076E+01  0.00000000000E+00 0.  1.
</event>
<event>
 7    1  0.2811980E-010  0.4778728E+02  0.7816164E-02  0.1312668E+00
        -11   -1    0    0    0    0  0.00000000000E+00  0.00000000000E+00  0.45593999997E+02  0.45594000000E+02  0.51100000000E-03 0.  1.
         11   -1    0    0    0    0 -0.00000000000E+00 -0.00000000000E+00 -0.45593999997E+02  0.45594000000E+02  0.51100000000E-03 0. -1.
    9900012    2    1    2    0    0  0.39839813934E+02  0.17020581962E+02  0.25907263617E+01  0.47787275954E+02  0.20000022386E+02 0.  0.
        -12    1    1    2    0    0 -0.39839813934E+02 -0.17020581962E+02 -0.25907263617E+01  0.43400724046E+02  0.00000000000E+00 0.  1.
         11    1    3    3    0    0  0.14498048521E+02  0.81767732792E+01 -0.79068247920E+01  0.18427449925E+02  0.51100000000E-03 0. -1.
        -11    1    3    3    0    0  0.81111309039E+01  0.35142724604E+01  0.62624514789E+01  0.10833229170E+02  0.51100000000E-03 0.  1.
        -12    1    3    3    0    0  0.17230634509E+02  0.53295362220E+01  0.42350996747E+01  0.18526596859E+02  0.00000000000E+00 0.  1.
</event>
<event>
 7    1  0.2811980E-010  0.4778727E+02  0.7816164E-02  0.1312668E+00
        -11   -1    0    0    0    0  0.00000000000E+00  0.00000000000E+00  0.45593999997E+02  0.45594000000E+02  0.51100000000E-03 0.  1.
         11   -1    0    0    0    0 -0.00000000000E+00 -0.00000000000E+00 -0.45593999997E+02  0.45594000000E+02  0.51100000000E-03 0. -1.
    9900012    2    1    2    0    0 -0.31602430394E+02 -0.27695639219E+02 -0.10856400593E+02  0.47787268757E+02  0.19999989571E+02 0.  0.
        -12    1    1    2    0    0  0.31602430394E+02  0.27695639219E+02  0.10856400593E+02  0.43400731243E+02  0.00000000000E+00 0.  1.
         11    1    3    3    0    0 -0.22112138677E+02 -0.10846576204E+02 -0.69423189069E+01  0.25588878137E+02  0.51100000000E-03 0. -1.
        -11    1    3    3    0    0  0.62615572138E-01 -0.41810841759E+01  0.27336604902E+01  0.49958268117E+01  0.51100000000E-03 0.  1.
         12    1    3    3    0    0 -0.95529072893E+01 -0.12667978839E+02 -0.66477421767E+01  0.17202563809E+02  0.00000000000E+00 0. -1.
</event>
<event>
 7    1  0.2811980E-010  0.4778727E+02  0.7816164E-02  0.1312668E+00
        -11   -1    0    0    0    0  0.00000000000E+00  0.00000000000E+00  0.45593999997E+02  0.45594000000E+02  0.51100000000E-03 0.  1.
         11   -1    0    0    0    0 -0.00000000000E+00 -0.00000000000E+00 -0.45593999997E+02  0.45594000000E+02  0.51100000000E-03 0. -1.
    9900012    2    1    2    0    0  0.33577738747E+02 -0.25197769213E+01 -0.27382652423E+02  0.47787268799E+02  0.19999989760E+02 0.  0.
        -12    1    1    2    0    0 -0.33577738747E+02  0.25197769213E+01  0.27382652423E+02  0.43400731201E+02  0.00000000000E+00 0.  1.
         11    1    3    3    0    0  0.78344988001E+01 -0.43721762124E+01 -0.58255487830E+01  0.10697304107E+02  0.51100000000E-03 0. -1.
        -11    1    3    3    0    0  0.20227625383E+02  0.13214342540E+01 -0.68877686091E+01  0.21408978812E+02  0.51100000000E-03 0.  1.
        -12    1    3    3    0    0  0.55156145647E+01  0.53096503711E+00 -0.14669335030E+02  0.15680985879E+02  0.00000000000E+00 0.  1.
</event>
<event>
 7    1  0.2811980E-010  0.4778727E+02  0.7816164E-02  0.1312668E+00
        -11   -1    0    0    0    0  0.00000000000E+00  0.00000000000E+00  0.45593999997E+02  0.45594000000E+02  0.51100000000E-03 0.  1.
         11   -1    0    0    0    0 -0.00000000000E+00 -0.00000000000E+00 -0.45593999997E+02  0.45594000000E+02  0.51100000000E-03 0. -1.
    9900012    2    1    2    0    0  0.37523470950E+00  0.17321563593E+01 -0.43364528066E+02  0.47787268887E+02  0.19999990164E+02 0.  0.
        -12    1    1    2    0    0 -0.37523470950E+00 -0.17321563593E+01  0.43364528066E+02  0.43400731113E+02  0.00000000000E+00 0.  1.
         11    1    3    3    0    0  0.14826153261E+01  0.86024245562E+01 -0.21297313167E+02  0.23016850455E+02  0.51100000000E-03 0. -1.
        -11    1    3    3    0    0 -0.38608711897E+01 -0.73636567411E+01 -0.14676102078E+02  0.16867653642E+02  0.51100000000E-03 0.  1.
        -12    1    3    3    0    0  0.27534905730E+01  0.49338854420E+00 -0.73911128211E+01  0.79027647899E+01  0.00000000000E+00 0.  1.
</event>
<event>
 7    1  0.2811980E-010  0.4778727E+02  0.7816164E-02  0.1312668E+00
        -11   -1    0    0    0    0  0.00000000000E+00  0.00000000000E+00  0.45593999997E+02  0.45594000000E+02  0.51100000000E-03 0. -1.
         11   -1    0    0    0    0 -0.00000000000E+00 -0.00000000000E+00 -0.45593999997E+02  0.45594000000E+02  0.51100000000E-03 0.  1.
    9900012    2    1    2    0    0  0.17447422403E+02 -0.39229039199E+02 -0.63477210806E+01  0.47787266966E+02  0.19999981404E+02 0.  0.
        -12    1    1    2    0    0 -0.17447422403E+02  0.39229039199E+02  0.63477210806E+01  0.43400733034E+02  0.00000000000E+00 0.  1.
         11    1    3    3    0    0 -0.70087907192E+00 -0.74382432351E+01  0.12499956367E+01  0.75750368482E+01  0.51100000000E-03 0. -1.
        -11    1    3    3    0    0  0.15028838977E+02 -0.17221384274E+02  0.12366616210E+01  0.22890421786E+02  0.51100000000E-03 0.  1.
        -12    1    3    3    0    0  0.31194624988E+01 -0.14569411690E+02 -0.88343783383E+01  0.17321808332E+02  0.00000000000E+00 0.  1.
</event>
<event>
 7    1  0.2811980E-010  0.4778727E+02  0.7816164E-02  0.1312668E+00
        -11   -1    0    0    0    0  0.00000000000E+00  0.00000000000E+00  0.45593999997E+02  0.45594000000E+02  0.51100000000E-03 0. -1.
         11   -1    0    0    0    0 -0.00000000000E+00 -0.00000000000E+00 -0.45593999997E+02  0.45594000000E+02  0.51100000000E-03 0.  1.
    9900012    2    1    2    0    0  0.18768615558E+02  0.39118609702E+02  0.10472145000E+01  0.47787271743E+02  0.20000003187E+02 0.  0.
        -12    1    1    2    0    0 -0.18768615558E+02 -0.39118609702E+02 -0.10472145000E+01  0.43400728257E+02  0.00000000000E+00 0.  1.
         11    1    3    3    0    0 -0.33082532052E+01  0.39931808864E+01 -0.14244748056E+01  0.53776539117E+01  0.51100000000E-03 0. -1.
        -11    1    3    3    0    0  0.41365086773E+01  0.67780541118E+01 -0.28624630511E+01  0.84407592407E+01  0.51100000000E-03 0.  1.
         12    1    3    3    0    0  0.17940360086E+02  0.28347374704E+02  0.53341523568E+01  0.33968858591E+02  0.00000000000E+00 0. -1.
</event>
<event>
 7    1  0.2811980E-010  0.4778728E+02  0.7816164E-02  0.1312668E+00
        -11   -1    0    0    0    0  0.00000000000E+00  0.00000000000E+00  0.45593999997E+02  0.45594000000E+02  0.51100000000E-03 0. -1.
         11   -1    0    0    0    0 -0.00000000000E+00 -0.00000000000E+00 -0.45593999997E+02  0.45594000000E+02  0.51100000000E-03 0.  1.
    9900012    2    1    2    0    0 -0.12242819709E+02  0.15029381588E+02  0.38831094980E+02  0.47787275552E+02  0.20000020550E+02 0.  0.
        -12    1    1    2    0    0  0.12242819709E+02 -0.15029381588E+02 -0.38831094980E+02  0.43400724448E+02  0.00000000000E+00 0.  1.
         11    1    3    3    0    0  0.69155858584E+00  0.21116991228E+01 -0.15143465444E+01  0.26890095167E+01  0.51100000000E-03 0.  1.
        -11    1    3    3    0    0 -0.94639812300E+01  0.11075516215E+02  0.37547913177E+02  0.40275051637E+02  0.51100000000E-03 0. -1.
        -12    1    3    3    0    0 -0.34703970646E+01  0.18421662495E+01  0.27975283472E+01  0.48232143981E+01  0.00000000000E+00 0.  1.
</event>
<event>
 7    1  0.2811980E-010  0.4778727E+02  0.7816164E-02  0.1312668E+00
        -11   -1    0    0    0    0  0.00000000000E+00  0.00000000000E+00  0.45593999997E+02  0.45594000000E+02  0.51100000000E-03 0.  1.
         11   -1    0    0    0    0 -0.00000000000E+00 -0.00000000000E+00 -0.45593999997E+02  0.45594000000E+02  0.51100000000E-03 0. -1.
    9900012    2    1    2    0    0  0.35615004615E+02  0.24764549996E+02  0.13827353335E+01  0.47787269047E+02  0.19999990895E+02 0.  0.
        -12    1    1    2    0    0 -0.35615004615E+02 -0.24764549996E+02 -0.13827353335E+01  0.43400730953E+02  0.00000000000E+00 0.  1.
         11    1    3    3    0    0  0.14907807891E+02  0.50231868554E+01  0.50769116505E+00  0.15739532804E+02  0.51100000000E-03 0. -1.
        -11    1    3    3    0    0  0.85014546376E+01  0.10434299931E+02  0.74111817947E+01  0.15364731103E+02  0.51100000000E-03 0.  1.
        -12    1    3    3    0    0  0.12205742086E+02  0.93070632096E+01 -0.65361376263E+01  0.16683005141E+02  0.00000000000E+00 0.  1.
</event>
<event>
 7    1  0.2811980E-010  0.4778727E+02  0.7816164E-02  0.1312668E+00
        -11   -1    0    0    0    0  0.00000000000E+00  0.00000000000E+00  0.45593999997E+02  0.45594000000E+02  0.51100000000E-03 0.  1.
         11   -1    0    0    0    0 -0.00000000000E+00 -0.00000000000E+00 -0.45593999997E+02  0.45594000000E+02  0.51100000000E-03 0. -1.
    9900012    2    1    2    0    0  0.30098907140E+02 -0.26835338891E+02 -0.16048166163E+02  0.47787271186E+02  0.20000000646E+02 0.  0.
        -12    1    1    2    0    0 -0.30098907140E+02  0.26835338891E+02  0.16048166163E+02  0.43400728814E+02  0.00000000000E+00 0.  1.
         11    1    3    3    0    0  0.16759406936E+02 -0.15374999131E+02 -0.14064698659E+02  0.26741055845E+02  0.51100000000E-03 0. -1.
        -11    1    3    3    0    0  0.86025446264E-02 -0.60648798366E+00  0.30690669168E+01  0.31284299064E+01  0.51100000000E-03 0.  1.
        -12    1    3    3    0    0  0.13330897659E+02 -0.10853851777E+02 -0.50525344207E+01  0.17917785434E+02  0.00000000000E+00 0.  1.
</event>
<event>
 7    1  0.2811980E-010  0.4778728E+02  0.7816164E-02  0.1312668E+00
        -11   -1    0    0    0    0  0.00000000000E+00  0.00000000000E+00  0.45593999997E+02  0.45594000000E+02  0.51100000000E-03 0.  1.
         11   -1    0    0    0    0 -0.00000000000E+00 -0.00000000000E+00 -0.45593999997E+02  0.45594000000E+02  0.51100000000E-03 0. -1.
    9900012    2    1    2    0    0 -0.22096849109E+02 -0.86227483749E+01 -0.36345568610E+02  0.47787275494E+02  0.20000020285E+02 0.  0.
        -12    1    1    2    0    0  0.22096849109E+02  0.86227483749E+01  0.36345568610E+02  0.43400724506E+02  0.00000000000E+00 0.  1.
         11    1    3    3    0    0 -0.52982244210E+01 -0.54237793424E+01 -0.22939415409E+02  0.24159994701E+02  0.51100000000E-03 0. -1.
        -11    1    3    3    0    0 -0.35814378532E+01 -0.49629475150E+01 -0.41040753013E+01  0.73689198308E+01  0.51100000000E-03 0.  1.
         12    1    3    3    0    0 -0.13217186835E+02  0.17639784825E+01 -0.93020779000E+01  0.16258360962E+02  0.00000000000E+00 0. -1.
</event>
<event>
 7    1  0.2811980E-010  0.4778727E+02  0.7816164E-02  0.1312668E+00
        -11   -1    0    0    0    0  0.00000000000E+00  0.00000000000E+00  0.45593999997E+02  0.45594000000E+02  0.51100000000E-03 0. -1.
         11   -1    0    0    0    0 -0.00000000000E+00 -0.00000000000E+00 -0.45593999997E+02  0.45594000000E+02  0.51100000000E-03 0.  1.
    9900012    2    1    2    0    0 -0.18947852916E+02  0.35040650293E+02  0.17226581888E+02  0.47787269285E+02  0.19999991978E+02 0.  0.
        -12    1    1    2    0    0  0.18947852916E+02 -0.35040650293E+02 -0.17226581888E+02  0.43400730715E+02  0.00000000000E+00 0.  1.
         11    1    3    3    0    0 -0.84868772786E+01  0.16398765006E+02  0.22549710094E+01  0.18601921250E+02  0.51100000000E-03 0. -1.
        -11    1    3    3    0    0 -0.46837752364E+01  0.23252497593E+01  0.98204668384E+01  0.11125920461E+02  0.51100000000E-03 0.  1.
        -12    1    3    3    0    0 -0.57772004010E+01  0.16316635527E+02  0.51511440400E+01  0.18059427575E+02  0.00000000000E+00 0.  1.
</event>
<event>
 7    1  0.2811980E-010  0.4778728E+02  0.7816164E-02  0.1312668E+00
        -11   -1    0    0    0    0  0.00000000000E+00  0.00000000000E+00  0.45593999997E+02  0.45594000000E+02  0.51100000000E-03 0.  1.
         11   -1    0    0    0    0 -0.00000000000E+00 -0.00000000000E+00 -0.45593999997E+02  0.45594000000E+02  0.51100000000E-03 0. -1.
    9900012    2    1    2    0    0 -0.14802469175E+02 -0.85962889685E+01 -0.39882496610E+02  0.47787276348E+02  0.20000024179E+02 0.  0.
        -12    1    1    2    0    0  0.14802469175E+02  0.85962889685E+01  0.39882496610E+02  0.43400723652E+02  0.00000000000E+00 0.  1.
         11    1    3    3    0    0 -0.82261561533E+00 -0.19895985729E+01 -0.12011618274E+02  0.12203039489E+02  0.51100000000E-03 0. -1.
        -11    1    3    3    0    0  0.20688573489E+01 -0.56479799648E+01 -0.84484289621E+01  0.10370911271E+02  0.51100000000E-03 0.  1.
        -12    1    3    3    0    0 -0.16048710908E+02 -0.95871043089E+00 -0.19422449374E+02  0.25213325587E+02  0.00000000000E+00 0.  1.
</event>
<event>
 7    1  0.2811980E-010  0.4778727E+02  0.7816164E-02  0.1312668E+00
        -11   -1    0    0    0    0  0.00000000000E+00  0.00000000000E+00  0.45593999997E+02  0.45594000000E+02  0.51100000000E-03 0. -1.
         11   -1    0    0    0    0 -0.00000000000E+00 -0.00000000000E+00 -0.45593999997E+02  0.45594000000E+02  0.51100000000E-03 0.  1.
    9900012    2    1    2    0    0  0.36269782507E+02 -0.23811023396E+02 -0.10776215848E+01  0.47787271590E+02  0.20000002487E+02 0.  0.
        -12    1    1    2    0    0 -0.36269782507E+02  0.23811023396E+02  0.10776215848E+01  0.43400728410E+02  0.00000000000E+00 0.  1.
         11    1    3    3    0    0  0.51366431500E+01 -0.61148851639E+01 -0.35850567110E+01  0.87538308929E+01  0.51100000000E-03 0. -1.
        -11    1    3    3    0    0  0.19762844219E+02 -0.36760466969E+01 -0.26107386742E+01  0.20270650893E+02  0.51100000000E-03 0.  1.
        -12    1    3    3    0    0  0.11370295138E+02 -0.14020091535E+02  0.51181738004E+01  0.18762789804E+02  0.00000000000E+00 0.  1.
</event>
<event>
 7    1  0.2811980E-010  0.4778727E+02  0.7816164E-02  0.1312668E+00
        -11   -1    0    0    0    0  0.00000000000E+00  0.00000000000E+00  0.45593999997E+02  0.45594000000E+02  0.51100000000E-03 0.  1.
         11   -1    0    0    0    0 -0.00000000000E+00 -0.00000000000E+00 -0.45593999997E+02  0.45594000000E+02  0.51100000000E-03 0. -1.
    9900012    2    1    2    0    0 -0.53011970143E+01  0.21242887495E+02 -0.37473466035E+02  0.47787267108E+02  0.19999982053E+02 0.  0.
        -12    1    1    2    0    0  0.53011970143E+01 -0.21242887495E+02  0.37473466035E+02  0.43400732892E+02  0.00000000000E+00 0.  1.
         11    1    3    3    0    0 -0.19667402511E+01  0.18206107749E+02 -0.16026256005E+02  0.24334570232E+02  0.51100000000E-03 0. -1.
        -11    1    3    3    0    0 -0.43999791055E+01 -0.11736214071E+01 -0.68697632540E+01  0.82420173964E+01  0.51100000000E-03 0.  1.
        -12    1    3    3    0    0  0.10655223423E+01  0.42104011526E+01 -0.14577446775E+02  0.15210679479E+02  0.00000000000E+00 0.  1.
</event>
<event>
 7    1  0.2811980E-010  0.4778728E+02  0.7816164E-02  0.1312668E+00
        -11   -1    0    0    0    0  0.00000000000E+00  0.00000000000E+00  0.45593999997E+02  0.45594000000E+02  0.51100000000E-03 0.  1.
         11   -1    0    0    0    0 -0.00000000000E+00 -0.00000000000E+00 -0.45593999997E+02  0.45594000000E+02  0.51100000000E-03 0. -1.
    9900012    2    1    2    0    0  0.87905712220E+01  0.34098422804E+02 -0.25370180557E+02  0.47787278328E+02  0.20000033209E+02 0.  0.
        -12    1    1    2    0    0 -0.87905712220E+01 -0.34098422804E+02  0.25370180557E+02  0.43400721672E+02  0.00000000000E+00 0.  1.
         11    1    3    3    0    0  0.81276451442E+01  0.24130066624E+02 -0.25361277806E+02  0.35937628512E+02  0.51100000000E-03 0. -1.
        -11    1    3    3    0    0  0.18144347387E+01  0.34251367944E+01  0.26481079793E+01  0.46942743436E+01  0.51100000000E-03 0.  1.
         12    1    3    3    0    0 -0.11515086609E+01  0.65432193856E+01 -0.26570107307E+01  0.71553754722E+01  0.00000000000E+00 0. -1.
</event>
<event>
 7    1  0.2811980E-010  0.4778727E+02  0.7816164E-02  0.1312668E+00
        -11   -1    0    0    0    0  0.00000000000E+00  0.00000000000E+00  0.45593999997E+02  0.45594000000E+02  0.51100000000E-03 0. -1.
         11   -1    0    0    0    0 -0.00000000000E+00 -0.00000000000E+00 -0.45593999997E+02  0.45594000000E+02  0.51100000000E-03 0.  1.
    9900012    2    1    2    0    0 -0.27043617139E+01  0.63524146926E+01  0.42848063840E+02  0.47787270518E+02  0.19999997599E+02 0.  0.
        -12    1    1    2    0    0  0.27043617139E+01 -0.63524146926E+01 -0.42848063840E+02  0.43400729482E+02  0.00000000000E+00 0.  1.
         11    1    3    3    0    0 -0.60689144194E+01  0.11616374163E+02  0.32093786665E+02  0.34666742185E+02  0.51100000000E-03 0. -1.
        -11    1    3    3    0    0  0.43527101698E+01 -0.44510064928E+01  0.91785230974E+01  0.11090664143E+02  0.51100000000E-03 0.  1.
         12    1    3    3    0    0 -0.98815746426E+00 -0.81295297719E+00  0.15757540778E+01  0.20298641903E+01  0.00000000000E+00 0. -1.
</event>
<event>
 7    1  0.2811980E-010  0.4778727E+02  0.7816164E-02  0.1312668E+00
        -11   -1    0    0    0    0  0.00000000000E+00  0.00000000000E+00  0.45593999997E+02  0.45594000000E+02  0.51100000000E-03 0. -1.
         11   -1    0    0    0    0 -0.00000000000E+00 -0.00000000000E+00 -0.45593999997E+02  0.45594000000E+02  0.51100000000E-03 0.  1.
    9900012    2    1    2    0    0  0.16637263384E+02  0.31587450326E+02  0.24679100004E+02  0.47787268116E+02  0.19999986649E+02 0.  0.
        -12    1    1    2    0    0 -0.16637263384E+02 -0.31587450326E+02 -0.24679100004E+02  0.43400731884E+02  0.00000000000E+00 0.  1.
         11    1    3    3    0    0 -0.18821970829E+01  0.14271804131E+02  0.10695107165E+02  0.17933554487E+02  0.51100000000E-03 0. -1.
        -11    1    3    3    0    0  0.83098752741E+01  0.53799021409E+01  0.20049475459E+01  0.10100355887E+02  0.51100000000E-03 0.  1.
         12    1    3    3    0    0  0.10209585193E+02  0.11935744054E+02  0.11979045294E+02  0.19753357742E+02  0.00000000000E+00 0. -1.
</event>
<event>
 7    1  0.2811980E-010  0.4778727E+02  0.7816164E-02  0.1312668E+00
        -11   -1    0    0    0    0  0.00000000000E+00  0.00000000000E+00  0.45593999997E+02  0.45594000000E+02  0.51100000000E-03 0.  1.
         11   -1    0    0    0    0 -0.00000000000E+00 -0.00000000000E+00 -0.45593999997E+02  0.45594000000E+02  0.51100000000E-03 0. -1.
    9900012    2    1    2    0    0  0.28809633979E+02  0.32237921860E+02 -0.37874961481E+01  0.47787265641E+02  0.19999975362E+02 0.  0.
        -12    1    1    2    0    0 -0.28809633979E+02 -0.32237921860E+02  0.37874961481E+01  0.43400734359E+02  0.00000000000E+00 0.  1.
         11    1    3    3    0    0 -0.21770075237E+01  0.33174218981E+01  0.13775032847E+01  0.42002577741E+01  0.51100000000E-03 0.  1.
        -11    1    3    3    0    0  0.19390205719E+02  0.23466656421E+02 -0.29730659435E+01  0.30585996187E+02  0.51100000000E-03 0. -1.
         12    1    3    3    0    0  0.11596435784E+02  0.54538435404E+01 -0.21919334893E+01  0.13001011679E+02  0.00000000000E+00 0. -1.
</event>
<event>
 7    1  0.2811980E-010  0.4778727E+02  0.7816164E-02  0.1312668E+00
        -11   -1    0    0    0    0  0.00000000000E+00  0.00000000000E+00  0.45593999997E+02  0.45594000000E+02  0.51100000000E-03 0.  1.
         11   -1    0    0    0    0 -0.00000000000E+00 -0.00000000000E+00 -0.45593999997E+02  0.45594000000E+02  0.51100000000E-03 0. -1.
    9900012    2    1    2    0    0 -0.21796486383E+02 -0.25774473890E+02 -0.27280265111E+02  0.47787272039E+02  0.20000004537E+02 0.  0.
        -12    1    1    2    0    0  0.21796486383E+02  0.25774473890E+02  0.27280265111E+02  0.43400727961E+02  0.00000000000E+00 0.  1.
         11    1    3    3    0    0 -0.18470532682E+02 -0.11491101780E+02 -0.14238149112E+02  0.25998670890E+02  0.51100000000E-03 0. -1.
        -11    1    3    3    0    0  0.15184469807E+01 -0.31136105464E+01 -0.77967721241E+01  0.85317001638E+01  0.51100000000E-03 0.  1.
         12    1    3    3    0    0 -0.48444006818E+01 -0.11169761564E+02 -0.52453438752E+01  0.13256900985E+02  0.00000000000E+00 0. -1.
</event>
<event>
 7    1  0.2811980E-010  0.4778727E+02  0.7816164E-02  0.1312668E+00
        -11   -1    0    0    0    0  0.00000000000E+00  0.00000000000E+00  0.45593999997E+02  0.45594000000E+02  0.51100000000E-03 0.  1.
         11   -1    0    0    0    0 -0.00000000000E+00 -0.00000000000E+00 -0.45593999997E+02  0.45594000000E+02  0.51100000000E-03 0. -1.
    9900012    2    1    2    0    0  0.30502047137E+02 -0.94964112096E+01 -0.29377994627E+02  0.47787271047E+02  0.20000000010E+02 0.  0.
        -12    1    1    2    0    0 -0.30502047137E+02  0.94964112096E+01  0.29377994627E+02  0.43400728953E+02  0.00000000000E+00 0.  1.
         11    1    3    3    0    0  0.20647853921E+02 -0.42755716433E+01 -0.21748616356E+02  0.30292188730E+02  0.51100000000E-03 0. -1.
        -11    1    3    3    0    0  0.25085647662E+01 -0.70266106753E+01 -0.11782330751E+01  0.75534355236E+01  0.51100000000E-03 0.  1.
        -12    1    3    3    0    0  0.73456284500E+01  0.18057711090E+01 -0.64511451950E+01  0.99416467927E+01  0.00000000000E+00 0.  1.
</event>
<event>
 7    1  0.2811980E-010  0.4778727E+02  0.7816164E-02  0.1312668E+00
        -11   -1    0    0    0    0  0.00000000000E+00  0.00000000000E+00  0.45593999997E+02  0.45594000000E+02  0.51100000000E-03 0.  1.
         11   -1    0    0    0    0 -0.00000000000E+00 -0.00000000000E+00 -0.45593999997E+02  0.45594000000E+02  0.51100000000E-03 0. -1.
    9900012    2    1    2    0    0  0.43056109890E+02 -0.42694336929E+01 -0.34009738095E+01  0.47787270907E+02  0.19999999374E+02 0.  0.
        -12    1    1    2    0    0 -0.43056109890E+02  0.42694336929E+01  0.34009738095E+01  0.43400729093E+02  0.00000000000E+00 0.  1.
         11    1    3    3    0    0  0.79268789685E+01 -0.13307857580E+01  0.13458616006E+01  0.81497082540E+01  0.51100000000E-03 0. -1.
        -11    1    3    3    0    0  0.11679012759E+02 -0.34524300819E+01  0.62988033597E+01  0.13711073500E+02  0.51100000000E-03 0.  1.
        -12    1    3    3    0    0  0.23450218162E+02  0.51378214698E+00 -0.11045638770E+02  0.25926489153E+02  0.00000000000E+00 0.  1.
</event>
<event>
 7    1  0.2811980E-010  0.4778727E+02  0.7816164E-02  0.1312668E+00
        -11   -1    0    0    0    0  0.00000000000E+00  0.00000000000E+00  0.45593999997E+02  0.45594000000E+02  0.51100000000E-03 0. -1.
         11   -1    0    0    0    0 -0.00000000000E+00 -0.00000000000E+00 -0.45593999997E+02  0.45594000000E+02  0.51100000000E-03 0.  1.
    9900012    2    1    2    0    0 -0.31225817687E+02  0.78214040987E+01  0.29110087833E+02  0.47787271136E+02  0.20000000418E+02 0.  0.
        -12    1    1    2    0    0  0.31225817687E+02 -0.78214040987E+01 -0.29110087833E+02  0.43400728864E+02  0.00000000000E+00 0.  1.
         11    1    3    3    0    0 -0.16052544988E+02 -0.59050591442E+00  0.14264134579E+02  0.21482514597E+02  0.51100000000E-03 0.  1.
        -11    1    3    3    0    0 -0.11831717661E+02  0.44595446539E+01  0.24605426525E+01  0.12881434381E+02  0.51100000000E-03 0. -1.
         12    1    3    3    0    0 -0.33415550379E+01  0.39523653593E+01  0.12385410601E+02  0.13423322158E+02  0.00000000000E+00 0. -1.
</event>
<event>
 7    1  0.2811980E-010  0.4778728E+02  0.7816164E-02  0.1312668E+00
        -11   -1    0    0    0    0  0.00000000000E+00  0.00000000000E+00  0.45593999997E+02  0.45594000000E+02  0.51100000000E-03 0.  1.
         11   -1    0    0    0    0 -0.00000000000E+00 -0.00000000000E+00 -0.45593999997E+02  0.45594000000E+02  0.51100000000E-03 0. -1.
    9900012    2    1    2    0    0  0.27217510064E+02  0.65091870842E+01 -0.33173188808E+02  0.47787276201E+02  0.20000023512E+02 0.  0.
        -12    1    1    2    0    0 -0.27217510064E+02 -0.65091870842E+01  0.33173188808E+02  0.43400723799E+02  0.00000000000E+00 0.  1.
         11    1    3    3    0    0  0.24042399139E+01  0.49528967852E+01 -0.52381748922E+01  0.75993442211E+01  0.51100000000E-03 0. -1.
        -11    1    3    3    0    0  0.26555804323E+02  0.39252839791E+00 -0.24330363996E+02  0.36018487395E+02  0.51100000000E-03 0.  1.
        -12    1    3    3    0    0 -0.17425341731E+01  0.11637619011E+01 -0.36046499192E+01  0.41694445850E+01  0.00000000000E+00 0.  1.
</event>
<event>
 7    1  0.2876006E-010  0.4778726E+02  0.7816164E-02  0.1312668E+00
        -11   -1    0    0    0    0  0.00000000000E+00  0.00000000000E+00  0.45593999997E+02  0.45594000000E+02  0.51100000000E-03 0. -1.
         11   -1    0    0    0    0 -0.00000000000E+00 -0.00000000000E+00 -0.45593999997E+02  0.45594000000E+02  0.51100000000E-03 0.  1.
    9900012    2    1    2    0    0 -0.24790015246E+02  0.15532642615E+02  0.32059570446E+02  0.47787263835E+02  0.19999967129E+02 0.  0.
        -12    1    1    2    0    0  0.24790015246E+02 -0.15532642615E+02 -0.32059570446E+02  0.43400736165E+02  0.00000000000E+00 0.  1.
         11    1    3    3    0    0 -0.14397452165E+02  0.13531001496E+02  0.13702470055E+02  0.24044382217E+02  0.51100000000E-03 0. -1.
        -11    1    3    3    0    0 -0.39647208385E+01 -0.51809402023E+00  0.15930744956E+02  0.16424861274E+02  0.51100000000E-03 0.  1.
        -12    1    3    3    0    0 -0.64278422420E+01  0.25197351391E+01  0.24263554346E+01  0.73180203440E+01  0.00000000000E+00 0.  1.
</event>
<event>
 7    1  0.2811980E-010  0.4778727E+02  0.7816164E-02  0.1312668E+00
        -11   -1    0    0    0    0  0.00000000000E+00  0.00000000000E+00  0.45593999997E+02  0.45594000000E+02  0.51100000000E-03 0. -1.
         11   -1    0    0    0    0 -0.00000000000E+00 -0.00000000000E+00 -0.45593999997E+02  0.45594000000E+02  0.51100000000E-03 0.  1.
    9900012    2    1    2    0    0  0.15332912078E+02  0.29739122621E+02  0.27642534891E+02  0.47787270257E+02  0.19999996409E+02 0.  0.
        -12    1    1    2    0    0 -0.15332912078E+02 -0.29739122621E+02 -0.27642534891E+02  0.43400729743E+02  0.00000000000E+00 0.  1.
         11    1    3    3    0    0  0.47924197701E+01  0.84737335600E+01  0.12340759402E+02  0.15718326584E+02  0.51100000000E-03 0. -1.
        -11    1    3    3    0    0  0.56057139566E+01  0.16796218897E+02  0.28304429078E+01  0.17931770842E+02  0.51100000000E-03 0.  1.
        -12    1    3    3    0    0  0.49347783516E+01  0.44691701634E+01  0.12471332581E+02  0.14137172831E+02  0.00000000000E+00 0.  1.
</event>
<event>
 7    1  0.2811980E-010  0.4778727E+02  0.7816164E-02  0.1312668E+00
        -11   -1    0    0    0    0  0.00000000000E+00  0.00000000000E+00  0.45593999997E+02  0.45594000000E+02  0.51100000000E-03 0. -1.
         11   -1    0    0    0    0 -0.00000000000E+00 -0.00000000000E+00 -0.45593999997E+02  0.45594000000E+02  0.51100000000E-03 0.  1.
    9900012    2    1    2    0    0 -0.37950680609E+02 -0.13521128617E+02  0.16141502305E+02  0.47787272190E+02  0.20000005224E+02 0.  0.
        -12    1    1    2    0    0  0.37950680609E+02  0.13521128617E+02 -0.16141502305E+02  0.43400727810E+02  0.00000000000E+00 0.  1.
         11    1    3    3    0    0  0.31983738302E+00  0.11073781339E+01 -0.96466471402E+00  0.15030504165E+01  0.51100000000E-03 0. -1.
        -11    1    3    3    0    0 -0.14614797722E+02 -0.62999206817E+01 -0.21051637673E-01  0.15914828195E+02  0.51100000000E-03 0.  1.
         12    1    3    3    0    0 -0.23655720270E+02 -0.83285860693E+01  0.17127218656E+02  0.30369393578E+02  0.00000000000E+00 0. -1.
</event>
<event>
 7    1  0.2811980E-010  0.4778727E+02  0.7816164E-02  0.1312668E+00
        -11   -1    0    0    0    0  0.00000000000E+00  0.00000000000E+00  0.45593999997E+02  0.45594000000E+02  0.51100000000E-03 0. -1.
         11   -1    0    0    0    0 -0.00000000000E+00 -0.00000000000E+00 -0.45593999997E+02  0.45594000000E+02  0.51100000000E-03 0.  1.
    9900012    2    1    2    0    0 -0.36403350135E+02  0.80310341336E+01  0.22224357113E+02  0.47787268907E+02  0.19999990256E+02 0.  0.
        -12    1    1    2    0    0  0.36403350135E+02 -0.80310341336E+01 -0.22224357113E+02  0.43400731093E+02  0.00000000000E+00 0.  1.
         11    1    3    3    0    0 -0.91434678480E+01  0.60632655585E+00  0.30271726645E+01  0.96506171192E+01  0.51100000000E-03 0. -1.
        -11    1    3    3    0    0 -0.16983061717E+02 -0.85182919856E+00  0.18194147832E+02  0.24903353466E+02  0.51100000000E-03 0.  1.
        -12    1    3    3    0    0 -0.10276820569E+02  0.82765367763E+01  0.10030366171E+01  0.13233298322E+02  0.00000000000E+00 0.  1.
</event>
<event>
 7    1  0.2811980E-010  0.4778727E+02  0.7816164E-02  0.1312668E+00
        -11   -1    0    0    0    0  0.00000000000E+00  0.00000000000E+00  0.45593999997E+02  0.45594000000E+02  0.51100000000E-03 0.  1.
         11   -1    0    0    0    0 -0.00000000000E+00 -0.00000000000E+00 -0.45593999997E+02  0.45594000000E+02  0.51100000000E-03 0. -1.
    9900012    2    1    2    0    0  0.18274063155E+02  0.33387858255E+02 -0.20855035883E+02  0.47787274375E+02  0.20000015186E+02 0.  0.
        -12    1    1    2    0    0 -0.18274063155E+02 -0.33387858255E+02  0.20855035883E+02  0.43400725625E+02  0.00000000000E+00 0.  1.
         11    1    3    3    0    0  0.16271752483E+01  0.35264415287E+01 -0.12433455335E+01  0.40779158305E+01  0.51100000000E-03 0. -1.
        -11    1    3    3    0    0  0.67101569757E+01  0.26433296844E+02 -0.18886421019E+02  0.33172914973E+02  0.51100000000E-03 0.  1.
        -12    1    3    3    0    0  0.99367309314E+01  0.34281198828E+01 -0.72526933132E+00  0.10536443572E+02  0.00000000000E+00 0.  1.
</event>
<event>
 7    1  0.2811980E-010  0.4778727E+02  0.7816164E-02  0.1312668E+00
        -11   -1    0    0    0    0  0.00000000000E+00  0.00000000000E+00  0.45593999997E+02  0.45594000000E+02  0.51100000000E-03 0. -1.
         11   -1    0    0    0    0 -0.00000000000E+00 -0.00000000000E+00 -0.45593999997E+02  0.45594000000E+02  0.51100000000E-03 0.  1.
    9900012    2    1    2    0    0  0.14323860046E+02  0.40876883593E+02  0.27442101313E+01  0.47787271111E+02  0.20000000303E+02 0.  0.
        -12    1    1    2    0    0 -0.14323860046E+02 -0.40876883593E+02 -0.27442101313E+01  0.43400728889E+02  0.00000000000E+00 0.  1.
         11    1    3    3    0    0 -0.40401615063E+00  0.35079489048E+01  0.23364065182E+00  0.35388589664E+01  0.51100000000E-03 0. -1.
        -11    1    3    3    0    0  0.12624501766E+02  0.39013577727E+02  0.39846895532E+01  0.41198483504E+02  0.51100000000E-03 0.  1.
        -12    1    3    3    0    0  0.21033744306E+01 -0.16446430394E+01 -0.14741200737E+01  0.30499286408E+01  0.00000000000E+00 0.  1.
</event>
<event>
 7    1  0.2811980E-010  0.4778729E+02  0.7816164E-02  0.1312668E+00
        -11   -1    0    0    0    0  0.00000000000E+00  0.00000000000E+00  0.45593999997E+02  0.45594000000E+02  0.51100000000E-03 0. -1.
         11   -1    0    0    0    0 -0.00000000000E+00 -0.00000000000E+00 -0.45593999997E+02  0.45594000000E+02  0.51100000000E-03 0.  1.
    9900012    2    1    2    0    0 -0.32240395400E+02  0.13306031719E+02 -0.25828828311E+02  0.47787286324E+02  0.20000069665E+02 0.  0.
        -12    1    1    2    0    0  0.32240395400E+02 -0.13306031719E+02  0.25828828311E+02  0.43400713676E+02  0.00000000000E+00 0.  1.
         11    1    3    3    0    0 -0.28358832775E+02  0.47612336479E+01 -0.21409644657E+02  0.35850601484E+02  0.51100000000E-03 0. -1.
        -11    1    3    3    0    0 -0.23372098839E+01  0.16245234278E+01 -0.38986226319E+01  0.48270990352E+01  0.51100000000E-03 0.  1.
         12    1    3    3    0    0 -0.15443527419E+01  0.69202746436E+01 -0.52056102228E+00  0.71095858045E+01  0.00000000000E+00 0. -1.
</event>
<event>
 7    1  0.2811980E-010  0.4778727E+02  0.7816164E-02  0.1312668E+00
        -11   -1    0    0    0    0  0.00000000000E+00  0.00000000000E+00  0.45593999997E+02  0.45594000000E+02  0.51100000000E-03 0.  1.
         11   -1    0    0    0    0 -0.00000000000E+00 -0.00000000000E+00 -0.45593999997E+02  0.45594000000E+02  0.51100000000E-03 0. -1.
    9900012    2    1    2    0    0 -0.26232915742E+02 -0.34560279743E+02  0.10221539477E+01  0.47787267253E+02  0.19999982713E+02 0.  0.
        -12    1    1    2    0    0  0.26232915742E+02  0.34560279743E+02 -0.10221539477E+01  0.43400732747E+02  0.00000000000E+00 0.  1.
         11    1    3    3    0    0 -0.27505427000E+01 -0.74412831167E+01  0.62009901505E+01  0.10069282928E+02  0.51100000000E-03 0.  1.
        -11    1    3    3    0    0 -0.19924948623E+02 -0.24616250517E+02 -0.99866834067E+00  0.31685338973E+02  0.51100000000E-03 0. -1.
         12    1    3    3    0    0 -0.35574244190E+01 -0.25027461099E+01 -0.41801678621E+01  0.60326453520E+01  0.00000000000E+00 0. -1.
</event>
<event>
 7    1  0.2811980E-010  0.4778727E+02  0.7816164E-02  0.1312668E+00
        -11   -1    0    0    0    0  0.00000000000E+00  0.00000000000E+00  0.45593999997E+02  0.45594000000E+02  0.51100000000E-03 0. -1.
         11   -1    0    0    0    0 -0.00000000000E+00 -0.00000000000E+00 -0.45593999997E+02  0.45594000000E+02  0.51100000000E-03 0.  1.
    9900012    2    1    2    0    0  0.36753821445E+02  0.16256389350E+02  0.16386257941E+02  0.47787273798E+02  0.20000012556E+02 0.  0.
        -12    1    1    2    0    0 -0.36753821445E+02 -0.16256389350E+02 -0.16386257941E+02  0.43400726202E+02  0.00000000000E+00 0.  1.
         11    1    3    3    0    0  0.20202296795E+02  0.17896633132E+02  0.98234512464E+01  0.28721463540E+02  0.51100000000E-03 0. -1.
        -11    1    3    3    0    0  0.25215471558E+01  0.21991162747E+01  0.14661353467E+01  0.36529256172E+01  0.51100000000E-03 0.  1.
         12    1    3    3    0    0  0.14029977494E+02 -0.38393600562E+01  0.50966713483E+01  0.15412884641E+02  0.00000000000E+00 0. -1.
</event>
<event>
 7    1  0.2811980E-010  0.4778728E+02  0.7816164E-02  0.1312668E+00
        -11   -1    0    0    0    0  0.00000000000E+00  0.00000000000E+00  0.45593999997E+02  0.45594000000E+02  0.51100000000E-03 0.  1.
         11   -1    0    0    0    0 -0.00000000000E+00 -0.00000000000E+00 -0.45593999997E+02  0.45594000000E+02  0.51100000000E-03 0. -1.
    9900012    2    1    2    0    0  0.22594987412E+02 -0.30447952567E+02 -0.21118984930E+02  0.47787276548E+02  0.20000025093E+02 0.  0.
        -12    1    1    2    0    0 -0.22594987412E+02  0.30447952567E+02  0.21118984930E+02  0.43400723452E+02  0.00000000000E+00 0.  1.
         11    1    3    3    0    0  0.49005519084E+01 -0.19287454857E+02 -0.10701109854E+02  0.22595023262E+02  0.51100000000E-03 0. -1.
        -11    1    3    3    0    0  0.17751377430E+02 -0.94759505300E+01 -0.11512193079E+02  0.23182657933E+02  0.51100000000E-03 0.  1.
         12    1    3    3    0    0 -0.56941926186E-01 -0.16845471809E+01  0.10943180034E+01  0.20095953524E+01  0.00000000000E+00 0. -1.
</event>
<event>
 7    1  0.2811980E-010  0.4778731E+02  0.7816164E-02  0.1312668E+00
        -11   -1    0    0    0    0  0.00000000000E+00  0.00000000000E+00  0.45593999997E+02  0.45594000000E+02  0.51100000000E-03 0.  1.
         11   -1    0    0    0    0 -0.00000000000E+00 -0.00000000000E+00 -0.45593999997E+02  0.45594000000E+02  0.51100000000E-03 0. -1.
    9900012    2    1    2    0    0 -0.26546528136E+02  0.16384973600E+02 -0.30173400008E+02  0.47787313554E+02  0.20000193818E+02 0.  0.
        -12    1    1    2    0    0  0.26546528136E+02 -0.16384973600E+02  0.30173400008E+02  0.43400686446E+02  0.00000000000E+00 0.  1.
         11    1    3    3    0    0 -0.53298693149E+01  0.39114945553E+01 -0.16475712854E+02  0.17752645179E+02  0.51100000000E-03 0. -1.
        -11    1    3    3    0    0 -0.10387031448E+02  0.11650738272E+02 -0.59980896149E+01  0.16721459382E+02  0.51100000000E-03 0.  1.
         12    1    3    3    0    0 -0.10829627373E+02  0.82274077310E+00 -0.76995975394E+01  0.13313208993E+02  0.00000000000E+00 0. -1.
</event>
<event>
 7    1  0.2811980E-010  0.4778727E+02  0.7816164E-02  0.1312668E+00
        -11   -1    0    0    0    0  0.00000000000E+00  0.00000000000E+00  0.45593999997E+02  0.45594000000E+02  0.51100000000E-03 0.  1.
         11   -1    0    0    0    0 -0.00000000000E+00 -0.00000000000E+00 -0.45593999997E+02  0.45594000000E+02  0.51100000000E-03 0. -1.
    9900012    2    1    2    0    0  0.16079178786E+02  0.21840221782E+02 -0.33883446325E+02  0.47787271748E+02  0.20000003206E+02 0.  0.
        -12    1    1    2    0    0 -0.16079178786E+02 -0.21840221782E+02  0.33883446325E+02  0.43400728252E+02  0.00000000000E+00 0.  1.
         11    1    3    3    0    0  0.66214915769E+01 -0.27335126958E+00 -0.13079954930E+02  0.14663017863E+02  0.51100000000E-03 0. -1.
        -11    1    3    3    0    0  0.50908100077E+01  0.13494028199E+02 -0.63970180835E+01  0.15777420074E+02  0.51100000000E-03 0.  1.
         12    1    3    3    0    0  0.43668772019E+01  0.86195448531E+01 -0.14406473312E+02  0.17346833811E+02  0.00000000000E+00 0. -1.
</event>
<event>
 7    1  0.2811980E-010  0.4778727E+02  0.7816164E-02  0.1312668E+00
        -11   -1    0    0    0    0  0.00000000000E+00  0.00000000000E+00  0.45593999997E+02  0.45594000000E+02  0.51100000000E-03 0.  1.
         11   -1    0    0    0    0 -0.00000000000E+00 -0.00000000000E+00 -0.45593999997E+02  0.45594000000E+02  0.51100000000E-03 0. -1.
    9900012    2    1    2    0    0  0.37462664510E+02  0.21901572995E+02 -0.70239401101E+00  0.47787268564E+02  0.19999988690E+02 0.  0.
        -12    1    1    2    0    0 -0.37462664510E+02 -0.21901572995E+02  0.70239401101E+00  0.43400731436E+02  0.00000000000E+00 0.  1.
         11    1    3    3    0    0  0.12815247017E+02  0.12434536027E+02  0.65523246526E+01  0.19020546810E+02  0.51100000000E-03 0. -1.
        -11    1    3    3    0    0  0.12550591731E+02  0.12505256448E+00 -0.34208778151E+01  0.13009050551E+02  0.51100000000E-03 0.  1.
         12    1    3    3    0    0  0.12096825762E+02  0.93419844026E+01 -0.38338408485E+01  0.15757671203E+02  0.00000000000E+00 0. -1.
</event>
<event>
 7    1  0.3195478E-010  0.4778728E+02  0.7816164E-02  0.1312668E+00
        -11   -1    0    0    0    0  0.00000000000E+00  0.00000000000E+00  0.45593999997E+02  0.45594000000E+02  0.51100000000E-03 0. -1.
         11   -1    0    0    0    0 -0.00000000000E+00 -0.00000000000E+00 -0.45593999997E+02  0.45594000000E+02  0.51100000000E-03 0.  1.
    9900012    2    1    2    0    0 -0.14664010284E+02 -0.44427976299E+01  0.40606048439E+02  0.47787276294E+02  0.20000023936E+02 0.  0.
        -12    1    1    2    0    0  0.14664010284E+02  0.44427976299E+01 -0.40606048439E+02  0.43400723706E+02  0.00000000000E+00 0.  1.
         11    1    3    3    0    0 -0.89312663869E+01 -0.24087348422E+01  0.22462599056E+02  0.24292753640E+02  0.51100000000E-03 0. -1.
        -11    1    3    3    0    0  0.30675987229E+00 -0.33239689550E+01 -0.91436257116E+00  0.34610591451E+01  0.51100000000E-03 0.  1.
        -12    1    3    3    0    0 -0.60395037691E+01  0.12899061673E+01  0.19057811954E+02  0.20033463509E+02  0.00000000000E+00 0.  1.
</event>
<event>
 7    1  0.2811980E-010  0.4778727E+02  0.7816164E-02  0.1312668E+00
        -11   -1    0    0    0    0  0.00000000000E+00  0.00000000000E+00  0.45593999997E+02  0.45594000000E+02  0.51100000000E-03 0.  1.
         11   -1    0    0    0    0 -0.00000000000E+00 -0.00000000000E+00 -0.45593999997E+02  0.45594000000E+02  0.51100000000E-03 0. -1.
    9900012    2    1    2    0    0  0.40975121946E+02  0.90556292741E+01 -0.11075118273E+02  0.47787270919E+02  0.19999999427E+02 0.  0.
        -12    1    1    2    0    0 -0.40975121946E+02 -0.90556292741E+01  0.11075118273E+02  0.43400729081E+02  0.00000000000E+00 0.  1.
         11    1    3    3    0    0  0.14353296157E+02  0.38435908226E+00 -0.10515723034E+02  0.17797338949E+02  0.51100000000E-03 0. -1.
        -11    1    3    3    0    0  0.24575908931E+02  0.85555578763E+01  0.26764344953E+01  0.26159819805E+02  0.51100000000E-03 0.  1.
        -12    1    3    3    0    0  0.20459168580E+01  0.11571231555E+00 -0.32358297341E+01  0.38301121652E+01  0.00000000000E+00 0.  1.
</event>
<event>
 7    1  0.2811980E-010  0.4778723E+02  0.7816164E-02  0.1312668E+00
        -11   -1    0    0    0    0  0.00000000000E+00  0.00000000000E+00  0.45593999997E+02  0.45594000000E+02  0.51100000000E-03 0.  1.
         11   -1    0    0    0    0 -0.00000000000E+00 -0.00000000000E+00 -0.45593999997E+02  0.45594000000E+02  0.51100000000E-03 0. -1.
    9900012    2    1    2    0    0 -0.19118516168E+02 -0.21273238473E+02 -0.32642897125E+02  0.47787227330E+02  0.19999800687E+02 0.  0.
        -12    1    1    2    0    0  0.19118516168E+02  0.21273238473E+02  0.32642897125E+02  0.43400772670E+02  0.00000000000E+00 0.  1.
         11    1    3    3    0    0 -0.10870081365E+02 -0.28290664743E+01 -0.51993601194E+01  0.12377222302E+02  0.51100000000E-03 0. -1.
        -11    1    3    3    0    0 -0.10021957083E+02 -0.16585808486E+02 -0.26110339501E+02  0.32515819166E+02  0.51100000000E-03 0.  1.
        -12    1    3    3    0    0  0.17735222790E+01 -0.18583635133E+01 -0.13331975051E+01  0.28941858629E+01  0.00000000000E+00 0.  1.
</event>
<event>
 7    1  0.2811980E-010  0.4778727E+02  0.7816164E-02  0.1312668E+00
        -11   -1    0    0    0    0  0.00000000000E+00  0.00000000000E+00  0.45593999997E+02  0.45594000000E+02  0.51100000000E-03 0. -1.
         11   -1    0    0    0    0 -0.00000000000E+00 -0.00000000000E+00 -0.45593999997E+02  0.45594000000E+02  0.51100000000E-03 0.  1.
    9900012    2    1    2    0    0  0.92443954509E+01  0.33143194606E+02 -0.26451711709E+02  0.47787271339E+02  0.20000001343E+02 0.  0.
        -12    1    1    2    0    0 -0.92443954509E+01 -0.33143194606E+02  0.26451711709E+02  0.43400728661E+02  0.00000000000E+00 0.  1.
         11    1    3    3    0    0  0.95484142984E+01  0.16211995409E+02 -0.23752388253E+02  0.30301434929E+02  0.51100000000E-03 0. -1.
        -11    1    3    3    0    0  0.25046673381E+00  0.16542919475E+02 -0.28598028898E+01  0.16790157569E+02  0.51100000000E-03 0.  1.
        -12    1    3    3    0    0 -0.55448558126E+00  0.38827972123E+00  0.16047943337E+00  0.69567884133E+00  0.00000000000E+00 0.  1.
</event>
<event>
 7    1  0.2811980E-010  0.4778728E+02  0.7816164E-02  0.1312668E+00
        -11   -1    0    0    0    0  0.00000000000E+00  0.00000000000E+00  0.45593999997E+02  0.45594000000E+02  0.51100000000E-03 0. -1.
         11   -1    0    0    0    0 -0.00000000000E+00 -0.00000000000E+00 -0.45593999997E+02  0.45594000000E+02  0.51100000000E-03 0.  1.
    9900012    2    1    2    0    0 -0.26188006732E+02 -0.13061967689E+02  0.32049892581E+02  0.47787282137E+02  0.20000050577E+02 0.  0.
        -12    1    1    2    0    0  0.26188006732E+02  0.13061967689E+02 -0.32049892581E+02  0.43400717863E+02  0.00000000000E+00 0.  1.
         11    1    3    3    0    0 -0.16876888169E+02 -0.57574175236E+01  0.25322819322E+02  0.30971315592E+02  0.51100000000E-03 0. -1.
        -11    1    3    3    0    0 -0.16599315060E+01  0.21242776788E+01 -0.41648475189E+00  0.27278907733E+01  0.51100000000E-03 0.  1.
         12    1    3    3    0    0 -0.76511870578E+01 -0.94288278445E+01  0.71435580108E+01  0.14088075772E+02  0.00000000000E+00 0. -1.
</event>
<event>
 7    1  0.2811980E-010  0.4778727E+02  0.7816164E-02  0.1312668E+00
        -11   -1    0    0    0    0  0.00000000000E+00  0.00000000000E+00  0.45593999997E+02  0.45594000000E+02  0.51100000000E-03 0. -1.
         11   -1    0    0    0    0 -0.00000000000E+00 -0.00000000000E+00 -0.45593999997E+02  0.45594000000E+02  0.51100000000E-03 0.  1.
    9900012    2    1    2    0    0  0.38425502602E+02  0.19133502104E+02  0.64041374289E+01  0.47787272711E+02  0.20000007598E+02 0.  0.
        -12    1    1    2    0    0 -0.38425502602E+02 -0.19133502104E+02 -0.64041374289E+01  0.43400727289E+02  0.00000000000E+00 0.  1.
         11    1    3    3    0    0  0.18284243435E+02  0.14016388062E+02 -0.23956414668E+01  0.23162724161E+02  0.51100000000E-03 0. -1.
        -11    1    3    3    0    0  0.18824309179E+02  0.74141403690E+01  0.85527414495E+01  0.21965278966E+02  0.51100000000E-03 0.  1.
         12    1    3    3    0    0  0.13169499885E+01 -0.22970263269E+01  0.24703744616E+00  0.26592695837E+01  0.00000000000E+00 0. -1.
</event>
<event>
 7    1  0.2811980E-010  0.4778727E+02  0.7816164E-02  0.1312668E+00
        -11   -1    0    0    0    0  0.00000000000E+00  0.00000000000E+00  0.45593999997E+02  0.45594000000E+02  0.51100000000E-03 0.  1.
         11   -1    0    0    0    0 -0.00000000000E+00 -0.00000000000E+00 -0.45593999997E+02  0.45594000000E+02  0.51100000000E-03 0. -1.
    9900012    2    1    2    0    0  0.26068268135E+02  0.32686086130E+02 -0.11648531439E+02  0.47787272878E+02  0.20000008359E+02 0.  0.
        -12    1    1    2    0    0 -0.26068268135E+02 -0.32686086130E+02  0.11648531439E+02  0.43400727122E+02  0.00000000000E+00 0.  1.
         11    1    3    3    0    0  0.17878084110E+02  0.20038904760E+02 -0.14561582129E+02  0.30548703242E+02  0.51100000000E-03 0. -1.
        -11    1    3    3    0    0  0.16771980313E+01  0.76128013591E+01  0.42814269514E+01  0.88937255844E+01  0.51100000000E-03 0.  1.
        -12    1    3    3    0    0  0.65129859933E+01  0.50343800110E+01 -0.13683762615E+01  0.83448440511E+01  0.00000000000E+00 0.  1.
</event>
<event>
 7    1  0.2811980E-010  0.4778727E+02  0.7816164E-02  0.1312668E+00
        -11   -1    0    0    0    0  0.00000000000E+00  0.00000000000E+00  0.45593999997E+02  0.45594000000E+02  0.51100000000E-03 0.  1.
         11   -1    0    0    0    0 -0.00000000000E+00 -0.00000000000E+00 -0.45593999997E+02  0.45594000000E+02  0.51100000000E-03 0. -1.
    9900012    2    1    2    0    0  0.31654424504E+02  0.29572525058E+02  0.26620272133E+01  0.47787271690E+02  0.20000002941E+02 0.  0.
        -12    1    1    2    0    0 -0.31654424504E+02 -0.29572525058E+02 -0.26620272133E+01  0.43400728310E+02  0.00000000000E+00 0.  1.
         11    1    3    3    0    0  0.14941555187E+02  0.24109162196E+02 -0.16258020127E+01  0.28410297528E+02  0.51100000000E-03 0. -1.
        -11    1    3    3    0    0  0.11518200941E+02  0.97823137780E+00  0.57485430536E+00  0.11573951238E+02  0.51100000000E-03 0.  1.
         12    1    3    3    0    0  0.51946683762E+01  0.44851314844E+01  0.37129749207E+01  0.78030229227E+01  0.00000000000E+00 0. -1.
</event>
<event>
 7    1  0.2811980E-010  0.4778727E+02  0.7816164E-02  0.1312668E+00
        -11   -1    0    0    0    0  0.00000000000E+00  0.00000000000E+00  0.45593999997E+02  0.45594000000E+02  0.51100000000E-03 0. -1.
         11   -1    0    0    0    0 -0.00000000000E+00 -0.00000000000E+00 -0.45593999997E+02  0.45594000000E+02  0.51100000000E-03 0.  1.
    9900012    2    1    2    0    0 -0.34509333478E+02 -0.26267745883E+02 -0.16536773123E+01  0.47787271671E+02  0.20000002855E+02 0.  0.
        -12    1    1    2    0    0  0.34509333478E+02  0.26267745883E+02  0.16536773123E+01  0.43400728329E+02  0.00000000000E+00 0.  1.
         11    1    3    3    0    0 -0.31171468751E+02 -0.24951362234E+02 -0.55061837414E-01  0.39927859616E+02  0.51100000000E-03 0. -1.
        -11    1    3    3    0    0 -0.24298494124E+01 -0.40847949749E+01 -0.66022073579E+00  0.47985007903E+01  0.51100000000E-03 0.  1.
         12    1    3    3    0    0 -0.90801531430E+00  0.27684113261E+01 -0.93839473910E+00  0.30609112643E+01  0.00000000000E+00 0. -1.
</event>
<event>
 7    1  0.2811980E-010  0.4778727E+02  0.7816164E-02  0.1312668E+00
        -11   -1    0    0    0    0  0.00000000000E+00  0.00000000000E+00  0.45593999997E+02  0.45594000000E+02  0.51100000000E-03 0.  1.
         11   -1    0    0    0    0 -0.00000000000E+00 -0.00000000000E+00 -0.45593999997E+02  0.45594000000E+02  0.51100000000E-03 0. -1.
    9900012    2    1    2    0    0  0.33336622595E+02  0.10500371996E+02 -0.25730039636E+02  0.47787272382E+02  0.20000006100E+02 0.  0.
        -12    1    1    2    0    0 -0.33336622595E+02 -0.10500371996E+02  0.25730039636E+02  0.43400727618E+02  0.00000000000E+00 0.  1.
         11    1    3    3    0    0  0.46457753177E+01  0.14310595070E+01 -0.12237231944E+02  0.13167422129E+02  0.51100000000E-03 0. -1.
        -11    1    3    3    0    0  0.52287812943E+01  0.35289939986E+01 -0.74590460435E+01  0.97688955673E+01  0.51100000000E-03 0.  1.
         12    1    3    3    0    0  0.23462065983E+02  0.55403184906E+01 -0.60337616482E+01  0.24850954686E+02  0.00000000000E+00 0. -1.
</event>
<event>
 7    1  0.2811980E-010  0.4778727E+02  0.7816164E-02  0.1312668E+00
        -11   -1    0    0    0    0  0.00000000000E+00  0.00000000000E+00  0.45593999997E+02  0.45594000000E+02  0.51100000000E-03 0. -1.
         11   -1    0    0    0    0 -0.00000000000E+00 -0.00000000000E+00 -0.45593999997E+02  0.45594000000E+02  0.51100000000E-03 0.  1.
    9900012    2    1    2    0    0  0.11262982634E+02  0.37110172389E+02  0.19483429530E+02  0.47787266149E+02  0.19999977680E+02 0.  0.
        -12    1    1    2    0    0 -0.11262982634E+02 -0.37110172389E+02 -0.19483429530E+02  0.43400733851E+02  0.00000000000E+00 0.  1.
         11    1    3    3    0    0  0.11309962147E+02  0.15686654372E+02  0.64087725471E+01  0.20372990330E+02  0.51100000000E-03 0. -1.
        -11    1    3    3    0    0 -0.27471587758E+01  0.30820187623E+01 -0.86602387879E+00  0.42184971981E+01  0.51100000000E-03 0.  1.
         12    1    3    3    0    0  0.27001792620E+01  0.18341499254E+02  0.13940680861E+02  0.23195778621E+02  0.00000000000E+00 0. -1.
</event>
<event>
 7    1  0.2811980E-010  0.4778727E+02  0.7816164E-02  0.1312668E+00
        -11   -1    0    0    0    0  0.00000000000E+00  0.00000000000E+00  0.45593999997E+02  0.45594000000E+02  0.51100000000E-03 0.  1.
         11   -1    0    0    0    0 -0.00000000000E+00 -0.00000000000E+00 -0.45593999997E+02  0.45594000000E+02  0.51100000000E-03 0. -1.
    9900012    2    1    2    0    0  0.16655311806E+02  0.32522440334E+02 -0.23420389845E+02  0.47787271929E+02  0.20000004031E+02 0.  0.
        -12    1    1    2    0    0 -0.16655311806E+02 -0.32522440334E+02  0.23420389845E+02  0.43400728071E+02  0.00000000000E+00 0.  1.
         11    1    3    3    0    0  0.64668773903E+01  0.90961329976E+01 -0.38883629225E+01  0.11818608428E+02  0.51100000000E-03 0.  1.
        -11    1    3    3    0    0  0.70091448530E+01  0.25474682792E+02 -0.17074339060E+02  0.31458236275E+02  0.51100000000E-03 0. -1.
        -12    1    3    3    0    0  0.31792895623E+01 -0.20483754557E+01 -0.24576878624E+01  0.45104272256E+01  0.00000000000E+00 0.  1.
</event>
<event>
 7    1  0.2811980E-010  0.4778727E+02  0.7816164E-02  0.1312668E+00
        -11   -1    0    0    0    0  0.00000000000E+00  0.00000000000E+00  0.45593999997E+02  0.45594000000E+02  0.51100000000E-03 0. -1.
         11   -1    0    0    0    0 -0.00000000000E+00 -0.00000000000E+00 -0.45593999997E+02  0.45594000000E+02  0.51100000000E-03 0.  1.
    9900012    2    1    2    0    0  0.39327620830E+02 -0.63552669328E+01  0.17221270810E+02  0.47787270211E+02  0.19999996199E+02 0.  0.
        -12    1    1    2    0    0 -0.39327620830E+02  0.63552669328E+01 -0.17221270810E+02  0.43400729789E+02  0.00000000000E+00 0.  1.
         11    1    3    3    0    0  0.95555984911E+01 -0.82985234126E+01  0.11227454317E+02  0.16918353467E+02  0.51100000000E-03 0. -1.
        -11    1    3    3    0    0  0.20804592307E+02  0.14124672158E+01  0.65818391819E+01  0.21866566533E+02  0.51100000000E-03 0.  1.
        -12    1    3    3    0    0  0.89674300323E+01  0.53078926404E+00 -0.58802268847E+00  0.90023502103E+01  0.00000000000E+00 0.  1.
</event>
<event>
 7    1  0.2811980E-010  0.4778726E+02  0.7816164E-02  0.1312668E+00
        -11   -1    0    0    0    0  0.00000000000E+00  0.00000000000E+00  0.45593999997E+02  0.45594000000E+02  0.51100000000E-03 0.  1.
         11   -1    0    0    0    0 -0.00000000000E+00 -0.00000000000E+00 -0.45593999997E+02  0.45594000000E+02  0.51100000000E-03 0. -1.
    9900012    2    1    2    0    0  0.12303483860E+02 -0.58541993285E+01 -0.41206512698E+02  0.47787262062E+02  0.19999959045E+02 0.  0.
        -12    1    1    2    0    0 -0.12303483860E+02  0.58541993285E+01  0.41206512698E+02  0.43400737938E+02  0.00000000000E+00 0.  1.
         11    1    3    3    0    0 -0.47282695527E+01 -0.49472225444E+01 -0.14171330234E+02  0.15737158089E+02  0.51100000000E-03 0. -1.
        -11    1    3    3    0    0  0.15318429175E+02 -0.37260533315E+00 -0.23037309323E+02  0.27667864540E+02  0.51100000000E-03 0.  1.
        -12    1    3    3    0    0  0.17133242376E+01 -0.53437145095E+00 -0.39978731413E+01  0.43822394326E+01  0.00000000000E+00 0.  1.
</event>
<event>
 7    1  0.2811980E-010  0.4778729E+02  0.7816164E-02  0.1312668E+00
        -11   -1    0    0    0    0  0.00000000000E+00  0.00000000000E+00  0.45593999997E+02  0.45594000000E+02  0.51100000000E-03 0.  1.
         11   -1    0    0    0    0 -0.00000000000E+00 -0.00000000000E+00 -0.45593999997E+02  0.45594000000E+02  0.51100000000E-03 0. -1.
    9900012    2    1    2    0    0  0.36094996828E+02  0.24067900746E+02  0.12284094073E+01  0.47787289960E+02  0.20000086241E+02 0.  0.
        -12    1    1    2    0    0 -0.36094996828E+02 -0.24067900746E+02 -0.12284094073E+01  0.43400710040E+02  0.00000000000E+00 0.  1.
         11    1    3    3    0    0  0.30929213726E+01  0.10080648455E+02  0.31043830880E+01  0.10991943892E+02  0.51100000000E-03 0. -1.
        -11    1    3    3    0    0  0.18888324049E+02  0.37921956769E+01 -0.21302108957E+01  0.19382655446E+02  0.51100000000E-03 0.  1.
        -12    1    3    3    0    0  0.14113751407E+02  0.10195056614E+02  0.25423721496E+00  0.17412690622E+02  0.00000000000E+00 0.  1.
</event>
<event>
 7    1  0.2811980E-010  0.4778726E+02  0.7816164E-02  0.1312668E+00
        -11   -1    0    0    0    0  0.00000000000E+00  0.00000000000E+00  0.45593999997E+02  0.45594000000E+02  0.51100000000E-03 0.  1.
         11   -1    0    0    0    0 -0.00000000000E+00 -0.00000000000E+00 -0.45593999997E+02  0.45594000000E+02  0.51100000000E-03 0. -1.
    9900012    2    1    2    0    0 -0.28406903118E+02  0.27560549986E+02 -0.17806960011E+02  0.47787264003E+02  0.19999967893E+02 0.  0.
        -12    1    1    2    0    0  0.28406903118E+02 -0.27560549986E+02  0.17806960011E+02  0.43400735997E+02  0.00000000000E+00 0.  1.
         11    1    3    3    0    0 -0.88482663280E+01  0.14538614729E+02 -0.37951569848E+01  0.17437498446E+02  0.51100000000E-03 0. -1.
        -11    1    3    3    0    0  0.52266148628E-01  0.48571590909E+00 -0.55690510212E+01  0.55904365869E+01  0.51100000000E-03 0.  1.
        -12    1    3    3    0    0 -0.19610902939E+02  0.12536219348E+02 -0.84427520048E+01  0.24759328969E+02  0.00000000000E+00 0.  1.
</event>
<event>
 7    1  0.2811980E-010  0.4778727E+02  0.7816164E-02  0.1312668E+00
        -11   -1    0    0    0    0  0.00000000000E+00  0.00000000000E+00  0.45593999997E+02  0.45594000000E+02  0.51100000000E-03 0.  1.
         11   -1    0    0    0    0 -0.00000000000E+00 -0.00000000000E+00 -0.45593999997E+02  0.45594000000E+02  0.51100000000E-03 0. -1.
    9900012    2    1    2    0    0 -0.13970812023E+02  0.31021855511E+02 -0.26945943254E+02  0.47787274594E+02  0.20000016185E+02 0.  0.
        -12    1    1    2    0    0  0.13970812023E+02 -0.31021855511E+02  0.26945943254E+02  0.43400725406E+02  0.00000000000E+00 0.  1.
         11    1    3    3    0    0 -0.10201202246E+02  0.16519801479E+02 -0.70810123740E+01  0.20666618124E+02  0.51100000000E-03 0. -1.
        -11    1    3    3    0    0  0.26659202964E+01  0.87081441849E+01 -0.13854729448E+02  0.16579880413E+02  0.51100000000E-03 0.  1.
        -12    1    3    3    0    0 -0.64355300737E+01  0.57939098468E+01 -0.60102014312E+01  0.10540776057E+02  0.00000000000E+00 0.  1.
</event>
<event>
 7    1  0.2811980E-010  0.4778727E+02  0.7816164E-02  0.1312668E+00
        -11   -1    0    0    0    0  0.00000000000E+00  0.00000000000E+00  0.45593999997E+02  0.45594000000E+02  0.51100000000E-03 0.  1.
         11   -1    0    0    0    0 -0.00000000000E+00 -0.00000000000E+00 -0.45593999997E+02  0.45594000000E+02  0.51100000000E-03 0. -1.
    9900012    2    1    2    0    0  0.19483414356E+02  0.27487914678E+02 -0.27357527053E+02  0.47787272186E+02  0.20000005204E+02 0.  0.
        -12    1    1    2    0    0 -0.19483414356E+02 -0.27487914678E+02  0.27357527053E+02  0.43400727814E+02  0.00000000000E+00 0.  1.
         11    1    3    3    0    0  0.20066998925E+02  0.12570363861E+02 -0.19150069272E+02  0.30453631095E+02  0.51100000000E-03 0.  1.
        -11    1    3    3    0    0  0.16917171886E+00  0.13972537708E+02 -0.80185325989E+01  0.16110781929E+02  0.51100000000E-03 0. -1.
        -12    1    3    3    0    0 -0.75275628763E+00  0.94501310992E+00 -0.18892518200E+00  0.12228591623E+01  0.00000000000E+00 0.  1.
</event>
<event>
 7    1  0.2811980E-010  0.4778727E+02  0.7816164E-02  0.1312668E+00
        -11   -1    0    0    0    0  0.00000000000E+00  0.00000000000E+00  0.45593999997E+02  0.45594000000E+02  0.51100000000E-03 0. -1.
         11   -1    0    0    0    0 -0.00000000000E+00 -0.00000000000E+00 -0.45593999997E+02  0.45594000000E+02  0.51100000000E-03 0.  1.
    9900012    2    1    2    0    0  0.33623454016E+02  0.24100340697E+02  0.13124790958E+02  0.47787271672E+02  0.20000002863E+02 0.  0.
        -12    1    1    2    0    0 -0.33623454016E+02 -0.24100340697E+02 -0.13124790958E+02  0.43400728328E+02  0.00000000000E+00 0.  1.
         11    1    3    3    0    0  0.87021391391E+01  0.12358592924E+02  0.11304445182E+02  0.18874652998E+02  0.51100000000E-03 0. -1.
        -11    1    3    3    0    0  0.23007389906E+02  0.10675622662E+02  0.41655284307E+01  0.25703317624E+02  0.51100000000E-03 0.  1.
        -12    1    3    3    0    0  0.19139249712E+01  0.10661251105E+01 -0.23451826549E+01  0.32093010503E+01  0.00000000000E+00 0.  1.
</event>
<event>
 7    1  0.2811980E-010  0.4778726E+02  0.7816164E-02  0.1312668E+00
        -11   -1    0    0    0    0  0.00000000000E+00  0.00000000000E+00  0.45593999997E+02  0.45594000000E+02  0.51100000000E-03 0.  1.
         11   -1    0    0    0    0 -0.00000000000E+00 -0.00000000000E+00 -0.45593999997E+02  0.45594000000E+02  0.51100000000E-03 0. -1.
    9900012    2    1    2    0    0 -0.18143948443E+02 -0.86855638235E+01 -0.38457533977E+02  0.47787264941E+02  0.19999972174E+02 0.  0.
        -12    1    1    2    0    0  0.18143948443E+02  0.86855638235E+01  0.38457533977E+02  0.43400735059E+02  0.00000000000E+00 0.  1.
         11    1    3    3    0    0 -0.11046464859E+02 -0.52488822626E+01 -0.23483826728E+02  0.26477637148E+02  0.51100000000E-03 0. -1.
        -11    1    3    3    0    0  0.98852588125E+00  0.91736410568E+00  0.17624995675E+01  0.22192668399E+01  0.51100000000E-03 0.  1.
        -12    1    3    3    0    0 -0.80860094658E+01 -0.43540456665E+01 -0.16736206816E+02  0.19090360954E+02  0.00000000000E+00 0.  1.
</event>
<event>
 7    1  0.2811980E-010  0.4778727E+02  0.7816164E-02  0.1312668E+00
        -11   -1    0    0    0    0  0.00000000000E+00  0.00000000000E+00  0.45593999997E+02  0.45594000000E+02  0.51100000000E-03 0. -1.
         11   -1    0    0    0    0 -0.00000000000E+00 -0.00000000000E+00 -0.45593999997E+02  0.45594000000E+02  0.51100000000E-03 0.  1.
    9900012    2    1    2    0    0  0.57751152904E+01  0.40323896803E+02  0.14975132705E+02  0.47787271786E+02  0.20000003379E+02 0.  0.
        -12    1    1    2    0    0 -0.57751152904E+01 -0.40323896803E+02 -0.14975132705E+02  0.43400728214E+02  0.00000000000E+00 0.  1.
         11    1    3    3    0    0  0.57457095067E+01  0.30054059433E+02  0.18179538251E+02  0.35591505692E+02  0.51100000000E-03 0. -1.
        -11    1    3    3    0    0  0.95132963668E+00  0.33677008986E+01 -0.38496225780E+01  0.52025024435E+01  0.51100000000E-03 0.  1.
        -12    1    3    3    0    0 -0.92192385294E+00  0.69021364714E+01  0.64521703202E+00  0.69932636500E+01  0.00000000000E+00 0.  1.
</event>
<event>
 7    1  0.2811980E-010  0.4778727E+02  0.7816164E-02  0.1312668E+00
        -11   -1    0    0    0    0  0.00000000000E+00  0.00000000000E+00  0.45593999997E+02  0.45594000000E+02  0.51100000000E-03 0.  1.
         11   -1    0    0    0    0 -0.00000000000E+00 -0.00000000000E+00 -0.45593999997E+02  0.45594000000E+02  0.51100000000E-03 0. -1.
    9900012    2    1    2    0    0  0.29355589788E+02  0.31942637834E+02 -0.12412810731E+01  0.47787267952E+02  0.19999985901E+02 0.  0.
        -12    1    1    2    0    0 -0.29355589788E+02 -0.31942637834E+02  0.12412810731E+01  0.43400732048E+02  0.00000000000E+00 0.  1.
         11    1    3    3    0    0  0.20965220309E+02  0.28178222302E+02  0.43581633929E+01  0.35391330339E+02  0.51100000000E-03 0. -1.
        -11    1    3    3    0    0  0.25149935320E+01 -0.12179350992E+01 -0.33669108248E+01  0.43754596485E+01  0.51100000000E-03 0.  1.
         12    1    3    3    0    0  0.58753759466E+01  0.49823506309E+01 -0.22325336412E+01  0.80204779647E+01  0.00000000000E+00 0. -1.
</event>
<event>
 7    1  0.2811980E-010  0.4778727E+02  0.7816164E-02  0.1312668E+00
        -11   -1    0    0    0    0  0.00000000000E+00  0.00000000000E+00  0.45593999997E+02  0.45594000000E+02  0.51100000000E-03 0.  1.
         11   -1    0    0    0    0 -0.00000000000E+00 -0.00000000000E+00 -0.45593999997E+02  0.45594000000E+02  0.51100000000E-03 0. -1.
    9900012    2    1    2    0    0  0.25152281331E+02  0.20582796759E+02 -0.28763420432E+02  0.47787272661E+02  0.20000007371E+02 0.  0.
        -12    1    1    2    0    0 -0.25152281331E+02 -0.20582796759E+02  0.28763420432E+02  0.43400727339E+02  0.00000000000E+00 0.  1.
         11    1    3    3    0    0  0.80326609163E+01  0.83424026808E+00 -0.67756459198E+01  0.10541772911E+02  0.51100000000E-03 0. -1.
        -11    1    3    3    0    0  0.12953496854E+02  0.21787275059E+02 -0.19515228156E+02  0.31989413334E+02  0.51100000000E-03 0.  1.
        -12    1    3    3    0    0  0.41661235610E+01 -0.20387185679E+01 -0.24725463569E+01  0.52560864159E+01  0.00000000000E+00 0.  1.
</event>
<event>
 7    1  0.2811980E-010  0.4778727E+02  0.7816164E-02  0.1312668E+00
        -11   -1    0    0    0    0  0.00000000000E+00  0.00000000000E+00  0.45593999997E+02  0.45594000000E+02  0.51100000000E-03 0.  1.
         11   -1    0    0    0    0 -0.00000000000E+00 -0.00000000000E+00 -0.45593999997E+02  0.45594000000E+02  0.51100000000E-03 0. -1.
    9900012    2    1    2    0    0  0.22897743101E+02 -0.80750351044E+01 -0.35973746605E+02  0.47787271022E+02  0.19999999898E+02 0.  0.
        -12    1    1    2    0    0 -0.22897743101E+02  0.80750351044E+01  0.35973746605E+02  0.43400728978E+02  0.00000000000E+00 0.  1.
         11    1    3    3    0    0  0.67044848326E+01 -0.27212996263E+01 -0.61342495320E+01  0.94860216165E+01  0.51100000000E-03 0. -1.
        -11    1    3    3    0    0  0.11119723164E+02 -0.11172952407E+02 -0.23572384043E+02  0.28357369385E+02  0.51100000000E-03 0.  1.
        -12    1    3    3    0    0  0.50735351045E+01  0.58192169294E+01 -0.62671130298E+01  0.99438800202E+01  0.00000000000E+00 0.  1.
</event>
<event>
 7    1  0.2811980E-010  0.4778727E+02  0.7816164E-02  0.1312668E+00
        -11   -1    0    0    0    0  0.00000000000E+00  0.00000000000E+00  0.45593999997E+02  0.45594000000E+02  0.51100000000E-03 0.  1.
         11   -1    0    0    0    0 -0.00000000000E+00 -0.00000000000E+00 -0.45593999997E+02  0.45594000000E+02  0.51100000000E-03 0. -1.
    9900012    2    1    2    0    0 -0.28002967571E+02  0.18442872207E+02 -0.27555718248E+02  0.47787270327E+02  0.19999996727E+02 0.  0.
        -12    1    1    2    0    0  0.28002967571E+02 -0.18442872207E+02  0.27555718248E+02  0.43400729673E+02  0.00000000000E+00 0.  1.
         11    1    3    3    0    0 -0.75733591270E+01  0.10852239187E+02 -0.43173803415E+01  0.13920008517E+02  0.51100000000E-03 0. -1.
        -11    1    3    3    0    0 -0.15162889472E+02  0.20732720462E-01 -0.12047597212E+02  0.19366420573E+02  0.51100000000E-03 0.  1.
        -12    1    3    3    0    0 -0.52667189727E+01  0.75699002986E+01 -0.11190740695E+02  0.14500841236E+02  0.00000000000E+00 0.  1.
</event>
<event>
 7    1  0.2811980E-010  0.4778727E+02  0.7816164E-02  0.1312668E+00
        -11   -1    0    0    0    0  0.00000000000E+00  0.00000000000E+00  0.45593999997E+02  0.45594000000E+02  0.51100000000E-03 0.  1.
         11   -1    0    0    0    0 -0.00000000000E+00 -0.00000000000E+00 -0.45593999997E+02  0.45594000000E+02  0.51100000000E-03 0. -1.
    9900012    2    1    2    0    0  0.17734310222E+02 -0.22656229905E+02 -0.32493272456E+02  0.47787271118E+02  0.20000000335E+02 0.  0.
        -12    1    1    2    0    0 -0.17734310222E+02  0.22656229905E+02  0.32493272456E+02  0.43400728882E+02  0.00000000000E+00 0.  1.
         11    1    3    3    0    0  0.74903010345E+01 -0.12732865669E+02 -0.22626816994E+02  0.27022274613E+02  0.51100000000E-03 0. -1.
        -11    1    3    3    0    0  0.24798342295E+01  0.10242941063E+01  0.15901116122E+01  0.31188477716E+01  0.51100000000E-03 0.  1.
         12    1    3    3    0    0  0.77641749582E+01 -0.10947658343E+02 -0.11456567074E+02  0.17646148733E+02  0.00000000000E+00 0. -1.
</event>
<event>
 7    1  0.2811980E-010  0.4778727E+02  0.7816164E-02  0.1312668E+00
        -11   -1    0    0    0    0  0.00000000000E+00  0.00000000000E+00  0.45593999997E+02  0.45594000000E+02  0.51100000000E-03 0.  1.
         11   -1    0    0    0    0 -0.00000000000E+00 -0.00000000000E+00 -0.45593999997E+02  0.45594000000E+02  0.51100000000E-03 0. -1.
    9900012    2    1    2    0    0 -0.28448975103E+02 -0.15580915981E+02 -0.28835985322E+02  0.47787272164E+02  0.20000005105E+02 0.  0.
        -12    1    1    2    0    0  0.28448975103E+02  0.15580915981E+02  0.28835985322E+02  0.43400727836E+02  0.00000000000E+00 0.  1.
         11    1    3    3    0    0 -0.19968602110E+02 -0.13876579845E+01 -0.20557813010E+02  0.28693106157E+02  0.51100000000E-03 0. -1.
        -11    1    3    3    0    0 -0.31239393322E+01 -0.62168302294E+01 -0.97500356605E+00  0.70255681100E+01  0.51100000000E-03 0.  1.
         12    1    3    3    0    0 -0.53564336605E+01 -0.79764277667E+01 -0.73031687456E+01  0.12068597897E+02  0.00000000000E+00 0. -1.
</event>
<event>
 7    1  0.2811980E-010  0.4778727E+02  0.7816164E-02  0.1312668E+00
        -11   -1    0    0    0    0  0.00000000000E+00  0.00000000000E+00  0.45593999997E+02  0.45594000000E+02  0.51100000000E-03 0. -1.
         11   -1    0    0    0    0 -0.00000000000E+00 -0.00000000000E+00 -0.45593999997E+02  0.45594000000E+02  0.51100000000E-03 0.  1.
    9900012    2    1    2    0    0 -0.13959918135E+02 -0.37011787253E+02  0.17856972905E+02  0.47787271995E+02  0.20000004335E+02 0.  0.
        -12    1    1    2    0    0  0.13959918135E+02  0.37011787253E+02 -0.17856972905E+02  0.43400728005E+02  0.00000000000E+00 0.  1.
         11    1    3    3    0    0  0.21484459166E+01 -0.87428698124E+00  0.43841623332E+01  0.49599472988E+01  0.51100000000E-03 0. -1.
        -11    1    3    3    0    0 -0.52547833358E+01 -0.37404900108E+01  0.28076930775E+01  0.70347106626E+01  0.51100000000E-03 0.  1.
         12    1    3    3    0    0 -0.10853580716E+02 -0.32397010261E+02  0.10665117494E+02  0.35792614034E+02  0.00000000000E+00 0. -1.
</event>
<event>
 7    1  0.2811980E-010  0.4778727E+02  0.7816164E-02  0.1312668E+00
        -11   -1    0    0    0    0  0.00000000000E+00  0.00000000000E+00  0.45593999997E+02  0.45594000000E+02  0.51100000000E-03 0. -1.
         11   -1    0    0    0    0 -0.00000000000E+00 -0.00000000000E+00 -0.45593999997E+02  0.45594000000E+02  0.51100000000E-03 0.  1.
    9900012    2    1    2    0    0 -0.23918623488E+02 -0.36070445786E+02  0.32319356082E+01  0.47787274009E+02  0.20000013517E+02 0.  0.
        -12    1    1    2    0    0  0.23918623488E+02  0.36070445786E+02 -0.32319356082E+01  0.43400725991E+02  0.00000000000E+00 0.  1.
         11    1    3    3    0    0 -0.12469288775E+02 -0.71720710415E+01 -0.56141934255E+01  0.15441532749E+02  0.51100000000E-03 0. -1.
        -11    1    3    3    0    0 -0.63149715863E+01 -0.15871763582E+02  0.55520228877E+01  0.17961534003E+02  0.51100000000E-03 0.  1.
         12    1    3    3    0    0 -0.51343631268E+01 -0.13026611163E+02  0.32941061461E+01  0.14384207257E+02  0.00000000000E+00 0. -1.
</event>
<event>
 7    1  0.2811980E-010  0.4778727E+02  0.7816164E-02  0.1312668E+00
        -11   -1    0    0    0    0  0.00000000000E+00  0.00000000000E+00  0.45593999997E+02  0.45594000000E+02  0.51100000000E-03 0.  1.
         11   -1    0    0    0    0 -0.00000000000E+00 -0.00000000000E+00 -0.45593999997E+02  0.45594000000E+02  0.51100000000E-03 0. -1.
    9900012    2    1    2    0    0 -0.36394611629E+02 -0.23345565372E+02  0.37470373366E+01  0.47787268820E+02  0.19999989858E+02 0.  0.
        -12    1    1    2    0    0  0.36394611629E+02  0.23345565372E+02 -0.37470373366E+01  0.43400731180E+02  0.00000000000E+00 0.  1.
         11    1    3    3    0    0 -0.34562456504E+02 -0.22244882222E+02  0.18635716186E+01  0.41144514630E+02  0.51100000000E-03 0. -1.
        -11    1    3    3    0    0 -0.69167829791E+00  0.24703948660E+01  0.12000156813E+01  0.28321912997E+01  0.51100000000E-03 0.  1.
        -12    1    3    3    0    0 -0.11404768263E+01 -0.35710780159E+01  0.68345003667E+00  0.38105628901E+01  0.00000000000E+00 0.  1.
</event>
<event>
 7    1  0.2811980E-010  0.4778727E+02  0.7816164E-02  0.1312668E+00
        -11   -1    0    0    0    0  0.00000000000E+00  0.00000000000E+00  0.45593999997E+02  0.45594000000E+02  0.51100000000E-03 0.  1.
         11   -1    0    0    0    0 -0.00000000000E+00 -0.00000000000E+00 -0.45593999997E+02  0.45594000000E+02  0.51100000000E-03 0. -1.
    9900012    2    1    2    0    0 -0.20077091040E+02 -0.38023973114E+02 -0.58915894683E+01  0.47787274862E+02  0.20000017407E+02 0.  0.
        -12    1    1    2    0    0  0.20077091040E+02  0.38023973114E+02  0.58915894683E+01  0.43400725138E+02  0.00000000000E+00 0.  1.
         11    1    3    3    0    0 -0.18950140306E+02 -0.27173419143E+02 -0.39773330743E+01  0.33366475753E+02  0.51100000000E-03 0. -1.
        -11    1    3    3    0    0  0.28817633630E+01 -0.12010006298E+01 -0.24341209037E+01  0.39587760013E+01  0.51100000000E-03 0.  1.
         12    1    3    3    0    0 -0.40087140967E+01 -0.96495533419E+01  0.51986450967E+00  0.10462023108E+02  0.00000000000E+00 0. -1.
</event>
<event>
 7    1  0.2811980E-010  0.4778727E+02  0.7816164E-02  0.1312668E+00
        -11   -1    0    0    0    0  0.00000000000E+00  0.00000000000E+00  0.45593999997E+02  0.45594000000E+02  0.51100000000E-03 0.  1.
         11   -1    0    0    0    0 -0.00000000000E+00 -0.00000000000E+00 -0.45593999997E+02  0.45594000000E+02  0.51100000000E-03 0. -1.
    9900012    2    1    2    0    0 -0.39808951750E+02  0.79876258404E+01 -0.15331941885E+02  0.47787271343E+02  0.20000001360E+02 0.  0.
        -12    1    1    2    0    0  0.39808951750E+02 -0.79876258404E+01  0.15331941885E+02  0.43400728657E+02  0.00000000000E+00 0.  1.
         11    1    3    3    0    0 -0.40678613812E+01  0.24022835114E+01 -0.40384954429E+01  0.62151353959E+01  0.51100000000E-03 0. -1.
        -11    1    3    3    0    0 -0.15604606814E+02 -0.33578319152E+01  0.16032260134E+01  0.16042104691E+02  0.51100000000E-03 0.  1.
        -12    1    3    3    0    0 -0.20136483555E+02  0.89431742442E+01 -0.12896672456E+02  0.25530031256E+02  0.00000000000E+00 0.  1.
</event>
<event>
 7    1  0.2811980E-010  0.4778727E+02  0.7816164E-02  0.1312668E+00
        -11   -1    0    0    0    0  0.00000000000E+00  0.00000000000E+00  0.45593999997E+02  0.45594000000E+02  0.51100000000E-03 0.  1.
         11   -1    0    0    0    0 -0.00000000000E+00 -0.00000000000E+00 -0.45593999997E+02  0.45594000000E+02  0.51100000000E-03 0. -1.
    9900012    2    1    2    0    0  0.12056220999E+02 -0.30066281326E+02 -0.28884074326E+02  0.47787268587E+02  0.19999988794E+02 0.  0.
        -12    1    1    2    0    0 -0.12056220999E+02  0.30066281326E+02  0.28884074326E+02  0.43400731413E+02  0.00000000000E+00 0.  1.
         11    1    3    3    0    0  0.53064375112E+01 -0.38303826197E+01 -0.25252988535E+00  0.65493420797E+01  0.51100000000E-03 0.  1.
        -11    1    3    3    0    0  0.60025102755E+01 -0.25222617807E+02 -0.20616980365E+02  0.33125072955E+02  0.51100000000E-03 0. -1.
         12    1    3    3    0    0  0.74727321200E+00 -0.10132808992E+01 -0.80145640756E+01  0.81128535520E+01  0.00000000000E+00 0. -1.
</event>
<event>
 7    1  0.2811980E-010  0.4778727E+02  0.7816164E-02  0.1312668E+00
        -11   -1    0    0    0    0  0.00000000000E+00  0.00000000000E+00  0.45593999997E+02  0.45594000000E+02  0.51100000000E-03 0. -1.
         11   -1    0    0    0    0 -0.00000000000E+00 -0.00000000000E+00 -0.45593999997E+02  0.45594000000E+02  0.51100000000E-03 0.  1.
    9900012    2    1    2    0    0 -0.20999468486E+02  0.26713026850E+02  0.27001106827E+02  0.47787271319E+02  0.20000001250E+02 0.  0.
        -12    1    1    2    0    0  0.20999468486E+02 -0.26713026850E+02 -0.27001106827E+02  0.43400728681E+02  0.00000000000E+00 0.  1.
         11    1    3    3    0    0  0.67224442201E-01 -0.60694829128E+00 -0.19251715532E+01  0.20197007512E+01  0.51100000000E-03 0.  1.
        -11    1    3    3    0    0 -0.17908307821E+02  0.23594567233E+02  0.20482828159E+02  0.36013293956E+02  0.51100000000E-03 0. -1.
        -12    1    3    3    0    0 -0.31583851075E+01  0.37254079091E+01  0.84434502214E+01  0.97542766117E+01  0.00000000000E+00 0.  1.
</event>
<event>
 7    1  0.2811980E-010  0.4778727E+02  0.7816164E-02  0.1312668E+00
        -11   -1    0    0    0    0  0.00000000000E+00  0.00000000000E+00  0.45593999997E+02  0.45594000000E+02  0.51100000000E-03 0.  1.
         11   -1    0    0    0    0 -0.00000000000E+00 -0.00000000000E+00 -0.45593999997E+02  0.45594000000E+02  0.51100000000E-03 0. -1.
    9900012    2    1    2    0    0  0.38079451819E+02  0.19362436415E+02 -0.76599416461E+01  0.47787270735E+02  0.19999998588E+02 0.  0.
        -12    1    1    2    0    0 -0.38079451819E+02 -0.19362436415E+02  0.76599416461E+01  0.43400729265E+02  0.00000000000E+00 0.  1.
         11    1    3    3    0    0  0.21574555261E+02  0.11658922538E+02 -0.11097411693E+02  0.26917363467E+02  0.51100000000E-03 0. -1.
        -11    1    3    3    0    0  0.60462951300E+01 -0.19323184391E+01  0.14477405238E+01  0.65105677352E+01  0.51100000000E-03 0.  1.
         12    1    3    3    0    0  0.10458601427E+02  0.96358323156E+01  0.19897295230E+01  0.14359339532E+02  0.00000000000E+00 0. -1.
</event>
<event>
 7    1  0.2811980E-010  0.4778726E+02  0.7816164E-02  0.1312668E+00
        -11   -1    0    0    0    0  0.00000000000E+00  0.00000000000E+00  0.45593999997E+02  0.45594000000E+02  0.51100000000E-03 0.  1.
         11   -1    0    0    0    0 -0.00000000000E+00 -0.00000000000E+00 -0.45593999997E+02  0.45594000000E+02  0.51100000000E-03 0. -1.
    9900012    2    1    2    0    0  0.14748463532E+02 -0.38267521227E+02 -0.14202236407E+02  0.47787264103E+02  0.19999968351E+02 0.  0.
        -12    1    1    2    0    0 -0.14748463532E+02  0.38267521227E+02  0.14202236407E+02  0.43400735897E+02  0.00000000000E+00 0.  1.
         11    1    3    3    0    0  0.16271998615E+01 -0.28962285537E+01 -0.31965909002E+01  0.46102183103E+01  0.51100000000E-03 0. -1.
        -11    1    3    3    0    0  0.13629126750E+02 -0.32470163356E+02 -0.14948160834E+02  0.38255876894E+02  0.51100000000E-03 0.  1.
        -12    1    3    3    0    0 -0.50786307968E+00 -0.29011293171E+01  0.39425153271E+01  0.49211688984E+01  0.00000000000E+00 0.  1.
</event>
<event>
 7    1  0.2811980E-010  0.4778727E+02  0.7816164E-02  0.1312668E+00
        -11   -1    0    0    0    0  0.00000000000E+00  0.00000000000E+00  0.45593999997E+02  0.45594000000E+02  0.51100000000E-03 0. -1.
         11   -1    0    0    0    0 -0.00000000000E+00 -0.00000000000E+00 -0.45593999997E+02  0.45594000000E+02  0.51100000000E-03 0.  1.
    9900012    2    1    2    0    0 -0.27302434474E+01 -0.34251164870E+02 -0.26514653451E+02  0.47787269915E+02  0.19999994852E+02 0.  0.
        -12    1    1    2    0    0  0.27302434474E+01  0.34251164870E+02  0.26514653451E+02  0.43400730085E+02  0.00000000000E+00 0.  1.
         11    1    3    3    0    0 -0.29948643424E+00 -0.15568436831E+02 -0.92710859067E+01  0.18122332952E+02  0.51100000000E-03 0. -1.
        -11    1    3    3    0    0 -0.29280864245E+01 -0.54537331534E+01  0.18231935278E+01  0.64529784068E+01  0.51100000000E-03 0.  1.
        -12    1    3    3    0    0  0.49732941138E+00 -0.13228994886E+02 -0.19066761072E+02  0.23211958557E+02  0.00000000000E+00 0.  1.
</event>
<event>
 7    1  0.2811980E-010  0.4778727E+02  0.7816164E-02  0.1312668E+00
        -11   -1    0    0    0    0  0.00000000000E+00  0.00000000000E+00  0.45593999997E+02  0.45594000000E+02  0.51100000000E-03 0. -1.
         11   -1    0    0    0    0 -0.00000000000E+00 -0.00000000000E+00 -0.45593999997E+02  0.45594000000E+02  0.51100000000E-03 0.  1.
    9900012    2    1    2    0    0 -0.28772026323E+02  0.32492214990E+02  0.22283949058E+00  0.47787271998E+02  0.20000004347E+02 0.  0.
        -12    1    1    2    0    0  0.28772026323E+02 -0.32492214990E+02 -0.22283949058E+00  0.43400728002E+02  0.00000000000E+00 0.  1.
         11    1    3    3    0    0 -0.25477212519E+02  0.26526807955E+02  0.32875197338E+01  0.36926517359E+02  0.51100000000E-03 0. -1.
        -11    1    3    3    0    0  0.14182429240E+01  0.50461039314E+01 -0.15051162263E+00  0.52437803051E+01  0.51100000000E-03 0.  1.
         12    1    3    3    0    0 -0.47130567282E+01  0.91930310374E+00 -0.29141686206E+01  0.56169743341E+01  0.00000000000E+00 0. -1.
</event>
<event>
 7    1  0.2811980E-010  0.4778727E+02  0.7816164E-02  0.1312668E+00
        -11   -1    0    0    0    0  0.00000000000E+00  0.00000000000E+00  0.45593999997E+02  0.45594000000E+02  0.51100000000E-03 0. -1.
         11   -1    0    0    0    0 -0.00000000000E+00 -0.00000000000E+00 -0.45593999997E+02  0.45594000000E+02  0.51100000000E-03 0.  1.
    9900012    2    1    2    0    0  0.35183760759E+02 -0.10249325340E+02  0.23252476771E+02  0.47787269971E+02  0.19999995106E+02 0.  0.
        -12    1    1    2    0    0 -0.35183760759E+02  0.10249325340E+02 -0.23252476771E+02  0.43400730029E+02  0.00000000000E+00 0.  1.
         11    1    3    3    0    0 -0.20497314603E+01  0.42943311057E+00  0.12853343173E+01  0.24572131418E+01  0.51100000000E-03 0.  1.
        -11    1    3    3    0    0  0.33263052093E+02 -0.10701930127E+02  0.22122374462E+02  0.41356515751E+02  0.51100000000E-03 0. -1.
        -12    1    3    3    0    0  0.39704401261E+01  0.23171675830E-01 -0.15523200888E+00  0.39735410779E+01  0.00000000000E+00 0.  1.
</event>
<event>
 7    1  0.2811980E-010  0.4778727E+02  0.7816164E-02  0.1312668E+00
        -11   -1    0    0    0    0  0.00000000000E+00  0.00000000000E+00  0.45593999997E+02  0.45594000000E+02  0.51100000000E-03 0.  1.
         11   -1    0    0    0    0 -0.00000000000E+00 -0.00000000000E+00 -0.45593999997E+02  0.45594000000E+02  0.51100000000E-03 0. -1.
    9900012    2    1    2    0    0  0.13053283314E+02 -0.34704333231E+02 -0.22557572550E+02  0.47787273858E+02  0.20000012830E+02 0.  0.
        -12    1    1    2    0    0 -0.13053283314E+02  0.34704333231E+02  0.22557572550E+02  0.43400726142E+02  0.00000000000E+00 0.  1.
         11    1    3    3    0    0  0.13337922125E+02 -0.18458255981E+02 -0.10453619860E+02  0.25057644521E+02  0.51100000000E-03 0. -1.
        -11    1    3    3    0    0 -0.48053061063E+01 -0.64078485793E+01 -0.28974972752E+01  0.85174515503E+01  0.51100000000E-03 0.  1.
        -12    1    3    3    0    0  0.45206672950E+01 -0.98382286704E+01 -0.92064554141E+01  0.14212177787E+02  0.00000000000E+00 0.  1.
</event>
<event>
 7    1  0.2811980E-010  0.4778728E+02  0.7816164E-02  0.1312668E+00
        -11   -1    0    0    0    0  0.00000000000E+00  0.00000000000E+00  0.45593999997E+02  0.45594000000E+02  0.51100000000E-03 0.  1.
         11   -1    0    0    0    0 -0.00000000000E+00 -0.00000000000E+00 -0.45593999997E+02  0.45594000000E+02  0.51100000000E-03 0. -1.
    9900012    2    1    2    0    0  0.21776726894E+02  0.30783941278E+02 -0.21488264374E+02  0.47787281335E+02  0.20000046919E+02 0.  0.
        -12    1    1    2    0    0 -0.21776726894E+02 -0.30783941278E+02  0.21488264374E+02  0.43400718665E+02  0.00000000000E+00 0.  1.
         11    1    3    3    0    0  0.67894852842E+01  0.16048419539E+02 -0.22675281153E+01  0.17572437627E+02  0.51100000000E-03 0. -1.
        -11    1    3    3    0    0  0.15618232971E+02  0.10197656950E+02 -0.16381512311E+02  0.24824893842E+02  0.51100000000E-03 0.  1.
        -12    1    3    3    0    0 -0.63099136094E+00  0.45378647889E+01 -0.28392239474E+01  0.53899498665E+01  0.00000000000E+00 0.  1.
</event>
<event>
 7    1  0.2811980E-010  0.4778727E+02  0.7816164E-02  0.1312668E+00
        -11   -1    0    0    0    0  0.00000000000E+00  0.00000000000E+00  0.45593999997E+02  0.45594000000E+02  0.51100000000E-03 0. -1.
         11   -1    0    0    0    0 -0.00000000000E+00 -0.00000000000E+00 -0.45593999997E+02  0.45594000000E+02  0.51100000000E-03 0.  1.
    9900012    2    1    2    0    0  0.40404225424E+02  0.11170288551E+02 -0.11240400387E+02  0.47787269830E+02  0.19999994462E+02 0.  0.
        -12    1    1    2    0    0 -0.40404225424E+02 -0.11170288551E+02  0.11240400387E+02  0.43400730170E+02  0.00000000000E+00 0.  1.
         11    1    3    3    0    0  0.24537416442E+02  0.57744144646E+01 -0.77567746283E+01  0.26374158203E+02  0.51100000000E-03 0. -1.
        -11    1    3    3    0    0  0.88201211906E+00  0.49171348037E+01  0.20940379175E+01  0.54167476512E+01  0.51100000000E-03 0.  1.
         12    1    3    3    0    0  0.14984796864E+02  0.47873928262E+00 -0.55776636767E+01  0.15996363975E+02  0.00000000000E+00 0. -1.
</event>
<event>
 7    1  0.2811980E-010  0.4778726E+02  0.7816164E-02  0.1312668E+00
        -11   -1    0    0    0    0  0.00000000000E+00  0.00000000000E+00  0.45593999997E+02  0.45594000000E+02  0.51100000000E-03 0. -1.
         11   -1    0    0    0    0 -0.00000000000E+00 -0.00000000000E+00 -0.45593999997E+02  0.45594000000E+02  0.51100000000E-03 0.  1.
    9900012    2    1    2    0    0  0.13168982140E+02  0.19634877328E+02  0.36396067628E+02  0.47787259948E+02  0.19999949407E+02 0.  0.
        -12    1    1    2    0    0 -0.13168982140E+02 -0.19634877328E+02 -0.36396067628E+02  0.43400740052E+02  0.00000000000E+00 0.  1.
         11    1    3    3    0    0  0.12113463031E+02  0.74487023678E+01  0.24199164466E+02  0.28068108499E+02  0.51100000000E-03 0. -1.
        -11    1    3    3    0    0 -0.24691940918E+01  0.20926019038E+01 -0.32622443076E+00  0.32530485442E+01  0.51100000000E-03 0.  1.
         12    1    3    3    0    0  0.35247131999E+01  0.10093573056E+02  0.12523127593E+02  0.16466102905E+02  0.00000000000E+00 0. -1.
</event>
<event>
 7    1  0.2811980E-010  0.4778727E+02  0.7816164E-02  0.1312668E+00
        -11   -1    0    0    0    0  0.00000000000E+00  0.00000000000E+00  0.45593999997E+02  0.45594000000E+02  0.51100000000E-03 0.  1.
         11   -1    0    0    0    0 -0.00000000000E+00 -0.00000000000E+00 -0.45593999997E+02  0.45594000000E+02  0.51100000000E-03 0. -1.
    9900012    2    1    2    0    0  0.22364110090E+02  0.36862996260E+02 -0.49587647177E+01  0.47787271194E+02  0.20000000682E+02 0.  0.
        -12    1    1    2    0    0 -0.22364110090E+02 -0.36862996260E+02  0.49587647177E+01  0.43400728806E+02  0.00000000000E+00 0.  1.
         11    1    3    3    0    0  0.78601043873E+01  0.64531484806E+01  0.55352174802E+01  0.11578557730E+02  0.51100000000E-03 0.  1.
        -11    1    3    3    0    0  0.32805339029E+01  0.16188655704E+02 -0.56263455428E+01  0.17449648725E+02  0.51100000000E-03 0. -1.
         12    1    3    3    0    0  0.11223471800E+02  0.14221192075E+02 -0.48676366551E+01  0.18759064739E+02  0.00000000000E+00 0. -1.
</event>
<event>
 7    1  0.2811980E-010  0.4778727E+02  0.7816164E-02  0.1312668E+00
        -11   -1    0    0    0    0  0.00000000000E+00  0.00000000000E+00  0.45593999997E+02  0.45594000000E+02  0.51100000000E-03 0.  1.
         11   -1    0    0    0    0 -0.00000000000E+00 -0.00000000000E+00 -0.45593999997E+02  0.45594000000E+02  0.51100000000E-03 0. -1.
    9900012    2    1    2    0    0 -0.13833969182E+02  0.33816506630E+02 -0.23424101460E+02  0.47787270131E+02  0.19999995834E+02 0.  0.
        -12    1    1    2    0    0  0.13833969182E+02 -0.33816506630E+02  0.23424101460E+02  0.43400729869E+02  0.00000000000E+00 0.  1.
         11    1    3    3    0    0 -0.51766739241E+00  0.43230699266E+00 -0.53619328333E+01  0.54041829017E+01  0.51100000000E-03 0. -1.
        -11    1    3    3    0    0  0.24773849448E+01  0.34955141740E+01 -0.57461270126E+00  0.43227578608E+01  0.51100000000E-03 0.  1.
         12    1    3    3    0    0 -0.15793686734E+02  0.29888685463E+02 -0.17487555926E+02  0.38060329368E+02  0.00000000000E+00 0. -1.
</event>
<event>
 7    1  0.2811980E-010  0.4778727E+02  0.7816164E-02  0.1312668E+00
        -11   -1    0    0    0    0  0.00000000000E+00  0.00000000000E+00  0.45593999997E+02  0.45594000000E+02  0.51100000000E-03 0.  1.
         11   -1    0    0    0    0 -0.00000000000E+00 -0.00000000000E+00 -0.45593999997E+02  0.45594000000E+02  0.51100000000E-03 0. -1.
    9900012    2    1    2    0    0 -0.21663579361E+02 -0.14245183342E+02 -0.34804989756E+02  0.47787271538E+02  0.20000002248E+02 0.  0.
        -12    1    1    2    0    0  0.21663579361E+02  0.14245183342E+02  0.34804989756E+02  0.43400728462E+02  0.00000000000E+00 0.  1.
         11    1    3    3    0    0 -0.14190927076E+02 -0.11802840156E+02 -0.24284034601E+02  0.30502520941E+02  0.51100000000E-03 0. -1.
        -11    1    3    3    0    0  0.16460593731E+01 -0.32897683976E+01 -0.50492007787E+00  0.37130892954E+01  0.51100000000E-03 0.  1.
         12    1    3    3    0    0 -0.91187116583E+01  0.84742521208E+00 -0.10016035077E+02  0.13571661301E+02  0.00000000000E+00 0. -1.
</event>
<event>
 7    1  0.2811980E-010  0.4778727E+02  0.7816164E-02  0.1312668E+00
        -11   -1    0    0    0    0  0.00000000000E+00  0.00000000000E+00  0.45593999997E+02  0.45594000000E+02  0.51100000000E-03 0.  1.
         11   -1    0    0    0    0 -0.00000000000E+00 -0.00000000000E+00 -0.45593999997E+02  0.45594000000E+02  0.51100000000E-03 0. -1.
    9900012    2    1    2    0    0  0.88532528431E+01  0.40328008424E+02 -0.13375165869E+02  0.47787269461E+02  0.19999992778E+02 0.  0.
        -12    1    1    2    0    0 -0.88532528431E+01 -0.40328008424E+02  0.13375165869E+02  0.43400730539E+02  0.00000000000E+00 0.  1.
         11    1    3    3    0    0 -0.15091182841E+00  0.97051410358E+01 -0.77759574252E+01  0.12436963096E+02  0.51100000000E-03 0. -1.
        -11    1    3    3    0    0  0.20895289032E+01 -0.28514436910E+00  0.18597885830E+01  0.28118058580E+01  0.51100000000E-03 0.  1.
        -12    1    3    3    0    0  0.69146357684E+01  0.30908011757E+02 -0.74589970269E+01  0.32538500507E+02  0.00000000000E+00 0.  1.
</event>
<event>
 7    1  0.2811980E-010  0.4778728E+02  0.7816164E-02  0.1312668E+00
        -11   -1    0    0    0    0  0.00000000000E+00  0.00000000000E+00  0.45593999997E+02  0.45594000000E+02  0.51100000000E-03 0. -1.
         11   -1    0    0    0    0 -0.00000000000E+00 -0.00000000000E+00 -0.45593999997E+02  0.45594000000E+02  0.51100000000E-03 0.  1.
    9900012    2    1    2    0    0  0.15664540912E+02 -0.84266890094E+00  0.40466465729E+02  0.47787276717E+02  0.20000025864E+02 0.  0.
        -12    1    1    2    0    0 -0.15664540912E+02  0.84266890094E+00 -0.40466465729E+02  0.43400723283E+02  0.00000000000E+00 0.  1.
         11    1    3    3    0    0  0.41091565028E+01 -0.60934850096E+01  0.15645804074E+02  0.17286032284E+02  0.51100000000E-03 0. -1.
        -11    1    3    3    0    0  0.60338259496E+01  0.72318130242E+01  0.69856537366E+01  0.11726275351E+02  0.51100000000E-03 0.  1.
        -12    1    3    3    0    0  0.55215584595E+01 -0.19809969156E+01  0.17835007918E+02  0.18774969082E+02  0.00000000000E+00 0.  1.
</event>
<event>
 7    1  0.2811980E-010  0.4778728E+02  0.7816164E-02  0.1312668E+00
        -11   -1    0    0    0    0  0.00000000000E+00  0.00000000000E+00  0.45593999997E+02  0.45594000000E+02  0.51100000000E-03 0.  1.
         11   -1    0    0    0    0 -0.00000000000E+00 -0.00000000000E+00 -0.45593999997E+02  0.45594000000E+02  0.51100000000E-03 0. -1.
    9900012    2    1    2    0    0  0.37334826128E+02  0.19698040499E+02 -0.10085634827E+02  0.47787284897E+02  0.20000063161E+02 0.  0.
        -12    1    1    2    0    0 -0.37334826128E+02 -0.19698040499E+02  0.10085634827E+02  0.43400715103E+02  0.00000000000E+00 0.  1.
         11    1    3    3    0    0  0.20100630986E+02  0.89845106976E+01  0.38681093599E+01  0.22354397079E+02  0.51100000000E-03 0. -1.
        -11    1    3    3    0    0  0.10037487872E+02  0.60615490816E+01 -0.11716798441E+02  0.16576396051E+02  0.51100000000E-03 0.  1.
         12    1    3    3    0    0  0.71967072707E+01  0.46519807198E+01 -0.22369457458E+01  0.88564917675E+01  0.00000000000E+00 0. -1.
</event>
<event>
 7    1  0.2811980E-010  0.4778727E+02  0.7816164E-02  0.1312668E+00
        -11   -1    0    0    0    0  0.00000000000E+00  0.00000000000E+00  0.45593999997E+02  0.45594000000E+02  0.51100000000E-03 0.  1.
         11   -1    0    0    0    0 -0.00000000000E+00 -0.00000000000E+00 -0.45593999997E+02  0.45594000000E+02  0.51100000000E-03 0. -1.
    9900012    2    1    2    0    0  0.79082802178E+01 -0.86319514873E+01 -0.41792004047E+02  0.47787273223E+02  0.20000009933E+02 0.  0.
        -12    1    1    2    0    0 -0.79082802178E+01  0.86319514873E+01  0.41792004047E+02  0.43400726777E+02  0.00000000000E+00 0.  1.
         11    1    3    3    0    0 -0.13912428087E+01 -0.65684795127E+01 -0.10113843448E+02  0.12139617342E+02  0.51100000000E-03 0. -1.
        -11    1    3    3    0    0  0.10120033517E+02 -0.22881929353E+01 -0.11646014839E+02  0.15597453869E+02  0.51100000000E-03 0.  1.
        -12    1    3    3    0    0 -0.82051049035E+00  0.22472096073E+00 -0.20032145760E+02  0.20050202012E+02  0.00000000000E+00 0.  1.
</event>
<event>
 7    1  0.2811980E-010  0.4778727E+02  0.7816164E-02  0.1312668E+00
        -11   -1    0    0    0    0  0.00000000000E+00  0.00000000000E+00  0.45593999997E+02  0.45594000000E+02  0.51100000000E-03 0. -1.
         11   -1    0    0    0    0 -0.00000000000E+00 -0.00000000000E+00 -0.45593999997E+02  0.45594000000E+02  0.51100000000E-03 0.  1.
    9900012    2    1    2    0    0 -0.13380901172E+02 -0.21309006341E+02  0.35362426136E+02  0.47787269019E+02  0.19999990767E+02 0.  0.
        -12    1    1    2    0    0  0.13380901172E+02  0.21309006341E+02 -0.35362426136E+02  0.43400730981E+02  0.00000000000E+00 0.  1.
         11    1    3    3    0    0  0.20135843057E+01 -0.82665968721E+01  0.18894117187E+02  0.20721457723E+02  0.51100000000E-03 0. -1.
        -11    1    3    3    0    0 -0.96738254770E+01 -0.12116542419E+02  0.10368365167E+02  0.18651983703E+02  0.51100000000E-03 0.  1.
        -12    1    3    3    0    0 -0.57206600010E+01 -0.92586704958E+00  0.60999437812E+01  0.84138275936E+01  0.00000000000E+00 0.  1.
</event>
<event>
 7    1  0.2811980E-010  0.4778727E+02  0.7816164E-02  0.1312668E+00
        -11   -1    0    0    0    0  0.00000000000E+00  0.00000000000E+00  0.45593999997E+02  0.45594000000E+02  0.51100000000E-03 0.  1.
         11   -1    0    0    0    0 -0.00000000000E+00 -0.00000000000E+00 -0.45593999997E+02  0.45594000000E+02  0.51100000000E-03 0. -1.
    9900012    2    1    2    0    0  0.69091847707E+01  0.39950176263E+02  0.15487726169E+02  0.47787273283E+02  0.20000010208E+02 0.  0.
        -12    1    1    2    0    0 -0.69091847707E+01 -0.39950176263E+02 -0.15487726169E+02  0.43400726717E+02  0.00000000000E+00 0.  1.
         11    1    3    3    0    0 -0.19595501417E+00  0.93584312937E+01 -0.40424349445E+01  0.10196073518E+02  0.51100000000E-03 0. -1.
        -11    1    3    3    0    0 -0.92975243408E+00  0.70960928537E+00  0.57306714528E+00  0.13024558114E+01  0.51100000000E-03 0.  1.
         12    1    3    3    0    0  0.80348922189E+01  0.29882135684E+02  0.18957093968E+02  0.36288743954E+02  0.00000000000E+00 0. -1.
</event>
<event>
 7    1  0.2811980E-010  0.4778727E+02  0.7816164E-02  0.1312668E+00
        -11   -1    0    0    0    0  0.00000000000E+00  0.00000000000E+00  0.45593999997E+02  0.45594000000E+02  0.51100000000E-03 0.  1.
         11   -1    0    0    0    0 -0.00000000000E+00 -0.00000000000E+00 -0.45593999997E+02  0.45594000000E+02  0.51100000000E-03 0. -1.
    9900012    2    1    2    0    0 -0.12477305604E+02 -0.32837305229E+02 -0.25488259482E+02  0.47787272573E+02  0.20000006967E+02 0.  0.
        -12    1    1    2    0    0  0.12477305604E+02  0.32837305229E+02  0.25488259482E+02  0.43400727427E+02  0.00000000000E+00 0.  1.
         11    1    3    3    0    0 -0.62508235044E+01 -0.29968351751E+01 -0.13097573108E+02  0.14818914843E+02  0.51100000000E-03 0. -1.
        -11    1    3    3    0    0 -0.31012609572E+01 -0.15960078855E+02 -0.55350819108E+01  0.17174954690E+02  0.51100000000E-03 0.  1.
         12    1    3    3    0    0 -0.31252211421E+01 -0.13880391199E+02 -0.68556044637E+01  0.15793403040E+02  0.00000000000E+00 0. -1.
</event>
<event>
 7    1  0.4225917E-010  0.4778727E+02  0.7816164E-02  0.1312668E+00
        -11   -1    0    0    0    0  0.00000000000E+00  0.00000000000E+00  0.45593999997E+02  0.45594000000E+02  0.51100000000E-03 0. -1.
         11   -1    0    0    0    0 -0.00000000000E+00 -0.00000000000E+00 -0.45593999997E+02  0.45594000000E+02  0.51100000000E-03 0.  1.
    9900012    2    1    2    0    0  0.32503679816E+02  0.19956180810E+01  0.28690613544E+02  0.47787274215E+02  0.20000014456E+02 0.  0.
        -12    1    1    2    0    0 -0.32503679816E+02 -0.19956180810E+01 -0.28690613544E+02  0.43400725785E+02  0.00000000000E+00 0.  1.
         11    1    3    3    0    0  0.17159952368E+02 -0.91823885681E+00  0.17901397691E+02  0.24814656303E+02  0.51100000000E-03 0. -1.
        -11    1    3    3    0    0  0.20471590142E+01 -0.31538592063E+01 -0.13276354913E+01  0.39875185493E+01  0.51100000000E-03 0.  1.
        -12    1    3    3    0    0  0.13296568434E+02  0.60677161441E+01  0.12116851344E+02  0.18985099363E+02  0.00000000000E+00 0.  1.
</event>
<event>
 7    1  0.2811980E-010  0.4778727E+02  0.7816164E-02  0.1312668E+00
        -11   -1    0    0    0    0  0.00000000000E+00  0.00000000000E+00  0.45593999997E+02  0.45594000000E+02  0.51100000000E-03 0.  1.
         11   -1    0    0    0    0 -0.00000000000E+00 -0.00000000000E+00 -0.45593999997E+02  0.45594000000E+02  0.51100000000E-03 0. -1.
    9900012    2    1    2    0    0 -0.10133062837E+02  0.21238038355E+02 -0.36467657316E+02  0.47787271138E+02  0.20000000425E+02 0.  0.
        -12    1    1    2    0    0  0.10133062837E+02 -0.21238038355E+02  0.36467657316E+02  0.43400728862E+02  0.00000000000E+00 0.  1.
         11    1    3    3    0    0 -0.43289957003E+01  0.18153118397E+02 -0.32697889698E+02  0.37648743701E+02  0.51100000000E-03 0. -1.
        -11    1    3    3    0    0 -0.21597938446E+01 -0.20557796278E+01 -0.20101802680E+01  0.35960762367E+01  0.51100000000E-03 0.  1.
         12    1    3    3    0    0 -0.36442732925E+01  0.51406995856E+01 -0.17595873506E+01  0.65424511999E+01  0.00000000000E+00 0. -1.
</event>
<event>
 7    1  0.2811980E-010  0.4778727E+02  0.7816164E-02  0.1312668E+00
        -11   -1    0    0    0    0  0.00000000000E+00  0.00000000000E+00  0.45593999997E+02  0.45594000000E+02  0.51100000000E-03 0.  1.
         11   -1    0    0    0    0 -0.00000000000E+00 -0.00000000000E+00 -0.45593999997E+02  0.45594000000E+02  0.51100000000E-03 0. -1.
    9900012    2    1    2    0    0 -0.14573806304E+02 -0.36699488693E+02 -0.18010415757E+02  0.47787269865E+02  0.19999994623E+02 0.  0.
        -12    1    1    2    0    0  0.14573806304E+02  0.36699488693E+02  0.18010415757E+02  0.43400730135E+02  0.00000000000E+00 0.  1.
         11    1    3    3    0    0 -0.11870741240E+02 -0.28096574778E+02 -0.46785939985E+01  0.30858082473E+02  0.51100000000E-03 0. -1.
        -11    1    3    3    0    0  0.37154566020E+00 -0.68885561235E+01 -0.92471049825E+01  0.11536862765E+02  0.51100000000E-03 0.  1.
         12    1    3    3    0    0 -0.30746107244E+01 -0.17143577913E+01 -0.40847167758E+01  0.53923246269E+01  0.00000000000E+00 0. -1.
</event>
<event>
 7    1  0.2811980E-010  0.4778727E+02  0.7816164E-02  0.1312668E+00
        -11   -1    0    0    0    0  0.00000000000E+00  0.00000000000E+00  0.45593999997E+02  0.45594000000E+02  0.51100000000E-03 0.  1.
         11   -1    0    0    0    0 -0.00000000000E+00 -0.00000000000E+00 -0.45593999997E+02  0.45594000000E+02  0.51100000000E-03 0. -1.
    9900012    2    1    2    0    0 -0.21433710163E+02  0.37324508511E+02 -0.55767742809E+01  0.47787270993E+02  0.19999999767E+02 0.  0.
        -12    1    1    2    0    0  0.21433710163E+02 -0.37324508511E+02  0.55767742809E+01  0.43400729007E+02  0.00000000000E+00 0.  1.
         11    1    3    3    0    0 -0.48428077060E+01  0.17423942380E+02 -0.64663698399E+01  0.19205741166E+02  0.51100000000E-03 0. -1.
        -11    1    3    3    0    0 -0.67643669234E+01  0.17029458884E+02  0.86451242669E+00  0.18344113817E+02  0.51100000000E-03 0.  1.
         12    1    3    3    0    0 -0.98265355333E+01  0.28711072470E+01  0.25083132264E-01  0.10237416011E+02  0.00000000000E+00 0. -1.
</event>
<event>
 7    1  0.2811980E-010  0.4778727E+02  0.7816164E-02  0.1312668E+00
        -11   -1    0    0    0    0  0.00000000000E+00  0.00000000000E+00  0.45593999997E+02  0.45594000000E+02  0.51100000000E-03 0.  1.
         11   -1    0    0    0    0 -0.00000000000E+00 -0.00000000000E+00 -0.45593999997E+02  0.45594000000E+02  0.51100000000E-03 0. -1.
    9900012    2    1    2    0    0 -0.26622912525E+01  0.43276088778E+02  0.19276035027E+01  0.47787270630E+02  0.19999998108E+02 0.  0.
        -12    1    1    2    0    0  0.26622912525E+01 -0.43276088778E+02 -0.19276035027E+01  0.43400729370E+02  0.00000000000E+00 0.  1.
         11    1    3    3    0    0 -0.21432722175E+01  0.11332091641E+02  0.29200392064E+00  0.11536688576E+02  0.51100000000E-03 0. -1.
        -11    1    3    3    0    0 -0.53143289471E+01  0.19680962914E+01 -0.10918182248E+01  0.57712704378E+01  0.51100000000E-03 0.  1.
        -12    1    3    3    0    0  0.47953099120E+01  0.29975900845E+02  0.27274178068E+01  0.30479311615E+02  0.00000000000E+00 0.  1.
</event>
<event>
 7    1  0.2811980E-010  0.4778727E+02  0.7816164E-02  0.1312668E+00
        -11   -1    0    0    0    0  0.00000000000E+00  0.00000000000E+00  0.45593999997E+02  0.45594000000E+02  0.51100000000E-03 0.  1.
         11   -1    0    0    0    0 -0.00000000000E+00 -0.00000000000E+00 -0.45593999997E+02  0.45594000000E+02  0.51100000000E-03 0. -1.
    9900012    2    1    2    0    0  0.30913454065E+02  0.17319953321E+02 -0.25059942855E+02  0.47787272343E+02  0.20000005920E+02 0.  0.
        -12    1    1    2    0    0 -0.30913454065E+02 -0.17319953321E+02  0.25059942855E+02  0.43400727657E+02  0.00000000000E+00 0.  1.
         11    1    3    3    0    0  0.89166567643E+01  0.34222893900E+01  0.27450888317E+00  0.95547992082E+01  0.51100000000E-03 0. -1.
        -11    1    3    3    0    0  0.89512118609E+00  0.13243894005E+01  0.12558689486E+01  0.20328443863E+01  0.51100000000E-03 0.  1.
         12    1    3    3    0    0  0.21101676114E+02  0.12573274530E+02 -0.26590320687E+02  0.36199628748E+02  0.00000000000E+00 0. -1.
</event>
<event>
 7    1  0.2811980E-010  0.4778727E+02  0.7816164E-02  0.1312668E+00
        -11   -1    0    0    0    0  0.00000000000E+00  0.00000000000E+00  0.45593999997E+02  0.45594000000E+02  0.51100000000E-03 0.  1.
         11   -1    0    0    0    0 -0.00000000000E+00 -0.00000000000E+00 -0.45593999997E+02  0.45594000000E+02  0.51100000000E-03 0. -1.
    9900012    2    1    2    0    0  0.30575369820E+02 -0.22006515759E+02 -0.21551872980E+02  0.47787271845E+02  0.20000003651E+02 0.  0.
        -12    1    1    2    0    0 -0.30575369820E+02  0.22006515759E+02  0.21551872980E+02  0.43400728155E+02  0.00000000000E+00 0.  1.
         11    1    3    3    0    0  0.95928482480E+01 -0.43084891294E+00 -0.10642789105E+02  0.14334480405E+02  0.51100000000E-03 0. -1.
        -11    1    3    3    0    0  0.12414267538E+02 -0.10789324996E+02 -0.98906678362E+00  0.16477312455E+02  0.51100000000E-03 0.  1.
        -12    1    3    3    0    0  0.85682540338E+01 -0.10786341849E+02 -0.99200170910E+01  0.16975478985E+02  0.00000000000E+00 0.  1.
</event>
<event>
 7    1  0.2811980E-010  0.4778726E+02  0.7816164E-02  0.1312668E+00
        -11   -1    0    0    0    0  0.00000000000E+00  0.00000000000E+00  0.45593999997E+02  0.45594000000E+02  0.51100000000E-03 0.  1.
         11   -1    0    0    0    0 -0.00000000000E+00 -0.00000000000E+00 -0.45593999997E+02  0.45594000000E+02  0.51100000000E-03 0. -1.
    9900012    2    1    2    0    0 -0.11840106530E+02 -0.32956513337E+02 -0.25637939453E+02  0.47787264599E+02  0.19999970613E+02 0.  0.
        -12    1    1    2    0    0  0.11840106530E+02  0.32956513337E+02  0.25637939453E+02  0.43400735401E+02  0.00000000000E+00 0.  1.
         11    1    3    3    0    0 -0.86652230630E+01 -0.22357466781E+02 -0.14280246454E+02  0.27908204003E+02  0.51100000000E-03 0. -1.
        -11    1    3    3    0    0 -0.33101737256E+01 -0.98137628240E+00  0.15476073753E+01  0.37835748110E+01  0.51100000000E-03 0.  1.
        -12    1    3    3    0    0  0.13529025812E+00 -0.96176702729E+01 -0.12905300374E+02  0.16095485785E+02  0.00000000000E+00 0.  1.
</event>
<event>
 7    1  0.2811980E-010  0.4778727E+02  0.7816164E-02  0.1312668E+00
        -11   -1    0    0    0    0  0.00000000000E+00  0.00000000000E+00  0.45593999997E+02  0.45594000000E+02  0.51100000000E-03 0.  1.
         11   -1    0    0    0    0 -0.00000000000E+00 -0.00000000000E+00 -0.45593999997E+02  0.45594000000E+02  0.51100000000E-03 0. -1.
    9900012    2    1    2    0    0 -0.16441684519E+02  0.14470817963E+02 -0.37468514359E+02  0.47787272695E+02  0.20000007525E+02 0.  0.
        -12    1    1    2    0    0  0.16441684519E+02 -0.14470817963E+02  0.37468514359E+02  0.43400727305E+02  0.00000000000E+00 0.  1.
         11    1    3    3    0    0 -0.87228160959E+01 -0.17462679607E+01 -0.61491957673E+01  0.10814322969E+02  0.51100000000E-03 0. -1.
        -11    1    3    3    0    0  0.72161350975E+00  0.19960832750E+01 -0.86873593188E+01  0.89428902875E+01  0.51100000000E-03 0.  1.
         12    1    3    3    0    0 -0.84404819325E+01  0.14221002649E+02 -0.22631959273E+02  0.28030059438E+02  0.00000000000E+00 0. -1.
</event>
<event>
 7    1  0.2811980E-010  0.4778727E+02  0.7816164E-02  0.1312668E+00
        -11   -1    0    0    0    0  0.00000000000E+00  0.00000000000E+00  0.45593999997E+02  0.45594000000E+02  0.51100000000E-03 0. -1.
         11   -1    0    0    0    0 -0.00000000000E+00 -0.00000000000E+00 -0.45593999997E+02  0.45594000000E+02  0.51100000000E-03 0.  1.
    9900012    2    1    2    0    0 -0.35768610455E+02 -0.24167442672E+02 -0.44904623218E+01  0.47787273842E+02  0.20000012754E+02 0.  0.
        -12    1    1    2    0    0  0.35768610455E+02  0.24167442672E+02  0.44904623218E+01  0.43400726158E+02  0.00000000000E+00 0.  1.
         11    1    3    3    0    0  0.18942572460E+00  0.20860309900E+01  0.56140746732E+00  0.21685446737E+01  0.51100000000E-03 0.  1.
        -11    1    3    3    0    0 -0.18656067808E+02 -0.18782970983E+02 -0.23045135808E+01  0.26573664559E+02  0.51100000000E-03 0. -1.
         12    1    3    3    0    0 -0.17301968372E+02 -0.74705026788E+01 -0.27473562084E+01  0.19045064609E+02  0.00000000000E+00 0. -1.
</event>
<event>
 7    1  0.2811980E-010  0.4778727E+02  0.7816164E-02  0.1312668E+00
        -11   -1    0    0    0    0  0.00000000000E+00  0.00000000000E+00  0.45593999997E+02  0.45594000000E+02  0.51100000000E-03 0. -1.
         11   -1    0    0    0    0 -0.00000000000E+00 -0.00000000000E+00 -0.45593999997E+02  0.45594000000E+02  0.51100000000E-03 0.  1.
    9900012    2    1    2    0    0  0.22767164903E+02 -0.34714422563E+02  0.12656549512E+02  0.47787272159E+02  0.20000005080E+02 0.  0.
        -12    1    1    2    0    0 -0.22767164903E+02  0.34714422563E+02 -0.12656549512E+02  0.43400727841E+02  0.00000000000E+00 0.  1.
         11    1    3    3    0    0  0.37336342585E+01 -0.12062721512E+02  0.11151530298E+02  0.16846539802E+02  0.51100000000E-03 0. -1.
        -11    1    3    3    0    0  0.84201475462E+01 -0.44658304572E+01 -0.15747423811E+01  0.96603488653E+01  0.51100000000E-03 0.  1.
        -12    1    3    3    0    0  0.10613383098E+02 -0.18185870595E+02  0.30797615951E+01  0.21280383492E+02  0.00000000000E+00 0.  1.
</event>
<event>
 7    1  0.2811980E-010  0.4778727E+02  0.7816164E-02  0.1312668E+00
        -11   -1    0    0    0    0  0.00000000000E+00  0.00000000000E+00  0.45593999997E+02  0.45594000000E+02  0.51100000000E-03 0. -1.
         11   -1    0    0    0    0 -0.00000000000E+00 -0.00000000000E+00 -0.45593999997E+02  0.45594000000E+02  0.51100000000E-03 0.  1.
    9900012    2    1    2    0    0  0.37799615956E+02  0.13832711603E+02 -0.16231705506E+02  0.47787272583E+02  0.20000007016E+02 0.  0.
        -12    1    1    2    0    0 -0.37799615956E+02 -0.13832711603E+02  0.16231705506E+02  0.43400727417E+02  0.00000000000E+00 0.  1.
         11    1    3    3    0    0  0.31445546334E+02  0.13656588566E+02 -0.89096728211E+01  0.35421844468E+02  0.51100000000E-03 0. -1.
        -11    1    3    3    0    0 -0.14970542212E+01  0.92255392776E+00 -0.27064024437E+01  0.32275209587E+01  0.51100000000E-03 0.  1.
         12    1    3    3    0    0  0.78511238428E+01 -0.74643089066E+00 -0.46156302413E+01  0.91379071561E+01  0.00000000000E+00 0. -1.
</event>
<event>
 7    1  0.2811980E-010  0.4778727E+02  0.7816164E-02  0.1312668E+00
        -11   -1    0    0    0    0  0.00000000000E+00  0.00000000000E+00  0.45593999997E+02  0.45594000000E+02  0.51100000000E-03 0.  1.
         11   -1    0    0    0    0 -0.00000000000E+00 -0.00000000000E+00 -0.45593999997E+02  0.45594000000E+02  0.51100000000E-03 0. -1.
    9900012    2    1    2    0    0 -0.41177685515E+02 -0.11321139378E+02  0.77365041735E+01  0.47787268692E+02  0.19999989276E+02 0.  0.
        -12    1    1    2    0    0  0.41177685515E+02  0.11321139378E+02 -0.77365041735E+01  0.43400731308E+02  0.00000000000E+00 0.  1.
         11    1    3    3    0    0 -0.33383301416E+02 -0.10220611680E+02  0.45501844674E+01  0.35208094176E+02  0.51100000000E-03 0. -1.
        -11    1    3    3    0    0 -0.67390569596E+01 -0.42901518082E+01  0.42580567297E+01  0.90526978640E+01  0.51100000000E-03 0.  1.
         12    1    3    3    0    0 -0.10553271393E+01  0.31896241097E+01 -0.10717370236E+01  0.35264766524E+01  0.00000000000E+00 0. -1.
</event>
<event>
 7    1  0.2811980E-010  0.4778727E+02  0.7816164E-02  0.1312668E+00
        -11   -1    0    0    0    0  0.00000000000E+00  0.00000000000E+00  0.45593999997E+02  0.45594000000E+02  0.51100000000E-03 0.  1.
         11   -1    0    0    0    0 -0.00000000000E+00 -0.00000000000E+00 -0.45593999997E+02  0.45594000000E+02  0.51100000000E-03 0. -1.
    9900012    2    1    2    0    0  0.19898730922E+02 -0.29962155122E+02 -0.24288530597E+02  0.47787274771E+02  0.20000016992E+02 0.  0.
        -12    1    1    2    0    0 -0.19898730922E+02  0.29962155122E+02  0.24288530597E+02  0.43400725229E+02  0.00000000000E+00 0.  1.
         11    1    3    3    0    0  0.12153552403E+02 -0.20035697280E+02 -0.78588739921E+01  0.24716389344E+02  0.51100000000E-03 0. -1.
        -11    1    3    3    0    0  0.68705920724E+01 -0.14116176468E+01 -0.43071678874E+01  0.82310020822E+01  0.51100000000E-03 0.  1.
         12    1    3    3    0    0  0.87458644617E+00 -0.85148401950E+01 -0.12122488717E+02  0.14839883345E+02  0.00000000000E+00 0. -1.
</event>
<event>
 7    1  0.2811980E-010  0.4778727E+02  0.7816164E-02  0.1312668E+00
        -11   -1    0    0    0    0  0.00000000000E+00  0.00000000000E+00  0.45593999997E+02  0.45594000000E+02  0.51100000000E-03 0.  1.
         11   -1    0    0    0    0 -0.00000000000E+00 -0.00000000000E+00 -0.45593999997E+02  0.45594000000E+02  0.51100000000E-03 0. -1.
    9900012    2    1    2    0    0 -0.20579000353E+02 -0.23012693683E+02 -0.30504819132E+02  0.47787270555E+02  0.19999997771E+02 0.  0.
        -12    1    1    2    0    0  0.20579000353E+02  0.23012693683E+02  0.30504819132E+02  0.43400729445E+02  0.00000000000E+00 0.  1.
         11    1    3    3    0    0 -0.16085208983E+02 -0.11708647318E+02 -0.28016088086E+02  0.34361716516E+02  0.51100000000E-03 0. -1.
        -11    1    3    3    0    0 -0.81240383758E+00 -0.44412644445E+01  0.13916075833E+01  0.47245530781E+01  0.51100000000E-03 0.  1.
        -12    1    3    3    0    0 -0.36813875321E+01 -0.68627819205E+01 -0.38803386294E+01  0.87010009613E+01  0.00000000000E+00 0.  1.
</event>
<event>
 7    1  0.2811980E-010  0.4778727E+02  0.7816164E-02  0.1312668E+00
        -11   -1    0    0    0    0  0.00000000000E+00  0.00000000000E+00  0.45593999997E+02  0.45594000000E+02  0.51100000000E-03 0.  1.
         11   -1    0    0    0    0 -0.00000000000E+00 -0.00000000000E+00 -0.45593999997E+02  0.45594000000E+02  0.51100000000E-03 0. -1.
    9900012    2    1    2    0    0  0.18579734034E+02 -0.31041733284E+02 -0.23975556623E+02  0.47787273768E+02  0.20000012419E+02 0.  0.
        -12    1    1    2    0    0 -0.18579734034E+02  0.31041733284E+02  0.23975556623E+02  0.43400726232E+02  0.00000000000E+00 0.  1.
         11    1    3    3    0    0  0.16764502644E+02 -0.32051184335E+02 -0.23636249598E+02  0.43208786855E+02  0.51100000000E-03 0. -1.
        -11    1    3    3    0    0  0.53200609540E+00 -0.18816607694E+00  0.17563965109E+01  0.18448213796E+01  0.51100000000E-03 0.  1.
         12    1    3    3    0    0  0.12832252946E+01  0.11976171276E+01 -0.20957035355E+01  0.27336655336E+01  0.00000000000E+00 0. -1.
</event>
<event>
 7    1  0.2811980E-010  0.4778727E+02  0.7816164E-02  0.1312668E+00
        -11   -1    0    0    0    0  0.00000000000E+00  0.00000000000E+00  0.45593999997E+02  0.45594000000E+02  0.51100000000E-03 0.  1.
         11   -1    0    0    0    0 -0.00000000000E+00 -0.00000000000E+00 -0.45593999997E+02  0.45594000000E+02  0.51100000000E-03 0. -1.
    9900012    2    1    2    0    0  0.29374415012E+02  0.43939187675E+01 -0.31645863627E+02  0.47787268852E+02  0.19999990006E+02 0.  0.
        -12    1    1    2    0    0 -0.29374415012E+02 -0.43939187675E+01  0.31645863627E+02  0.43400731148E+02  0.00000000000E+00 0.  1.
         11    1    3    3    0    0 -0.21324972965E+00  0.40729059141E+01 -0.31222305506E+01  0.51363763398E+01  0.51100000000E-03 0.  1.
        -11    1    3    3    0    0  0.23047005580E+02 -0.21008511634E+01 -0.26908871399E+02  0.35491765271E+02  0.51100000000E-03 0. -1.
         12    1    3    3    0    0  0.65406591615E+01  0.24218640168E+01 -0.16147616772E+01  0.71591272413E+01  0.00000000000E+00 0. -1.
</event>
<event>
 7    1  0.2811980E-010  0.4778727E+02  0.7816164E-02  0.1312668E+00
        -11   -1    0    0    0    0  0.00000000000E+00  0.00000000000E+00  0.45593999997E+02  0.45594000000E+02  0.51100000000E-03 0.  1.
         11   -1    0    0    0    0 -0.00000000000E+00 -0.00000000000E+00 -0.45593999997E+02  0.45594000000E+02  0.51100000000E-03 0. -1.
    9900012    2    1    2    0    0  0.29921951943E+02  0.27722980407E+02 -0.14823505295E+02  0.47787272357E+02  0.20000005984E+02 0.  0.
        -12    1    1    2    0    0 -0.29921951943E+02 -0.27722980407E+02  0.14823505295E+02  0.43400727643E+02  0.00000000000E+00 0.  1.
         11    1    3    3    0    0  0.11073213777E+02  0.62913060058E+01 -0.12604249124E+02  0.17918250217E+02  0.51100000000E-03 0. -1.
        -11    1    3    3    0    0  0.90117867498E+01  0.16245433709E+02 -0.25004305818E+01  0.18745094563E+02  0.51100000000E-03 0.  1.
        -12    1    3    3    0    0  0.98369514163E+01  0.51862406923E+01  0.28117441045E+00  0.11123927577E+02  0.00000000000E+00 0.  1.
</event>
<event>
 7    1  0.2811980E-010  0.4778727E+02  0.7816164E-02  0.1312668E+00
        -11   -1    0    0    0    0  0.00000000000E+00  0.00000000000E+00  0.45593999997E+02  0.45594000000E+02  0.51100000000E-03 0.  1.
         11   -1    0    0    0    0 -0.00000000000E+00 -0.00000000000E+00 -0.45593999997E+02  0.45594000000E+02  0.51100000000E-03 0. -1.
    9900012    2    1    2    0    0  0.16469157796E+02  0.15320886201E+02 -0.37116847584E+02  0.47787273196E+02  0.20000009811E+02 0.  0.
        -12    1    1    2    0    0 -0.16469157796E+02 -0.15320886201E+02  0.37116847584E+02  0.43400726804E+02  0.00000000000E+00 0.  1.
         11    1    3    3    0    0 -0.86087361245E+00 -0.14815822441E+01 -0.13896775787E+02  0.14002020099E+02  0.51100000000E-03 0.  1.
        -11    1    3    3    0    0  0.14687438224E+02  0.12811942539E+02 -0.20472850370E+02  0.28266664390E+02  0.51100000000E-03 0. -1.
        -12    1    3    3    0    0  0.26425931848E+01  0.39905259063E+01 -0.27472214273E+01  0.55185887073E+01  0.00000000000E+00 0.  1.
</event>
<event>
 7    1  0.2811980E-010  0.4778727E+02  0.7816164E-02  0.1312668E+00
        -11   -1    0    0    0    0  0.00000000000E+00  0.00000000000E+00  0.45593999997E+02  0.45594000000E+02  0.51100000000E-03 0. -1.
         11   -1    0    0    0    0 -0.00000000000E+00 -0.00000000000E+00 -0.45593999997E+02  0.45594000000E+02  0.51100000000E-03 0.  1.
    9900012    2    1    2    0    0  0.41149827771E+02  0.13505165716E+02  0.28152376541E+01  0.47787269711E+02  0.19999993919E+02 0.  0.
        -12    1    1    2    0    0 -0.41149827771E+02 -0.13505165716E+02 -0.28152376541E+01  0.43400730289E+02  0.00000000000E+00 0.  1.
         11    1    3    3    0    0  0.12376770512E+02  0.49185593249E+01  0.20219377715E+01  0.13470891089E+02  0.51100000000E-03 0. -1.
        -11    1    3    3    0    0  0.25242477665E+02  0.12054798260E+02  0.42297869124E+01  0.28291198938E+02  0.51100000000E-03 0.  1.
        -12    1    3    3    0    0  0.35305795942E+01 -0.34681918688E+01 -0.34364870298E+01  0.60251796832E+01  0.00000000000E+00 0.  1.
</event>
<event>
 7    1  0.2811980E-010  0.4778727E+02  0.7816164E-02  0.1312668E+00
        -11   -1    0    0    0    0  0.00000000000E+00  0.00000000000E+00  0.45593999997E+02  0.45594000000E+02  0.51100000000E-03 0.  1.
         11   -1    0    0    0    0 -0.00000000000E+00 -0.00000000000E+00 -0.45593999997E+02  0.45594000000E+02  0.51100000000E-03 0. -1.
    9900012    2    1    2    0    0  0.89560802603E+01  0.25083445565E+02 -0.34267076889E+02  0.47787272200E+02  0.20000005268E+02 0.  0.
        -12    1    1    2    0    0 -0.89560802603E+01 -0.25083445565E+02  0.34267076889E+02  0.43400727800E+02  0.00000000000E+00 0.  1.
         11    1    3    3    0    0  0.64792466400E+01  0.15701331364E+02 -0.17377458407E+02  0.24299969230E+02  0.51100000000E-03 0. -1.
        -11    1    3    3    0    0 -0.48959814339E+00  0.11788917431E+02 -0.94222457732E+01  0.15099569404E+02  0.51100000000E-03 0.  1.
        -12    1    3    3    0    0  0.29664317637E+01 -0.24068032294E+01 -0.74673727094E+01  0.83877335660E+01  0.00000000000E+00 0.  1.
</event>
<event>
 7    1  0.2811980E-010  0.4778727E+02  0.7816164E-02  0.1312668E+00
        -11   -1    0    0    0    0  0.00000000000E+00  0.00000000000E+00  0.45593999997E+02  0.45594000000E+02  0.51100000000E-03 0.  1.
         11   -1    0    0    0    0 -0.00000000000E+00 -0.00000000000E+00 -0.45593999997E+02  0.45594000000E+02  0.51100000000E-03 0. -1.
    9900012    2    1    2    0    0 -0.66924264118E+01  0.22257794926E+02 -0.36652766409E+02  0.47787270840E+02  0.19999999068E+02 0.  0.
        -12    1    1    2    0    0  0.66924264118E+01 -0.22257794926E+02  0.36652766409E+02  0.43400729160E+02  0.00000000000E+00 0.  1.
         11    1    3    3    0    0 -0.80038822321E+01  0.77377211905E+01 -0.16674151116E+02  0.20048984406E+02  0.51100000000E-03 0. -1.
        -11    1    3    3    0    0  0.44018694011E+01  0.15395592556E+02 -0.16183256521E+02  0.22766170434E+02  0.51100000000E-03 0.  1.
        -12    1    3    3    0    0 -0.30904135809E+01 -0.87551882081E+00 -0.37953587716E+01  0.49721159995E+01  0.00000000000E+00 0.  1.
</event>
<event>
 7    1  0.2811980E-010  0.4778727E+02  0.7816164E-02  0.1312668E+00
        -11   -1    0    0    0    0  0.00000000000E+00  0.00000000000E+00  0.45593999997E+02  0.45594000000E+02  0.51100000000E-03 0.  1.
         11   -1    0    0    0    0 -0.00000000000E+00 -0.00000000000E+00 -0.45593999997E+02  0.45594000000E+02  0.51100000000E-03 0. -1.
    9900012    2    1    2    0    0  0.31049337287E+02  0.69916558531E+01 -0.29507266660E+02  0.47787269784E+02  0.19999994254E+02 0.  0.
        -12    1    1    2    0    0 -0.31049337287E+02 -0.69916558531E+01  0.29507266660E+02  0.43400730216E+02  0.00000000000E+00 0.  1.
         11    1    3    3    0    0  0.15411300309E+02  0.34470115168E+01 -0.24719878086E+02  0.29333640048E+02  0.51100000000E-03 0. -1.
        -11    1    3    3    0    0  0.11106379983E+02 -0.12681901291E+01 -0.24658533028E+01  0.11447288556E+02  0.51100000000E-03 0.  1.
         12    1    3    3    0    0  0.45316569954E+01  0.48128344654E+01 -0.23215352716E+01  0.70063411801E+01  0.00000000000E+00 0. -1.
</event>
<event>
 7    1  0.2811980E-010  0.4778727E+02  0.7816164E-02  0.1312668E+00
        -11   -1    0    0    0    0  0.00000000000E+00  0.00000000000E+00  0.45593999997E+02  0.45594000000E+02  0.51100000000E-03 0.  1.
         11   -1    0    0    0    0 -0.00000000000E+00 -0.00000000000E+00 -0.45593999997E+02  0.45594000000E+02  0.51100000000E-03 0. -1.
    9900012    2    1    2    0    0  0.16251947514E+02  0.24425982126E+02 -0.31982317547E+02  0.47787273779E+02  0.20000012469E+02 0.  0.
        -12    1    1    2    0    0 -0.16251947514E+02 -0.24425982126E+02  0.31982317547E+02  0.43400726221E+02  0.00000000000E+00 0.  1.
         11    1    3    3    0    0 -0.41057132528E+01  0.11659248647E+01 -0.46510314757E+01  0.63125554376E+01  0.51100000000E-03 0. -1.
        -11    1    3    3    0    0  0.17351290200E+02  0.17423609147E+02 -0.22413854536E+02  0.33272064900E+02  0.51100000000E-03 0.  1.
         12    1    3    3    0    0  0.30063705668E+01  0.58364481145E+01 -0.49174315350E+01  0.82026534414E+01  0.00000000000E+00 0. -1.
</event>
<event>
 7    1  0.2811980E-010  0.4778727E+02  0.7816164E-02  0.1312668E+00
        -11   -1    0    0    0    0  0.00000000000E+00  0.00000000000E+00  0.45593999997E+02  0.45594000000E+02  0.51100000000E-03 0.  1.
         11   -1    0    0    0    0 -0.00000000000E+00 -0.00000000000E+00 -0.45593999997E+02  0.45594000000E+02  0.51100000000E-03 0. -1.
    9900012    2    1    2    0    0  0.38592690939E+02  0.57449853080E+01 -0.19005859185E+02  0.47787270358E+02  0.19999996869E+02 0.  0.
        -12    1    1    2    0    0 -0.38592690939E+02 -0.57449853080E+01  0.19005859185E+02  0.43400729642E+02  0.00000000000E+00 0.  1.
         11    1    3    3    0    0  0.18509561403E+02  0.11297445752E+02 -0.15243901668E+02  0.26506842177E+02  0.51100000000E-03 0. -1.
        -11    1    3    3    0    0  0.16261658070E+02 -0.53093644811E+01 -0.33221266671E+01  0.17426055212E+02  0.51100000000E-03 0.  1.
         12    1    3    3    0    0  0.38214714657E+01 -0.24309596287E+00 -0.43983084981E+00  0.38543729693E+01  0.00000000000E+00 0. -1.
</event>
<event>
 7    1  0.2811980E-010  0.4778727E+02  0.7816164E-02  0.1312668E+00
        -11   -1    0    0    0    0  0.00000000000E+00  0.00000000000E+00  0.45593999997E+02  0.45594000000E+02  0.51100000000E-03 0. -1.
         11   -1    0    0    0    0 -0.00000000000E+00 -0.00000000000E+00 -0.45593999997E+02  0.45594000000E+02  0.51100000000E-03 0.  1.
    9900012    2    1    2    0    0 -0.19114272438E+02  0.38849982158E+02  0.29911195689E+01  0.47787270504E+02  0.19999997534E+02 0.  0.
        -12    1    1    2    0    0  0.19114272438E+02 -0.38849982158E+02 -0.29911195689E+01  0.43400729496E+02  0.00000000000E+00 0.  1.
         11    1    3    3    0    0 -0.60699046925E+01  0.26525169728E+02  0.28563726969E+01  0.27360322317E+02  0.51100000000E-03 0. -1.
        -11    1    3    3    0    0 -0.14455495879E+02  0.12033487742E+02 -0.58192152313E+00  0.18817673110E+02  0.51100000000E-03 0.  1.
         12    1    3    3    0    0  0.14111281332E+01  0.29132468822E+00  0.71666839509E+00  0.16092750762E+01  0.00000000000E+00 0. -1.
</event>
<event>
 7    1  0.2811980E-010  0.4778727E+02  0.7816164E-02  0.1312668E+00
        -11   -1    0    0    0    0  0.00000000000E+00  0.00000000000E+00  0.45593999997E+02  0.45594000000E+02  0.51100000000E-03 0.  1.
         11   -1    0    0    0    0 -0.00000000000E+00 -0.00000000000E+00 -0.45593999997E+02  0.45594000000E+02  0.51100000000E-03 0. -1.
    9900012    2    1    2    0    0  0.98987396518E+01  0.82195763591E+01 -0.41449686965E+02  0.47787273834E+02  0.20000012720E+02 0.  0.
        -12    1    1    2    0    0 -0.98987396518E+01 -0.82195763591E+01  0.41449686965E+02  0.43400726166E+02  0.00000000000E+00 0.  1.
         11    1    3    3    0    0  0.14145199337E+02  0.88757052785E+01 -0.30086975857E+02  0.34410622269E+02  0.51100000000E-03 0. -1.
        -11    1    3    3    0    0 -0.17698703911E+01  0.23472588378E+01 -0.66025325492E+01  0.72274132009E+01  0.51100000000E-03 0.  1.
         12    1    3    3    0    0 -0.24765892936E+01 -0.30033877571E+01 -0.47601785584E+01  0.61492383640E+01  0.00000000000E+00 0. -1.
</event>
<event>
 7    1  0.2811980E-010  0.4778727E+02  0.7816164E-02  0.1312668E+00
        -11   -1    0    0    0    0  0.00000000000E+00  0.00000000000E+00  0.45593999997E+02  0.45594000000E+02  0.51100000000E-03 0.  1.
         11   -1    0    0    0    0 -0.00000000000E+00 -0.00000000000E+00 -0.45593999997E+02  0.45594000000E+02  0.51100000000E-03 0. -1.
    9900012    2    1    2    0    0 -0.30295221445E+02 -0.15743813766E+02 -0.26794687486E+02  0.47787269686E+02  0.19999993806E+02 0.  0.
        -12    1    1    2    0    0  0.30295221445E+02  0.15743813766E+02  0.26794687486E+02  0.43400730314E+02  0.00000000000E+00 0.  1.
         11    1    3    3    0    0 -0.70348032616E+01 -0.30636487105E+01 -0.10489237424E+02  0.12996095658E+02  0.51100000000E-03 0. -1.
        -11    1    3    3    0    0 -0.25612304707E+02 -0.11972768352E+02 -0.15172577785E+02  0.32086515101E+02  0.51100000000E-03 0.  1.
        -12    1    3    3    0    0  0.23518865235E+01 -0.70739670305E+00 -0.11328722773E+01  0.27046589270E+01  0.00000000000E+00 0.  1.
</event>
<event>
 7    1  0.2811980E-010  0.4778727E+02  0.7816164E-02  0.1312668E+00
        -11   -1    0    0    0    0  0.00000000000E+00  0.00000000000E+00  0.45593999997E+02  0.45594000000E+02  0.51100000000E-03 0. -1.
         11   -1    0    0    0    0 -0.00000000000E+00 -0.00000000000E+00 -0.45593999997E+02  0.45594000000E+02  0.51100000000E-03 0.  1.
    9900012    2    1    2    0    0 -0.32520088439E+02  0.80447462500E+00  0.28730117109E+02  0.47787274653E+02  0.20000016454E+02 0.  0.
        -12    1    1    2    0    0  0.32520088439E+02 -0.80447462500E+00 -0.28730117109E+02  0.43400725347E+02  0.00000000000E+00 0.  1.
         11    1    3    3    0    0 -0.10947188621E+02 -0.50558591972E+01  0.84362389293E+01  0.14716411874E+02  0.51100000000E-03 0. -1.
        -11    1    3    3    0    0 -0.57950666320E+01  0.73874214663E+01  0.11823650386E+02  0.15098195320E+02  0.51100000000E-03 0.  1.
        -12    1    3    3    0    0 -0.15777833186E+02 -0.15270876442E+01  0.84702277937E+01  0.17972667459E+02  0.00000000000E+00 0.  1.
</event>
<event>
 7    1  0.2811980E-010  0.4778727E+02  0.7816164E-02  0.1312668E+00
        -11   -1    0    0    0    0  0.00000000000E+00  0.00000000000E+00  0.45593999997E+02  0.45594000000E+02  0.51100000000E-03 0. -1.
         11   -1    0    0    0    0 -0.00000000000E+00 -0.00000000000E+00 -0.45593999997E+02  0.45594000000E+02  0.51100000000E-03 0.  1.
    9900012    2    1    2    0    0  0.23831343021E+02  0.12702851879E+00 -0.36272223519E+02  0.47787271372E+02  0.20000001495E+02 0.  0.
        -12    1    1    2    0    0 -0.23831343021E+02 -0.12702851879E+00  0.36272223519E+02  0.43400728628E+02  0.00000000000E+00 0.  1.
         11    1    3    3    0    0  0.17951768153E+02  0.45745499369E+01 -0.32142454722E+02  0.37098920237E+02  0.51100000000E-03 0. -1.
        -11    1    3    3    0    0 -0.10493408331E+01 -0.19046055290E+01 -0.21242787441E+01  0.30399340205E+01  0.51100000000E-03 0.  1.
         12    1    3    3    0    0  0.69289157008E+01 -0.25429158891E+01 -0.20054900525E+01  0.76484171145E+01  0.00000000000E+00 0. -1.
</event>
<event>
 7    1  0.2811980E-010  0.4778727E+02  0.7816164E-02  0.1312668E+00
        -11   -1    0    0    0    0  0.00000000000E+00  0.00000000000E+00  0.45593999997E+02  0.45594000000E+02  0.51100000000E-03 0.  1.
         11   -1    0    0    0    0 -0.00000000000E+00 -0.00000000000E+00 -0.45593999997E+02  0.45594000000E+02  0.51100000000E-03 0. -1.
    9900012    2    1    2    0    0 -0.16929360144E+02  0.98439710327E+01 -0.38731332819E+02  0.47787272558E+02  0.20000006900E+02 0.  0.
        -12    1    1    2    0    0  0.16929360144E+02 -0.98439710327E+01  0.38731332819E+02  0.43400727442E+02  0.00000000000E+00 0.  1.
         11    1    3    3    0    0 -0.78269488010E+01  0.23877433298E+01 -0.44039749287E+01  0.92928704487E+01  0.51100000000E-03 0.  1.
        -11    1    3    3    0    0  0.20592538085E+01  0.14400436739E+01 -0.16073476525E+02  0.16268709226E+02  0.51100000000E-03 0. -1.
         12    1    3    3    0    0 -0.11161665152E+02  0.60161840290E+01 -0.18253881365E+02  0.22225692883E+02  0.00000000000E+00 0. -1.
</event>
<event>
 7    1  0.2811980E-010  0.4778727E+02  0.7816164E-02  0.1312668E+00
        -11   -1    0    0    0    0  0.00000000000E+00  0.00000000000E+00  0.45593999997E+02  0.45594000000E+02  0.51100000000E-03 0. -1.
         11   -1    0    0    0    0 -0.00000000000E+00 -0.00000000000E+00 -0.45593999997E+02  0.45594000000E+02  0.51100000000E-03 0.  1.
    9900012    2    1    2    0    0  0.24892638501E+02 -0.34217681462E+02  0.96503997854E+01  0.47787269681E+02  0.19999993785E+02 0.  0.
        -12    1    1    2    0    0 -0.24892638501E+02  0.34217681462E+02 -0.96503997854E+01  0.43400730319E+02  0.00000000000E+00 0.  1.
         11    1    3    3    0    0  0.79398896575E+01 -0.13770882945E+02  0.31261099712E+01  0.16200358905E+02  0.51100000000E-03 0. -1.
        -11    1    3    3    0    0  0.48049763275E+01 -0.11671893284E+02 -0.40387636005E+01  0.13252641322E+02  0.51100000000E-03 0.  1.
        -12    1    3    3    0    0  0.12147772516E+02 -0.87749052339E+01  0.10563053415E+02  0.18334269454E+02  0.00000000000E+00 0.  1.
</event>
<event>
 7    1  0.2811980E-010  0.4778727E+02  0.7816164E-02  0.1312668E+00
        -11   -1    0    0    0    0  0.00000000000E+00  0.00000000000E+00  0.45593999997E+02  0.45594000000E+02  0.51100000000E-03 0.  1.
         11   -1    0    0    0    0 -0.00000000000E+00 -0.00000000000E+00 -0.45593999997E+02  0.45594000000E+02  0.51100000000E-03 0. -1.
    9900012    2    1    2    0    0  0.35046845761E+02 -0.69359812490E+01 -0.24642116028E+02  0.47787272863E+02  0.20000008292E+02 0.  0.
        -12    1    1    2    0    0 -0.35046845761E+02  0.69359812490E+01  0.24642116028E+02  0.43400727137E+02  0.00000000000E+00 0.  1.
         11    1    3    3    0    0  0.26814538912E+02  0.68874861045E+00 -0.14038942430E+02  0.30275167654E+02  0.51100000000E-03 0. -1.
        -11    1    3    3    0    0  0.38943684623E+01 -0.73685138464E+01 -0.10164515456E+02  0.13144522690E+02  0.51100000000E-03 0.  1.
        -12    1    3    3    0    0  0.43379383869E+01 -0.25621601299E+00 -0.43865814266E+00  0.43675825190E+01  0.00000000000E+00 0.  1.
</event>
<event>
 7    1  0.2811980E-010  0.4778726E+02  0.7816164E-02  0.1312668E+00
        -11   -1    0    0    0    0  0.00000000000E+00  0.00000000000E+00  0.45593999997E+02  0.45594000000E+02  0.51100000000E-03 0.  1.
         11   -1    0    0    0    0 -0.00000000000E+00 -0.00000000000E+00 -0.45593999997E+02  0.45594000000E+02  0.51100000000E-03 0. -1.
    9900012    2    1    2    0    0 -0.43325003957E+02 -0.22341704831E+01  0.12555342205E+01  0.47787264386E+02  0.19999969644E+02 0.  0.
        -12    1    1    2    0    0  0.43325003957E+02  0.22341704831E+01 -0.12555342205E+01  0.43400735614E+02  0.00000000000E+00 0.  1.
         11    1    3    3    0    0 -0.15144828760E+02  0.68275993968E+01  0.34220929806E+01  0.16961505603E+02  0.51100000000E-03 0.  1.
        -11    1    3    3    0    0 -0.22104110676E+02 -0.41715999508E+01 -0.39155568382E+01  0.22832554403E+02  0.51100000000E-03 0. -1.
         12    1    3    3    0    0 -0.60760645205E+01 -0.48901699291E+01  0.17489980781E+01  0.79932043806E+01  0.00000000000E+00 0. -1.
</event>
<event>
 7    1  0.2811980E-010  0.4778727E+02  0.7816164E-02  0.1312668E+00
        -11   -1    0    0    0    0  0.00000000000E+00  0.00000000000E+00  0.45593999997E+02  0.45594000000E+02  0.51100000000E-03 0.  1.
         11   -1    0    0    0    0 -0.00000000000E+00 -0.00000000000E+00 -0.45593999997E+02  0.45594000000E+02  0.51100000000E-03 0. -1.
    9900012    2    1    2    0    0  0.88592442800E+01  0.21429065367E+02 -0.36686949238E+02  0.47787270788E+02  0.19999998832E+02 0.  0.
        -12    1    1    2    0    0 -0.88592442800E+01 -0.21429065367E+02  0.36686949238E+02  0.43400729212E+02  0.00000000000E+00 0.  1.
         11    1    3    3    0    0 -0.18729731775E+01  0.14874875205E+02 -0.25715364832E+02  0.29766590829E+02  0.51100000000E-03 0. -1.
        -11    1    3    3    0    0  0.40244821351E+01  0.37979399597E+01 -0.89450154219E+00  0.56054382222E+01  0.51100000000E-03 0.  1.
         12    1    3    3    0    0  0.67077353223E+01  0.27562502019E+01 -0.10077082864E+02  0.12415241737E+02  0.00000000000E+00 0. -1.
</event>
<event>
 7    1  0.2811980E-010  0.4778727E+02  0.7816164E-02  0.1312668E+00
        -11   -1    0    0    0    0  0.00000000000E+00  0.00000000000E+00  0.45593999997E+02  0.45594000000E+02  0.51100000000E-03 0.  1.
         11   -1    0    0    0    0 -0.00000000000E+00 -0.00000000000E+00 -0.45593999997E+02  0.45594000000E+02  0.51100000000E-03 0. -1.
    9900012    2    1    2    0    0  0.57195446994E+01  0.39698458469E+02 -0.16581390164E+02  0.47787270788E+02  0.19999998830E+02 0.  0.
        -12    1    1    2    0    0 -0.57195446994E+01 -0.39698458469E+02  0.16581390164E+02  0.43400729212E+02  0.00000000000E+00 0.  1.
         11    1    3    3    0    0  0.29847140731E+00  0.47293513424E+01 -0.43146880290E+01  0.64087738570E+01  0.51100000000E-03 0. -1.
        -11    1    3    3    0    0 -0.34272201405E+01  0.22628394342E+02 -0.12725711560E+02  0.26186519497E+02  0.51100000000E-03 0.  1.
        -12    1    3    3    0    0  0.88482934326E+01  0.12340712785E+02  0.45900942514E+00  0.15191977434E+02  0.00000000000E+00 0.  1.
</event>
<event>
 7    1  0.2811980E-010  0.4778725E+02  0.7816164E-02  0.1312668E+00
        -11   -1    0    0    0    0  0.00000000000E+00  0.00000000000E+00  0.45593999997E+02  0.45594000000E+02  0.51100000000E-03 0. -1.
         11   -1    0    0    0    0 -0.00000000000E+00 -0.00000000000E+00 -0.45593999997E+02  0.45594000000E+02  0.51100000000E-03 0.  1.
    9900012    2    1    2    0    0  0.31863756662E+02  0.18823703902E+02  0.22671437922E+02  0.47787252142E+02  0.19999913817E+02 0.  0.
        -12    1    1    2    0    0 -0.31863756662E+02 -0.18823703902E+02 -0.22671437922E+02  0.43400747858E+02  0.00000000000E+00 0.  1.
         11    1    3    3    0    0  0.58904674052E+01 -0.15427978739E+01  0.74186112079E+01  0.95975842818E+01  0.51100000000E-03 0. -1.
        -11    1    3    3    0    0  0.26453647703E+02  0.17089108614E+02  0.14955261444E+02  0.34863920536E+02  0.51100000000E-03 0.  1.
        -12    1    3    3    0    0 -0.48035844653E+00  0.32773931620E+01  0.29756526939E+00  0.33257473243E+01  0.00000000000E+00 0.  1.
</event>
<event>
 7    1  0.2811980E-010  0.4778727E+02  0.7816164E-02  0.1312668E+00
        -11   -1    0    0    0    0  0.00000000000E+00  0.00000000000E+00  0.45593999997E+02  0.45594000000E+02  0.51100000000E-03 0. -1.
         11   -1    0    0    0    0 -0.00000000000E+00 -0.00000000000E+00 -0.45593999997E+02  0.45594000000E+02  0.51100000000E-03 0.  1.
    9900012    2    1    2    0    0  0.20124412881E+02  0.41027300996E+01  0.38233478022E+02  0.47787271552E+02  0.20000002316E+02 0.  0.
        -12    1    1    2    0    0 -0.20124412881E+02 -0.41027300996E+01 -0.38233478022E+02  0.43400728448E+02  0.00000000000E+00 0.  1.
         11    1    3    3    0    0  0.13423885513E+02  0.11744282910E+01  0.29110694887E+02  0.32078225342E+02  0.51100000000E-03 0. -1.
        -11    1    3    3    0    0 -0.76560669280E-01  0.55178612076E+01  0.35627726767E+01  0.65685617337E+01  0.51100000000E-03 0.  1.
         12    1    3    3    0    0  0.67770880382E+01 -0.25895593990E+01  0.55600104590E+01  0.91404844764E+01  0.00000000000E+00 0. -1.
</event>
<event>
 7    1  0.2811980E-010  0.4778727E+02  0.7816164E-02  0.1312668E+00
        -11   -1    0    0    0    0  0.00000000000E+00  0.00000000000E+00  0.45593999997E+02  0.45594000000E+02  0.51100000000E-03 0.  1.
         11   -1    0    0    0    0 -0.00000000000E+00 -0.00000000000E+00 -0.45593999997E+02  0.45594000000E+02  0.51100000000E-03 0. -1.
    9900012    2    1    2    0    0 -0.26861166853E+01 -0.33760591924E+02 -0.27140939650E+02  0.47787269649E+02  0.19999993636E+02 0.  0.
        -12    1    1    2    0    0  0.26861166853E+01  0.33760591924E+02  0.27140939650E+02  0.43400730351E+02  0.00000000000E+00 0.  1.
         11    1    3    3    0    0  0.59293084865E+01 -0.39326327682E+01 -0.29511845332E+01  0.77027131602E+01  0.51100000000E-03 0. -1.
        -11    1    3    3    0    0 -0.65309622997E+01 -0.17434783588E+02 -0.10013687220E+02  0.21139987685E+02  0.51100000000E-03 0.  1.
        -12    1    3    3    0    0 -0.20844628721E+01 -0.12393175568E+02 -0.14176067897E+02  0.18944568803E+02  0.00000000000E+00 0.  1.
</event>
<event>
 7    1  0.2811980E-010  0.4778728E+02  0.7816164E-02  0.1312668E+00
        -11   -1    0    0    0    0  0.00000000000E+00  0.00000000000E+00  0.45593999997E+02  0.45594000000E+02  0.51100000000E-03 0.  1.
         11   -1    0    0    0    0 -0.00000000000E+00 -0.00000000000E+00 -0.45593999997E+02  0.45594000000E+02  0.51100000000E-03 0. -1.
    9900012    2    1    2    0    0 -0.46088940341E+01  0.18823228776E+02 -0.38833833180E+02  0.47787280591E+02  0.20000043525E+02 0.  0.
        -12    1    1    2    0    0  0.46088940341E+01 -0.18823228776E+02  0.38833833180E+02  0.43400719409E+02  0.00000000000E+00 0.  1.
         11    1    3    3    0    0 -0.11723579024E+02  0.12890110785E+02 -0.23783808636E+02  0.29483331133E+02  0.51100000000E-03 0. -1.
        -11    1    3    3    0    0  0.28786279531E+01 -0.13389691336E+00 -0.56354843168E+01  0.63295427182E+01  0.51100000000E-03 0.  1.
         12    1    3    3    0    0  0.42360570370E+01  0.60670149048E+01 -0.94145402272E+01  0.11974406740E+02  0.00000000000E+00 0. -1.
</event>
<event>
 7    1  0.2811980E-010  0.4778727E+02  0.7816164E-02  0.1312668E+00
        -11   -1    0    0    0    0  0.00000000000E+00  0.00000000000E+00  0.45593999997E+02  0.45594000000E+02  0.51100000000E-03 0.  1.
         11   -1    0    0    0    0 -0.00000000000E+00 -0.00000000000E+00 -0.45593999997E+02  0.45594000000E+02  0.51100000000E-03 0. -1.
    9900012    2    1    2    0    0 -0.15738593856E+02 -0.31826321679E+02 -0.24960073914E+02  0.47787269846E+02  0.19999994534E+02 0.  0.
        -12    1    1    2    0    0  0.15738593856E+02  0.31826321679E+02  0.24960073914E+02  0.43400730154E+02  0.00000000000E+00 0.  1.
         11    1    3    3    0    0 -0.74160607106E+01 -0.18573580196E+02 -0.23361483176E+02  0.30752800429E+02  0.51100000000E-03 0. -1.
        -11    1    3    3    0    0 -0.25157043458E+01 -0.49939308576E+01  0.25167101382E+01  0.61320423960E+01  0.51100000000E-03 0.  1.
        -12    1    3    3    0    0 -0.58068287994E+01 -0.82588106253E+01 -0.41153008760E+01  0.10902427021E+02  0.00000000000E+00 0.  1.
</event>
<event>
 7    1  0.2811980E-010  0.4778728E+02  0.7816164E-02  0.1312668E+00
        -11   -1    0    0    0    0  0.00000000000E+00  0.00000000000E+00  0.45593999997E+02  0.45594000000E+02  0.51100000000E-03 0.  1.
         11   -1    0    0    0    0 -0.00000000000E+00 -0.00000000000E+00 -0.45593999997E+02  0.45594000000E+02  0.51100000000E-03 0. -1.
    9900012    2    1    2    0    0  0.14813560733E+02 -0.15430307907E+02 -0.37763561113E+02  0.47787279596E+02  0.20000038990E+02 0.  0.
        -12    1    1    2    0    0 -0.14813560733E+02  0.15430307907E+02  0.37763561113E+02  0.43400720404E+02  0.00000000000E+00 0.  1.
         11    1    3    3    0    0  0.12779618160E+02 -0.14900523080E+02 -0.20221056529E+02  0.28182181530E+02  0.51100000000E-03 0. -1.
        -11    1    3    3    0    0  0.46096948805E+01  0.16706226618E+01 -0.13306427023E+02  0.14181017853E+02  0.51100000000E-03 0.  1.
        -12    1    3    3    0    0 -0.25757523069E+01 -0.22004074881E+01 -0.42360775606E+01  0.54240802132E+01  0.00000000000E+00 0.  1.
</event>
<event>
 7    1  0.2811980E-010  0.4778727E+02  0.7816164E-02  0.1312668E+00
        -11   -1    0    0    0    0  0.00000000000E+00  0.00000000000E+00  0.45593999997E+02  0.45594000000E+02  0.51100000000E-03 0.  1.
         11   -1    0    0    0    0 -0.00000000000E+00 -0.00000000000E+00 -0.45593999997E+02  0.45594000000E+02  0.51100000000E-03 0. -1.
    9900012    2    1    2    0    0 -0.42981933370E+02  0.23010189852E+01 -0.55571638153E+01  0.47787270119E+02  0.19999995778E+02 0.  0.
        -12    1    1    2    0    0  0.42981933370E+02 -0.23010189852E+01  0.55571638153E+01  0.43400729881E+02  0.00000000000E+00 0.  1.
         11    1    3    3    0    0 -0.88557415772E+01  0.21673528676E+01  0.51562006637E+01  0.10474157860E+02  0.51100000000E-03 0.  1.
        -11    1    3    3    0    0 -0.88268896269E+01  0.30739323423E+01 -0.67677165559E+01  0.11539715255E+02  0.51100000000E-03 0. -1.
         12    1    3    3    0    0 -0.25299302166E+02 -0.29402662247E+01 -0.39456479231E+01  0.25773397003E+02  0.00000000000E+00 0. -1.
</event>
<event>
 7    1  0.2811980E-010  0.4778727E+02  0.7816164E-02  0.1312668E+00
        -11   -1    0    0    0    0  0.00000000000E+00  0.00000000000E+00  0.45593999997E+02  0.45594000000E+02  0.51100000000E-03 0.  1.
         11   -1    0    0    0    0 -0.00000000000E+00 -0.00000000000E+00 -0.45593999997E+02  0.45594000000E+02  0.51100000000E-03 0. -1.
    9900012    2    1    2    0    0 -0.28658725133E+00  0.27203311432E+02 -0.33815992338E+02  0.47787267023E+02  0.19999981666E+02 0.  0.
        -12    1    1    2    0    0  0.28658725133E+00 -0.27203311432E+02  0.33815992338E+02  0.43400732977E+02  0.00000000000E+00 0.  1.
         11    1    3    3    0    0  0.64753838328E+01  0.12065032115E+02 -0.19749643721E+02  0.24032145620E+02  0.51100000000E-03 0. -1.
        -11    1    3    3    0    0 -0.68397021169E+01  0.38577443134E+01 -0.61382567585E+01  0.99670413128E+01  0.51100000000E-03 0.  1.
        -12    1    3    3    0    0  0.77731032766E-01  0.11280535003E+02 -0.79280918582E+01  0.13788080091E+02  0.00000000000E+00 0.  1.
</event>
<event>
 7    1  0.2811980E-010  0.4778727E+02  0.7816164E-02  0.1312668E+00
        -11   -1    0    0    0    0  0.00000000000E+00  0.00000000000E+00  0.45593999997E+02  0.45594000000E+02  0.51100000000E-03 0.  1.
         11   -1    0    0    0    0 -0.00000000000E+00 -0.00000000000E+00 -0.45593999997E+02  0.45594000000E+02  0.51100000000E-03 0. -1.
    9900012    2    1    2    0    0 -0.39796432674E+02 -0.14312271334E+02 -0.97481288493E+01  0.47787272121E+02  0.20000004909E+02 0.  0.
        -12    1    1    2    0    0  0.39796432674E+02  0.14312271334E+02  0.97481288493E+01  0.43400727879E+02  0.00000000000E+00 0.  1.
         11    1    3    3    0    0 -0.93707062199E+01  0.36803268752E+01 -0.38474254287E+00  0.10074868141E+02  0.51100000000E-03 0. -1.
        -11    1    3    3    0    0  0.23440540958E+00  0.47561821370E+00  0.33727907966E+00  0.62842344000E+00  0.51100000000E-03 0.  1.
         12    1    3    3    0    0 -0.30660131864E+02 -0.18468216423E+02 -0.97006653861E+01  0.37083980540E+02  0.00000000000E+00 0. -1.
</event>
<event>
 7    1  0.2811980E-010  0.4778727E+02  0.7816164E-02  0.1312668E+00
        -11   -1    0    0    0    0  0.00000000000E+00  0.00000000000E+00  0.45593999997E+02  0.45594000000E+02  0.51100000000E-03 0.  1.
         11   -1    0    0    0    0 -0.00000000000E+00 -0.00000000000E+00 -0.45593999997E+02  0.45594000000E+02  0.51100000000E-03 0. -1.
    9900012    2    1    2    0    0 -0.66584239407E+01  0.33134591527E+02 -0.27228433028E+02  0.47787270396E+02  0.19999997044E+02 0.  0.
        -12    1    1    2    0    0  0.66584239407E+01 -0.33134591527E+02  0.27228433028E+02  0.43400729604E+02  0.00000000000E+00 0.  1.
         11    1    3    3    0    0  0.56919186899E+01  0.69975499083E+01 -0.80092878655E+01  0.12062849392E+02  0.51100000000E-03 0. -1.
        -11    1    3    3    0    0 -0.77361025296E+01  0.17225632566E+02 -0.17084625051E+02  0.25464762183E+02  0.51100000000E-03 0.  1.
        -12    1    3    3    0    0 -0.46142401009E+01  0.89114090527E+01 -0.21345201111E+01  0.10259658821E+02  0.00000000000E+00 0.  1.
</event>
<event>
 7    1  0.2811980E-010  0.4778727E+02  0.7816164E-02  0.1312668E+00
        -11   -1    0    0    0    0  0.00000000000E+00  0.00000000000E+00  0.45593999997E+02  0.45594000000E+02  0.51100000000E-03 0.  1.
         11   -1    0    0    0    0 -0.00000000000E+00 -0.00000000000E+00 -0.45593999997E+02  0.45594000000E+02  0.51100000000E-03 0. -1.
    9900012    2    1    2    0    0  0.14593386266E+02 -0.37382501492E+02 -0.16528904539E+02  0.47787273903E+02  0.20000013034E+02 0.  0.
        -12    1    1    2    0    0 -0.14593386266E+02  0.37382501492E+02  0.16528904539E+02  0.43400726097E+02  0.00000000000E+00 0.  1.
         11    1    3    3    0    0 -0.11168946960E+01 -0.13169510672E+02 -0.10517161092E+02  0.16890652527E+02  0.51100000000E-03 0. -1.
        -11    1    3    3    0    0  0.13292778430E+00 -0.43860117253E+01  0.14162585387E+01  0.46109171712E+01  0.51100000000E-03 0.  1.
         12    1    3    3    0    0  0.15577353178E+02 -0.19826979094E+02 -0.74280019853E+01  0.26285704205E+02  0.00000000000E+00 0. -1.
</event>
<event>
 7    1  0.2811980E-010  0.4778727E+02  0.7816164E-02  0.1312668E+00
        -11   -1    0    0    0    0  0.00000000000E+00  0.00000000000E+00  0.45593999997E+02  0.45594000000E+02  0.51100000000E-03 0.  1.
         11   -1    0    0    0    0 -0.00000000000E+00 -0.00000000000E+00 -0.45593999997E+02  0.45594000000E+02  0.51100000000E-03 0. -1.
    9900012    2    1    2    0    0 -0.62924992544E+01  0.55300172417E+01 -0.42584582563E+02  0.47787270633E+02  0.19999998124E+02 0.  0.
        -12    1    1    2    0    0  0.62924992544E+01 -0.55300172417E+01  0.42584582563E+02  0.43400729367E+02  0.00000000000E+00 0.  1.
         11    1    3    3    0    0 -0.74179801028E+01  0.29537214489E+01 -0.18905317892E+02  0.20522230485E+02  0.51100000000E-03 0. -1.
        -11    1    3    3    0    0  0.31845427926E+01  0.54648069848E+01 -0.45048233569E+01  0.77652341830E+01  0.51100000000E-03 0.  1.
        -12    1    3    3    0    0 -0.20590619442E+01 -0.28885111919E+01 -0.19174441314E+02  0.19499805965E+02  0.00000000000E+00 0.  1.
</event>
<event>
 7    1  0.2811980E-010  0.4778727E+02  0.7816164E-02  0.1312668E+00
        -11   -1    0    0    0    0  0.00000000000E+00  0.00000000000E+00  0.45593999997E+02  0.45594000000E+02  0.51100000000E-03 0. -1.
         11   -1    0    0    0    0 -0.00000000000E+00 -0.00000000000E+00 -0.45593999997E+02  0.45594000000E+02  0.51100000000E-03 0.  1.
    9900012    2    1    2    0    0 -0.16725608677E+02  0.17614381827E+02  0.35966807093E+02  0.47787266766E+02  0.19999980492E+02 0.  0.
        -12    1    1    2    0    0  0.16725608677E+02 -0.17614381827E+02 -0.35966807093E+02  0.43400733234E+02  0.00000000000E+00 0.  1.
         11    1    3    3    0    0  0.23369033840E+00 -0.17891110337E+00  0.64997595638E+00  0.71350498398E+00  0.51100000000E-03 0. -1.
        -11    1    3    3    0    0 -0.14856298636E+02  0.13430780997E+02  0.12190452099E+02  0.23445737566E+02  0.51100000000E-03 0.  1.
        -12    1    3    3    0    0 -0.21030003796E+01  0.43625119330E+01  0.23126379038E+02  0.23628024216E+02  0.00000000000E+00 0.  1.
</event>
<event>
 7    1  0.2811980E-010  0.4778724E+02  0.7816164E-02  0.1312668E+00
        -11   -1    0    0    0    0  0.00000000000E+00  0.00000000000E+00  0.45593999997E+02  0.45594000000E+02  0.51100000000E-03 0.  1.
         11   -1    0    0    0    0 -0.00000000000E+00 -0.00000000000E+00 -0.45593999997E+02  0.45594000000E+02  0.51100000000E-03 0. -1.
    9900012    2    1    2    0    0  0.11199253496E+02  0.13860455898E+02 -0.39573860050E+02  0.47787240608E+02  0.19999861227E+02 0.  0.
        -12    1    1    2    0    0 -0.11199253496E+02 -0.13860455898E+02  0.39573860050E+02  0.43400759392E+02  0.00000000000E+00 0.  1.
         11    1    3    3    0    0  0.65735087424E+00 -0.21798469504E+01 -0.90943633289E+01  0.93750353342E+01  0.51100000000E-03 0. -1.
        -11    1    3    3    0    0  0.87094208913E+01  0.15146724519E+02 -0.15690606676E+02  0.23483449789E+02  0.51100000000E-03 0.  1.
        -12    1    3    3    0    0  0.18324817304E+01  0.89357832936E+00 -0.14788890046E+02  0.14928755484E+02  0.00000000000E+00 0.  1.
</event>
<event>
 7    1  0.2811980E-010  0.4778727E+02  0.7816164E-02  0.1312668E+00
        -11   -1    0    0    0    0  0.00000000000E+00  0.00000000000E+00  0.45593999997E+02  0.45594000000E+02  0.51100000000E-03 0.  1.
         11   -1    0    0    0    0 -0.00000000000E+00 -0.00000000000E+00 -0.45593999997E+02  0.45594000000E+02  0.51100000000E-03 0. -1.
    9900012    2    1    2    0    0  0.35540913956E+02 -0.17433056591E+02 -0.17792002605E+02  0.47787269780E+02  0.19999994235E+02 0.  0.
        -12    1    1    2    0    0 -0.35540913956E+02  0.17433056591E+02  0.17792002605E+02  0.43400730220E+02  0.00000000000E+00 0.  1.
         11    1    3    3    0    0  0.21066445823E+02 -0.10316518780E+02 -0.33799631325E+01  0.23699152947E+02  0.51100000000E-03 0. -1.
        -11    1    3    3    0    0  0.14071650186E+02 -0.90002544010E+01 -0.14556455951E+02  0.22156406034E+02  0.51100000000E-03 0.  1.
        -12    1    3    3    0    0  0.40281794689E+00  0.18837165901E+01  0.14441647858E+00  0.19317107986E+01  0.00000000000E+00 0.  1.
</event>
<event>
 7    1  0.2811980E-010  0.4778727E+02  0.7816164E-02  0.1312668E+00
        -11   -1    0    0    0    0  0.00000000000E+00  0.00000000000E+00  0.45593999997E+02  0.45594000000E+02  0.51100000000E-03 0. -1.
         11   -1    0    0    0    0 -0.00000000000E+00 -0.00000000000E+00 -0.45593999997E+02  0.45594000000E+02  0.51100000000E-03 0.  1.
    9900012    2    1    2    0    0  0.34229302922E+02  0.18855138648E+02 -0.18880193616E+02  0.47787272553E+02  0.20000006877E+02 0.  0.
        -12    1    1    2    0    0 -0.34229302922E+02 -0.18855138648E+02  0.18880193616E+02  0.43400727447E+02  0.00000000000E+00 0.  1.
         11    1    3    3    0    0  0.33007057307E+02  0.10650382427E+02 -0.14293119733E+02  0.37512527906E+02  0.51100000000E-03 0. -1.
        -11    1    3    3    0    0 -0.82054942547E+00  0.13669732404E+01 -0.22653839852E+01  0.27701772617E+01  0.51100000000E-03 0.  1.
         12    1    3    3    0    0  0.20427950405E+01  0.68377829801E+01 -0.23216898979E+01  0.75045673854E+01  0.00000000000E+00 0. -1.
</event>
<event>
 7    1  0.2811980E-010  0.4778727E+02  0.7816164E-02  0.1312668E+00
        -11   -1    0    0    0    0  0.00000000000E+00  0.00000000000E+00  0.45593999997E+02  0.45594000000E+02  0.51100000000E-03 0.  1.
         11   -1    0    0    0    0 -0.00000000000E+00 -0.00000000000E+00 -0.45593999997E+02  0.45594000000E+02  0.51100000000E-03 0. -1.
    9900012    2    1    2    0    0 -0.29822446508E+02 -0.34459948913E+01 -0.31342782428E+02  0.47787271816E+02  0.20000003519E+02 0.  0.
        -12    1    1    2    0    0  0.29822446508E+02  0.34459948913E+01  0.31342782428E+02  0.43400728184E+02  0.00000000000E+00 0.  1.
         11    1    3    3    0    0 -0.86525957286E+01 -0.22803821127E+01 -0.16810364098E+01  0.91045834114E+01  0.51100000000E-03 0. -1.
        -11    1    3    3    0    0 -0.73625730590E+01 -0.26272133043E+01 -0.20776821680E+02  0.22198784903E+02  0.51100000000E-03 0.  1.
        -12    1    3    3    0    0 -0.13807277721E+02  0.14616005258E+01 -0.88849243384E+01  0.16483903502E+02  0.00000000000E+00 0.  1.
</event>
<event>
 7    1  0.2811980E-010  0.4778726E+02  0.7816164E-02  0.1312668E+00
        -11   -1    0    0    0    0  0.00000000000E+00  0.00000000000E+00  0.45593999997E+02  0.45594000000E+02  0.51100000000E-03 0.  1.
         11   -1    0    0    0    0 -0.00000000000E+00 -0.00000000000E+00 -0.45593999997E+02  0.45594000000E+02  0.51100000000E-03 0. -1.
    9900012    2    1    2    0    0 -0.55564945201E-01 -0.32730293291E+02 -0.28501738973E+02  0.47787259098E+02  0.19999945530E+02 0.  0.
        -12    1    1    2    0    0  0.55564945201E-01  0.32730293291E+02  0.28501738973E+02  0.43400740902E+02  0.00000000000E+00 0.  1.
         11    1    3    3    0    0 -0.36093973786E+01 -0.16278766188E+02 -0.35426803360E+01  0.17046306411E+02  0.51100000000E-03 0. -1.
        -11    1    3    3    0    0  0.23380709759E+01 -0.61727927996E+01 -0.14951266416E+02  0.16343509860E+02  0.51100000000E-03 0.  1.
        -12    1    3    3    0    0  0.12157614575E+01 -0.10278734304E+02 -0.10007792221E+02  0.14397442827E+02  0.00000000000E+00 0.  1.
</event>
<event>
 7    1  0.2811980E-010  0.4778727E+02  0.7816164E-02  0.1312668E+00
        -11   -1    0    0    0    0  0.00000000000E+00  0.00000000000E+00  0.45593999997E+02  0.45594000000E+02  0.51100000000E-03 0.  1.
         11   -1    0    0    0    0 -0.00000000000E+00 -0.00000000000E+00 -0.45593999997E+02  0.45594000000E+02  0.51100000000E-03 0. -1.
    9900012    2    1    2    0    0  0.20385840839E+02 -0.49118482788E+01 -0.37998873532E+02  0.47787272473E+02  0.20000006511E+02 0.  0.
        -12    1    1    2    0    0 -0.20385840839E+02  0.49118482788E+01  0.37998873532E+02  0.43400727527E+02  0.00000000000E+00 0.  1.
         11    1    3    3    0    0  0.39283099124E+01 -0.32761388164E+01 -0.23473717437E+02  0.24024573147E+02  0.51100000000E-03 0.  1.
        -11    1    3    3    0    0  0.16774628469E+02  0.21044181054E+00 -0.13905135034E+02  0.21789566920E+02  0.51100000000E-03 0. -1.
        -12    1    3    3    0    0 -0.31709754172E+00 -0.18461512729E+01 -0.62002106107E+00  0.19731324055E+01  0.00000000000E+00 0.  1.
</event>
<event>
 7    1  0.2811980E-010  0.4778727E+02  0.7816164E-02  0.1312668E+00
        -11   -1    0    0    0    0  0.00000000000E+00  0.00000000000E+00  0.45593999997E+02  0.45594000000E+02  0.51100000000E-03 0.  1.
         11   -1    0    0    0    0 -0.00000000000E+00 -0.00000000000E+00 -0.45593999997E+02  0.45594000000E+02  0.51100000000E-03 0. -1.
    9900012    2    1    2    0    0  0.36110921656E+02 -0.10257443829E+02 -0.21780940930E+02  0.47787271843E+02  0.20000003642E+02 0.  0.
        -12    1    1    2    0    0 -0.36110921656E+02  0.10257443829E+02  0.21780940930E+02  0.43400728157E+02  0.00000000000E+00 0.  1.
         11    1    3    3    0    0  0.13485031848E+02  0.31076957604E+00 -0.79117569605E+00  0.13511795621E+02  0.51100000000E-03 0. -1.
        -11    1    3    3    0    0  0.10817142640E+02 -0.10759310559E+02 -0.11033715937E+02  0.18828601283E+02  0.51100000000E-03 0.  1.
         12    1    3    3    0    0  0.11808747168E+02  0.19109715384E+00 -0.99560492969E+01  0.15446874939E+02  0.00000000000E+00 0. -1.
</event>
<event>
 7    1  0.2811980E-010  0.4778727E+02  0.7816164E-02  0.1312668E+00
        -11   -1    0    0    0    0  0.00000000000E+00  0.00000000000E+00  0.45593999997E+02  0.45594000000E+02  0.51100000000E-03 0. -1.
         11   -1    0    0    0    0 -0.00000000000E+00 -0.00000000000E+00 -0.45593999997E+02  0.45594000000E+02  0.51100000000E-03 0.  1.
    9900012    2    1    2    0    0 -0.10426080732E+02 -0.40147115632E+02  0.12772207133E+02  0.47787270420E+02  0.19999997153E+02 0.  0.
        -12    1    1    2    0    0  0.10426080732E+02  0.40147115632E+02 -0.12772207133E+02  0.43400729580E+02  0.00000000000E+00 0.  1.
         11    1    3    3    0    0 -0.14607276942E+02 -0.27920950932E+02  0.93723755616E+01  0.32875423412E+02  0.51100000000E-03 0. -1.
        -11    1    3    3    0    0  0.54003783472E+01 -0.60166697396E+01  0.27977361929E+01  0.85552164855E+01  0.51100000000E-03 0.  1.
         12    1    3    3    0    0 -0.12191821373E+01 -0.62094949606E+01  0.60209537836E+00  0.63566305221E+01  0.00000000000E+00 0. -1.
</event>
<event>
 7    1  0.2811980E-010  0.4778727E+02  0.7816164E-02  0.1312668E+00
        -11   -1    0    0    0    0  0.00000000000E+00  0.00000000000E+00  0.45593999997E+02  0.45594000000E+02  0.51100000000E-03 0. -1.
         11   -1    0    0    0    0 -0.00000000000E+00 -0.00000000000E+00 -0.45593999997E+02  0.45594000000E+02  0.51100000000E-03 0.  1.
    9900012    2    1    2    0    0 -0.38162740274E+02 -0.88080698293E+01  0.18698848610E+02  0.47787265229E+02  0.19999973485E+02 0.  0.
        -12    1    1    2    0    0  0.38162740274E+02  0.88080698293E+01 -0.18698848610E+02  0.43400734771E+02  0.00000000000E+00 0.  1.
         11    1    3    3    0    0 -0.73475705436E+01 -0.76891254200E+01  0.76879016517E+01  0.13123005551E+02  0.51100000000E-03 0. -1.
        -11    1    3    3    0    0 -0.35904918635E+01 -0.31019186138E+01 -0.98805380701E+00  0.48466257845E+01  0.51100000000E-03 0.  1.
         12    1    3    3    0    0 -0.27224677867E+02  0.19829742045E+01  0.11999000765E+02  0.29817633894E+02  0.00000000000E+00 0. -1.
</event>
<event>
 7    1  0.2811980E-010  0.4778727E+02  0.7816164E-02  0.1312668E+00
        -11   -1    0    0    0    0  0.00000000000E+00  0.00000000000E+00  0.45593999997E+02  0.45594000000E+02  0.51100000000E-03 0.  1.
         11   -1    0    0    0    0 -0.00000000000E+00 -0.00000000000E+00 -0.45593999997E+02  0.45594000000E+02  0.51100000000E-03 0. -1.
    9900012    2    1    2    0    0 -0.17800705462E+02 -0.86384941967E+01 -0.38628158034E+02  0.47787270858E+02  0.19999999152E+02 0.  0.
        -12    1    1    2    0    0  0.17800705462E+02  0.86384941967E+01  0.38628158034E+02  0.43400729142E+02  0.00000000000E+00 0.  1.
         11    1    3    3    0    0  0.17439957827E+01 -0.93440338264E+00  0.10052644513E+01  0.22192764248E+01  0.51100000000E-03 0.  1.
        -11    1    3    3    0    0 -0.95601421873E+01  0.27173515755E+00 -0.14460429697E+02  0.17337075472E+02  0.51100000000E-03 0. -1.
         12    1    3    3    0    0 -0.99845590579E+01 -0.79758259716E+01 -0.25172992788E+02  0.28230918962E+02  0.00000000000E+00 0. -1.
</event>
<event>
 7    1  0.2811980E-010  0.4778727E+02  0.7816164E-02  0.1312668E+00
        -11   -1    0    0    0    0  0.00000000000E+00  0.00000000000E+00  0.45593999997E+02  0.45594000000E+02  0.51100000000E-03 0.  1.
         11   -1    0    0    0    0 -0.00000000000E+00 -0.00000000000E+00 -0.45593999997E+02  0.45594000000E+02  0.51100000000E-03 0. -1.
    9900012    2    1    2    0    0  0.29596227375E+02  0.30219915742E+02 -0.97181881500E+01  0.47787272319E+02  0.20000005813E+02 0.  0.
        -12    1    1    2    0    0 -0.29596227375E+02 -0.30219915742E+02  0.97181881500E+01  0.43400727681E+02  0.00000000000E+00 0.  1.
         11    1    3    3    0    0  0.64091406497E+01 -0.17718245780E+01 -0.22037582079E+01  0.70052121098E+01  0.51100000000E-03 0. -1.
        -11    1    3    3    0    0  0.21587810050E+02  0.25688133792E+02 -0.57511190855E+01  0.34043929436E+02  0.51100000000E-03 0.  1.
         12    1    3    3    0    0  0.15992766759E+01  0.63036065280E+01 -0.17633108566E+01  0.67381307736E+01  0.00000000000E+00 0. -1.
</event>
<event>
 7    1  0.2811980E-010  0.4778726E+02  0.7816164E-02  0.1312668E+00
        -11   -1    0    0    0    0  0.00000000000E+00  0.00000000000E+00  0.45593999997E+02  0.45594000000E+02  0.51100000000E-03 0.  1.
         11   -1    0    0    0    0 -0.00000000000E+00 -0.00000000000E+00 -0.45593999997E+02  0.45594000000E+02  0.51100000000E-03 0. -1.
    9900012    2    1    2    0    0 -0.34671833415E+02  0.23781619925E+02  0.10766739663E+02  0.47787260817E+02  0.19999953370E+02 0.  0.
        -12    1    1    2    0    0  0.34671833415E+02 -0.23781619925E+02 -0.10766739663E+02  0.43400739183E+02  0.00000000000E+00 0.  1.
         11    1    3    3    0    0 -0.50976395936E+01  0.92644101251E+01  0.61965553831E+01  0.12256121869E+02  0.51100000000E-03 0. -1.
        -11    1    3    3    0    0 -0.11037509580E+02 -0.62249427559E+00 -0.49998338496E+00  0.11066349917E+02  0.51100000000E-03 0.  1.
         12    1    3    3    0    0 -0.18536684242E+02  0.15139704075E+02  0.50701676652E+01  0.24464789031E+02  0.00000000000E+00 0. -1.
</event>
<event>
 7    1  0.2811980E-010  0.4778727E+02  0.7816164E-02  0.1312668E+00
        -11   -1    0    0    0    0  0.00000000000E+00  0.00000000000E+00  0.45593999997E+02  0.45594000000E+02  0.51100000000E-03 0.  1.
         11   -1    0    0    0    0 -0.00000000000E+00 -0.00000000000E+00 -0.45593999997E+02  0.45594000000E+02  0.51100000000E-03 0. -1.
    9900012    2    1    2    0    0  0.35809839669E+02  0.45101979077E+01 -0.24102626499E+02  0.47787272974E+02  0.20000008797E+02 0.  0.
        -12    1    1    2    0    0 -0.35809839669E+02 -0.45101979077E+01  0.24102626499E+02  0.43400727026E+02  0.00000000000E+00 0.  1.
         11    1    3    3    0    0  0.10269559251E+02  0.87905744083E+01 -0.10484224352E+02  0.17107220878E+02  0.51100000000E-03 0. -1.
        -11    1    3    3    0    0  0.42764140068E+01 -0.27142936442E+01  0.52787547823E+00  0.50925199583E+01  0.51100000000E-03 0.  1.
         12    1    3    3    0    0  0.21263866411E+02 -0.15660828564E+01 -0.14146277625E+02  0.25587532138E+02  0.00000000000E+00 0. -1.
</event>
<event>
 7    1  0.2811980E-010  0.4778727E+02  0.7816164E-02  0.1312668E+00
        -11   -1    0    0    0    0  0.00000000000E+00  0.00000000000E+00  0.45593999997E+02  0.45594000000E+02  0.51100000000E-03 0.  1.
         11   -1    0    0    0    0 -0.00000000000E+00 -0.00000000000E+00 -0.45593999997E+02  0.45594000000E+02  0.51100000000E-03 0. -1.
    9900012    2    1    2    0    0  0.85065090383E+01 -0.40576903635E+02 -0.12836584165E+02  0.47787266162E+02  0.19999977738E+02 0.  0.
        -12    1    1    2    0    0 -0.85065090383E+01  0.40576903635E+02  0.12836584165E+02  0.43400733838E+02  0.00000000000E+00 0.  1.
         11    1    3    3    0    0  0.52033132460E+01 -0.10449457430E+02 -0.27661592221E+01  0.11996552272E+02  0.51100000000E-03 0. -1.
        -11    1    3    3    0    0 -0.87802884919E+00 -0.28251872318E+02 -0.45718456686E+01  0.28632865682E+02  0.51100000000E-03 0.  1.
        -12    1    3    3    0    0  0.41812246415E+01 -0.18755738876E+01 -0.54985792748E+01  0.71578482068E+01  0.00000000000E+00 0.  1.
</event>
<event>
 7    1  0.2811980E-010  0.4778728E+02  0.7816164E-02  0.1312668E+00
        -11   -1    0    0    0    0  0.00000000000E+00  0.00000000000E+00  0.45593999997E+02  0.45594000000E+02  0.51100000000E-03 0.  1.
         11   -1    0    0    0    0 -0.00000000000E+00 -0.00000000000E+00 -0.45593999997E+02  0.45594000000E+02  0.51100000000E-03 0. -1.
    9900012    2    1    2    0    0  0.19703168308E+02 -0.23722779879E+02 -0.30539118968E+02  0.47787275192E+02  0.20000018908E+02 0.  0.
        -12    1    1    2    0    0 -0.19703168308E+02  0.23722779879E+02  0.30539118968E+02  0.43400724808E+02  0.00000000000E+00 0.  1.
         11    1    3    3    0    0  0.19307276196E+02 -0.23846581645E+02 -0.28270407788E+02  0.41721053763E+02  0.51100000000E-03 0. -1.
        -11    1    3    3    0    0  0.50764433458E+00  0.69082454289E+00  0.17804138253E+01  0.19760604672E+01  0.51100000000E-03 0.  1.
         12    1    3    3    0    0 -0.11175222265E+00 -0.56702277657E+00 -0.40491250047E+01  0.40901609617E+01  0.00000000000E+00 0. -1.
</event>
<event>
 7    1  0.2811980E-010  0.4778727E+02  0.7816164E-02  0.1312668E+00
        -11   -1    0    0    0    0  0.00000000000E+00  0.00000000000E+00  0.45593999997E+02  0.45594000000E+02  0.51100000000E-03 0. -1.
         11   -1    0    0    0    0 -0.00000000000E+00 -0.00000000000E+00 -0.45593999997E+02  0.45594000000E+02  0.51100000000E-03 0.  1.
    9900012    2    1    2    0    0 -0.11294997754E+02  0.27163582378E+02  0.31909030343E+02  0.47787269599E+02  0.19999993411E+02 0.  0.
        -12    1    1    2    0    0  0.11294997754E+02 -0.27163582378E+02 -0.31909030343E+02  0.43400730401E+02  0.00000000000E+00 0.  1.
         11    1    3    3    0    0 -0.74986644763E+01  0.16410883404E+02  0.21531068294E+02  0.28091528353E+02  0.51100000000E-03 0. -1.
        -11    1    3    3    0    0  0.23100190238E+01 -0.11245850584E+01  0.43304788342E+01  0.50352682787E+01  0.51100000000E-03 0.  1.
        -12    1    3    3    0    0 -0.61063523015E+01  0.11877284032E+02  0.60474832147E+01  0.14660472968E+02  0.00000000000E+00 0.  1.
</event>
<event>
 7    1  0.2811980E-010  0.4778728E+02  0.7816164E-02  0.1312668E+00
        -11   -1    0    0    0    0  0.00000000000E+00  0.00000000000E+00  0.45593999997E+02  0.45594000000E+02  0.51100000000E-03 0.  1.
         11   -1    0    0    0    0 -0.00000000000E+00 -0.00000000000E+00 -0.45593999997E+02  0.45594000000E+02  0.51100000000E-03 0. -1.
    9900012    2    1    2    0    0  0.23355004991E+02  0.50640993021E+01 -0.36228735613E+02  0.47787278301E+02  0.20000033085E+02 0.  0.
        -12    1    1    2    0    0 -0.23355004991E+02 -0.50640993021E+01  0.36228735613E+02  0.43400721699E+02  0.00000000000E+00 0.  1.
         11    1    3    3    0    0  0.36127387900E+01 -0.56177926054E+01 -0.61022190488E+01  0.90470190065E+01  0.51100000000E-03 0. -1.
        -11    1    3    3    0    0  0.42417531363E+01 -0.86850363618E+00 -0.24304231467E+01  0.49652517729E+01  0.51100000000E-03 0.  1.
         12    1    3    3    0    0  0.15500513065E+02  0.11550395544E+02 -0.27696093417E+02  0.33775007522E+02  0.00000000000E+00 0. -1.
</event>
<event>
 7    1  0.2811980E-010  0.4778726E+02  0.7816164E-02  0.1312668E+00
        -11   -1    0    0    0    0  0.00000000000E+00  0.00000000000E+00  0.45593999997E+02  0.45594000000E+02  0.51100000000E-03 0. -1.
         11   -1    0    0    0    0 -0.00000000000E+00 -0.00000000000E+00 -0.45593999997E+02  0.45594000000E+02  0.51100000000E-03 0.  1.
    9900012    2    1    2    0    0 -0.14581396341E+02 -0.27474412403E+02  0.30268190776E+02  0.47787264649E+02  0.19999970841E+02 0.  0.
        -12    1    1    2    0    0  0.14581396341E+02  0.27474412403E+02 -0.30268190776E+02  0.43400735351E+02  0.00000000000E+00 0.  1.
         11    1    3    3    0    0 -0.13592885543E+01 -0.10236795917E+02  0.62864313807E+01  0.12089618513E+02  0.51100000000E-03 0. -1.
        -11    1    3    3    0    0 -0.74590079218E+01 -0.62225548117E+01  0.12569826063E+01  0.97947431358E+01  0.51100000000E-03 0.  1.
        -12    1    3    3    0    0 -0.57630998649E+01 -0.11015061674E+02  0.22724776789E+02  0.25902903000E+02  0.00000000000E+00 0.  1.
</event>
<event>
 7    1  0.2811980E-010  0.4778727E+02  0.7816164E-02  0.1312668E+00
        -11   -1    0    0    0    0  0.00000000000E+00  0.00000000000E+00  0.45593999997E+02  0.45594000000E+02  0.51100000000E-03 0.  1.
         11   -1    0    0    0    0 -0.00000000000E+00 -0.00000000000E+00 -0.45593999997E+02  0.45594000000E+02  0.51100000000E-03 0. -1.
    9900012    2    1    2    0    0 -0.35494589319E+02  0.23786570851E+02 -0.76129057298E+01  0.47787272386E+02  0.20000006116E+02 0.  0.
        -12    1    1    2    0    0  0.35494589319E+02 -0.23786570851E+02  0.76129057298E+01  0.43400727614E+02  0.00000000000E+00 0.  1.
         11    1    3    3    0    0 -0.38350786551E+01 -0.31921606295E+00 -0.42832083946E-01  0.38485792228E+01  0.51100000000E-03 0. -1.
        -11    1    3    3    0    0 -0.27004763530E+02  0.13822016048E+02 -0.10793260903E+02  0.32199376735E+02  0.51100000000E-03 0.  1.
        -12    1    3    3    0    0 -0.46547471344E+01  0.10283770866E+02  0.32231872572E+01  0.11739316429E+02  0.00000000000E+00 0.  1.
</event>
<event>
 7    1  0.2811980E-010  0.4778727E+02  0.7816164E-02  0.1312668E+00
        -11   -1    0    0    0    0  0.00000000000E+00  0.00000000000E+00  0.45593999997E+02  0.45594000000E+02  0.51100000000E-03 0. -1.
         11   -1    0    0    0    0 -0.00000000000E+00 -0.00000000000E+00 -0.45593999997E+02  0.45594000000E+02  0.51100000000E-03 0.  1.
    9900012    2    1    2    0    0 -0.11583453861E+02 -0.88157334919E+00  0.41817097229E+02  0.47787271947E+02  0.20000004113E+02 0.  0.
        -12    1    1    2    0    0  0.11583453861E+02  0.88157334919E+00 -0.41817097229E+02  0.43400728053E+02  0.00000000000E+00 0.  1.
         11    1    3    3    0    0 -0.30492874557E+01  0.43148172100E+00 -0.96097777192E+00  0.32261136066E+01  0.51100000000E-03 0. -1.
        -11    1    3    3    0    0  0.42015445520E+00  0.23138218667E+01  0.14222133508E+02  0.14415248287E+02  0.51100000000E-03 0.  1.
         12    1    3    3    0    0 -0.89543208608E+01 -0.36268769369E+01  0.28555941493E+02  0.30145910053E+02  0.00000000000E+00 0. -1.
</event>
<event>
 7    1  0.2811980E-010  0.4778727E+02  0.7816164E-02  0.1312668E+00
        -11   -1    0    0    0    0  0.00000000000E+00  0.00000000000E+00  0.45593999997E+02  0.45594000000E+02  0.51100000000E-03 0.  1.
         11   -1    0    0    0    0 -0.00000000000E+00 -0.00000000000E+00 -0.45593999997E+02  0.45594000000E+02  0.51100000000E-03 0. -1.
    9900012    2    1    2    0    0 -0.26979152825E+02 -0.24330823073E+02 -0.23743622015E+02  0.47787271608E+02  0.20000002570E+02 0.  0.
        -12    1    1    2    0    0  0.26979152825E+02  0.24330823073E+02  0.23743622015E+02  0.43400728392E+02  0.00000000000E+00 0.  1.
         11    1    3    3    0    0 -0.11648596807E+02 -0.27367140180E+01 -0.21629666209E+01  0.12159680754E+02  0.51100000000E-03 0. -1.
        -11    1    3    3    0    0 -0.74167391927E+01 -0.13704086904E+02 -0.65623957635E+01  0.16907840091E+02  0.51100000000E-03 0.  1.
         12    1    3    3    0    0 -0.79138168254E+01 -0.78900221506E+01 -0.15018259630E+02  0.18719750762E+02  0.00000000000E+00 0. -1.
</event>
<event>
 7    1  0.2811980E-010  0.4778728E+02  0.7816164E-02  0.1312668E+00
        -11   -1    0    0    0    0  0.00000000000E+00  0.00000000000E+00  0.45593999997E+02  0.45594000000E+02  0.51100000000E-03 0.  1.
         11   -1    0    0    0    0 -0.00000000000E+00 -0.00000000000E+00 -0.45593999997E+02  0.45594000000E+02  0.51100000000E-03 0. -1.
    9900012    2    1    2    0    0  0.90690432580E+01 -0.42254049206E+02  0.39963324938E+01  0.47787275429E+02  0.20000019989E+02 0.  0.
        -12    1    1    2    0    0 -0.90690432580E+01  0.42254049206E+02 -0.39963324938E+01  0.43400724571E+02  0.00000000000E+00 0.  1.
         11    1    3    3    0    0  0.36515562209E+01 -0.29934097178E+02 -0.50063321885E+01  0.30568732374E+02  0.51100000000E-03 0. -1.
        -11    1    3    3    0    0  0.72627530459E+00 -0.21227714280E+01  0.46808131243E+01  0.51907269355E+01  0.51100000000E-03 0.  1.
         12    1    3    3    0    0  0.46912117326E+01 -0.10197180600E+02  0.43218515580E+01  0.12027816119E+02  0.00000000000E+00 0. -1.
</event>
<event>
 7    1  0.2811980E-010  0.4778727E+02  0.7816164E-02  0.1312668E+00
        -11   -1    0    0    0    0  0.00000000000E+00  0.00000000000E+00  0.45593999997E+02  0.45594000000E+02  0.51100000000E-03 0. -1.
         11   -1    0    0    0    0 -0.00000000000E+00 -0.00000000000E+00 -0.45593999997E+02  0.45594000000E+02  0.51100000000E-03 0.  1.
    9900012    2    1    2    0    0 -0.11263077386E+02  0.26612952086E+02  0.32380812241E+02  0.47787272674E+02  0.20000007432E+02 0.  0.
        -12    1    1    2    0    0  0.11263077386E+02 -0.26612952086E+02 -0.32380812241E+02  0.43400727326E+02  0.00000000000E+00 0.  1.
         11    1    3    3    0    0  0.33260097163E+01  0.49257352139E+01  0.40917583161E+01  0.72157947871E+01  0.51100000000E-03 0. -1.
        -11    1    3    3    0    0 -0.15239726586E+02  0.20240836048E+02  0.20410980179E+02  0.32535347278E+02  0.51100000000E-03 0.  1.
        -12    1    3    3    0    0  0.65063948286E+00  0.14463808241E+01  0.78780737462E+01  0.80361306097E+01  0.00000000000E+00 0.  1.
</event>
<event>
 7    1  0.2811980E-010  0.4778727E+02  0.7816164E-02  0.1312668E+00
        -11   -1    0    0    0    0  0.00000000000E+00  0.00000000000E+00  0.45593999997E+02  0.45594000000E+02  0.51100000000E-03 0.  1.
         11   -1    0    0    0    0 -0.00000000000E+00 -0.00000000000E+00 -0.45593999997E+02  0.45594000000E+02  0.51100000000E-03 0. -1.
    9900012    2    1    2    0    0 -0.18912236768E+02  0.37080388301E+02  0.12288014935E+02  0.47787271813E+02  0.20000003504E+02 0.  0.
        -12    1    1    2    0    0  0.18912236768E+02 -0.37080388301E+02 -0.12288014935E+02  0.43400728187E+02  0.00000000000E+00 0.  1.
         11    1    3    3    0    0 -0.14297508669E+02  0.15979324761E+02 -0.92945323417E+00  0.21462093503E+02  0.51100000000E-03 0. -1.
        -11    1    3    3    0    0 -0.30553920395E+01  0.15675154887E+02  0.57717051348E+01  0.16981121332E+02  0.51100000000E-03 0.  1.
         12    1    3    3    0    0 -0.15593360599E+01  0.54259086531E+01  0.74457630340E+01  0.93440569785E+01  0.00000000000E+00 0. -1.
</event>
<event>
 7    1  0.2811980E-010  0.4778726E+02  0.7816164E-02  0.1312668E+00
        -11   -1    0    0    0    0  0.00000000000E+00  0.00000000000E+00  0.45593999997E+02  0.45594000000E+02  0.51100000000E-03 0. -1.
         11   -1    0    0    0    0 -0.00000000000E+00 -0.00000000000E+00 -0.45593999997E+02  0.45594000000E+02  0.51100000000E-03 0.  1.
    9900012    2    1    2    0    0  0.29486510366E+02 -0.25072315237E+02  0.19635409395E+02  0.47787255916E+02  0.19999931023E+02 0.  0.
        -12    1    1    2    0    0 -0.29486510366E+02  0.25072315237E+02 -0.19635409395E+02  0.43400744084E+02  0.00000000000E+00 0.  1.
         11    1    3    3    0    0  0.48231927013E+01 -0.10054357289E+02  0.52144630532E+01  0.12310317361E+02  0.51100000000E-03 0. -1.
        -11    1    3    3    0    0  0.24609667510E+02 -0.12369643650E+02  0.82357592865E+01  0.28748418222E+02  0.51100000000E-03 0.  1.
        -12    1    3    3    0    0  0.53650154782E-01 -0.26483142975E+01  0.61851870553E+01  0.67285203326E+01  0.00000000000E+00 0.  1.
</event>
<event>
 7    1  0.2811980E-010  0.4778728E+02  0.7816164E-02  0.1312668E+00
        -11   -1    0    0    0    0  0.00000000000E+00  0.00000000000E+00  0.45593999997E+02  0.45594000000E+02  0.51100000000E-03 0. -1.
         11   -1    0    0    0    0 -0.00000000000E+00 -0.00000000000E+00 -0.45593999997E+02  0.45594000000E+02  0.51100000000E-03 0.  1.
    9900012    2    1    2    0    0 -0.12889301894E+02  0.14750783093E+02  0.38728575802E+02  0.47787282392E+02  0.20000051740E+02 0.  0.
        -12    1    1    2    0    0  0.12889301894E+02 -0.14750783093E+02 -0.38728575802E+02  0.43400717608E+02  0.00000000000E+00 0.  1.
         11    1    3    3    0    0 -0.65317932744E+01  0.10690833839E+02  0.35517620907E+02  0.37662443451E+02  0.51100000000E-03 0. -1.
        -11    1    3    3    0    0 -0.74596642977E+01  0.40671961638E+01  0.29300250367E+01  0.89874202665E+01  0.51100000000E-03 0.  1.
         12    1    3    3    0    0  0.11021556785E+01 -0.72469093167E-02  0.28092985903E+00  0.11374186754E+01  0.00000000000E+00 0. -1.
</event>
<event>
 7    1  0.2811980E-010  0.4778727E+02  0.7816164E-02  0.1312668E+00
        -11   -1    0    0    0    0  0.00000000000E+00  0.00000000000E+00  0.45593999997E+02  0.45594000000E+02  0.51100000000E-03 0. -1.
         11   -1    0    0    0    0 -0.00000000000E+00 -0.00000000000E+00 -0.45593999997E+02  0.45594000000E+02  0.51100000000E-03 0.  1.
    9900012    2    1    2    0    0 -0.30858341057E+02  0.72604084284E+01  0.29642410589E+02  0.47787271333E+02  0.20000001314E+02 0.  0.
        -12    1    1    2    0    0  0.30858341057E+02 -0.72604084284E+01 -0.29642410589E+02  0.43400728667E+02  0.00000000000E+00 0.  1.
         11    1    3    3    0    0 -0.62274843997E+01 -0.38810398152E+01  0.13264317823E+02  0.15158699138E+02  0.51100000000E-03 0. -1.
        -11    1    3    3    0    0  0.52680570629E-01 -0.79688029007E+00  0.53895090605E+00  0.96346342924E+00  0.51100000000E-03 0.  1.
         12    1    3    3    0    0 -0.24683537228E+02  0.11938328534E+02  0.15839141860E+02  0.31665108765E+02  0.00000000000E+00 0. -1.
</event>
<event>
 7    1  0.2811980E-010  0.4778727E+02  0.7816164E-02  0.1312668E+00
        -11   -1    0    0    0    0  0.00000000000E+00  0.00000000000E+00  0.45593999997E+02  0.45594000000E+02  0.51100000000E-03 0. -1.
         11   -1    0    0    0    0 -0.00000000000E+00 -0.00000000000E+00 -0.45593999997E+02  0.45594000000E+02  0.51100000000E-03 0.  1.
    9900012    2    1    2    0    0 -0.18911781169E+02 -0.19694910295E+02  0.33735417709E+02  0.47787269977E+02  0.19999995133E+02 0.  0.
        -12    1    1    2    0    0  0.18911781169E+02  0.19694910295E+02 -0.33735417709E+02  0.43400730023E+02  0.00000000000E+00 0.  1.
         11    1    3    3    0    0 -0.12206261778E+02 -0.13467647613E+02  0.26979216249E+02  0.32530731140E+02  0.51100000000E-03 0. -1.
        -11    1    3    3    0    0  0.45534306625E+00 -0.22781495509E+01 -0.21500465392E+01  0.31654388426E+01  0.51100000000E-03 0.  1.
        -12    1    3    3    0    0 -0.71608624571E+01 -0.39491131315E+01  0.89062479989E+01  0.12091099994E+02  0.00000000000E+00 0.  1.
</event>
<event>
 7    1  0.2811980E-010  0.4778727E+02  0.7816164E-02  0.1312668E+00
        -11   -1    0    0    0    0  0.00000000000E+00  0.00000000000E+00  0.45593999997E+02  0.45594000000E+02  0.51100000000E-03 0.  1.
         11   -1    0    0    0    0 -0.00000000000E+00 -0.00000000000E+00 -0.45593999997E+02  0.45594000000E+02  0.51100000000E-03 0. -1.
    9900012    2    1    2    0    0 -0.77368476564E+01  0.22150502498E+02 -0.36511914977E+02  0.47787268349E+02  0.19999987709E+02 0.  0.
        -12    1    1    2    0    0  0.77368476564E+01 -0.22150502498E+02  0.36511914977E+02  0.43400731651E+02  0.00000000000E+00 0.  1.
         11    1    3    3    0    0 -0.13917647462E+01  0.21178969147E+02 -0.20587942431E+02  0.29569394939E+02  0.51100000000E-03 0. -1.
        -11    1    3    3    0    0 -0.40115368945E+01 -0.23398492603E+01 -0.10177984721E+02  0.11187434740E+02  0.51100000000E-03 0.  1.
        -12    1    3    3    0    0 -0.23335460157E+01  0.33113826110E+01 -0.57459878254E+01  0.70304386700E+01  0.00000000000E+00 0.  1.
</event>
<event>
 7    1  0.2811980E-010  0.4778727E+02  0.7816164E-02  0.1312668E+00
        -11   -1    0    0    0    0  0.00000000000E+00  0.00000000000E+00  0.45593999997E+02  0.45594000000E+02  0.51100000000E-03 0.  1.
         11   -1    0    0    0    0 -0.00000000000E+00 -0.00000000000E+00 -0.45593999997E+02  0.45594000000E+02  0.51100000000E-03 0. -1.
    9900012    2    1    2    0    0 -0.42978386976E+02 -0.16358600636E+01 -0.58142621687E+01  0.47787269248E+02  0.19999991811E+02 0.  0.
        -12    1    1    2    0    0  0.42978386976E+02  0.16358600636E+01  0.58142621687E+01  0.43400730752E+02  0.00000000000E+00 0.  1.
         11    1    3    3    0    0 -0.10324671475E+02 -0.69638040230E+01  0.22026392774E+00  0.12455598099E+02  0.51100000000E-03 0. -1.
        -11    1    3    3    0    0 -0.14036406641E+01 -0.83847157086E+00  0.18989963542E+01  0.25058789084E+01  0.51100000000E-03 0.  1.
         12    1    3    3    0    0 -0.31250074837E+02  0.61664155303E+01 -0.79335224506E+01  0.32825792241E+02  0.00000000000E+00 0. -1.
</event>
<event>
 7    1  0.2811980E-010  0.4778729E+02  0.7816164E-02  0.1312668E+00
        -11   -1    0    0    0    0  0.00000000000E+00  0.00000000000E+00  0.45593999997E+02  0.45594000000E+02  0.51100000000E-03 0. -1.
         11   -1    0    0    0    0 -0.00000000000E+00 -0.00000000000E+00 -0.45593999997E+02  0.45594000000E+02  0.51100000000E-03 0.  1.
    9900012    2    1    2    0    0  0.38239466933E+02 -0.19865144564E+02  0.51711712075E+01  0.47787287891E+02  0.20000076810E+02 0.  0.
        -12    1    1    2    0    0 -0.38239466933E+02  0.19865144564E+02 -0.51711712075E+01  0.43400712109E+02  0.00000000000E+00 0.  1.
         11    1    3    3    0    0  0.13190566651E+02 -0.15217498749E+02  0.20113215862E+00  0.20139607026E+02  0.51100000000E-03 0. -1.
        -11    1    3    3    0    0  0.57689453999E+01 -0.22716495377E+01 -0.27000042857E+01  0.67624807617E+01  0.51100000000E-03 0.  1.
         12    1    3    3    0    0  0.19279954883E+02 -0.23759962774E+01  0.76700433346E+01  0.20885200103E+02  0.00000000000E+00 0. -1.
</event>
<event>
 7    1  0.2811980E-010  0.4778726E+02  0.7816164E-02  0.1312668E+00
        -11   -1    0    0    0    0  0.00000000000E+00  0.00000000000E+00  0.45593999997E+02  0.45594000000E+02  0.51100000000E-03 0.  1.
         11   -1    0    0    0    0 -0.00000000000E+00 -0.00000000000E+00 -0.45593999997E+02  0.45594000000E+02  0.51100000000E-03 0. -1.
    9900012    2    1    2    0    0 -0.21705594172E+02 -0.23023626080E+02 -0.29705288779E+02  0.47787258558E+02  0.19999943071E+02 0.  0.
        -12    1    1    2    0    0  0.21705594172E+02  0.23023626080E+02  0.29705288779E+02  0.43400741442E+02  0.00000000000E+00 0.  1.
         11    1    3    3    0    0 -0.12345178810E+02 -0.19873911652E+02 -0.17712652638E+02  0.29344741742E+02  0.51100000000E-03 0. -1.
        -11    1    3    3    0    0 -0.73417973353E+01 -0.65913889879E+00 -0.15682566446E+01  0.75363042246E+01  0.51100000000E-03 0.  1.
         12    1    3    3    0    0 -0.20186180272E+01 -0.24905755291E+01 -0.10424379497E+02  0.10906212592E+02  0.00000000000E+00 0. -1.
</event>
<event>
 7    1  0.2811980E-010  0.4778728E+02  0.7816164E-02  0.1312668E+00
        -11   -1    0    0    0    0  0.00000000000E+00  0.00000000000E+00  0.45593999997E+02  0.45594000000E+02  0.51100000000E-03 0.  1.
         11   -1    0    0    0    0 -0.00000000000E+00 -0.00000000000E+00 -0.45593999997E+02  0.45594000000E+02  0.51100000000E-03 0. -1.
    9900012    2    1    2    0    0 -0.40891256183E+02  0.29256631695E+01 -0.14246701228E+02  0.47787276123E+02  0.20000023154E+02 0.  0.
        -12    1    1    2    0    0  0.40891256183E+02 -0.29256631695E+01  0.14246701228E+02  0.43400723877E+02  0.00000000000E+00 0.  1.
         11    1    3    3    0    0 -0.32473242956E+02  0.64545210855E+01 -0.16009689097E+02  0.36776113114E+02  0.51100000000E-03 0. -1.
        -11    1    3    3    0    0 -0.21529496359E+01 -0.12237026209E+01  0.33340181991E+01  0.41531094197E+01  0.51100000000E-03 0.  1.
        -12    1    3    3    0    0 -0.62650635911E+01 -0.23051552951E+01 -0.15710303298E+01  0.68580535892E+01  0.00000000000E+00 0.  1.
</event>
<event>
 7    1  0.2811980E-010  0.4778727E+02  0.7816164E-02  0.1312668E+00
        -11   -1    0    0    0    0  0.00000000000E+00  0.00000000000E+00  0.45593999997E+02  0.45594000000E+02  0.51100000000E-03 0.  1.
         11   -1    0    0    0    0 -0.00000000000E+00 -0.00000000000E+00 -0.45593999997E+02  0.45594000000E+02  0.51100000000E-03 0. -1.
    9900012    2    1    2    0    0 -0.25097674921E+01 -0.12123312901E+02 -0.41597469988E+02  0.47787272379E+02  0.20000006087E+02 0.  0.
        -12    1    1    2    0    0  0.25097674921E+01  0.12123312901E+02  0.41597469988E+02  0.43400727621E+02  0.00000000000E+00 0.  1.
         11    1    3    3    0    0  0.18992746581E+01 -0.89140938158E+00  0.22188384687E+00  0.21097600847E+01  0.51100000000E-03 0.  1.
        -11    1    3    3    0    0  0.14966764027E+01 -0.18294876533E+01 -0.27285737045E+02  0.27387926385E+02  0.51100000000E-03 0. -1.
        -12    1    3    3    0    0 -0.59057185529E+01 -0.94024158659E+01 -0.14533616791E+02  0.18289585910E+02  0.00000000000E+00 0.  1.
</event>
<event>
 7    1  0.2811980E-010  0.4778727E+02  0.7816164E-02  0.1312668E+00
        -11   -1    0    0    0    0  0.00000000000E+00  0.00000000000E+00  0.45593999997E+02  0.45594000000E+02  0.51100000000E-03 0.  1.
         11   -1    0    0    0    0 -0.00000000000E+00 -0.00000000000E+00 -0.45593999997E+02  0.45594000000E+02  0.51100000000E-03 0. -1.
    9900012    2    1    2    0    0  0.14436804977E+02 -0.10830923657E+02 -0.39470150203E+02  0.47787274174E+02  0.20000014268E+02 0.  0.
        -12    1    1    2    0    0 -0.14436804977E+02  0.10830923657E+02  0.39470150203E+02  0.43400725826E+02  0.00000000000E+00 0.  1.
         11    1    3    3    0    0  0.13772258690E+02 -0.59796014959E+01 -0.24191861883E+02  0.28472388820E+02  0.51100000000E-03 0. -1.
        -11    1    3    3    0    0 -0.19999169803E+01 -0.10328168238E+01  0.94161879475E+00  0.24398821151E+01  0.51100000000E-03 0.  1.
         12    1    3    3    0    0  0.26644632671E+01 -0.38185053367E+01 -0.16219907114E+02  0.16875003239E+02  0.00000000000E+00 0. -1.
</event>
<event>
 7    1  0.2811980E-010  0.4778727E+02  0.7816164E-02  0.1312668E+00
        -11   -1    0    0    0    0  0.00000000000E+00  0.00000000000E+00  0.45593999997E+02  0.45594000000E+02  0.51100000000E-03 0.  1.
         11   -1    0    0    0    0 -0.00000000000E+00 -0.00000000000E+00 -0.45593999997E+02  0.45594000000E+02  0.51100000000E-03 0. -1.
    9900012    2    1    2    0    0 -0.14446651245E+02  0.54251994071E+01 -0.40564579668E+02  0.47787266775E+02  0.19999980535E+02 0.  0.
        -12    1    1    2    0    0  0.14446651245E+02 -0.54251994071E+01  0.40564579668E+02  0.43400733225E+02  0.00000000000E+00 0.  1.
         11    1    3    3    0    0  0.28458514593E+01 -0.25002416100E+00 -0.14959720439E+02  0.15230056417E+02  0.51100000000E-03 0.  1.
        -11    1    3    3    0    0 -0.23272264724E+01 -0.27194925371E+00 -0.94911183533E+01  0.97760558155E+01  0.51100000000E-03 0. -1.
         12    1    3    3    0    0 -0.14965276232E+02  0.59471728218E+01 -0.16113740876E+02  0.22781154543E+02  0.00000000000E+00 0. -1.
</event>
<event>
 7    1  0.2811980E-010  0.4778731E+02  0.7816164E-02  0.1312668E+00
        -11   -1    0    0    0    0  0.00000000000E+00  0.00000000000E+00  0.45593999997E+02  0.45594000000E+02  0.51100000000E-03 0.  1.
         11   -1    0    0    0    0 -0.00000000000E+00 -0.00000000000E+00 -0.45593999997E+02  0.45594000000E+02  0.51100000000E-03 0. -1.
    9900012    2    1    2    0    0  0.51231988586E+01 -0.34119840275E+02 -0.26328860167E+02  0.47787314007E+02  0.20000195884E+02 0.  0.
        -12    1    1    2    0    0 -0.51231988586E+01  0.34119840275E+02  0.26328860167E+02  0.43400685993E+02  0.00000000000E+00 0.  1.
         11    1    3    3    0    0  0.45242076557E+01 -0.96716115740E+01 -0.14256115162E+02  0.17811382460E+02  0.51100000000E-03 0. -1.
        -11    1    3    3    0    0  0.48906369679E+01 -0.38965986082E+01 -0.42974219806E+01  0.75874664155E+01  0.51100000000E-03 0.  1.
         12    1    3    3    0    0 -0.42916457650E+01 -0.20551630093E+02 -0.77753230246E+01  0.22388465132E+02  0.00000000000E+00 0. -1.
</event>
<event>
 7    1  0.2811980E-010  0.4778727E+02  0.7816164E-02  0.1312668E+00
        -11   -1    0    0    0    0  0.00000000000E+00  0.00000000000E+00  0.45593999997E+02  0.45594000000E+02  0.51100000000E-03 0.  1.
         11   -1    0    0    0    0 -0.00000000000E+00 -0.00000000000E+00 -0.45593999997E+02  0.45594000000E+02  0.51100000000E-03 0. -1.
    9900012    2    1    2    0    0 -0.11917408089E+02  0.18103390521E+02 -0.37601410514E+02  0.47787269170E+02  0.19999991454E+02 0.  0.
        -12    1    1    2    0    0  0.11917408089E+02 -0.18103390521E+02  0.37601410514E+02  0.43400730830E+02  0.00000000000E+00 0.  1.
         11    1    3    3    0    0 -0.26013163496E+01  0.19000857931E+02 -0.22834635634E+02  0.29819792650E+02  0.51100000000E-03 0.  1.
        -11    1    3    3    0    0 -0.70918315551E+01  0.11210231037E+01 -0.95519222257E+01  0.11949476393E+02  0.51100000000E-03 0. -1.
        -12    1    3    3    0    0 -0.22242601846E+01 -0.20184905138E+01 -0.52148526543E+01  0.60180001271E+01  0.00000000000E+00 0.  1.
</event>
<event>
 7    1  0.2811980E-010  0.4778727E+02  0.7816164E-02  0.1312668E+00
        -11   -1    0    0    0    0  0.00000000000E+00  0.00000000000E+00  0.45593999997E+02  0.45594000000E+02  0.51100000000E-03 0. -1.
         11   -1    0    0    0    0 -0.00000000000E+00 -0.00000000000E+00 -0.45593999997E+02  0.45594000000E+02  0.51100000000E-03 0.  1.
    9900012    2    1    2    0    0 -0.28694813969E+02 -0.28629848227E+01  0.32435072996E+02  0.47787274302E+02  0.20000014853E+02 0.  0.
        -12    1    1    2    0    0  0.28694813969E+02  0.28629848227E+01 -0.32435072996E+02  0.43400725698E+02  0.00000000000E+00 0.  1.
         11    1    3    3    0    0 -0.24579494587E+02 -0.44791679384E+01  0.17554255168E+02  0.30534674950E+02  0.51100000000E-03 0. -1.
        -11    1    3    3    0    0 -0.18989730316E+01 -0.11391521381E+01  0.13114018381E+02  0.13299670843E+02  0.51100000000E-03 0.  1.
        -12    1    3    3    0    0 -0.22163463508E+01  0.27553352538E+01  0.17667994470E+01  0.39529285085E+01  0.00000000000E+00 0.  1.
</event>
<event>
 7    1  0.2811980E-010  0.4778727E+02  0.7816164E-02  0.1312668E+00
        -11   -1    0    0    0    0  0.00000000000E+00  0.00000000000E+00  0.45593999997E+02  0.45594000000E+02  0.51100000000E-03 0.  1.
         11   -1    0    0    0    0 -0.00000000000E+00 -0.00000000000E+00 -0.45593999997E+02  0.45594000000E+02  0.51100000000E-03 0. -1.
    9900012    2    1    2    0    0  0.27332958247E+02 -0.26888371717E+00 -0.33711422910E+02  0.47787274895E+02  0.20000017558E+02 0.  0.
        -12    1    1    2    0    0 -0.27332958247E+02  0.26888371717E+00  0.33711422910E+02  0.43400725105E+02  0.00000000000E+00 0.  1.
         11    1    3    3    0    0  0.20114167754E+02 -0.27887933816E+01 -0.19743998364E+02  0.28322827977E+02  0.51100000000E-03 0. -1.
        -11    1    3    3    0    0  0.75295591142E+01  0.17003312375E+01 -0.27221702017E+01  0.81850838505E+01  0.51100000000E-03 0.  1.
         12    1    3    3    0    0 -0.31076862175E+00  0.81957842693E+00 -0.11245254345E+02  0.11279363068E+02  0.00000000000E+00 0. -1.
</event>
<event>
 7    1  0.2811980E-010  0.4778727E+02  0.7816164E-02  0.1312668E+00
        -11   -1    0    0    0    0  0.00000000000E+00  0.00000000000E+00  0.45593999997E+02  0.45594000000E+02  0.51100000000E-03 0.  1.
         11   -1    0    0    0    0 -0.00000000000E+00 -0.00000000000E+00 -0.45593999997E+02  0.45594000000E+02  0.51100000000E-03 0. -1.
    9900012    2    1    2    0    0 -0.42560154798E+02 -0.27342489571E+01  0.80486210162E+01  0.47787271964E+02  0.20000004193E+02 0.  0.
        -12    1    1    2    0    0  0.42560154798E+02  0.27342489571E+01 -0.80486210162E+01  0.43400728036E+02  0.00000000000E+00 0.  1.
         11    1    3    3    0    0 -0.18723212833E+02 -0.42493763524E+01 -0.13993672154E+01  0.19250301999E+02  0.51100000000E-03 0. -1.
        -11    1    3    3    0    0 -0.20097242688E+02  0.27916344038E+01  0.12242161603E+02  0.23697318567E+02  0.51100000000E-03 0.  1.
        -12    1    3    3    0    0 -0.37396992774E+01 -0.12765070084E+01 -0.27941733714E+01  0.48396513983E+01  0.00000000000E+00 0.  1.
</event>
<event>
 7    1  0.2811980E-010  0.4778727E+02  0.7816164E-02  0.1312668E+00
        -11   -1    0    0    0    0  0.00000000000E+00  0.00000000000E+00  0.45593999997E+02  0.45594000000E+02  0.51100000000E-03 0.  1.
         11   -1    0    0    0    0 -0.00000000000E+00 -0.00000000000E+00 -0.45593999997E+02  0.45594000000E+02  0.51100000000E-03 0. -1.
    9900012    2    1    2    0    0  0.12821138793E+02  0.49708516078E+01 -0.41164697761E+02  0.47787270658E+02  0.19999998237E+02 0.  0.
        -12    1    1    2    0    0 -0.12821138793E+02 -0.49708516078E+01  0.41164697761E+02  0.43400729342E+02  0.00000000000E+00 0.  1.
         11    1    3    3    0    0  0.70632474122E+01  0.99507030927E+01 -0.21610067559E+02  0.24817352321E+02  0.51100000000E-03 0. -1.
        -11    1    3    3    0    0 -0.18170330695E+01  0.23735751003E+00 -0.79699917186E+01  0.81779408177E+01  0.51100000000E-03 0.  1.
         12    1    3    3    0    0  0.75749244504E+01 -0.52172089949E+01 -0.11584638483E+02  0.14791977519E+02  0.00000000000E+00 0. -1.
</event>
<event>
 7    1  0.2811980E-010  0.4778727E+02  0.7816164E-02  0.1312668E+00
        -11   -1    0    0    0    0  0.00000000000E+00  0.00000000000E+00  0.45593999997E+02  0.45594000000E+02  0.51100000000E-03 0.  1.
         11   -1    0    0    0    0 -0.00000000000E+00 -0.00000000000E+00 -0.45593999997E+02  0.45594000000E+02  0.51100000000E-03 0. -1.
    9900012    2    1    2    0    0  0.36152473166E+02 -0.23269644844E+02 -0.59283680789E+01  0.47787271489E+02  0.20000002026E+02 0.  0.
        -12    1    1    2    0    0 -0.36152473166E+02  0.23269644844E+02  0.59283680789E+01  0.43400728511E+02  0.00000000000E+00 0.  1.
         11    1    3    3    0    0  0.19867832846E+02 -0.73845142215E+01  0.24677383454E+01  0.21338968229E+02  0.51100000000E-03 0. -1.
        -11    1    3    3    0    0  0.11088729548E+01  0.14901978278E+01  0.10939704683E+00  0.18607140487E+01  0.51100000000E-03 0.  1.
         12    1    3    3    0    0  0.15175767366E+02 -0.17375328451E+02 -0.85055034711E+01  0.24587589211E+02  0.00000000000E+00 0. -1.
</event>
<event>
 7    1  0.2811980E-010  0.4778729E+02  0.7816164E-02  0.1312668E+00
        -11   -1    0    0    0    0  0.00000000000E+00  0.00000000000E+00  0.45593999997E+02  0.45594000000E+02  0.51100000000E-03 0. -1.
         11   -1    0    0    0    0 -0.00000000000E+00 -0.00000000000E+00 -0.45593999997E+02  0.45594000000E+02  0.51100000000E-03 0.  1.
    9900012    2    1    2    0    0  0.15396838350E+02 -0.28842280366E+02  0.28542634445E+02  0.47787288612E+02  0.20000080099E+02 0.  0.
        -12    1    1    2    0    0 -0.15396838350E+02  0.28842280366E+02 -0.28542634445E+02  0.43400711388E+02  0.00000000000E+00 0.  1.
         11    1    3    3    0    0 -0.10279899570E+01 -0.20968910710E+01  0.10490679977E+01  0.25601287937E+01  0.51100000000E-03 0. -1.
        -11    1    3    3    0    0  0.12106626522E+02 -0.23399145918E+02  0.12288658540E+02  0.29070630616E+02  0.51100000000E-03 0.  1.
        -12    1    3    3    0    0  0.43182017850E+01 -0.33462433765E+01  0.15204907908E+02  0.16156529203E+02  0.00000000000E+00 0.  1.
</event>
<event>
 7    1  0.2811980E-010  0.4778727E+02  0.7816164E-02  0.1312668E+00
        -11   -1    0    0    0    0  0.00000000000E+00  0.00000000000E+00  0.45593999997E+02  0.45594000000E+02  0.51100000000E-03 0.  1.
         11   -1    0    0    0    0 -0.00000000000E+00 -0.00000000000E+00 -0.45593999997E+02  0.45594000000E+02  0.51100000000E-03 0. -1.
    9900012    2    1    2    0    0  0.70519796092E+01  0.31761575926E+02 -0.28724468932E+02  0.47787271467E+02  0.20000001929E+02 0.  0.
        -12    1    1    2    0    0 -0.70519796092E+01 -0.31761575926E+02  0.28724468932E+02  0.43400728533E+02  0.00000000000E+00 0.  1.
         11    1    3    3    0    0  0.11432604786E+02  0.12162276890E+02 -0.94058017153E+01  0.19159711310E+02  0.51100000000E-03 0. -1.
        -11    1    3    3    0    0 -0.13064393745E+01  0.16419998493E+02 -0.13370193765E+02  0.21215211899E+02  0.51100000000E-03 0.  1.
         12    1    3    3    0    0 -0.30741858019E+01  0.31793005436E+01 -0.59484734520E+01  0.74123482582E+01  0.00000000000E+00 0. -1.
</event>
<event>
 7    1  0.2811980E-010  0.4778727E+02  0.7816164E-02  0.1312668E+00
        -11   -1    0    0    0    0  0.00000000000E+00  0.00000000000E+00  0.45593999997E+02  0.45594000000E+02  0.51100000000E-03 0.  1.
         11   -1    0    0    0    0 -0.00000000000E+00 -0.00000000000E+00 -0.45593999997E+02  0.45594000000E+02  0.51100000000E-03 0. -1.
    9900012    2    1    2    0    0 -0.66475710579E+01 -0.40768160215E+02 -0.13318790486E+02  0.47787271108E+02  0.20000000292E+02 0.  0.
        -12    1    1    2    0    0  0.66475710579E+01  0.40768160215E+02  0.13318790486E+02  0.43400728892E+02  0.00000000000E+00 0.  1.
         11    1    3    3    0    0  0.38559604000E+01 -0.21629814756E+02 -0.11266680381E+02  0.24691200943E+02  0.51100000000E-03 0. -1.
        -11    1    3    3    0    0 -0.17629737775E+01 -0.44496971419E+01  0.25110625365E+01  0.54049344600E+01  0.51100000000E-03 0.  1.
         12    1    3    3    0    0 -0.87405576805E+01 -0.14688648318E+02 -0.45631726415E+01  0.17691135705E+02  0.00000000000E+00 0. -1.
</event>
<event>
 7    1  0.2811980E-010  0.4778727E+02  0.7816164E-02  0.1312668E+00
        -11   -1    0    0    0    0  0.00000000000E+00  0.00000000000E+00  0.45593999997E+02  0.45594000000E+02  0.51100000000E-03 0.  1.
         11   -1    0    0    0    0 -0.00000000000E+00 -0.00000000000E+00 -0.45593999997E+02  0.45594000000E+02  0.51100000000E-03 0. -1.
    9900012    2    1    2    0    0  0.44311400334E+01 -0.36646842359E+02 -0.22825367349E+02  0.47787268998E+02  0.19999990671E+02 0.  0.
        -12    1    1    2    0    0 -0.44311400334E+01  0.36646842359E+02  0.22825367349E+02  0.43400731002E+02  0.00000000000E+00 0.  1.
         11    1    3    3    0    0  0.42951876997E+01 -0.93410762317E+01 -0.15129103903E+02  0.18291914272E+02  0.51100000000E-03 0. -1.
        -11    1    3    3    0    0 -0.13375284233E+01 -0.25647328597E+02 -0.86229362534E+01  0.27091132799E+02  0.51100000000E-03 0.  1.
         12    1    3    3    0    0  0.14734807569E+01 -0.16584375300E+01  0.92667280797E+00  0.24042219272E+01  0.00000000000E+00 0. -1.
</event>
<event>
 7    1  0.2811980E-010  0.4778727E+02  0.7816164E-02  0.1312668E+00
        -11   -1    0    0    0    0  0.00000000000E+00  0.00000000000E+00  0.45593999997E+02  0.45594000000E+02  0.51100000000E-03 0.  1.
         11   -1    0    0    0    0 -0.00000000000E+00 -0.00000000000E+00 -0.45593999997E+02  0.45594000000E+02  0.51100000000E-03 0. -1.
    9900012    2    1    2    0    0 -0.20877358241E+01  0.16776495533E+02 -0.39972661356E+02  0.47787273058E+02  0.20000009178E+02 0.  0.
        -12    1    1    2    0    0  0.20877358241E+01 -0.16776495533E+02  0.39972661356E+02  0.43400726942E+02  0.00000000000E+00 0.  1.
         11    1    3    3    0    0  0.42736541798E+01  0.83126945415E+01 -0.39424674709E+01  0.10144361025E+02  0.51100000000E-03 0. -1.
        -11    1    3    3    0    0 -0.54745128548E+01  0.76853498036E+01 -0.34092291691E+02  0.35373991090E+02  0.51100000000E-03 0.  1.
         12    1    3    3    0    0 -0.88687714917E+00  0.77845118835E+00 -0.19379021937E+01  0.22689209424E+01  0.00000000000E+00 0. -1.
</event>
<event>
 7    1  0.2811980E-010  0.4778727E+02  0.7816164E-02  0.1312668E+00
        -11   -1    0    0    0    0  0.00000000000E+00  0.00000000000E+00  0.45593999997E+02  0.45594000000E+02  0.51100000000E-03 0.  1.
         11   -1    0    0    0    0 -0.00000000000E+00 -0.00000000000E+00 -0.45593999997E+02  0.45594000000E+02  0.51100000000E-03 0. -1.
    9900012    2    1    2    0    0 -0.41520187867E+02 -0.12064140048E+02 -0.37621570236E+01  0.47787270731E+02  0.19999998571E+02 0.  0.
        -12    1    1    2    0    0  0.41520187867E+02  0.12064140048E+02  0.37621570236E+01  0.43400729269E+02  0.00000000000E+00 0.  1.
         11    1    3    3    0    0 -0.23924737893E+02 -0.27769716865E+00 -0.31677309652E+01  0.24135134529E+02  0.51100000000E-03 0. -1.
        -11    1    3    3    0    0  0.68006303419E+00 -0.22714437596E+01  0.17045242852E+01  0.29201619448E+01  0.51100000000E-03 0.  1.
         12    1    3    3    0    0 -0.18275513008E+02 -0.95149991192E+01 -0.22989503436E+01  0.20731974258E+02  0.00000000000E+00 0. -1.
</event>
<event>
 7    1  0.2811980E-010  0.4778727E+02  0.7816164E-02  0.1312668E+00
        -11   -1    0    0    0    0  0.00000000000E+00  0.00000000000E+00  0.45593999997E+02  0.45594000000E+02  0.51100000000E-03 0. -1.
         11   -1    0    0    0    0 -0.00000000000E+00 -0.00000000000E+00 -0.45593999997E+02  0.45594000000E+02  0.51100000000E-03 0.  1.
    9900012    2    1    2    0    0  0.26397380594E+02  0.40503176538E+01  0.34211059919E+02  0.47787269636E+02  0.19999993580E+02 0.  0.
        -12    1    1    2    0    0 -0.26397380594E+02 -0.40503176538E+01 -0.34211059919E+02  0.43400730364E+02  0.00000000000E+00 0.  1.
         11    1    3    3    0    0  0.14555360814E+01  0.18640457443E+01  0.11784054744E+02  0.12019034831E+02  0.51100000000E-03 0. -1.
        -11    1    3    3    0    0 -0.12355892012E+01 -0.80706465979E+00  0.78626727335E+00  0.16721993079E+01  0.51100000000E-03 0.  1.
         12    1    3    3    0    0  0.26177433714E+02  0.29933365693E+01  0.21640737902E+02  0.34096035497E+02  0.00000000000E+00 0. -1.
</event>
<event>
 7    1  0.2811980E-010  0.4778727E+02  0.7816164E-02  0.1312668E+00
        -11   -1    0    0    0    0  0.00000000000E+00  0.00000000000E+00  0.45593999997E+02  0.45594000000E+02  0.51100000000E-03 0.  1.
         11   -1    0    0    0    0 -0.00000000000E+00 -0.00000000000E+00 -0.45593999997E+02  0.45594000000E+02  0.51100000000E-03 0. -1.
    9900012    2    1    2    0    0 -0.10630049786E+02 -0.27928531070E+02 -0.31474155550E+02  0.47787271046E+02  0.20000000005E+02 0.  0.
        -12    1    1    2    0    0  0.10630049786E+02  0.27928531070E+02  0.31474155550E+02  0.43400728954E+02  0.00000000000E+00 0.  1.
         11    1    3    3    0    0 -0.67062830231E+01 -0.67364201814E+01 -0.10660221070E+02  0.14282643396E+02  0.51100000000E-03 0. -1.
        -11    1    3    3    0    0 -0.79588513064E+01 -0.20424196359E+02 -0.19023495653E+02  0.29023860841E+02  0.51100000000E-03 0.  1.
        -12    1    3    3    0    0  0.40350845434E+01 -0.76791452972E+00 -0.17904388269E+01  0.44807668083E+01  0.00000000000E+00 0.  1.
</event>
<event>
 7    1  0.2811980E-010  0.4778725E+02  0.7816164E-02  0.1312668E+00
        -11   -1    0    0    0    0  0.00000000000E+00  0.00000000000E+00  0.45593999997E+02  0.45594000000E+02  0.51100000000E-03 0. -1.
         11   -1    0    0    0    0 -0.00000000000E+00 -0.00000000000E+00 -0.45593999997E+02  0.45594000000E+02  0.51100000000E-03 0.  1.
    9900012    2    1    2    0    0  0.11180201060E+02  0.17179350262E+01  0.41900800016E+02  0.47787248411E+02  0.19999896806E+02 0.  0.
        -12    1    1    2    0    0 -0.11180201060E+02 -0.17179350262E+01 -0.41900800016E+02  0.43400751589E+02  0.00000000000E+00 0.  1.
         11    1    3    3    0    0  0.98704827973E+01 -0.22283669258E+01  0.10566109023E+02  0.14629925152E+02  0.51100000000E-03 0. -1.
        -11    1    3    3    0    0  0.19065907979E+01 -0.78968583785E+00  0.25656057000E+02  0.25738919038E+02  0.51100000000E-03 0.  1.
         12    1    3    3    0    0 -0.59687253513E+00  0.47359877899E+01  0.56786339931E+01  0.74184042217E+01  0.00000000000E+00 0. -1.
</event>
<event>
 7    1  0.2811980E-010  0.4778727E+02  0.7816164E-02  0.1312668E+00
        -11   -1    0    0    0    0  0.00000000000E+00  0.00000000000E+00  0.45593999997E+02  0.45594000000E+02  0.51100000000E-03 0.  1.
         11   -1    0    0    0    0 -0.00000000000E+00 -0.00000000000E+00 -0.45593999997E+02  0.45594000000E+02  0.51100000000E-03 0. -1.
    9900012    2    1    2    0    0 -0.72639680083E+01 -0.42755473448E+02  0.16815115980E+01  0.47787271639E+02  0.20000002712E+02 0.  0.
        -12    1    1    2    0    0  0.72639680083E+01  0.42755473448E+02 -0.16815115980E+01  0.43400728361E+02  0.00000000000E+00 0.  1.
         11    1    3    3    0    0 -0.25565383772E+01 -0.13330112569E+02 -0.29525559455E+01  0.13890477905E+02  0.51100000000E-03 0. -1.
        -11    1    3    3    0    0  0.64614626407E-02 -0.19822168672E+01 -0.42328884810E+01  0.46740315160E+01  0.51100000000E-03 0.  1.
        -12    1    3    3    0    0 -0.47138910937E+01 -0.27443144012E+02  0.88669560244E+01  0.29222762218E+02  0.00000000000E+00 0.  1.
</event>
<event>
 7    1  0.2811980E-010  0.4778727E+02  0.7816164E-02  0.1312668E+00
        -11   -1    0    0    0    0  0.00000000000E+00  0.00000000000E+00  0.45593999997E+02  0.45594000000E+02  0.51100000000E-03 0.  1.
         11   -1    0    0    0    0 -0.00000000000E+00 -0.00000000000E+00 -0.45593999997E+02  0.45594000000E+02  0.51100000000E-03 0. -1.
    9900012    2    1    2    0    0 -0.15722736418E+02  0.19233871275E+02 -0.35587595183E+02  0.47787272177E+02  0.20000005162E+02 0.  0.
        -12    1    1    2    0    0  0.15722736418E+02 -0.19233871275E+02  0.35587595183E+02  0.43400727823E+02  0.00000000000E+00 0.  1.
         11    1    3    3    0    0 -0.88288421634E+01  0.12018685826E+02 -0.11062762072E+02  0.18568305465E+02  0.51100000000E-03 0. -1.
        -11    1    3    3    0    0 -0.26799218423E+01 -0.32576995391E+01 -0.41030211408E+01  0.58846724727E+01  0.51100000000E-03 0.  1.
        -12    1    3    3    0    0 -0.42139724121E+01  0.10472884988E+02 -0.20421811970E+02  0.23334294239E+02  0.00000000000E+00 0.  1.
</event>
<event>
 7    1  0.2811980E-010  0.4778727E+02  0.7816164E-02  0.1312668E+00
        -11   -1    0    0    0    0  0.00000000000E+00  0.00000000000E+00  0.45593999997E+02  0.45594000000E+02  0.51100000000E-03 0. -1.
         11   -1    0    0    0    0 -0.00000000000E+00 -0.00000000000E+00 -0.45593999997E+02  0.45594000000E+02  0.51100000000E-03 0.  1.
    9900012    2    1    2    0    0  0.14403643335E+02  0.33677577274E+02  0.23280444939E+02  0.47787271101E+02  0.20000000260E+02 0.  0.
        -12    1    1    2    0    0 -0.14403643335E+02 -0.33677577274E+02 -0.23280444939E+02  0.43400728899E+02  0.00000000000E+00 0.  1.
         11    1    3    3    0    0  0.34136216163E+01  0.15497955568E+02  0.54433824932E+01  0.16777063288E+02  0.51100000000E-03 0. -1.
        -11    1    3    3    0    0  0.48315819886E+01 -0.11666299206E+01  0.46074739811E+01  0.67774646168E+01  0.51100000000E-03 0.  1.
        -12    1    3    3    0    0  0.61584397297E+01  0.19346251626E+02  0.13229588465E+02  0.24232743197E+02  0.00000000000E+00 0.  1.
</event>
<event>
 7    1  0.2811980E-010  0.4778728E+02  0.7816164E-02  0.1312668E+00
        -11   -1    0    0    0    0  0.00000000000E+00  0.00000000000E+00  0.45593999997E+02  0.45594000000E+02  0.51100000000E-03 0.  1.
         11   -1    0    0    0    0 -0.00000000000E+00 -0.00000000000E+00 -0.45593999997E+02  0.45594000000E+02  0.51100000000E-03 0. -1.
    9900012    2    1    2    0    0 -0.34600452794E+02  0.21119485748E+02 -0.15504797610E+02  0.47787276957E+02  0.20000026956E+02 0.  0.
        -12    1    1    2    0    0  0.34600452794E+02 -0.21119485748E+02  0.15504797610E+02  0.43400723043E+02  0.00000000000E+00 0.  1.
         11    1    3    3    0    0 -0.28852574533E+02  0.12062023363E+02 -0.11648110611E+02  0.33371274262E+02  0.51100000000E-03 0. -1.
        -11    1    3    3    0    0 -0.25147907587E+00 -0.54028674634E+00 -0.32876341741E+01  0.33412108909E+01  0.51100000000E-03 0.  1.
         12    1    3    3    0    0 -0.54963991844E+01  0.95977491305E+01 -0.56905282470E+00  0.11074791803E+02  0.00000000000E+00 0. -1.
</event>
<event>
 7    1  0.2811980E-010  0.4778727E+02  0.7816164E-02  0.1312668E+00
        -11   -1    0    0    0    0  0.00000000000E+00  0.00000000000E+00  0.45593999997E+02  0.45594000000E+02  0.51100000000E-03 0.  1.
         11   -1    0    0    0    0 -0.00000000000E+00 -0.00000000000E+00 -0.45593999997E+02  0.45594000000E+02  0.51100000000E-03 0. -1.
    9900012    2    1    2    0    0 -0.34721645454E+02 -0.26038959473E+02  0.53895538902E-01  0.47787274451E+02  0.20000015532E+02 0.  0.
        -12    1    1    2    0    0  0.34721645454E+02  0.26038959473E+02 -0.53895538902E-01  0.43400725549E+02  0.00000000000E+00 0.  1.
         11    1    3    3    0    0 -0.16094031118E+02 -0.90817738557E+01 -0.52271428156E+01  0.19204673292E+02  0.51100000000E-03 0. -1.
        -11    1    3    3    0    0 -0.33790376412E+01 -0.73505138426E+00  0.52885775822E+01  0.63188012330E+01  0.51100000000E-03 0.  1.
        -12    1    3    3    0    0 -0.15248576695E+02 -0.16222134233E+02 -0.75392276439E-02  0.22263799926E+02  0.00000000000E+00 0.  1.
</event>
<event>
 7    1  0.2811980E-010  0.4778727E+02  0.7816164E-02  0.1312668E+00
        -11   -1    0    0    0    0  0.00000000000E+00  0.00000000000E+00  0.45593999997E+02  0.45594000000E+02  0.51100000000E-03 0.  1.
         11   -1    0    0    0    0 -0.00000000000E+00 -0.00000000000E+00 -0.45593999997E+02  0.45594000000E+02  0.51100000000E-03 0. -1.
    9900012    2    1    2    0    0  0.32821983284E+02  0.16766124503E+02 -0.22918064117E+02  0.47787272121E+02  0.20000004909E+02 0.  0.
        -12    1    1    2    0    0 -0.32821983284E+02 -0.16766124503E+02  0.22918064117E+02  0.43400727879E+02  0.00000000000E+00 0.  1.
         11    1    3    3    0    0  0.87559552994E+01  0.11682038037E+02 -0.11453517487E+01  0.14644063534E+02  0.51100000000E-03 0. -1.
        -11    1    3    3    0    0  0.12991394432E+00 -0.40082289727E+00 -0.25131495954E+00  0.49060788611E+00  0.51100000000E-03 0.  1.
         12    1    3    3    0    0  0.23936114040E+02  0.54849093625E+01 -0.21521397409E+02  0.32652600701E+02  0.00000000000E+00 0. -1.
</event>
<event>
 7    1  0.2811980E-010  0.4778728E+02  0.7816164E-02  0.1312668E+00
        -11   -1    0    0    0    0  0.00000000000E+00  0.00000000000E+00  0.45593999997E+02  0.45594000000E+02  0.51100000000E-03 0.  1.
         11   -1    0    0    0    0 -0.00000000000E+00 -0.00000000000E+00 -0.45593999997E+02  0.45594000000E+02  0.51100000000E-03 0. -1.
    9900012    2    1    2    0    0  0.48816642151E+01 -0.31539060051E+02 -0.29412240931E+02  0.47787275686E+02  0.20000021164E+02 0.  0.
        -12    1    1    2    0    0 -0.48816642151E+01  0.31539060051E+02  0.29412240931E+02  0.43400724314E+02  0.00000000000E+00 0.  1.
         11    1    3    3    0    0  0.34101517762E+01 -0.10852866330E+02 -0.15219957694E+02  0.19001604016E+02  0.51100000000E-03 0. -1.
        -11    1    3    3    0    0 -0.28359888440E+01 -0.13771728349E+02 -0.21167035789E+01  0.14219133895E+02  0.51100000000E-03 0.  1.
        -12    1    3    3    0    0  0.43075012829E+01 -0.69144653721E+01 -0.12075579657E+02  0.14566537775E+02  0.00000000000E+00 0.  1.
</event>
<event>
 7    1  0.2811980E-010  0.4778727E+02  0.7816164E-02  0.1312668E+00
        -11   -1    0    0    0    0  0.00000000000E+00  0.00000000000E+00  0.45593999997E+02  0.45594000000E+02  0.51100000000E-03 0.  1.
         11   -1    0    0    0    0 -0.00000000000E+00 -0.00000000000E+00 -0.45593999997E+02  0.45594000000E+02  0.51100000000E-03 0. -1.
    9900012    2    1    2    0    0 -0.11771238267E+02  0.25722447393E+02 -0.32915305870E+02  0.47787266011E+02  0.19999977052E+02 0.  0.
        -12    1    1    2    0    0  0.11771238267E+02 -0.25722447393E+02  0.32915305870E+02  0.43400733989E+02  0.00000000000E+00 0.  1.
         11    1    3    3    0    0 -0.35405935574E+01  0.96107302544E+01 -0.18839817313E+02  0.21443895528E+02  0.51100000000E-03 0. -1.
        -11    1    3    3    0    0 -0.30159637674E+01  0.15564272209E+02 -0.65095858068E+01  0.17138182940E+02  0.51100000000E-03 0.  1.
        -12    1    3    3    0    0 -0.52146809421E+01  0.54744492933E+00 -0.75659027507E+01  0.92051875436E+01  0.00000000000E+00 0.  1.
</event>
<event>
 7    1  0.2811980E-010  0.4778727E+02  0.7816164E-02  0.1312668E+00
        -11   -1    0    0    0    0  0.00000000000E+00  0.00000000000E+00  0.45593999997E+02  0.45594000000E+02  0.51100000000E-03 0.  1.
         11   -1    0    0    0    0 -0.00000000000E+00 -0.00000000000E+00 -0.45593999997E+02  0.45594000000E+02  0.51100000000E-03 0. -1.
    9900012    2    1    2    0    0  0.31317096259E+02 -0.19274929269E+02 -0.23050810255E+02  0.47787271091E+02  0.20000000215E+02 0.  0.
        -12    1    1    2    0    0 -0.31317096259E+02  0.19274929269E+02  0.23050810255E+02  0.43400728909E+02  0.00000000000E+00 0.  1.
         11    1    3    3    0    0  0.91177814396E+00 -0.44990402762E+01 -0.48921830605E+01  0.67086629182E+01  0.51100000000E-03 0. -1.
        -11    1    3    3    0    0  0.69692492885E+01 -0.12382859129E-01 -0.10026948391E+02  0.12211072159E+02  0.51100000000E-03 0.  1.
        -12    1    3    3    0    0  0.23436068826E+02 -0.14763506134E+02 -0.81316788035E+01  0.28867536015E+02  0.00000000000E+00 0.  1.
</event>
<event>
 7    1  0.2811980E-010  0.4778727E+02  0.7816164E-02  0.1312668E+00
        -11   -1    0    0    0    0  0.00000000000E+00  0.00000000000E+00  0.45593999997E+02  0.45594000000E+02  0.51100000000E-03 0.  1.
         11   -1    0    0    0    0 -0.00000000000E+00 -0.00000000000E+00 -0.45593999997E+02  0.45594000000E+02  0.51100000000E-03 0. -1.
    9900012    2    1    2    0    0 -0.86321366570E+01 -0.24885177594E+02 -0.34494019902E+02  0.47787271249E+02  0.20000000932E+02 0.  0.
        -12    1    1    2    0    0  0.86321366570E+01  0.24885177594E+02  0.34494019902E+02  0.43400728751E+02  0.00000000000E+00 0.  1.
         11    1    3    3    0    0 -0.53773338231E+01  0.10845390796E+01 -0.11686555431E+02  0.12909977621E+02  0.51100000000E-03 0.  1.
        -11    1    3    3    0    0 -0.38846808562E+01 -0.20246671703E+02 -0.17371896802E+02  0.26959251829E+02  0.51100000000E-03 0. -1.
        -12    1    3    3    0    0  0.62987802229E+00 -0.57230449700E+01 -0.54355676690E+01  0.79180417993E+01  0.00000000000E+00 0.  1.
</event>
<event>
 7    1  0.2811980E-010  0.4778727E+02  0.7816164E-02  0.1312668E+00
        -11   -1    0    0    0    0  0.00000000000E+00  0.00000000000E+00  0.45593999997E+02  0.45594000000E+02  0.51100000000E-03 0.  1.
         11   -1    0    0    0    0 -0.00000000000E+00 -0.00000000000E+00 -0.45593999997E+02  0.45594000000E+02  0.51100000000E-03 0. -1.
    9900012    2    1    2    0    0  0.42609689839E+01 -0.29146623760E+02 -0.31873840324E+02  0.47787271547E+02  0.20000002290E+02 0.  0.
        -12    1    1    2    0    0 -0.42609689839E+01  0.29146623760E+02  0.31873840324E+02  0.43400728453E+02  0.00000000000E+00 0.  1.
         11    1    3    3    0    0  0.16393972487E+01 -0.11575968738E+02 -0.56616682991E+01  0.12990194908E+02  0.51100000000E-03 0. -1.
        -11    1    3    3    0    0 -0.15267301700E+01 -0.34760543481E+01 -0.17082230892E+02  0.17499042012E+02  0.51100000000E-03 0.  1.
        -12    1    3    3    0    0  0.41483019051E+01 -0.14094600674E+02 -0.91299411331E+01  0.17298034627E+02  0.00000000000E+00 0.  1.
</event>
<event>
 7    1  0.2811980E-010  0.4778727E+02  0.7816164E-02  0.1312668E+00
        -11   -1    0    0    0    0  0.00000000000E+00  0.00000000000E+00  0.45593999997E+02  0.45594000000E+02  0.51100000000E-03 0.  1.
         11   -1    0    0    0    0 -0.00000000000E+00 -0.00000000000E+00 -0.45593999997E+02  0.45594000000E+02  0.51100000000E-03 0. -1.
    9900012    2    1    2    0    0 -0.23294720363E+02 -0.11491568604E+02  0.34769575754E+02  0.47787267934E+02  0.19999985818E+02 0.  0.
        -12    1    1    2    0    0  0.23294720363E+02  0.11491568604E+02 -0.34769575754E+02  0.43400732066E+02  0.00000000000E+00 0.  1.
         11    1    3    3    0    0 -0.41011277396E+01 -0.25166674007E+01  0.77759344078E+01  0.91442889126E+01  0.51100000000E-03 0. -1.
        -11    1    3    3    0    0 -0.43723895024E+01 -0.42784386850E+01 -0.13961411104E+01  0.62747141611E+01  0.51100000000E-03 0.  1.
        -12    1    3    3    0    0 -0.14821203121E+02 -0.46964625181E+01  0.28389782456E+02  0.32368264860E+02  0.00000000000E+00 0.  1.
</event>
<event>
 7    1  0.2811980E-010  0.4778727E+02  0.7816164E-02  0.1312668E+00
        -11   -1    0    0    0    0  0.00000000000E+00  0.00000000000E+00  0.45593999997E+02  0.45594000000E+02  0.51100000000E-03 0. -1.
         11   -1    0    0    0    0 -0.00000000000E+00 -0.00000000000E+00 -0.45593999997E+02  0.45594000000E+02  0.51100000000E-03 0.  1.
    9900012    2    1    2    0    0  0.79681327667E+01 -0.29729795770E+02  0.30598550391E+02  0.47787272099E+02  0.20000004810E+02 0.  0.
        -12    1    1    2    0    0 -0.79681327667E+01  0.29729795770E+02 -0.30598550391E+02  0.43400727901E+02  0.00000000000E+00 0.  1.
         11    1    3    3    0    0  0.10786939766E+02 -0.16128953481E+02  0.18360007066E+02  0.26713125418E+02  0.51100000000E-03 0. -1.
        -11    1    3    3    0    0 -0.49086096534E+01 -0.56639315973E+01  0.16452687684E+01  0.76734268387E+01  0.51100000000E-03 0.  1.
        -12    1    3    3    0    0  0.20898026543E+01 -0.79369106913E+01  0.10593274557E+02  0.13400719842E+02  0.00000000000E+00 0.  1.
</event>
<event>
 7    1  0.2811980E-010  0.4778727E+02  0.7816164E-02  0.1312668E+00
        -11   -1    0    0    0    0  0.00000000000E+00  0.00000000000E+00  0.45593999997E+02  0.45594000000E+02  0.51100000000E-03 0.  1.
         11   -1    0    0    0    0 -0.00000000000E+00 -0.00000000000E+00 -0.45593999997E+02  0.45594000000E+02  0.51100000000E-03 0. -1.
    9900012    2    1    2    0    0 -0.10034765623E+02  0.41542303058E+02 -0.75606652665E+01  0.47787272774E+02  0.20000007884E+02 0.  0.
        -12    1    1    2    0    0  0.10034765623E+02 -0.41542303058E+02  0.75606652665E+01  0.43400727226E+02  0.00000000000E+00 0.  1.
         11    1    3    3    0    0  0.27823902377E+01  0.16744217560E+02 -0.89230459832E+01  0.19176320476E+02  0.51100000000E-03 0. -1.
        -11    1    3    3    0    0 -0.64004875580E+01  0.15434016525E+02  0.34707102512E+01  0.17065196658E+02  0.51100000000E-03 0.  1.
         12    1    3    3    0    0 -0.64166683030E+01  0.93640689738E+01 -0.21083295345E+01  0.11545755639E+02  0.00000000000E+00 0. -1.
</event>
<event>
 7    1  0.2811980E-010  0.4778727E+02  0.7816164E-02  0.1312668E+00
        -11   -1    0    0    0    0  0.00000000000E+00  0.00000000000E+00  0.45593999997E+02  0.45594000000E+02  0.51100000000E-03 0.  1.
         11   -1    0    0    0    0 -0.00000000000E+00 -0.00000000000E+00 -0.45593999997E+02  0.45594000000E+02  0.51100000000E-03 0. -1.
    9900012    2    1    2    0    0  0.31070929090E+02  0.26639648196E+02 -0.14441255121E+02  0.47787270282E+02  0.19999996524E+02 0.  0.
        -12    1    1    2    0    0 -0.31070929090E+02 -0.26639648196E+02  0.14441255121E+02  0.43400729718E+02  0.00000000000E+00 0.  1.
         11    1    3    3    0    0  0.30155006242E+02  0.19658520181E+02 -0.12859334112E+02  0.38224917152E+02  0.51100000000E-03 0. -1.
        -11    1    3    3    0    0 -0.19026033704E+01  0.74504814220E+00  0.96581407827E+00  0.22600427903E+01  0.51100000000E-03 0.  1.
         12    1    3    3    0    0  0.28185262184E+01  0.62360798731E+01 -0.25477350873E+01  0.73023103400E+01  0.00000000000E+00 0. -1.
</event>
<event>
 7    1  0.2811980E-010  0.4778727E+02  0.7816164E-02  0.1312668E+00
        -11   -1    0    0    0    0  0.00000000000E+00  0.00000000000E+00  0.45593999997E+02  0.45594000000E+02  0.51100000000E-03 0. -1.
         11   -1    0    0    0    0 -0.00000000000E+00 -0.00000000000E+00 -0.45593999997E+02  0.45594000000E+02  0.51100000000E-03 0.  1.
    9900012    2    1    2    0    0  0.26708340758E+01  0.42246258765E+02 -0.95782890887E+01  0.47787270096E+02  0.19999995676E+02 0.  0.
        -12    1    1    2    0    0 -0.26708340758E+01 -0.42246258765E+02  0.95782890887E+01  0.43400729904E+02  0.00000000000E+00 0.  1.
         11    1    3    3    0    0  0.47435404925E+01  0.25531073602E+02  0.21200012630E+01  0.26054391210E+02  0.51100000000E-03 0. -1.
        -11    1    3    3    0    0 -0.38719060311E+01  0.47679287839E+01 -0.29340842809E+01  0.68068826955E+01  0.51100000000E-03 0.  1.
         12    1    3    3    0    0  0.17991996144E+01  0.11947256379E+02 -0.87642060707E+01  0.14925996191E+02  0.00000000000E+00 0. -1.
</event>
<event>
 7    1  0.2811980E-010  0.4778727E+02  0.7816164E-02  0.1312668E+00
        -11   -1    0    0    0    0  0.00000000000E+00  0.00000000000E+00  0.45593999997E+02  0.45594000000E+02  0.51100000000E-03 0. -1.
         11   -1    0    0    0    0 -0.00000000000E+00 -0.00000000000E+00 -0.45593999997E+02  0.45594000000E+02  0.51100000000E-03 0.  1.
    9900012    2    1    2    0    0 -0.18047164639E+02 -0.38101754327E+02  0.10304356747E+02  0.47787267261E+02  0.19999982750E+02 0.  0.
        -12    1    1    2    0    0  0.18047164639E+02  0.38101754327E+02 -0.10304356747E+02  0.43400732739E+02  0.00000000000E+00 0.  1.
         11    1    3    3    0    0 -0.14038331121E+02 -0.11787203059E+02  0.92327730050E+01  0.20524546140E+02  0.51100000000E-03 0. -1.
        -11    1    3    3    0    0 -0.34995941179E+01 -0.23901545296E+02  0.27009571166E+01  0.24306916631E+02  0.51100000000E-03 0.  1.
         12    1    3    3    0    0 -0.50923940011E+00 -0.24130059727E+01 -0.16293733746E+01  0.29558044903E+01  0.00000000000E+00 0. -1.
</event>
<event>
 7    1  0.2811980E-010  0.4778724E+02  0.7816164E-02  0.1312668E+00
        -11   -1    0    0    0    0  0.00000000000E+00  0.00000000000E+00  0.45593999997E+02  0.45594000000E+02  0.51100000000E-03 0.  1.
         11   -1    0    0    0    0 -0.00000000000E+00 -0.00000000000E+00 -0.45593999997E+02  0.45594000000E+02  0.51100000000E-03 0. -1.
    9900012    2    1    2    0    0  0.35226904233E+02 -0.59549269190E+01 -0.24642036657E+02  0.47787240708E+02  0.19999861686E+02 0.  0.
        -12    1    1    2    0    0 -0.35226904233E+02  0.59549269190E+01  0.24642036657E+02  0.43400759292E+02  0.00000000000E+00 0.  1.
         11    1    3    3    0    0  0.57237586731E+01  0.47532140761E+01 -0.31242620934E+00  0.74466145193E+01  0.51100000000E-03 0. -1.
        -11    1    3    3    0    0  0.13960346251E+02 -0.87142207647E+01 -0.11325354157E+02  0.19977301070E+02  0.51100000000E-03 0.  1.
         12    1    3    3    0    0  0.15542799309E+02 -0.19939202304E+01 -0.13004256291E+02  0.20363325120E+02  0.00000000000E+00 0. -1.
</event>
<event>
 7    1  0.2811980E-010  0.4778728E+02  0.7816164E-02  0.1312668E+00
        -11   -1    0    0    0    0  0.00000000000E+00  0.00000000000E+00  0.45593999997E+02  0.45594000000E+02  0.51100000000E-03 0.  1.
         11   -1    0    0    0    0 -0.00000000000E+00 -0.00000000000E+00 -0.45593999997E+02  0.45594000000E+02  0.51100000000E-03 0. -1.
    9900012    2    1    2    0    0 -0.31765136317E+02  0.10022093641E+02 -0.27823662468E+02  0.47787280659E+02  0.20000043838E+02 0.  0.
        -12    1    1    2    0    0  0.31765136317E+02 -0.10022093641E+02  0.27823662468E+02  0.43400719341E+02  0.00000000000E+00 0.  1.
         11    1    3    3    0    0 -0.26231055203E+01  0.41793821526E+01 -0.65682180474E+01  0.82151936269E+01  0.51100000000E-03 0. -1.
        -11    1    3    3    0    0 -0.62930017893E+01  0.70713055690E+01 -0.20200480387E+01  0.96791439864E+01  0.51100000000E-03 0.  1.
        -12    1    3    3    0    0 -0.22849029007E+02 -0.12285940807E+01 -0.19235396381E+02  0.29892943046E+02  0.00000000000E+00 0.  1.
</event>
<event>
 7    1  0.2811980E-010  0.4778727E+02  0.7816164E-02  0.1312668E+00
        -11   -1    0    0    0    0  0.00000000000E+00  0.00000000000E+00  0.45593999997E+02  0.45594000000E+02  0.51100000000E-03 0. -1.
         11   -1    0    0    0    0 -0.00000000000E+00 -0.00000000000E+00 -0.45593999997E+02  0.45594000000E+02  0.51100000000E-03 0.  1.
    9900012    2    1    2    0    0 -0.18090377346E+02 -0.24763718070E+02  0.30710254240E+02  0.47787271888E+02  0.20000003846E+02 0.  0.
        -12    1    1    2    0    0  0.18090377346E+02  0.24763718070E+02 -0.30710254240E+02  0.43400728112E+02  0.00000000000E+00 0.  1.
         11    1    3    3    0    0 -0.89058907912E+00 -0.45346286569E+00  0.11980562980E+02  0.12022173974E+02  0.51100000000E-03 0. -1.
        -11    1    3    3    0    0 -0.40377851879E+01 -0.92116278075E+01  0.36748060264E+01  0.10708034165E+02  0.51100000000E-03 0.  1.
         12    1    3    3    0    0 -0.13162003079E+02 -0.15098627397E+02  0.15054885233E+02  0.25057063749E+02  0.00000000000E+00 0. -1.
</event>
<event>
 7    1  0.2811980E-010  0.4778727E+02  0.7816164E-02  0.1312668E+00
        -11   -1    0    0    0    0  0.00000000000E+00  0.00000000000E+00  0.45593999997E+02  0.45594000000E+02  0.51100000000E-03 0.  1.
         11   -1    0    0    0    0 -0.00000000000E+00 -0.00000000000E+00 -0.45593999997E+02  0.45594000000E+02  0.51100000000E-03 0. -1.
    9900012    2    1    2    0    0 -0.69559763816E+01 -0.42375696646E+02  0.62879208497E+01  0.47787271639E+02  0.20000002712E+02 0.  0.
        -12    1    1    2    0    0  0.69559763816E+01  0.42375696646E+02 -0.62879208497E+01  0.43400728361E+02  0.00000000000E+00 0.  1.
         11    1    3    3    0    0 -0.48423827854E+01 -0.10713333955E+02 -0.20143952567E+01  0.11928201205E+02  0.51100000000E-03 0. -1.
        -11    1    3    3    0    0 -0.19258539571E+01 -0.24972891931E+02  0.12465636996E+02  0.27977604451E+02  0.51100000000E-03 0.  1.
        -12    1    3    3    0    0 -0.18773963912E+00 -0.66894707592E+01 -0.41633208893E+01  0.78814659828E+01  0.00000000000E+00 0.  1.
</event>
<event>
 7    1  0.2811980E-010  0.4778727E+02  0.7816164E-02  0.1312668E+00
        -11   -1    0    0    0    0  0.00000000000E+00  0.00000000000E+00  0.45593999997E+02  0.45594000000E+02  0.51100000000E-03 0.  1.
         11   -1    0    0    0    0 -0.00000000000E+00 -0.00000000000E+00 -0.45593999997E+02  0.45594000000E+02  0.51100000000E-03 0. -1.
    9900012    2    1    2    0    0 -0.15185831649E+02  0.31816391611E+02 -0.25312665801E+02  0.47787270652E+02  0.19999998209E+02 0.  0.
        -12    1    1    2    0    0  0.15185831649E+02 -0.31816391611E+02  0.25312665801E+02  0.43400729348E+02  0.00000000000E+00 0.  1.
         11    1    3    3    0    0 -0.14356022755E+02  0.19973392929E+02 -0.19909963709E+02  0.31645512629E+02  0.51100000000E-03 0. -1.
        -11    1    3    3    0    0 -0.43994132340E+01  0.10175122352E+02 -0.28463347906E+01  0.11445067658E+02  0.51100000000E-03 0.  1.
         12    1    3    3    0    0  0.35696043403E+01  0.16678763303E+01 -0.25563673020E+01  0.46966903647E+01  0.00000000000E+00 0. -1.
</event>
<event>
 7    1  0.2811980E-010  0.4778727E+02  0.7816164E-02  0.1312668E+00
        -11   -1    0    0    0    0  0.00000000000E+00  0.00000000000E+00  0.45593999997E+02  0.45594000000E+02  0.51100000000E-03 0.  1.
         11   -1    0    0    0    0 -0.00000000000E+00 -0.00000000000E+00 -0.45593999997E+02  0.45594000000E+02  0.51100000000E-03 0. -1.
    9900012    2    1    2    0    0  0.31395481649E+02 -0.28043265343E+02 -0.10560419313E+02  0.47787268956E+02  0.19999990479E+02 0.  0.
        -12    1    1    2    0    0 -0.31395481649E+02  0.28043265343E+02  0.10560419313E+02  0.43400731044E+02  0.00000000000E+00 0.  1.
         11    1    3    3    0    0  0.14026506748E+02 -0.63888056155E+01 -0.10284540307E+02  0.18529206630E+02  0.51100000000E-03 0. -1.
        -11    1    3    3    0    0  0.81777155034E+01 -0.17130190524E+02 -0.81412087810E+00  0.18999506607E+02  0.51100000000E-03 0.  1.
         12    1    3    3    0    0  0.91912593976E+01 -0.45242692039E+01  0.53824187233E+00  0.10258555720E+02  0.00000000000E+00 0. -1.
</event>
<event>
 7    1  0.2811980E-010  0.4778727E+02  0.7816164E-02  0.1312668E+00
        -11   -1    0    0    0    0  0.00000000000E+00  0.00000000000E+00  0.45593999997E+02  0.45594000000E+02  0.51100000000E-03 0.  1.
         11   -1    0    0    0    0 -0.00000000000E+00 -0.00000000000E+00 -0.45593999997E+02  0.45594000000E+02  0.51100000000E-03 0. -1.
    9900012    2    1    2    0    0 -0.37361285580E+01  0.23798142350E+02 -0.36101425557E+02  0.47787272320E+02  0.20000005816E+02 0.  0.
        -12    1    1    2    0    0  0.37361285580E+01 -0.23798142350E+02  0.36101425557E+02  0.43400727680E+02  0.00000000000E+00 0.  1.
         11    1    3    3    0    0  0.52496570419E+00  0.54722772570E+01 -0.50170033036E+01  0.74425620439E+01  0.51100000000E-03 0. -1.
        -11    1    3    3    0    0  0.14923531290E+01  0.17706773272E+02 -0.15010671198E+02  0.23261065918E+02  0.51100000000E-03 0.  1.
        -12    1    3    3    0    0 -0.57534473912E+01  0.61909182098E+00 -0.16073751055E+02  0.17083644358E+02  0.00000000000E+00 0.  1.
</event>
<event>
 7    1  0.2811980E-010  0.4778727E+02  0.7816164E-02  0.1312668E+00
        -11   -1    0    0    0    0  0.00000000000E+00  0.00000000000E+00  0.45593999997E+02  0.45594000000E+02  0.51100000000E-03 0. -1.
         11   -1    0    0    0    0 -0.00000000000E+00 -0.00000000000E+00 -0.45593999997E+02  0.45594000000E+02  0.51100000000E-03 0.  1.
    9900012    2    1    2    0    0 -0.29935026748E+02  0.31126870007E+02  0.43168396610E+01  0.47787274574E+02  0.20000016091E+02 0.  0.
        -12    1    1    2    0    0  0.29935026748E+02 -0.31126870007E+02 -0.43168396610E+01  0.43400725426E+02  0.00000000000E+00 0.  1.
         11    1    3    3    0    0 -0.61508964900E+01  0.13986911568E+02  0.18794746917E+01  0.15394792893E+02  0.51100000000E-03 0. -1.
        -11    1    3    3    0    0 -0.17345188813E+02  0.64058247455E+01  0.58936161703E+01  0.19406825538E+02  0.51100000000E-03 0.  1.
        -12    1    3    3    0    0 -0.64389414449E+01  0.10734133694E+02 -0.34562512009E+01  0.12985656143E+02  0.00000000000E+00 0.  1.
</event>
<event>
 7    1  0.2811980E-010  0.4778731E+02  0.7816164E-02  0.1312668E+00
        -11   -1    0    0    0    0  0.00000000000E+00  0.00000000000E+00  0.45593999997E+02  0.45594000000E+02  0.51100000000E-03 0. -1.
         11   -1    0    0    0    0 -0.00000000000E+00 -0.00000000000E+00 -0.45593999997E+02  0.45594000000E+02  0.51100000000E-03 0.  1.
    9900012    2    1    2    0    0 -0.29929079111E+02  0.19481405018E+02  0.24664653553E+02  0.47787308153E+02  0.20000169190E+02 0.  0.
        -12    1    1    2    0    0  0.29929079111E+02 -0.19481405018E+02 -0.24664653553E+02  0.43400691847E+02  0.00000000000E+00 0.  1.
         11    1    3    3    0    0 -0.28570184920E+02  0.18793539516E+02  0.23060663613E+02  0.41246173161E+02  0.51100000000E-03 0. -1.
        -11    1    3    3    0    0 -0.20799255603E+01 -0.19079581937E+01 -0.79652488254E+00  0.29327200608E+01  0.51100000000E-03 0.  1.
         12    1    3    3    0    0  0.72103136935E+00  0.25958236961E+01  0.24005148229E+01  0.36084149307E+01  0.00000000000E+00 0. -1.
</event>
<event>
 7    1  0.2811980E-010  0.4778726E+02  0.7816164E-02  0.1312668E+00
        -11   -1    0    0    0    0  0.00000000000E+00  0.00000000000E+00  0.45593999997E+02  0.45594000000E+02  0.51100000000E-03 0. -1.
         11   -1    0    0    0    0 -0.00000000000E+00 -0.00000000000E+00 -0.45593999997E+02  0.45594000000E+02  0.51100000000E-03 0.  1.
    9900012    2    1    2    0    0  0.27341595614E+02 -0.30140518056E+02  0.15086755644E+02  0.47787264116E+02  0.19999968409E+02 0.  0.
        -12    1    1    2    0    0 -0.27341595614E+02  0.30140518056E+02 -0.15086755644E+02  0.43400735884E+02  0.00000000000E+00 0.  1.
         11    1    3    3    0    0  0.36988788020E+01 -0.14300038473E+02  0.91715168160E+01  0.17386475367E+02  0.51100000000E-03 0. -1.
        -11    1    3    3    0    0  0.16304762295E+02 -0.97714867736E+01 -0.33273399691E+00  0.19011521229E+02  0.51100000000E-03 0.  1.
        -12    1    3    3    0    0  0.73379545170E+01 -0.60689928100E+01  0.62479728248E+01  0.11389267520E+02  0.00000000000E+00 0.  1.
</event>
<event>
 7    1  0.2811980E-010  0.4778727E+02  0.7816164E-02  0.1312668E+00
        -11   -1    0    0    0    0  0.00000000000E+00  0.00000000000E+00  0.45593999997E+02  0.45594000000E+02  0.51100000000E-03 0. -1.
         11   -1    0    0    0    0 -0.00000000000E+00 -0.00000000000E+00 -0.45593999997E+02  0.45594000000E+02  0.51100000000E-03 0.  1.
    9900012    2    1    2    0    0  0.39480497498E+02  0.16425945709E+02 -0.74230702188E+01  0.47787270207E+02  0.19999996181E+02 0.  0.
        -12    1    1    2    0    0 -0.39480497498E+02 -0.16425945709E+02  0.74230702188E+01  0.43400729793E+02  0.00000000000E+00 0.  1.
         11    1    3    3    0    0  0.32140037701E+02  0.13779681238E+02 -0.29122760703E+01  0.35090497155E+02  0.51100000000E-03 0. -1.
        -11    1    3    3    0    0  0.11868209665E+01  0.14976827948E+01 -0.59705629948E+01  0.62689090356E+01  0.51100000000E-03 0.  1.
         12    1    3    3    0    0  0.61536388305E+01  0.11485816764E+01  0.14597688462E+01  0.64278640160E+01  0.00000000000E+00 0. -1.
</event>
<event>
 7    1  0.2811980E-010  0.4778727E+02  0.7816164E-02  0.1312668E+00
        -11   -1    0    0    0    0  0.00000000000E+00  0.00000000000E+00  0.45593999997E+02  0.45594000000E+02  0.51100000000E-03 0.  1.
         11   -1    0    0    0    0 -0.00000000000E+00 -0.00000000000E+00 -0.45593999997E+02  0.45594000000E+02  0.51100000000E-03 0. -1.
    9900012    2    1    2    0    0 -0.39675664844E+02 -0.47258964385E+01 -0.16944924964E+02  0.47787274660E+02  0.20000016487E+02 0.  0.
        -12    1    1    2    0    0  0.39675664844E+02  0.47258964385E+01  0.16944924964E+02  0.43400725340E+02  0.00000000000E+00 0.  1.
         11    1    3    3    0    0 -0.35487630272E+02 -0.20759582733E+01 -0.13051069913E+02  0.37868349993E+02  0.51100000000E-03 0. -1.
        -11    1    3    3    0    0 -0.17279940891E+00 -0.40825115233E+01  0.85619868543E-01  0.40870638601E+01  0.51100000000E-03 0.  1.
        -12    1    3    3    0    0 -0.40152351637E+01  0.14325733580E+01 -0.39794749193E+01  0.58318608076E+01  0.00000000000E+00 0.  1.
</event>
<event>
 7    1  0.2811980E-010  0.4778727E+02  0.7816164E-02  0.1312668E+00
        -11   -1    0    0    0    0  0.00000000000E+00  0.00000000000E+00  0.45593999997E+02  0.45594000000E+02  0.51100000000E-03 0.  1.
         11   -1    0    0    0    0 -0.00000000000E+00 -0.00000000000E+00 -0.45593999997E+02  0.45594000000E+02  0.51100000000E-03 0. -1.
    9900012    2    1    2    0    0  0.36760863437E+02 -0.18865668842E+02 -0.13279629691E+02  0.47787272976E+02  0.20000008807E+02 0.  0.
        -12    1    1    2    0    0 -0.36760863437E+02  0.18865668842E+02  0.13279629691E+02  0.43400727024E+02  0.00000000000E+00 0.  1.
         11    1    3    3    0    0  0.21226899306E+02 -0.15113169076E+02 -0.14120702288E+02  0.29637533080E+02  0.51100000000E-03 0. -1.
        -11    1    3    3    0    0  0.79203210296E+01 -0.18906989063E+01  0.47120772433E+01  0.94079700135E+01  0.51100000000E-03 0.  1.
         12    1    3    3    0    0  0.76136431008E+01 -0.18618008594E+01 -0.38710046468E+01  0.87417698827E+01  0.00000000000E+00 0. -1.
</event>
<event>
 7    1  0.2811980E-010  0.4778727E+02  0.7816164E-02  0.1312668E+00
        -11   -1    0    0    0    0  0.00000000000E+00  0.00000000000E+00  0.45593999997E+02  0.45594000000E+02  0.51100000000E-03 0. -1.
         11   -1    0    0    0    0 -0.00000000000E+00 -0.00000000000E+00 -0.45593999997E+02  0.45594000000E+02  0.51100000000E-03 0.  1.
    9900012    2    1    2    0    0 -0.20777179639E+02  0.20157495813E+02  0.32335858849E+02  0.47787267302E+02  0.19999982938E+02 0.  0.
        -12    1    1    2    0    0  0.20777179639E+02 -0.20157495813E+02 -0.32335858849E+02  0.43400732698E+02  0.00000000000E+00 0.  1.
         11    1    3    3    0    0 -0.12084013758E+02  0.16870186785E+01  0.85741951972E+01  0.14912620295E+02  0.51100000000E-03 0. -1.
        -11    1    3    3    0    0 -0.30267878519E+01  0.10043142113E+02  0.18900152174E+02  0.21615778974E+02  0.51100000000E-03 0.  1.
         12    1    3    3    0    0 -0.56663780294E+01  0.84273350218E+01  0.48615114779E+01  0.11258868033E+02  0.00000000000E+00 0. -1.
</event>
<event>
 7    1  0.2811980E-010  0.4778726E+02  0.7816164E-02  0.1312668E+00
        -11   -1    0    0    0    0  0.00000000000E+00  0.00000000000E+00  0.45593999997E+02  0.45594000000E+02  0.51100000000E-03 0. -1.
         11   -1    0    0    0    0 -0.00000000000E+00 -0.00000000000E+00 -0.45593999997E+02  0.45594000000E+02  0.51100000000E-03 0.  1.
    9900012    2    1    2    0    0  0.86111857814E+00 -0.43013973310E+02  0.57166764683E+01  0.47787264810E+02  0.19999971576E+02 0.  0.
        -12    1    1    2    0    0 -0.86111857814E+00  0.43013973310E+02 -0.57166764683E+01  0.43400735190E+02  0.00000000000E+00 0.  1.
         11    1    3    3    0    0  0.35519383693E+01 -0.12933304169E+02  0.70438829032E+01  0.15149353436E+02  0.51100000000E-03 0. -1.
        -11    1    3    3    0    0 -0.10725522556E+01 -0.12923281612E+02 -0.66867541545E+01  0.14590211011E+02  0.51100000000E-03 0.  1.
         12    1    3    3    0    0 -0.16182675356E+01 -0.17157387529E+02  0.53595477196E+01  0.18047700364E+02  0.00000000000E+00 0. -1.
</event>
<event>
 7    1  0.3811490E-010  0.4778727E+02  0.7816164E-02  0.1312668E+00
        -11   -1    0    0    0    0  0.00000000000E+00  0.00000000000E+00  0.45593999997E+02  0.45594000000E+02  0.51100000000E-03 0. -1.
         11   -1    0    0    0    0 -0.00000000000E+00 -0.00000000000E+00 -0.45593999997E+02  0.45594000000E+02  0.51100000000E-03 0.  1.
    9900012    2    1    2    0    0 -0.16846930701E+02 -0.18852959663E+02  0.35275629432E+02  0.47787271965E+02  0.20000004197E+02 0.  0.
        -12    1    1    2    0    0  0.16846930701E+02  0.18852959663E+02 -0.35275629432E+02  0.43400728035E+02  0.00000000000E+00 0.  1.
         11    1    3    3    0    0 -0.98044232637E+01 -0.10206875148E+02  0.22382589131E+02  0.26481829851E+02  0.51100000000E-03 0.  1.
        -11    1    3    3    0    0  0.12752086466E+01  0.26144752526E+01  0.28819835125E+01  0.40948097839E+01  0.51100000000E-03 0. -1.
        -12    1    3    3    0    0 -0.83177160844E+01 -0.11260559768E+02  0.10011056789E+02  0.17210632330E+02  0.00000000000E+00 0.  1.
</event>
<event>
 7    1  0.2811980E-010  0.4778727E+02  0.7816164E-02  0.1312668E+00
        -11   -1    0    0    0    0  0.00000000000E+00  0.00000000000E+00  0.45593999997E+02  0.45594000000E+02  0.51100000000E-03 0. -1.
         11   -1    0    0    0    0 -0.00000000000E+00 -0.00000000000E+00 -0.45593999997E+02  0.45594000000E+02  0.51100000000E-03 0.  1.
    9900012    2    1    2    0    0 -0.11935316494E+01  0.42100982691E+02 -0.10474072576E+02  0.47787268927E+02  0.19999990344E+02 0.  0.
        -12    1    1    2    0    0  0.11935316494E+01 -0.42100982691E+02  0.10474072576E+02  0.43400731073E+02  0.00000000000E+00 0.  1.
         11    1    3    3    0    0  0.15131868312E+01  0.58352740907E+01 -0.29164370966E+01  0.66966979698E+01  0.51100000000E-03 0. -1.
        -11    1    3    3    0    0  0.52488255666E+01  0.20896044165E+02  0.14239938318E+01  0.21592188177E+02  0.51100000000E-03 0.  1.
        -12    1    3    3    0    0 -0.79555440473E+01  0.15369664435E+02 -0.89816293108E+01  0.19498382780E+02  0.00000000000E+00 0.  1.
</event>
<event>
 7    1  0.2811980E-010  0.4778727E+02  0.7816164E-02  0.1312668E+00
        -11   -1    0    0    0    0  0.00000000000E+00  0.00000000000E+00  0.45593999997E+02  0.45594000000E+02  0.51100000000E-03 0.  1.
         11   -1    0    0    0    0 -0.00000000000E+00 -0.00000000000E+00 -0.45593999997E+02  0.45594000000E+02  0.51100000000E-03 0. -1.
    9900012    2    1    2    0    0  0.31381677693E+02 -0.14317613491E+00 -0.29979876125E+02  0.47787272279E+02  0.20000005630E+02 0.  0.
        -12    1    1    2    0    0 -0.31381677693E+02  0.14317613491E+00  0.29979876125E+02  0.43400727721E+02  0.00000000000E+00 0.  1.
         11    1    3    3    0    0  0.47108993291E+01 -0.67102591571E+00 -0.17170489603E+02  0.17817647480E+02  0.51100000000E-03 0. -1.
        -11    1    3    3    0    0  0.12751474113E+02 -0.99012532721E+00 -0.38905027539E+01  0.13368487280E+02  0.51100000000E-03 0.  1.
         12    1    3    3    0    0  0.13919304251E+02  0.15179751080E+01 -0.89188837684E+01  0.16601137519E+02  0.00000000000E+00 0. -1.
</event>
<event>
 7    1  0.2811980E-010  0.4778727E+02  0.7816164E-02  0.1312668E+00
        -11   -1    0    0    0    0  0.00000000000E+00  0.00000000000E+00  0.45593999997E+02  0.45594000000E+02  0.51100000000E-03 0. -1.
         11   -1    0    0    0    0 -0.00000000000E+00 -0.00000000000E+00 -0.45593999997E+02  0.45594000000E+02  0.51100000000E-03 0.  1.
    9900012    2    1    2    0    0 -0.31806001354E+02 -0.88915121655E+01 -0.28159238334E+02  0.47787269427E+02  0.19999992624E+02 0.  0.
        -12    1    1    2    0    0  0.31806001354E+02  0.88915121655E+01  0.28159238334E+02  0.43400730573E+02  0.00000000000E+00 0.  1.
         11    1    3    3    0    0 -0.19985480114E+02  0.24619357930E+01 -0.20243000074E+02  0.28552751102E+02  0.51100000000E-03 0. -1.
        -11    1    3    3    0    0 -0.18257606869E+01 -0.58327931554E+01 -0.27711439376E+01  0.67107463865E+01  0.51100000000E-03 0.  1.
         12    1    3    3    0    0 -0.99947605536E+01 -0.55206548031E+01 -0.51450943226E+01  0.12523771938E+02  0.00000000000E+00 0. -1.
</event>
<event>
 7    1  0.2811980E-010  0.4778727E+02  0.7816164E-02  0.1312668E+00
        -11   -1    0    0    0    0  0.00000000000E+00  0.00000000000E+00  0.45593999997E+02  0.45594000000E+02  0.51100000000E-03 0.  1.
         11   -1    0    0    0    0 -0.00000000000E+00 -0.00000000000E+00 -0.45593999997E+02  0.45594000000E+02  0.51100000000E-03 0. -1.
    9900012    2    1    2    0    0  0.25856247480E+02  0.52161062557E+01  0.34465490699E+02  0.47787270198E+02  0.19999996143E+02 0.  0.
        -12    1    1    2    0    0 -0.25856247480E+02 -0.52161062557E+01 -0.34465490699E+02  0.43400729802E+02  0.00000000000E+00 0.  1.
         11    1    3    3    0    0  0.83467777399E+01 -0.46567990119E+01  0.47101393336E+01  0.10655509771E+02  0.51100000000E-03 0. -1.
        -11    1    3    3    0    0  0.12649180263E+02  0.11455400603E+02  0.21987523995E+02  0.27833059048E+02  0.51100000000E-03 0.  1.
        -12    1    3    3    0    0  0.48602894769E+01 -0.15824953352E+01  0.77678273699E+01  0.92987013789E+01  0.00000000000E+00 0.  1.
</event>
<event>
 7    1  0.2811980E-010  0.4778727E+02  0.7816164E-02  0.1312668E+00
        -11   -1    0    0    0    0  0.00000000000E+00  0.00000000000E+00  0.45593999997E+02  0.45594000000E+02  0.51100000000E-03 0.  1.
         11   -1    0    0    0    0 -0.00000000000E+00 -0.00000000000E+00 -0.45593999997E+02  0.45594000000E+02  0.51100000000E-03 0. -1.
    9900012    2    1    2    0    0 -0.40564010961E+02  0.14139653385E+02 -0.61849990841E+01  0.47787274237E+02  0.20000014557E+02 0.  0.
        -12    1    1    2    0    0  0.40564010961E+02 -0.14139653385E+02  0.61849990841E+01  0.43400725763E+02  0.00000000000E+00 0.  1.
         11    1    3    3    0    0 -0.22007551362E+01  0.18255238714E+01 -0.24590404277E+01  0.37713049016E+01  0.51100000000E-03 0. -1.
        -11    1    3    3    0    0 -0.32397348424E+02  0.16442264456E+02 -0.49230873490E+01  0.36662965437E+02  0.51100000000E-03 0.  1.
        -12    1    3    3    0    0 -0.59659074008E+01 -0.41281349428E+01  0.11971286927E+01  0.73530038982E+01  0.00000000000E+00 0.  1.
</event>
<event>
 7    1  0.2811980E-010  0.4778727E+02  0.7816164E-02  0.1312668E+00
        -11   -1    0    0    0    0  0.00000000000E+00  0.00000000000E+00  0.45593999997E+02  0.45594000000E+02  0.51100000000E-03 0.  1.
         11   -1    0    0    0    0 -0.00000000000E+00 -0.00000000000E+00 -0.45593999997E+02  0.45594000000E+02  0.51100000000E-03 0. -1.
    9900012    2    1    2    0    0  0.18986097809E+02  0.36024285387E+02  0.15013398297E+02  0.47787272171E+02  0.20000005135E+02 0.  0.
        -12    1    1    2    0    0 -0.18986097809E+02 -0.36024285387E+02 -0.15013398297E+02  0.43400727829E+02  0.00000000000E+00 0.  1.
         11    1    3    3    0    0  0.14980742326E+01  0.12190426329E+01  0.76166237188E+01  0.78576872222E+01  0.51100000000E-03 0. -1.
        -11    1    3    3    0    0  0.13397486130E+01  0.65102267721E+01  0.16420895195E+01  0.68464908691E+01  0.51100000000E-03 0.  1.
         12    1    3    3    0    0  0.16148274963E+02  0.28295015982E+02  0.57546850585E+01  0.33083094079E+02  0.00000000000E+00 0. -1.
</event>
<event>
 7    1  0.2925556E-010  0.4778727E+02  0.7816164E-02  0.1312668E+00
        -11   -1    0    0    0    0  0.00000000000E+00  0.00000000000E+00  0.45593999997E+02  0.45594000000E+02  0.51100000000E-03 0.  1.
         11   -1    0    0    0    0 -0.00000000000E+00 -0.00000000000E+00 -0.45593999997E+02  0.45594000000E+02  0.51100000000E-03 0. -1.
    9900012    2    1    2    0    0  0.20393499314E+02  0.35307386870E+02 -0.14869996481E+02  0.47787272159E+02  0.20000005080E+02 0.  0.
        -12    1    1    2    0    0 -0.20393499314E+02 -0.35307386870E+02  0.14869996481E+02  0.43400727841E+02  0.00000000000E+00 0.  1.
         11    1    3    3    0    0  0.15487693436E+02  0.24696765030E+02 -0.93834836468E+01  0.30624314140E+02  0.51100000000E-03 0. -1.
        -11    1    3    3    0    0  0.23691413505E+01  0.36659104774E+01 -0.81983057795E+01  0.92878387304E+01  0.51100000000E-03 0.  1.
        -12    1    3    3    0    0  0.25366645271E+01  0.69447113618E+01  0.27117929457E+01  0.78751192882E+01  0.00000000000E+00 0.  1.
</event>
<event>
 7    1  0.2811980E-010  0.4778727E+02  0.7816164E-02  0.1312668E+00
        -11   -1    0    0    0    0  0.00000000000E+00  0.00000000000E+00  0.45593999997E+02  0.45594000000E+02  0.51100000000E-03 0.  1.
         11   -1    0    0    0    0 -0.00000000000E+00 -0.00000000000E+00 -0.45593999997E+02  0.45594000000E+02  0.51100000000E-03 0. -1.
    9900012    2    1    2    0    0 -0.43051430086E+02  0.51299093107E+01  0.19701413516E+01  0.47787273521E+02  0.20000011291E+02 0.  0.
        -12    1    1    2    0    0  0.43051430086E+02 -0.51299093107E+01 -0.19701413516E+01  0.43400726479E+02  0.00000000000E+00 0.  1.
         11    1    3    3    0    0 -0.50247151662E+01  0.53350050890E+01  0.89289356731E+00  0.73829059986E+01  0.51100000000E-03 0. -1.
        -11    1    3    3    0    0 -0.34563979295E+02 -0.31087255340E+01  0.41336255333E+01  0.34948815423E+02  0.51100000000E-03 0.  1.
         12    1    3    3    0    0 -0.34627356245E+01  0.29036297557E+01 -0.30563777491E+01  0.54555520993E+01  0.00000000000E+00 0. -1.
</event>
<event>
 7    1  0.2811980E-010  0.4778727E+02  0.7816164E-02  0.1312668E+00
        -11   -1    0    0    0    0  0.00000000000E+00  0.00000000000E+00  0.45593999997E+02  0.45594000000E+02  0.51100000000E-03 0.  1.
         11   -1    0    0    0    0 -0.00000000000E+00 -0.00000000000E+00 -0.45593999997E+02  0.45594000000E+02  0.51100000000E-03 0. -1.
    9900012    2    1    2    0    0 -0.23718444274E+02  0.25340802349E+02 -0.26055753286E+02  0.47787272567E+02  0.20000006940E+02 0.  0.
        -12    1    1    2    0    0  0.23718444274E+02 -0.25340802349E+02  0.26055753286E+02  0.43400727433E+02  0.00000000000E+00 0.  1.
         11    1    3    3    0    0 -0.35878926001E+01  0.16249822356E+01 -0.12733986074E+02  0.13329213862E+02  0.51100000000E-03 0. -1.
        -11    1    3    3    0    0 -0.71392889186E+01  0.10739110360E+02 -0.24733513471E+01  0.13130704655E+02  0.51100000000E-03 0.  1.
         12    1    3    3    0    0 -0.12991262755E+02  0.12976709753E+02 -0.10848415864E+02  0.21327354050E+02  0.00000000000E+00 0. -1.
</event>
<event>
 7    1  0.2811980E-010  0.4778727E+02  0.7816164E-02  0.1312668E+00
        -11   -1    0    0    0    0  0.00000000000E+00  0.00000000000E+00  0.45593999997E+02  0.45594000000E+02  0.51100000000E-03 0.  1.
         11   -1    0    0    0    0 -0.00000000000E+00 -0.00000000000E+00 -0.45593999997E+02  0.45594000000E+02  0.51100000000E-03 0. -1.
    9900012    2    1    2    0    0 -0.31405917910E+02  0.12348437045E+02 -0.27291162688E+02  0.47787272609E+02  0.20000007135E+02 0.  0.
        -12    1    1    2    0    0  0.31405917910E+02 -0.12348437045E+02  0.27291162688E+02  0.43400727391E+02  0.00000000000E+00 0.  1.
         11    1    3    3    0    0 -0.23571626187E+01 -0.29014976505E+01 -0.99303540080E+01  0.10610694379E+02  0.51100000000E-03 0.  1.
        -11    1    3    3    0    0 -0.20038800336E+02  0.10821053913E+02 -0.13075994460E+02  0.26260814116E+02  0.51100000000E-03 0. -1.
        -12    1    3    3    0    0 -0.90099549554E+01  0.44288807829E+01 -0.42848142198E+01  0.10915764114E+02  0.00000000000E+00 0.  1.
</event>
<event>
 7    1  0.2811980E-010  0.4778727E+02  0.7816164E-02  0.1312668E+00
        -11   -1    0    0    0    0  0.00000000000E+00  0.00000000000E+00  0.45593999997E+02  0.45594000000E+02  0.51100000000E-03 0.  1.
         11   -1    0    0    0    0 -0.00000000000E+00 -0.00000000000E+00 -0.45593999997E+02  0.45594000000E+02  0.51100000000E-03 0. -1.
    9900012    2    1    2    0    0 -0.88692938159E+01  0.79089259259E+01 -0.41742156120E+02  0.47787273282E+02  0.20000010201E+02 0.  0.
        -12    1    1    2    0    0  0.88692938159E+01 -0.79089259259E+01  0.41742156120E+02  0.43400726718E+02  0.00000000000E+00 0.  1.
         11    1    3    3    0    0 -0.84552065066E+01  0.33126124037E+01 -0.73618697461E+01  0.11690211479E+02  0.51100000000E-03 0. -1.
        -11    1    3    3    0    0  0.31320931864E+01  0.12774411097E+01 -0.27313224987E+02  0.27521884437E+02  0.51100000000E-03 0.  1.
        -12    1    3    3    0    0 -0.35461804957E+01  0.33188724126E+01 -0.70670613870E+01  0.85751773653E+01  0.00000000000E+00 0.  1.
</event>
<event>
 7    1  0.2811980E-010  0.4778727E+02  0.7816164E-02  0.1312668E+00
        -11   -1    0    0    0    0  0.00000000000E+00  0.00000000000E+00  0.45593999997E+02  0.45594000000E+02  0.51100000000E-03 0.  1.
         11   -1    0    0    0    0 -0.00000000000E+00 -0.00000000000E+00 -0.45593999997E+02  0.45594000000E+02  0.51100000000E-03 0. -1.
    9900012    2    1    2    0    0 -0.21708806467E+02  0.24279072432E+02 -0.28685843559E+02  0.47787271237E+02  0.20000000880E+02 0.  0.
        -12    1    1    2    0    0  0.21708806467E+02 -0.24279072432E+02  0.28685843559E+02  0.43400728763E+02  0.00000000000E+00 0.  1.
         11    1    3    3    0    0 -0.17225521272E+02  0.71436296953E+01 -0.10173266617E+02  0.21242537095E+02  0.51100000000E-03 0. -1.
        -11    1    3    3    0    0 -0.31892510236E+00  0.10585738412E+02 -0.71269945457E+01  0.12765328921E+02  0.51100000000E-03 0.  1.
        -12    1    3    3    0    0 -0.41643600922E+01  0.65497043248E+01 -0.11385582397E+02  0.13779405221E+02  0.00000000000E+00 0.  1.
</event>
<event>
 7    1  0.2811980E-010  0.4778727E+02  0.7816164E-02  0.1312668E+00
        -11   -1    0    0    0    0  0.00000000000E+00  0.00000000000E+00  0.45593999997E+02  0.45594000000E+02  0.51100000000E-03 0.  1.
         11   -1    0    0    0    0 -0.00000000000E+00 -0.00000000000E+00 -0.45593999997E+02  0.45594000000E+02  0.51100000000E-03 0. -1.
    9900012    2    1    2    0    0 -0.69276507978E-01  0.36745366174E+02 -0.23095384730E+02  0.47787268091E+02  0.19999986532E+02 0.  0.
        -12    1    1    2    0    0  0.69276507978E-01 -0.36745366174E+02  0.23095384730E+02  0.43400731909E+02  0.00000000000E+00 0.  1.
         11    1    3    3    0    0  0.59998861325E+01  0.18278465572E+02 -0.18129497200E+02  0.26434439776E+02  0.51100000000E-03 0. -1.
        -11    1    3    3    0    0 -0.55976485792E+01  0.18019453955E+02 -0.62801968980E+01  0.19886559878E+02  0.51100000000E-03 0.  1.
         12    1    3    3    0    0 -0.47151406123E+00  0.44744664711E+00  0.13143093688E+01  0.14662684368E+01  0.00000000000E+00 0. -1.
</event>
<event>
 7    1  0.2811980E-010  0.4778728E+02  0.7816164E-02  0.1312668E+00
        -11   -1    0    0    0    0  0.00000000000E+00  0.00000000000E+00  0.45593999997E+02  0.45594000000E+02  0.51100000000E-03 0.  1.
         11   -1    0    0    0    0 -0.00000000000E+00 -0.00000000000E+00 -0.45593999997E+02  0.45594000000E+02  0.51100000000E-03 0. -1.
    9900012    2    1    2    0    0 -0.38139691585E+02  0.27544433767E+01 -0.20528022431E+02  0.47787277224E+02  0.20000028176E+02 0.  0.
        -12    1    1    2    0    0  0.38139691585E+02 -0.27544433767E+01  0.20528022431E+02  0.43400722776E+02  0.00000000000E+00 0.  1.
         11    1    3    3    0    0 -0.68320266303E+01 -0.58901367361E+01 -0.77908130859E+01  0.11919189043E+02  0.51100000000E-03 0. -1.
        -11    1    3    3    0    0 -0.10534814094E+02  0.25450963876E+01 -0.17845432563E+00  0.10839357445E+02  0.51100000000E-03 0.  1.
         12    1    3    3    0    0 -0.20772850861E+02  0.60994837251E+01 -0.12558755019E+02  0.25028730736E+02  0.00000000000E+00 0. -1.
</event>
<event>
 7    1  0.2811980E-010  0.4778727E+02  0.7816164E-02  0.1312668E+00
        -11   -1    0    0    0    0  0.00000000000E+00  0.00000000000E+00  0.45593999997E+02  0.45594000000E+02  0.51100000000E-03 0. -1.
         11   -1    0    0    0    0 -0.00000000000E+00 -0.00000000000E+00 -0.45593999997E+02  0.45594000000E+02  0.51100000000E-03 0.  1.
    9900012    2    1    2    0    0  0.73641692070E+01 -0.38459241254E+02  0.18715746263E+02  0.47787269774E+02  0.19999994207E+02 0.  0.
        -12    1    1    2    0    0 -0.73641692070E+01  0.38459241254E+02 -0.18715746263E+02  0.43400730226E+02  0.00000000000E+00 0.  1.
         11    1    3    3    0    0  0.93605073199E+00 -0.19170409651E+02  0.21228745865E+01  0.19310292435E+02  0.51100000000E-03 0. -1.
        -11    1    3    3    0    0  0.60535351434E+01 -0.20298284590E+02  0.17159638320E+02  0.27260206025E+02  0.51100000000E-03 0.  1.
        -12    1    3    3    0    0  0.37458333155E+00  0.10094529859E+01 -0.56676664272E+00  0.12167713139E+01  0.00000000000E+00 0.  1.
</event>
<event>
 7    1  0.2811980E-010  0.4778727E+02  0.7816164E-02  0.1312668E+00
        -11   -1    0    0    0    0  0.00000000000E+00  0.00000000000E+00  0.45593999997E+02  0.45594000000E+02  0.51100000000E-03 0.  1.
         11   -1    0    0    0    0 -0.00000000000E+00 -0.00000000000E+00 -0.45593999997E+02  0.45594000000E+02  0.51100000000E-03 0. -1.
    9900012    2    1    2    0    0 -0.31517377269E+02  0.20762754604E+02 -0.21428628454E+02  0.47787272286E+02  0.20000005661E+02 0.  0.
        -12    1    1    2    0    0  0.31517377269E+02 -0.20762754604E+02  0.21428628454E+02  0.43400727714E+02  0.00000000000E+00 0.  1.
         11    1    3    3    0    0 -0.75292903755E+01  0.79524056302E+01  0.11861806590E+01  0.11015352635E+02  0.51100000000E-03 0. -1.
        -11    1    3    3    0    0 -0.10927183986E+02  0.88660073835E+01 -0.16869930521E+02  0.21968249653E+02  0.51100000000E-03 0.  1.
         12    1    3    3    0    0 -0.13060902908E+02  0.39443415901E+01 -0.57448785924E+01  0.14803669997E+02  0.00000000000E+00 0. -1.
</event>
<event>
 7    1  0.2811980E-010  0.4778727E+02  0.7816164E-02  0.1312668E+00
        -11   -1    0    0    0    0  0.00000000000E+00  0.00000000000E+00  0.45593999997E+02  0.45594000000E+02  0.51100000000E-03 0. -1.
         11   -1    0    0    0    0 -0.00000000000E+00 -0.00000000000E+00 -0.45593999997E+02  0.45594000000E+02  0.51100000000E-03 0.  1.
    9900012    2    1    2    0    0  0.17486927375E+02  0.22349733163E+02  0.32837785405E+02  0.47787270147E+02  0.19999995907E+02 0.  0.
        -12    1    1    2    0    0 -0.17486927375E+02 -0.22349733163E+02 -0.32837785405E+02  0.43400729853E+02  0.00000000000E+00 0.  1.
         11    1    3    3    0    0  0.16600800998E+02  0.19193246055E+02  0.27670996250E+02  0.37545323565E+02  0.51100000000E-03 0. -1.
        -11    1    3    3    0    0  0.37806108056E+01  0.34435801180E+00  0.14429838507E+00  0.37990028677E+01  0.51100000000E-03 0.  1.
         12    1    3    3    0    0 -0.28944844285E+01  0.28121290961E+01  0.50224907703E+01  0.64429437137E+01  0.00000000000E+00 0. -1.
</event>
<event>
 7    1  0.2811980E-010  0.4778727E+02  0.7816164E-02  0.1312668E+00
        -11   -1    0    0    0    0  0.00000000000E+00  0.00000000000E+00  0.45593999997E+02  0.45594000000E+02  0.51100000000E-03 0. -1.
         11   -1    0    0    0    0 -0.00000000000E+00 -0.00000000000E+00 -0.45593999997E+02  0.45594000000E+02  0.51100000000E-03 0.  1.
    9900012    2    1    2    0    0  0.28442705087E+02  0.25047087432E+02  0.21148974303E+02  0.47787272177E+02  0.20000005165E+02 0.  0.
        -12    1    1    2    0    0 -0.28442705087E+02 -0.25047087432E+02 -0.21148974303E+02  0.43400727823E+02  0.00000000000E+00 0.  1.
         11    1    3    3    0    0  0.15807037529E+02  0.17315427210E+02  0.46719805032E+01  0.23906355996E+02  0.51100000000E-03 0. -1.
        -11    1    3    3    0    0  0.89031897368E+01  0.31502695417E+01  0.43646085647E+01  0.10403883595E+02  0.51100000000E-03 0.  1.
         12    1    3    3    0    0  0.37324778203E+01  0.45813906803E+01  0.12112385235E+02  0.13477032586E+02  0.00000000000E+00 0. -1.
</event>
<event>
 7    1  0.2811980E-010  0.4778727E+02  0.7816164E-02  0.1312668E+00
        -11   -1    0    0    0    0  0.00000000000E+00  0.00000000000E+00  0.45593999997E+02  0.45594000000E+02  0.51100000000E-03 0.  1.
         11   -1    0    0    0    0 -0.00000000000E+00 -0.00000000000E+00 -0.45593999997E+02  0.45594000000E+02  0.51100000000E-03 0. -1.
    9900012    2    1    2    0    0 -0.35787131958E+02 -0.39894858821E+01 -0.24227847489E+02  0.47787269530E+02  0.19999993094E+02 0.  0.
        -12    1    1    2    0    0  0.35787131958E+02  0.39894858821E+01  0.24227847489E+02  0.43400730470E+02  0.00000000000E+00 0.  1.
         11    1    3    3    0    0 -0.30004420783E+02 -0.45019041080E+01 -0.15693385840E+02  0.34158670445E+02  0.51100000000E-03 0.  1.
        -11    1    3    3    0    0 -0.79816096130E+00  0.16540705055E+01  0.14967202044E+01  0.23692154373E+01  0.51100000000E-03 0. -1.
         12    1    3    3    0    0 -0.49845502134E+01 -0.11416522795E+01 -0.10031181853E+02  0.11259383648E+02  0.00000000000E+00 0. -1.
</event>
<event>
 7    1  0.2811980E-010  0.4778727E+02  0.7816164E-02  0.1312668E+00
        -11   -1    0    0    0    0  0.00000000000E+00  0.00000000000E+00  0.45593999997E+02  0.45594000000E+02  0.51100000000E-03 0.  1.
         11   -1    0    0    0    0 -0.00000000000E+00 -0.00000000000E+00 -0.45593999997E+02  0.45594000000E+02  0.51100000000E-03 0. -1.
    9900012    2    1    2    0    0  0.11164233918E+02  0.19905558674E+02 -0.36915469098E+02  0.47787271391E+02  0.20000001580E+02 0.  0.
        -12    1    1    2    0    0 -0.11164233918E+02 -0.19905558674E+02  0.36915469098E+02  0.43400728609E+02  0.00000000000E+00 0.  1.
         11    1    3    3    0    0  0.31178684619E-01  0.15109101985E+02 -0.29802642702E+02  0.33413821200E+02  0.51100000000E-03 0. -1.
        -11    1    3    3    0    0  0.78525684066E+01  0.31396505781E+01 -0.64572232364E+01  0.10640299268E+02  0.51100000000E-03 0.  1.
         12    1    3    3    0    0  0.32804868269E+01  0.16568061109E+01 -0.65560315931E+00  0.37331509229E+01  0.00000000000E+00 0. -1.
</event>
<event>
 7    1  0.2811980E-010  0.4778727E+02  0.7816164E-02  0.1312668E+00
        -11   -1    0    0    0    0  0.00000000000E+00  0.00000000000E+00  0.45593999997E+02  0.45594000000E+02  0.51100000000E-03 0.  1.
         11   -1    0    0    0    0 -0.00000000000E+00 -0.00000000000E+00 -0.45593999997E+02  0.45594000000E+02  0.51100000000E-03 0. -1.
    9900012    2    1    2    0    0  0.13254123052E+02  0.11042621669E+02 -0.39824766578E+02  0.47787270695E+02  0.19999998408E+02 0.  0.
        -12    1    1    2    0    0 -0.13254123052E+02 -0.11042621669E+02  0.39824766578E+02  0.43400729305E+02  0.00000000000E+00 0.  1.
         11    1    3    3    0    0  0.71174638715E+01  0.86216190930E+00 -0.10092048664E+02  0.12379461281E+02  0.51100000000E-03 0. -1.
        -11    1    3    3    0    0 -0.30202452424E+01  0.92078639533E+01 -0.11977316245E+02  0.15406581211E+02  0.51100000000E-03 0.  1.
        -12    1    3    3    0    0  0.91569044225E+01  0.97259580599E+00 -0.17755401669E+02  0.20001228203E+02  0.00000000000E+00 0.  1.
</event>
<event>
 7    1  0.2873419E-010  0.4778727E+02  0.7816164E-02  0.1312668E+00
        -11   -1    0    0    0    0  0.00000000000E+00  0.00000000000E+00  0.45593999997E+02  0.45594000000E+02  0.51100000000E-03 0.  1.
         11   -1    0    0    0    0 -0.00000000000E+00 -0.00000000000E+00 -0.45593999997E+02  0.45594000000E+02  0.51100000000E-03 0. -1.
    9900012    2    1    2    0    0  0.37574852491E+02  0.18209261144E+02 -0.11839620057E+02  0.47787270349E+02  0.19999996831E+02 0.  0.
        -12    1    1    2    0    0 -0.37574852491E+02 -0.18209261144E+02  0.11839620057E+02  0.43400729651E+02  0.00000000000E+00 0.  1.
         11    1    3    3    0    0  0.27628319737E+02  0.89990159363E+01 -0.82367745228E+01  0.30201834284E+02  0.51100000000E-03 0. -1.
        -11    1    3    3    0    0  0.15306652383E+01  0.30432083651E+00  0.32073191547E+01  0.35668534683E+01  0.51100000000E-03 0.  1.
        -12    1    3    3    0    0  0.84158675158E+01  0.89059243716E+01 -0.68101646886E+01  0.14018582597E+02  0.00000000000E+00 0.  1.
</event>
<event>
 7    1  0.2811980E-010  0.4778721E+02  0.7816164E-02  0.1312668E+00
        -11   -1    0    0    0    0  0.00000000000E+00  0.00000000000E+00  0.45593999997E+02  0.45594000000E+02  0.51100000000E-03 0.  1.
         11   -1    0    0    0    0 -0.00000000000E+00 -0.00000000000E+00 -0.45593999997E+02  0.45594000000E+02  0.51100000000E-03 0. -1.
    9900012    2    1    2    0    0  0.15544737938E+02  0.21342701464E+02 -0.34445303294E+02  0.47787208505E+02  0.19999714858E+02 0.  0.
        -12    1    1    2    0    0 -0.15544737938E+02 -0.21342701464E+02  0.34445303294E+02  0.43400791495E+02  0.00000000000E+00 0.  1.
         11    1    3    3    0    0  0.97641030112E+01  0.84555754691E+01 -0.29042580452E+02  0.31785310188E+02  0.51100000000E-03 0. -1.
        -11    1    3    3    0    0  0.51360002703E+01  0.77089894828E+01 -0.12790734874E+01  0.93510986985E+01  0.51100000000E-03 0.  1.
        -12    1    3    3    0    0  0.64463465681E+00  0.51781365126E+01 -0.41236493537E+01  0.66507996193E+01  0.00000000000E+00 0.  1.
</event>
<event>
 7    1  0.2811980E-010  0.4778727E+02  0.7816164E-02  0.1312668E+00
        -11   -1    0    0    0    0  0.00000000000E+00  0.00000000000E+00  0.45593999997E+02  0.45594000000E+02  0.51100000000E-03 0.  1.
         11   -1    0    0    0    0 -0.00000000000E+00 -0.00000000000E+00 -0.45593999997E+02  0.45594000000E+02  0.51100000000E-03 0. -1.
    9900012    2    1    2    0    0 -0.14512104803E+02  0.12539658528E+02 -0.38933005635E+02  0.47787272476E+02  0.20000006526E+02 0.  0.
        -12    1    1    2    0    0  0.14512104803E+02 -0.12539658528E+02  0.38933005635E+02  0.43400727524E+02  0.00000000000E+00 0.  1.
         11    1    3    3    0    0 -0.72322600570E+01 -0.11275985581E+01 -0.74324438709E+01  0.10431600366E+02  0.51100000000E-03 0. -1.
        -11    1    3    3    0    0 -0.16037605904E+01  0.12293610914E+02 -0.13038019413E+02  0.17991522110E+02  0.51100000000E-03 0.  1.
        -12    1    3    3    0    0 -0.56760841556E+01  0.13736461720E+01 -0.18462542352E+02  0.19364150000E+02  0.00000000000E+00 0.  1.
</event>
<event>
 7    1  0.2811980E-010  0.4778727E+02  0.7816164E-02  0.1312668E+00
        -11   -1    0    0    0    0  0.00000000000E+00  0.00000000000E+00  0.45593999997E+02  0.45594000000E+02  0.51100000000E-03 0.  1.
         11   -1    0    0    0    0 -0.00000000000E+00 -0.00000000000E+00 -0.45593999997E+02  0.45594000000E+02  0.51100000000E-03 0. -1.
    9900012    2    1    2    0    0 -0.42903434460E+02 -0.76457382010E+00  0.65064693526E+01  0.47787269533E+02  0.19999993109E+02 0.  0.
        -12    1    1    2    0    0  0.42903434460E+02  0.76457382010E+00 -0.65064693526E+01  0.43400730467E+02  0.00000000000E+00 0.  1.
         11    1    3    3    0    0 -0.37641173388E+01 -0.15184792078E+01  0.27380827630E+01  0.48960653511E+01  0.51100000000E-03 0. -1.
        -11    1    3    3    0    0 -0.11891699819E+01  0.20570028276E+01  0.43024651551E+01  0.49149356609E+01  0.51100000000E-03 0.  1.
        -12    1    3    3    0    0 -0.37950147140E+02 -0.13030974399E+01 -0.53407856550E+00  0.37976268521E+02  0.00000000000E+00 0.  1.
</event>
<event>
 7    1  0.2811980E-010  0.4778727E+02  0.7816164E-02  0.1312668E+00
        -11   -1    0    0    0    0  0.00000000000E+00  0.00000000000E+00  0.45593999997E+02  0.45594000000E+02  0.51100000000E-03 0.  1.
         11   -1    0    0    0    0 -0.00000000000E+00 -0.00000000000E+00 -0.45593999997E+02  0.45594000000E+02  0.51100000000E-03 0. -1.
    9900012    2    1    2    0    0 -0.57453681558E-01 -0.18921811820E+02 -0.39058737942E+02  0.47787271053E+02  0.20000000041E+02 0.  0.
        -12    1    1    2    0    0  0.57453681558E-01  0.18921811820E+02  0.39058737942E+02  0.43400728947E+02  0.00000000000E+00 0.  1.
         11    1    3    3    0    0  0.37248773862E+01 -0.17059063262E+02 -0.17042536661E+02  0.24399475548E+02  0.51100000000E-03 0. -1.
        -11    1    3    3    0    0 -0.93361463501E+00  0.13373468149E+01 -0.94404526662E+00  0.18845037853E+01  0.51100000000E-03 0.  1.
         12    1    3    3    0    0 -0.28487164327E+01 -0.32000953730E+01 -0.21072156014E+02  0.21503291720E+02  0.00000000000E+00 0. -1.
</event>
<event>
 7    1  0.2811980E-010  0.4778727E+02  0.7816164E-02  0.1312668E+00
        -11   -1    0    0    0    0  0.00000000000E+00  0.00000000000E+00  0.45593999997E+02  0.45594000000E+02  0.51100000000E-03 0. -1.
         11   -1    0    0    0    0 -0.00000000000E+00 -0.00000000000E+00 -0.45593999997E+02  0.45594000000E+02  0.51100000000E-03 0.  1.
    9900012    2    1    2    0    0 -0.31007407155E+02 -0.25053349944E+02  0.17160815658E+02  0.47787271481E+02  0.20000001993E+02 0.  0.
        -12    1    1    2    0    0  0.31007407155E+02  0.25053349944E+02 -0.17160815658E+02  0.43400728519E+02  0.00000000000E+00 0.  1.
         11    1    3    3    0    0 -0.10598605631E+02  0.49670286648E+00  0.52980365354E+01  0.11859441236E+02  0.51100000000E-03 0. -1.
        -11    1    3    3    0    0 -0.15459131309E+02 -0.17115347988E+02  0.40627870549E+01  0.23418499450E+02  0.51100000000E-03 0.  1.
         12    1    3    3    0    0 -0.49496702155E+01 -0.84347048222E+01  0.77999920673E+01  0.12509330795E+02  0.00000000000E+00 0. -1.
</event>
<event>
 7    1  0.2811980E-010  0.4778727E+02  0.7816164E-02  0.1312668E+00
        -11   -1    0    0    0    0  0.00000000000E+00  0.00000000000E+00  0.45593999997E+02  0.45594000000E+02  0.51100000000E-03 0. -1.
         11   -1    0    0    0    0 -0.00000000000E+00 -0.00000000000E+00 -0.45593999997E+02  0.45594000000E+02  0.51100000000E-03 0.  1.
    9900012    2    1    2    0    0 -0.40861137451E+02 -0.14108385130E+02 -0.38657720360E+01  0.47787270994E+02  0.19999999771E+02 0.  0.
        -12    1    1    2    0    0  0.40861137451E+02  0.14108385130E+02  0.38657720360E+01  0.43400729006E+02  0.00000000000E+00 0.  1.
         11    1    3    3    0    0 -0.12019718034E+02 -0.53690806674E+01 -0.54701307359E+00  0.13175730431E+02  0.51100000000E-03 0. -1.
        -11    1    3    3    0    0 -0.12136246989E+02 -0.47355822336E+01  0.67785536769E+01  0.14685469699E+02  0.51100000000E-03 0.  1.
        -12    1    3    3    0    0 -0.16705172428E+02 -0.40037222294E+01 -0.10097312639E+02  0.19926070864E+02  0.00000000000E+00 0.  1.
</event>
<event>
 7    1  0.2811980E-010  0.4778727E+02  0.7816164E-02  0.1312668E+00
        -11   -1    0    0    0    0  0.00000000000E+00  0.00000000000E+00  0.45593999997E+02  0.45594000000E+02  0.51100000000E-03 0.  1.
         11   -1    0    0    0    0 -0.00000000000E+00 -0.00000000000E+00 -0.45593999997E+02  0.45594000000E+02  0.51100000000E-03 0. -1.
    9900012    2    1    2    0    0 -0.24305631212E+02  0.17115402028E+00 -0.35955948338E+02  0.47787271629E+02  0.20000002663E+02 0.  0.
        -12    1    1    2    0    0  0.24305631212E+02 -0.17115402028E+00  0.35955948338E+02  0.43400728371E+02  0.00000000000E+00 0.  1.
         11    1    3    3    0    0 -0.10801295226E+02 -0.80147458670E+01 -0.14096324287E+02  0.19483595370E+02  0.51100000000E-03 0. -1.
        -11    1    3    3    0    0 -0.65988029886E+01  0.81784205947E+01 -0.96023887979E+01  0.14235049533E+02  0.51100000000E-03 0.  1.
         12    1    3    3    0    0 -0.69055329978E+01  0.74792925731E-02 -0.12257235252E+02  0.14068626726E+02  0.00000000000E+00 0. -1.
</event>
<event>
 7    1  0.2811980E-010  0.4778727E+02  0.7816164E-02  0.1312668E+00
        -11   -1    0    0    0    0  0.00000000000E+00  0.00000000000E+00  0.45593999997E+02  0.45594000000E+02  0.51100000000E-03 0. -1.
         11   -1    0    0    0    0 -0.00000000000E+00 -0.00000000000E+00 -0.45593999997E+02  0.45594000000E+02  0.51100000000E-03 0.  1.
    9900012    2    1    2    0    0  0.36885567826E+02 -0.14205257264E+02 -0.17924533008E+02  0.47787270383E+02  0.19999996983E+02 0.  0.
        -12    1    1    2    0    0 -0.36885567826E+02  0.14205257264E+02  0.17924533008E+02  0.43400729617E+02  0.00000000000E+00 0.  1.
         11    1    3    3    0    0  0.16808440906E+02  0.93035111653E+00 -0.56783747375E+01  0.17766068186E+02  0.51100000000E-03 0. -1.
        -11    1    3    3    0    0  0.17126010779E+02 -0.66156344964E+01 -0.75054292332E+01  0.19834271684E+02  0.51100000000E-03 0.  1.
         12    1    3    3    0    0  0.29511161407E+01 -0.85199738839E+01 -0.47407290373E+01  0.10186930512E+02  0.00000000000E+00 0. -1.
</event>
<event>
 7    1  0.2811980E-010  0.4778727E+02  0.7816164E-02  0.1312668E+00
        -11   -1    0    0    0    0  0.00000000000E+00  0.00000000000E+00  0.45593999997E+02  0.45594000000E+02  0.51100000000E-03 0.  1.
         11   -1    0    0    0    0 -0.00000000000E+00 -0.00000000000E+00 -0.45593999997E+02  0.45594000000E+02  0.51100000000E-03 0. -1.
    9900012    2    1    2    0    0 -0.18971146382E+02 -0.37278887933E+02 -0.11575984469E+02  0.47787270778E+02  0.19999998785E+02 0.  0.
        -12    1    1    2    0    0  0.18971146382E+02  0.37278887933E+02  0.11575984469E+02  0.43400729222E+02  0.00000000000E+00 0.  1.
         11    1    3    3    0    0 -0.13029669850E+02 -0.18961742614E+02 -0.12919830287E+01  0.23043202898E+02  0.51100000000E-03 0. -1.
        -11    1    3    3    0    0  0.25523038182E+01 -0.64100779623E+00 -0.25462850242E+01  0.36617910182E+01  0.51100000000E-03 0.  1.
         12    1    3    3    0    0 -0.84937803495E+01 -0.17676137523E+02 -0.77377164164E+01  0.21082276862E+02  0.00000000000E+00 0. -1.
</event>
<event>
 7    1  0.2811980E-010  0.4778728E+02  0.7816164E-02  0.1312668E+00
        -11   -1    0    0    0    0  0.00000000000E+00  0.00000000000E+00  0.45593999997E+02  0.45594000000E+02  0.51100000000E-03 0.  1.
         11   -1    0    0    0    0 -0.00000000000E+00 -0.00000000000E+00 -0.45593999997E+02  0.45594000000E+02  0.51100000000E-03 0. -1.
    9900012    2    1    2    0    0 -0.25329879912E+02  0.32053323009E+02 -0.14649382362E+02  0.47787277243E+02  0.20000028260E+02 0.  0.
        -12    1    1    2    0    0  0.25329879912E+02 -0.32053323009E+02  0.14649382362E+02  0.43400722757E+02  0.00000000000E+00 0.  1.
         11    1    3    3    0    0 -0.13610675507E+02  0.69421583425E+01 -0.10096719234E+01  0.15312200621E+02  0.51100000000E-03 0. -1.
        -11    1    3    3    0    0 -0.61912733543E+00 -0.57178130925E+00  0.64424107078E+00  0.10608012733E+01  0.51100000000E-03 0.  1.
         12    1    3    3    0    0 -0.11100077070E+02  0.25682945975E+02 -0.14283951510E+02  0.31414275348E+02  0.00000000000E+00 0. -1.
</event>
<event>
 7    1  0.2811980E-010  0.4778726E+02  0.7816164E-02  0.1312668E+00
        -11   -1    0    0    0    0  0.00000000000E+00  0.00000000000E+00  0.45593999997E+02  0.45594000000E+02  0.51100000000E-03 0.  1.
         11   -1    0    0    0    0 -0.00000000000E+00 -0.00000000000E+00 -0.45593999997E+02  0.45594000000E+02  0.51100000000E-03 0. -1.
    9900012    2    1    2    0    0 -0.24997726992E+01 -0.39239278739E+01 -0.43150641515E+02  0.47787263409E+02  0.19999965187E+02 0.  0.
        -12    1    1    2    0    0  0.24997726992E+01  0.39239278739E+01  0.43150641515E+02  0.43400736591E+02  0.00000000000E+00 0.  1.
         11    1    3    3    0    0 -0.13939122705E+01  0.18939374212E+00 -0.94102080526E+01  0.95147715297E+01  0.51100000000E-03 0. -1.
        -11    1    3    3    0    0 -0.75215701195E+01  0.62650047260E-01 -0.27145564330E+02  0.28168415027E+02  0.51100000000E-03 0.  1.
        -12    1    3    3    0    0  0.64157096908E+01 -0.41759716632E+01 -0.65948691324E+01  0.10104076853E+02  0.00000000000E+00 0.  1.
</event>
<event>
 7    1  0.2811980E-010  0.4778727E+02  0.7816164E-02  0.1312668E+00
        -11   -1    0    0    0    0  0.00000000000E+00  0.00000000000E+00  0.45593999997E+02  0.45594000000E+02  0.51100000000E-03 0.  1.
         11   -1    0    0    0    0 -0.00000000000E+00 -0.00000000000E+00 -0.45593999997E+02  0.45594000000E+02  0.51100000000E-03 0. -1.
    9900012    2    1    2    0    0  0.41037218824E+02 -0.13482384445E+02  0.42184713922E+01  0.47787268209E+02  0.19999987073E+02 0.  0.
        -12    1    1    2    0    0 -0.41037218824E+02  0.13482384445E+02 -0.42184713922E+01  0.43400731791E+02  0.00000000000E+00 0.  1.
         11    1    3    3    0    0  0.22810370193E+02 -0.10360997851E+02 -0.60677166268E+01  0.25777518308E+02  0.51100000000E-03 0. -1.
        -11    1    3    3    0    0  0.41457054373E+01  0.15428597529E+01  0.37536689324E+01  0.58014929548E+01  0.51100000000E-03 0.  1.
         12    1    3    3    0    0  0.14081143193E+02 -0.46642463465E+01  0.65325190866E+01  0.16208256946E+02  0.00000000000E+00 0. -1.
</event>
<event>
 7    1  0.2811980E-010  0.4778726E+02  0.7816164E-02  0.1312668E+00
        -11   -1    0    0    0    0  0.00000000000E+00  0.00000000000E+00  0.45593999997E+02  0.45594000000E+02  0.51100000000E-03 0. -1.
         11   -1    0    0    0    0 -0.00000000000E+00 -0.00000000000E+00 -0.45593999997E+02  0.45594000000E+02  0.51100000000E-03 0.  1.
    9900012    2    1    2    0    0  0.42222855169E+02  0.98467639105E+01 -0.19737227517E+01  0.47787264527E+02  0.19999970284E+02 0.  0.
        -12    1    1    2    0    0 -0.42222855169E+02 -0.98467639105E+01  0.19737227517E+01  0.43400735473E+02  0.00000000000E+00 0.  1.
         11    1    3    3    0    0  0.23451139630E+02  0.92020296857E+01  0.68752190955E+01  0.26113252156E+02  0.51100000000E-03 0. -1.
        -11    1    3    3    0    0  0.70943454069E+01  0.23906160809E+01 -0.58256317859E+01  0.94859247291E+01  0.51100000000E-03 0.  1.
         12    1    3    3    0    0  0.11677370131E+02 -0.17458818561E+01 -0.30233100612E+01  0.12188087642E+02  0.00000000000E+00 0. -1.
</event>
<event>
 7    1  0.2811980E-010  0.4778727E+02  0.7816164E-02  0.1312668E+00
        -11   -1    0    0    0    0  0.00000000000E+00  0.00000000000E+00  0.45593999997E+02  0.45594000000E+02  0.51100000000E-03 0.  1.
         11   -1    0    0    0    0 -0.00000000000E+00 -0.00000000000E+00 -0.45593999997E+02  0.45594000000E+02  0.51100000000E-03 0. -1.
    9900012    2    1    2    0    0 -0.34534696463E+02 -0.76602870295E+01 -0.25145535789E+02  0.47787271581E+02  0.20000002445E+02 0.  0.
        -12    1    1    2    0    0  0.34534696463E+02  0.76602870295E+01  0.25145535789E+02  0.43400728419E+02  0.00000000000E+00 0.  1.
         11    1    3    3    0    0 -0.12528989341E+02 -0.43620357435E+01 -0.14542860754E+02  0.19684961999E+02  0.51100000000E-03 0. -1.
        -11    1    3    3    0    0 -0.12082416572E+02  0.36754169157E+01 -0.10671315011E+01  0.12674077861E+02  0.51100000000E-03 0.  1.
        -12    1    3    3    0    0 -0.99232905507E+01 -0.69736682018E+01 -0.95355435341E+01  0.15428231721E+02  0.00000000000E+00 0.  1.
</event>
<event>
 7    1  0.2811980E-010  0.4778727E+02  0.7816164E-02  0.1312668E+00
        -11   -1    0    0    0    0  0.00000000000E+00  0.00000000000E+00  0.45593999997E+02  0.45594000000E+02  0.51100000000E-03 0.  1.
         11   -1    0    0    0    0 -0.00000000000E+00 -0.00000000000E+00 -0.45593999997E+02  0.45594000000E+02  0.51100000000E-03 0. -1.
    9900012    2    1    2    0    0  0.32447716667E+02 -0.26477661435E+02  0.11388702126E+02  0.47787269498E+02  0.19999992950E+02 0.  0.
        -12    1    1    2    0    0 -0.32447716667E+02  0.26477661435E+02 -0.11388702126E+02  0.43400730502E+02  0.00000000000E+00 0.  1.
         11    1    3    3    0    0  0.14969086622E+02 -0.16232777261E+02  0.11832643800E+01  0.22112818155E+02  0.51100000000E-03 0. -1.
        -11    1    3    3    0    0  0.17041765769E+02 -0.42893172121E+01  0.80013197342E+01  0.19309094759E+02  0.51100000000E-03 0.  1.
        -12    1    3    3    0    0  0.43686427643E+00 -0.59555669620E+01  0.22041180117E+01  0.63653565843E+01  0.00000000000E+00 0.  1.
</event>
<event>
 7    1  0.2811980E-010  0.4778726E+02  0.7816164E-02  0.1312668E+00
        -11   -1    0    0    0    0  0.00000000000E+00  0.00000000000E+00  0.45593999997E+02  0.45594000000E+02  0.51100000000E-03 0. -1.
         11   -1    0    0    0    0 -0.00000000000E+00 -0.00000000000E+00 -0.45593999997E+02  0.45594000000E+02  0.51100000000E-03 0.  1.
    9900012    2    1    2    0    0 -0.33813874155E+02 -0.26870562326E+02 -0.42683475375E+01  0.47787262728E+02  0.19999962081E+02 0.  0.
        -12    1    1    2    0    0  0.33813874155E+02  0.26870562326E+02  0.42683475375E+01  0.43400737272E+02  0.00000000000E+00 0.  1.
         11    1    3    3    0    0 -0.16105628769E+02 -0.18359401811E+02 -0.34246211691E+01  0.24661446497E+02  0.51100000000E-03 0. -1.
        -11    1    3    3    0    0  0.13811562882E+01  0.57943975314E+00  0.11503687125E+01  0.18885686526E+01  0.51100000000E-03 0.  1.
        -12    1    3    3    0    0 -0.19089401674E+02 -0.90906002680E+01 -0.19940950809E+01  0.21237247579E+02  0.00000000000E+00 0.  1.
</event>
<event>
 7    1  0.2811980E-010  0.4778728E+02  0.7816164E-02  0.1312668E+00
        -11   -1    0    0    0    0  0.00000000000E+00  0.00000000000E+00  0.45593999997E+02  0.45594000000E+02  0.51100000000E-03 0.  1.
         11   -1    0    0    0    0 -0.00000000000E+00 -0.00000000000E+00 -0.45593999997E+02  0.45594000000E+02  0.51100000000E-03 0. -1.
    9900012    2    1    2    0    0 -0.84729518010E+01 -0.41085516749E+01 -0.42366865823E+02  0.47787280781E+02  0.20000044391E+02 0.  0.
        -12    1    1    2    0    0  0.84729518010E+01  0.41085516749E+01  0.42366865823E+02  0.43400719219E+02  0.00000000000E+00 0.  1.
         11    1    3    3    0    0 -0.76743294595E+01 -0.62204908983E+00 -0.57738889922E+01  0.96239322565E+01  0.51100000000E-03 0. -1.
        -11    1    3    3    0    0  0.32342218291E+01 -0.34328935499E+01 -0.30460352968E+02  0.30823336162E+02  0.51100000000E-03 0.  1.
        -12    1    3    3    0    0 -0.40328441707E+01 -0.53609035103E-01 -0.61326238633E+01  0.73400123625E+01  0.00000000000E+00 0.  1.
</event>
<event>
 7    1  0.2811980E-010  0.4778727E+02  0.7816164E-02  0.1312668E+00
        -11   -1    0    0    0    0  0.00000000000E+00  0.00000000000E+00  0.45593999997E+02  0.45594000000E+02  0.51100000000E-03 0.  1.
         11   -1    0    0    0    0 -0.00000000000E+00 -0.00000000000E+00 -0.45593999997E+02  0.45594000000E+02  0.51100000000E-03 0. -1.
    9900012    2    1    2    0    0  0.19540730592E+02  0.96213440940E+00 -0.38740903145E+02  0.47787269233E+02  0.19999991739E+02 0.  0.
        -12    1    1    2    0    0 -0.19540730592E+02 -0.96213440940E+00  0.38740903145E+02  0.43400730767E+02  0.00000000000E+00 0.  1.
         11    1    3    3    0    0  0.13713023234E+02 -0.24133290571E+01 -0.17513173182E+02  0.22373698812E+02  0.51100000000E-03 0. -1.
        -11    1    3    3    0    0 -0.32804260660E+01  0.30873399593E+00 -0.18383295646E+01  0.37730581368E+01  0.51100000000E-03 0.  1.
        -12    1    3    3    0    0  0.91081334234E+01  0.30667294706E+01 -0.19389400398E+02  0.21640512284E+02  0.00000000000E+00 0.  1.
</event>
<event>
 7    1  0.2811980E-010  0.4778728E+02  0.7816164E-02  0.1312668E+00
        -11   -1    0    0    0    0  0.00000000000E+00  0.00000000000E+00  0.45593999997E+02  0.45594000000E+02  0.51100000000E-03 0.  1.
         11   -1    0    0    0    0 -0.00000000000E+00 -0.00000000000E+00 -0.45593999997E+02  0.45594000000E+02  0.51100000000E-03 0. -1.
    9900012    2    1    2    0    0 -0.10266683642E+02 -0.15217305342E+02 -0.39327491223E+02  0.47787277186E+02  0.20000028003E+02 0.  0.
        -12    1    1    2    0    0  0.10266683642E+02  0.15217305342E+02  0.39327491223E+02  0.43400722814E+02  0.00000000000E+00 0.  1.
         11    1    3    3    0    0 -0.60297095513E+01  0.29331097834E+00 -0.21828894290E+02  0.22648268251E+02  0.51100000000E-03 0. -1.
        -11    1    3    3    0    0 -0.77220002053E+00 -0.14354322067E+02 -0.13449039496E+02  0.19685515449E+02  0.51100000000E-03 0.  1.
        -12    1    3    3    0    0 -0.34647740706E+01 -0.11562942528E+01 -0.40495574376E+01  0.54534934859E+01  0.00000000000E+00 0.  1.
</event>
<event>
 7    1  0.2811980E-010  0.4778727E+02  0.7816164E-02  0.1312668E+00
        -11   -1    0    0    0    0  0.00000000000E+00  0.00000000000E+00  0.45593999997E+02  0.45594000000E+02  0.51100000000E-03 0.  1.
         11   -1    0    0    0    0 -0.00000000000E+00 -0.00000000000E+00 -0.45593999997E+02  0.45594000000E+02  0.51100000000E-03 0. -1.
    9900012    2    1    2    0    0  0.28129259722E+02 -0.17697901528E+02 -0.27913293708E+02  0.47787274929E+02  0.20000017713E+02 0.  0.
        -12    1    1    2    0    0 -0.28129259722E+02  0.17697901528E+02  0.27913293708E+02  0.43400725071E+02  0.00000000000E+00 0.  1.
         11    1    3    3    0    0  0.53012385555E+01 -0.81221842073E+01 -0.75955173306E+01  0.12319289359E+02  0.51100000000E-03 0. -1.
        -11    1    3    3    0    0  0.44500644986E+01 -0.26774907655E+01  0.21605070839E+01  0.56249286184E+01  0.51100000000E-03 0.  1.
        -12    1    3    3    0    0  0.18377956668E+02 -0.68982265553E+01 -0.22478283461E+02  0.29843056953E+02  0.00000000000E+00 0.  1.
</event>
<event>
 7    1  0.2811980E-010  0.4778727E+02  0.7816164E-02  0.1312668E+00
        -11   -1    0    0    0    0  0.00000000000E+00  0.00000000000E+00  0.45593999997E+02  0.45594000000E+02  0.51100000000E-03 0.  1.
         11   -1    0    0    0    0 -0.00000000000E+00 -0.00000000000E+00 -0.45593999997E+02  0.45594000000E+02  0.51100000000E-03 0. -1.
    9900012    2    1    2    0    0 -0.29879193551E+02 -0.28139270639E+02 -0.14108110397E+02  0.47787267998E+02  0.19999986111E+02 0.  0.
        -12    1    1    2    0    0  0.29879193551E+02  0.28139270639E+02  0.14108110397E+02  0.43400732002E+02  0.00000000000E+00 0.  1.
         11    1    3    3    0    0 -0.12088743306E+02 -0.64732914724E+01 -0.10949319479E+02  0.17547900573E+02  0.51100000000E-03 0. -1.
        -11    1    3    3    0    0 -0.10149747756E+02 -0.16857522399E+02  0.21042596625E+01  0.19789425204E+02  0.51100000000E-03 0.  1.
        -12    1    3    3    0    0 -0.76407024884E+01 -0.48084567681E+01 -0.52630505806E+01  0.10449942221E+02  0.00000000000E+00 0.  1.
</event>
<event>
 7    1  0.2811980E-010  0.4778727E+02  0.7816164E-02  0.1312668E+00
        -11   -1    0    0    0    0  0.00000000000E+00  0.00000000000E+00  0.45593999997E+02  0.45594000000E+02  0.51100000000E-03 0.  1.
         11   -1    0    0    0    0 -0.00000000000E+00 -0.00000000000E+00 -0.45593999997E+02  0.45594000000E+02  0.51100000000E-03 0. -1.
    9900012    2    1    2    0    0 -0.38031645713E+02 -0.17299455921E+02 -0.11745038663E+02  0.47787272080E+02  0.20000004722E+02 0.  0.
        -12    1    1    2    0    0  0.38031645713E+02  0.17299455921E+02  0.11745038663E+02  0.43400727920E+02  0.00000000000E+00 0.  1.
         11    1    3    3    0    0 -0.17239448237E+02 -0.86536141245E+01  0.22457030377E+01  0.19419752711E+02  0.51100000000E-03 0. -1.
        -11    1    3    3    0    0 -0.10584456233E+01 -0.14931067643E+01  0.14292814538E+01  0.23221801572E+01  0.51100000000E-03 0.  1.
         12    1    3    3    0    0 -0.19733751852E+02 -0.71527350321E+01 -0.15420023155E+02  0.26045339212E+02  0.00000000000E+00 0. -1.
</event>
<event>
 7    1  0.2811980E-010  0.4778727E+02  0.7816164E-02  0.1312668E+00
        -11   -1    0    0    0    0  0.00000000000E+00  0.00000000000E+00  0.45593999997E+02  0.45594000000E+02  0.51100000000E-03 0. -1.
         11   -1    0    0    0    0 -0.00000000000E+00 -0.00000000000E+00 -0.45593999997E+02  0.45594000000E+02  0.51100000000E-03 0.  1.
    9900012    2    1    2    0    0 -0.23327470366E+01 -0.39827843616E+01  0.43154595459E+02  0.47787269715E+02  0.19999993940E+02 0.  0.
        -12    1    1    2    0    0  0.23327470366E+01  0.39827843616E+01 -0.43154595459E+02  0.43400730285E+02  0.00000000000E+00 0.  1.
         11    1    3    3    0    0  0.28850948751E+01 -0.51187346917E+00  0.36832569039E+02  0.36948936780E+02  0.51100000000E-03 0. -1.
        -11    1    3    3    0    0 -0.55988272276E+01 -0.30831958157E+01  0.73102705045E+01  0.97104591999E+01  0.51100000000E-03 0.  1.
        -12    1    3    3    0    0  0.38098531593E+00 -0.38771507675E+00 -0.98824408463E+00  0.11278737352E+01  0.00000000000E+00 0.  1.
</event>
<event>
 7    1  0.2811980E-010  0.4778728E+02  0.7816164E-02  0.1312668E+00
        -11   -1    0    0    0    0  0.00000000000E+00  0.00000000000E+00  0.45593999997E+02  0.45594000000E+02  0.51100000000E-03 0. -1.
         11   -1    0    0    0    0 -0.00000000000E+00 -0.00000000000E+00 -0.45593999997E+02  0.45594000000E+02  0.51100000000E-03 0.  1.
    9900012    2    1    2    0    0 -0.34053617613E+02 -0.96828150213E+01  0.25104113137E+02  0.47787282545E+02  0.20000052434E+02 0.  0.
        -12    1    1    2    0    0  0.34053617613E+02  0.96828150213E+01 -0.25104113137E+02  0.43400717455E+02  0.00000000000E+00 0.  1.
         11    1    3    3    0    0 -0.28479149139E+02 -0.12396012956E+02  0.17887267896E+02  0.35842397045E+02  0.51100000000E-03 0. -1.
        -11    1    3    3    0    0 -0.20068404040E+01  0.37034965970E+01  0.45637818687E+00  0.42369301106E+01  0.51100000000E-03 0.  1.
        -12    1    3    3    0    0 -0.35676280696E+01 -0.99029866192E+00  0.67604670543E+01  0.77079553888E+01  0.00000000000E+00 0.  1.
</event>
<event>
 7    1  0.2811980E-010  0.4778727E+02  0.7816164E-02  0.1312668E+00
        -11   -1    0    0    0    0  0.00000000000E+00  0.00000000000E+00  0.45593999997E+02  0.45594000000E+02  0.51100000000E-03 0. -1.
         11   -1    0    0    0    0 -0.00000000000E+00 -0.00000000000E+00 -0.45593999997E+02  0.45594000000E+02  0.51100000000E-03 0.  1.
    9900012    2    1    2    0    0  0.13624400321E+02 -0.84371992327E+01  0.40333765299E+02  0.47787271456E+02  0.20000001875E+02 0.  0.
        -12    1    1    2    0    0 -0.13624400321E+02  0.84371992327E+01 -0.40333765299E+02  0.43400728544E+02  0.00000000000E+00 0.  1.
         11    1    3    3    0    0  0.20896846610E+01 -0.49953180622E+01  0.18781264516E+02  0.19546249809E+02  0.51100000000E-03 0. -1.
        -11    1    3    3    0    0  0.14111477488E+02 -0.39332323902E+01  0.14069072866E+02  0.20311152737E+02  0.51100000000E-03 0.  1.
         12    1    3    3    0    0 -0.25767618280E+01  0.49135121972E+00  0.74834279169E+01  0.79298689098E+01  0.00000000000E+00 0. -1.
</event>
<event>
 7    1  0.2811980E-010  0.4778728E+02  0.7816164E-02  0.1312668E+00
        -11   -1    0    0    0    0  0.00000000000E+00  0.00000000000E+00  0.45593999997E+02  0.45594000000E+02  0.51100000000E-03 0. -1.
         11   -1    0    0    0    0 -0.00000000000E+00 -0.00000000000E+00 -0.45593999997E+02  0.45594000000E+02  0.51100000000E-03 0.  1.
    9900012    2    1    2    0    0  0.43123639566E+02 -0.44853327976E+01 -0.19637142862E+01  0.47787277961E+02  0.20000031533E+02 0.  0.
        -12    1    1    2    0    0 -0.43123639566E+02  0.44853327976E+01  0.19637142862E+01  0.43400722039E+02  0.00000000000E+00 0.  1.
         11    1    3    3    0    0  0.19561121674E+02  0.61436540675E+01  0.30212195663E+01  0.20724616628E+02  0.51100000000E-03 0. -1.
        -11    1    3    3    0    0  0.13698524529E+02 -0.53642480378E+01 -0.58864072802E+01  0.15845331243E+02  0.51100000000E-03 0.  1.
        -12    1    3    3    0    0  0.98639933635E+01 -0.52647388274E+01  0.90147342769E+00  0.11217330089E+02  0.00000000000E+00 0.  1.
</event>
<event>
 7    1  0.2811980E-010  0.4778726E+02  0.7816164E-02  0.1312668E+00
        -11   -1    0    0    0    0  0.00000000000E+00  0.00000000000E+00  0.45593999997E+02  0.45594000000E+02  0.51100000000E-03 0.  1.
         11   -1    0    0    0    0 -0.00000000000E+00 -0.00000000000E+00 -0.45593999997E+02  0.45594000000E+02  0.51100000000E-03 0. -1.
    9900012    2    1    2    0    0  0.14527311026E+02  0.34318567673E+02 -0.22244484547E+02  0.47787263306E+02  0.19999964719E+02 0.  0.
        -12    1    1    2    0    0 -0.14527311026E+02 -0.34318567673E+02  0.22244484547E+02  0.43400736694E+02  0.00000000000E+00 0.  1.
         11    1    3    3    0    0  0.65095425991E+01  0.78882934374E+01  0.10813319397E+01  0.10284386089E+02  0.51100000000E-03 0. -1.
        -11    1    3    3    0    0  0.76974862157E+00  0.10368828375E+02 -0.14368475069E+02  0.17735788420E+02  0.51100000000E-03 0.  1.
        -12    1    3    3    0    0  0.72480198057E+01  0.16061445861E+02 -0.89573414172E+01  0.19767088797E+02  0.00000000000E+00 0.  1.
</event>
<event>
 7    1  0.2811980E-010  0.4778728E+02  0.7816164E-02  0.1312668E+00
        -11   -1    0    0    0    0  0.00000000000E+00  0.00000000000E+00  0.45593999997E+02  0.45594000000E+02  0.51100000000E-03 0.  1.
         11   -1    0    0    0    0 -0.00000000000E+00 -0.00000000000E+00 -0.45593999997E+02  0.45594000000E+02  0.51100000000E-03 0. -1.
    9900012    2    1    2    0    0 -0.19383916616E+02  0.25780112837E+02 -0.29039151512E+02  0.47787276944E+02  0.20000026900E+02 0.  0.
        -12    1    1    2    0    0  0.19383916616E+02 -0.25780112837E+02  0.29039151512E+02  0.43400723056E+02  0.00000000000E+00 0.  1.
         11    1    3    3    0    0 -0.98472936163E+01  0.85692309762E+01 -0.47423594129E+01  0.13888516269E+02  0.51100000000E-03 0. -1.
        -11    1    3    3    0    0 -0.10868404364E+02  0.14311473581E+02 -0.24843412928E+02  0.30661631653E+02  0.51100000000E-03 0.  1.
        -12    1    3    3    0    0  0.13317813648E+01  0.28994082797E+01  0.54662082885E+00  0.32371290222E+01  0.00000000000E+00 0.  1.
</event>
<event>
 7    1  0.2811980E-010  0.4778727E+02  0.7816164E-02  0.1312668E+00
        -11   -1    0    0    0    0  0.00000000000E+00  0.00000000000E+00  0.45593999997E+02  0.45594000000E+02  0.51100000000E-03 0.  1.
         11   -1    0    0    0    0 -0.00000000000E+00 -0.00000000000E+00 -0.45593999997E+02  0.45594000000E+02  0.51100000000E-03 0. -1.
    9900012    2    1    2    0    0 -0.24732499897E+02 -0.11056084874E+02 -0.33907075954E+02  0.47787270010E+02  0.19999995284E+02 0.  0.
        -12    1    1    2    0    0  0.24732499897E+02  0.11056084874E+02  0.33907075954E+02  0.43400729990E+02  0.00000000000E+00 0.  1.
         11    1    3    3    0    0 -0.60097667783E+01  0.19816689343E-01 -0.20041669695E+02  0.20923341364E+02  0.51100000000E-03 0. -1.
        -11    1    3    3    0    0 -0.45720590677E+01 -0.42373364285E+01 -0.53694748899E+00  0.62567609027E+01  0.51100000000E-03 0.  1.
         12    1    3    3    0    0 -0.14150674051E+02 -0.68385651349E+01 -0.13328458771E+02  0.20607167743E+02  0.00000000000E+00 0. -1.
</event>
<event>
 7    1  0.2811980E-010  0.4778727E+02  0.7816164E-02  0.1312668E+00
        -11   -1    0    0    0    0  0.00000000000E+00  0.00000000000E+00  0.45593999997E+02  0.45594000000E+02  0.51100000000E-03 0.  1.
         11   -1    0    0    0    0 -0.00000000000E+00 -0.00000000000E+00 -0.45593999997E+02  0.45594000000E+02  0.51100000000E-03 0. -1.
    9900012    2    1    2    0    0  0.53889816878E+01  0.27620190825E+02 -0.33040991776E+02  0.47787271868E+02  0.20000003755E+02 0.  0.
        -12    1    1    2    0    0 -0.53889816878E+01 -0.27620190825E+02  0.33040991776E+02  0.43400728132E+02  0.00000000000E+00 0.  1.
         11    1    3    3    0    0  0.26214661863E+01  0.25438741817E+02 -0.21234908059E+02  0.33240381928E+02  0.51100000000E-03 0. -1.
        -11    1    3    3    0    0 -0.21736694188E+01 -0.55134509026E+00 -0.61869928220E+01  0.65808586515E+01  0.51100000000E-03 0.  1.
         12    1    3    3    0    0  0.49411849203E+01  0.27327940984E+01 -0.56190908949E+01  0.79660312883E+01  0.00000000000E+00 0. -1.
</event>
<event>
 7    1  0.2811980E-010  0.4778727E+02  0.7816164E-02  0.1312668E+00
        -11   -1    0    0    0    0  0.00000000000E+00  0.00000000000E+00  0.45593999997E+02  0.45594000000E+02  0.51100000000E-03 0.  1.
         11   -1    0    0    0    0 -0.00000000000E+00 -0.00000000000E+00 -0.45593999997E+02  0.45594000000E+02  0.51100000000E-03 0. -1.
    9900012    2    1    2    0    0 -0.16355983268E+02 -0.12958563637E+02 -0.38054968359E+02  0.47787272161E+02  0.20000005090E+02 0.  0.
        -12    1    1    2    0    0  0.16355983268E+02  0.12958563637E+02  0.38054968359E+02  0.43400727839E+02  0.00000000000E+00 0.  1.
         11    1    3    3    0    0 -0.98754481326E+01 -0.57387367754E+01 -0.70190063392E+01  0.13406118970E+02  0.51100000000E-03 0. -1.
        -11    1    3    3    0    0 -0.80098964313E+00 -0.24151596356E+01 -0.24023284558E+02  0.24157665071E+02  0.51100000000E-03 0.  1.
        -12    1    3    3    0    0 -0.56795454922E+01 -0.48046672259E+01 -0.70126774615E+01  0.10223488119E+02  0.00000000000E+00 0.  1.
</event>
<event>
 7    1  0.2811980E-010  0.4778727E+02  0.7816164E-02  0.1312668E+00
        -11   -1    0    0    0    0  0.00000000000E+00  0.00000000000E+00  0.45593999997E+02  0.45594000000E+02  0.51100000000E-03 0.  1.
         11   -1    0    0    0    0 -0.00000000000E+00 -0.00000000000E+00 -0.45593999997E+02  0.45594000000E+02  0.51100000000E-03 0. -1.
    9900012    2    1    2    0    0 -0.22548982642E+01 -0.23574481606E+02 -0.36370078079E+02  0.47787270414E+02  0.19999997124E+02 0.  0.
        -12    1    1    2    0    0  0.22548982642E+01  0.23574481606E+02  0.36370078079E+02  0.43400729586E+02  0.00000000000E+00 0.  1.
         11    1    3    3    0    0  0.55559746908E-01  0.11137370577E+00 -0.99901383730E+01  0.99909136700E+01  0.51100000000E-03 0. -1.
        -11    1    3    3    0    0 -0.72581705229E+01 -0.18416731484E+02 -0.18345576380E+02  0.26989205451E+02  0.51100000000E-03 0.  1.
        -12    1    3    3    0    0  0.49477125117E+01 -0.52691238269E+01 -0.80343633257E+01  0.10807151292E+02  0.00000000000E+00 0.  1.
</event>
<event>
 7    1  0.2811980E-010  0.4778727E+02  0.7816164E-02  0.1312668E+00
        -11   -1    0    0    0    0  0.00000000000E+00  0.00000000000E+00  0.45593999997E+02  0.45594000000E+02  0.51100000000E-03 0.  1.
         11   -1    0    0    0    0 -0.00000000000E+00 -0.00000000000E+00 -0.45593999997E+02  0.45594000000E+02  0.51100000000E-03 0. -1.
    9900012    2    1    2    0    0 -0.23983179260E+02  0.32996675115E+02 -0.14820593108E+02  0.47787269175E+02  0.19999991476E+02 0.  0.
        -12    1    1    2    0    0  0.23983179260E+02 -0.32996675115E+02  0.14820593108E+02  0.43400730825E+02  0.00000000000E+00 0.  1.
         11    1    3    3    0    0 -0.81722077987E+00  0.58012937183E+00 -0.54233053441E+01  0.55151283763E+01  0.51100000000E-03 0. -1.
        -11    1    3    3    0    0 -0.13439767999E+02  0.10566335742E+02 -0.18677858065E+01  0.17197774244E+02  0.51100000000E-03 0.  1.
         12    1    3    3    0    0 -0.97261904816E+01  0.21850210001E+02 -0.75295019577E+01  0.25074366555E+02  0.00000000000E+00 0. -1.
</event>
<event>
 7    1  0.2811980E-010  0.4778727E+02  0.7816164E-02  0.1312668E+00
        -11   -1    0    0    0    0  0.00000000000E+00  0.00000000000E+00  0.45593999997E+02  0.45594000000E+02  0.51100000000E-03 0.  1.
         11   -1    0    0    0    0 -0.00000000000E+00 -0.00000000000E+00 -0.45593999997E+02  0.45594000000E+02  0.51100000000E-03 0. -1.
    9900012    2    1    2    0    0  0.10243664754E+02  0.20249847032E+02 -0.36995056183E+02  0.47787272421E+02  0.20000006278E+02 0.  0.
        -12    1    1    2    0    0 -0.10243664754E+02 -0.20249847032E+02  0.36995056183E+02  0.43400727579E+02  0.00000000000E+00 0.  1.
         11    1    3    3    0    0 -0.23731687327E+01 -0.15272330628E+01 -0.88468776238E+00  0.29575400860E+01  0.51100000000E-03 0.  1.
        -11    1    3    3    0    0 -0.25932463111E+00  0.44039738994E+01 -0.99824994150E+01  0.10913868709E+02  0.51100000000E-03 0. -1.
         12    1    3    3    0    0  0.12876158118E+02  0.17373106195E+02 -0.26127869005E+02  0.33915863626E+02  0.00000000000E+00 0. -1.
</event>
<event>
 7    1  0.3258238E-010  0.4778727E+02  0.7816164E-02  0.1312668E+00
        -11   -1    0    0    0    0  0.00000000000E+00  0.00000000000E+00  0.45593999997E+02  0.45594000000E+02  0.51100000000E-03 0.  1.
         11   -1    0    0    0    0 -0.00000000000E+00 -0.00000000000E+00 -0.45593999997E+02  0.45594000000E+02  0.51100000000E-03 0. -1.
    9900012    2    1    2    0    0 -0.36753991825E+02  0.12128989677E+02 -0.19638097243E+02  0.47787272253E+02  0.20000005509E+02 0.  0.
        -12    1    1    2    0    0  0.36753991825E+02 -0.12128989677E+02  0.19638097243E+02  0.43400727747E+02  0.00000000000E+00 0.  1.
         11    1    3    3    0    0 -0.96350952320E+01  0.54358963377E+01 -0.46257595602E+01  0.11990899920E+02  0.51100000000E-03 0. -1.
        -11    1    3    3    0    0 -0.19659509767E+02  0.55891993583E+01 -0.18426755062E+02  0.27518735002E+02  0.51100000000E-03 0.  1.
        -12    1    3    3    0    0 -0.74593868263E+01  0.11038939814E+01  0.34144173785E+01  0.82776373308E+01  0.00000000000E+00 0.  1.
</event>
<event>
 7    1  0.2811980E-010  0.4778727E+02  0.7816164E-02  0.1312668E+00
        -11   -1    0    0    0    0  0.00000000000E+00  0.00000000000E+00  0.45593999997E+02  0.45594000000E+02  0.51100000000E-03 0. -1.
         11   -1    0    0    0    0 -0.00000000000E+00 -0.00000000000E+00 -0.45593999997E+02  0.45594000000E+02  0.51100000000E-03 0.  1.
    9900012    2    1    2    0    0 -0.42616447155E+01  0.40697176052E+02  0.14463802678E+02  0.47787270258E+02  0.19999996414E+02 0.  0.
        -12    1    1    2    0    0  0.42616447155E+01 -0.40697176052E+02 -0.14463802678E+02  0.43400729742E+02  0.00000000000E+00 0.  1.
         11    1    3    3    0    0 -0.34851582376E+01  0.39698848960E+02  0.12383736031E+02  0.41731305456E+02  0.51100000000E-03 0. -1.
        -11    1    3    3    0    0 -0.18196395447E+01 -0.18500586547E+01  0.13950824654E+01  0.29461942306E+01  0.51100000000E-03 0.  1.
        -12    1    3    3    0    0  0.10431530667E+01  0.28483857457E+01  0.68498418161E+00  0.31097705713E+01  0.00000000000E+00 0.  1.
</event>
<event>
 7    1  0.2811980E-010  0.4778727E+02  0.7816164E-02  0.1312668E+00
        -11   -1    0    0    0    0  0.00000000000E+00  0.00000000000E+00  0.45593999997E+02  0.45594000000E+02  0.51100000000E-03 0.  1.
         11   -1    0    0    0    0 -0.00000000000E+00 -0.00000000000E+00 -0.45593999997E+02  0.45594000000E+02  0.51100000000E-03 0. -1.
    9900012    2    1    2    0    0  0.17829314905E+02  0.26633094313E+02 -0.29264605768E+02  0.47787270359E+02  0.19999996875E+02 0.  0.
        -12    1    1    2    0    0 -0.17829314905E+02 -0.26633094313E+02  0.29264605768E+02  0.43400729641E+02  0.00000000000E+00 0.  1.
         11    1    3    3    0    0  0.13375363595E+02  0.22910587415E+02 -0.22042708275E+02  0.34491685307E+02  0.51100000000E-03 0. -1.
        -11    1    3    3    0    0 -0.81419367890E+00 -0.16008928102E+01 -0.52531386945E+01  0.55516876300E+01  0.51100000000E-03 0.  1.
        -12    1    3    3    0    0  0.52681449887E+01  0.53233997077E+01 -0.19687587986E+01  0.77438974216E+01  0.00000000000E+00 0.  1.
</event>
<event>
 7    1  0.2811980E-010  0.4778728E+02  0.7816164E-02  0.1312668E+00
        -11   -1    0    0    0    0  0.00000000000E+00  0.00000000000E+00  0.45593999997E+02  0.45594000000E+02  0.51100000000E-03 0. -1.
         11   -1    0    0    0    0 -0.00000000000E+00 -0.00000000000E+00 -0.45593999997E+02  0.45594000000E+02  0.51100000000E-03 0.  1.
    9900012    2    1    2    0    0  0.16762401451E+02 -0.14255230762E+02  0.37408998246E+02  0.47787275856E+02  0.20000021937E+02 0.  0.
        -12    1    1    2    0    0 -0.16762401451E+02  0.14255230762E+02 -0.37408998246E+02  0.43400724144E+02  0.00000000000E+00 0.  1.
         11    1    3    3    0    0  0.52564473947E+01 -0.10713730855E+01  0.42438024927E+01  0.68401710037E+01  0.51100000000E-03 0.  1.
        -11    1    3    3    0    0  0.15335234046E+02 -0.10100106045E+02  0.21414276880E+02  0.28209090732E+02  0.51100000000E-03 0. -1.
        -12    1    3    3    0    0 -0.38292799896E+01 -0.30837516313E+01  0.11750918873E+02  0.12738014120E+02  0.00000000000E+00 0.  1.
</event>
<event>
 7    1  0.2811980E-010  0.4778727E+02  0.7816164E-02  0.1312668E+00
        -11   -1    0    0    0    0  0.00000000000E+00  0.00000000000E+00  0.45593999997E+02  0.45594000000E+02  0.51100000000E-03 0.  1.
         11   -1    0    0    0    0 -0.00000000000E+00 -0.00000000000E+00 -0.45593999997E+02  0.45594000000E+02  0.51100000000E-03 0. -1.
    9900012    2    1    2    0    0 -0.31087517755E+02 -0.23163533556E+02 -0.19510002967E+02  0.47787271173E+02  0.20000000585E+02 0.  0.
        -12    1    1    2    0    0  0.31087517755E+02  0.23163533556E+02  0.19510002967E+02  0.43400728827E+02  0.00000000000E+00 0.  1.
         11    1    3    3    0    0 -0.20517441930E+02 -0.11103547052E+02 -0.16387809402E+02  0.28509901398E+02  0.51100000000E-03 0. -1.
        -11    1    3    3    0    0 -0.93229580500E+01 -0.42109243020E+01  0.10810639199E+01  0.10286793949E+02  0.51100000000E-03 0.  1.
         12    1    3    3    0    0 -0.12471177750E+01 -0.78490622021E+01 -0.42032574854E+01  0.89905758262E+01  0.00000000000E+00 0. -1.
</event>
<event>
 7    1  0.2811980E-010  0.4778727E+02  0.7816164E-02  0.1312668E+00
        -11   -1    0    0    0    0  0.00000000000E+00  0.00000000000E+00  0.45593999997E+02  0.45594000000E+02  0.51100000000E-03 0.  1.
         11   -1    0    0    0    0 -0.00000000000E+00 -0.00000000000E+00 -0.45593999997E+02  0.45594000000E+02  0.51100000000E-03 0. -1.
    9900012    2    1    2    0    0  0.30320990573E+02 -0.52379803877E+01 -0.30607594779E+02  0.47787265374E+02  0.19999974147E+02 0.  0.
        -12    1    1    2    0    0 -0.30320990573E+02  0.52379803877E+01  0.30607594779E+02  0.43400734626E+02  0.00000000000E+00 0.  1.
         11    1    3    3    0    0  0.13960621466E+02 -0.92997839024E+01 -0.10826133828E+02  0.19964721543E+02  0.51100000000E-03 0. -1.
        -11    1    3    3    0    0  0.96825258198E+00 -0.99585178402E+00  0.82036928306E+00  0.16131459512E+01  0.51100000000E-03 0.  1.
         12    1    3    3    0    0  0.15392116525E+02  0.50576552988E+01 -0.20601830234E+02  0.26209397880E+02  0.00000000000E+00 0. -1.
</event>
<event>
 7    1  0.2811980E-010  0.4778727E+02  0.7816164E-02  0.1312668E+00
        -11   -1    0    0    0    0  0.00000000000E+00  0.00000000000E+00  0.45593999997E+02  0.45594000000E+02  0.51100000000E-03 0. -1.
         11   -1    0    0    0    0 -0.00000000000E+00 -0.00000000000E+00 -0.45593999997E+02  0.45594000000E+02  0.51100000000E-03 0.  1.
    9900012    2    1    2    0    0 -0.32506745090E+02  0.21803468507E+02  0.18749497061E+02  0.47787270106E+02  0.19999995723E+02 0.  0.
        -12    1    1    2    0    0  0.32506745090E+02 -0.21803468507E+02 -0.18749497061E+02  0.43400729894E+02  0.00000000000E+00 0.  1.
         11    1    3    3    0    0 -0.10199881018E+01  0.71399221917E+00  0.15824190605E+01  0.20135071296E+01  0.51100000000E-03 0. -1.
        -11    1    3    3    0    0 -0.16593654498E+02  0.21940669956E+02  0.10754224528E+02  0.29536345630E+02  0.51100000000E-03 0.  1.
        -12    1    3    3    0    0 -0.14893102490E+02 -0.85119366833E+00  0.64128534719E+01  0.16237417347E+02  0.00000000000E+00 0.  1.
</event>
<event>
 7    1  0.2811980E-010  0.4778727E+02  0.7816164E-02  0.1312668E+00
        -11   -1    0    0    0    0  0.00000000000E+00  0.00000000000E+00  0.45593999997E+02  0.45594000000E+02  0.51100000000E-03 0.  1.
         11   -1    0    0    0    0 -0.00000000000E+00 -0.00000000000E+00 -0.45593999997E+02  0.45594000000E+02  0.51100000000E-03 0. -1.
    9900012    2    1    2    0    0 -0.36933338281E+02  0.21726199446E+02 -0.68937670282E+01  0.47787271402E+02  0.20000001632E+02 0.  0.
        -12    1    1    2    0    0  0.36933338281E+02 -0.21726199446E+02  0.68937670282E+01  0.43400728598E+02  0.00000000000E+00 0.  1.
         11    1    3    3    0    0 -0.30943050129E+02  0.15640054814E+02 -0.49835417761E+01  0.35027408622E+02  0.51100000000E-03 0. -1.
        -11    1    3    3    0    0 -0.44669073352E+00  0.27012309944E+00  0.31969679494E+01  0.32393060106E+01  0.51100000000E-03 0.  1.
         12    1    3    3    0    0 -0.55435974181E+01  0.58160215325E+01 -0.51071932014E+01  0.95205567693E+01  0.00000000000E+00 0. -1.
</event>
<event>
 7    1  0.2811980E-010  0.4778726E+02  0.7816164E-02  0.1312668E+00
        -11   -1    0    0    0    0  0.00000000000E+00  0.00000000000E+00  0.45593999997E+02  0.45594000000E+02  0.51100000000E-03 0. -1.
         11   -1    0    0    0    0 -0.00000000000E+00 -0.00000000000E+00 -0.45593999997E+02  0.45594000000E+02  0.51100000000E-03 0.  1.
    9900012    2    1    2    0    0  0.30743475502E+02 -0.30027842599E+02 -0.60656029510E+01  0.47787260879E+02  0.19999953651E+02 0.  0.
        -12    1    1    2    0    0 -0.30743475502E+02  0.30027842599E+02  0.60656029510E+01  0.43400739121E+02  0.00000000000E+00 0.  1.
         11    1    3    3    0    0  0.68717334858E+01 -0.82530551839E+01  0.43520477826E+01  0.11587664179E+02  0.51100000000E-03 0. -1.
        -11    1    3    3    0    0  0.11651161539E+01  0.15893314732E+01  0.73061465563E-01  0.19720061924E+01  0.51100000000E-03 0.  1.
         12    1    3    3    0    0  0.22706625863E+02 -0.23364118888E+02 -0.10490712199E+02  0.34227590507E+02  0.00000000000E+00 0. -1.
</event>
<event>
 7    1  0.2811980E-010  0.4778727E+02  0.7816164E-02  0.1312668E+00
        -11   -1    0    0    0    0  0.00000000000E+00  0.00000000000E+00  0.45593999997E+02  0.45594000000E+02  0.51100000000E-03 0.  1.
         11   -1    0    0    0    0 -0.00000000000E+00 -0.00000000000E+00 -0.45593999997E+02  0.45594000000E+02  0.51100000000E-03 0. -1.
    9900012    2    1    2    0    0 -0.11414185382E+01  0.37834124510E+02 -0.21234398570E+02  0.47787268482E+02  0.19999988316E+02 0.  0.
        -12    1    1    2    0    0  0.11414185382E+01 -0.37834124510E+02  0.21234398570E+02  0.43400731518E+02  0.00000000000E+00 0.  1.
         11    1    3    3    0    0  0.90231282569E+00  0.23380024794E+02 -0.21540655730E+02  0.31803137853E+02  0.51100000000E-03 0. -1.
        -11    1    3    3    0    0 -0.10753729794E+00  0.76690468329E+01 -0.29442519826E+01  0.82155014207E+01  0.51100000000E-03 0.  1.
         12    1    3    3    0    0 -0.19361940660E+01  0.67850528832E+01  0.32505091422E+01  0.77686292081E+01  0.00000000000E+00 0. -1.
</event>
<event>
 7    1  0.2811980E-010  0.4778727E+02  0.7816164E-02  0.1312668E+00
        -11   -1    0    0    0    0  0.00000000000E+00  0.00000000000E+00  0.45593999997E+02  0.45594000000E+02  0.51100000000E-03 0.  1.
         11   -1    0    0    0    0 -0.00000000000E+00 -0.00000000000E+00 -0.45593999997E+02  0.45594000000E+02  0.51100000000E-03 0. -1.
    9900012    2    1    2    0    0 -0.22569206262E+02  0.10830848337E+02 -0.35453443579E+02  0.47787274100E+02  0.20000013933E+02 0.  0.
        -12    1    1    2    0    0  0.22569206262E+02 -0.10830848337E+02  0.35453443579E+02  0.43400725900E+02  0.00000000000E+00 0.  1.
         11    1    3    3    0    0  0.45793320580E-02  0.35038247942E+01 -0.12564261698E+02  0.13043675917E+02  0.51100000000E-03 0. -1.
        -11    1    3    3    0    0  0.64236890483E+00  0.22440610160E+01 -0.15390239854E+01  0.27958974842E+01  0.51100000000E-03 0.  1.
         12    1    3    3    0    0 -0.23216154499E+02  0.50829625269E+01 -0.21350157896E+02  0.31947700699E+02  0.00000000000E+00 0. -1.
</event>
<event>
 7    1  0.2811980E-010  0.4778727E+02  0.7816164E-02  0.1312668E+00
        -11   -1    0    0    0    0  0.00000000000E+00  0.00000000000E+00  0.45593999997E+02  0.45594000000E+02  0.51100000000E-03 0. -1.
         11   -1    0    0    0    0 -0.00000000000E+00 -0.00000000000E+00 -0.45593999997E+02  0.45594000000E+02  0.51100000000E-03 0.  1.
    9900012    2    1    2    0    0  0.83339840451E+01 -0.12493791972E+02  0.40719446306E+02  0.47787269184E+02  0.19999991517E+02 0.  0.
        -12    1    1    2    0    0 -0.83339840451E+01  0.12493791972E+02 -0.40719446306E+02  0.43400730816E+02  0.00000000000E+00 0.  1.
         11    1    3    3    0    0  0.73733323828E+01 -0.17913545326E+02  0.32591857518E+02  0.37914249476E+02  0.51100000000E-03 0. -1.
        -11    1    3    3    0    0  0.10739360849E+01  0.36834700319E+01  0.60368953576E+01  0.71529990920E+01  0.51100000000E-03 0.  1.
         12    1    3    3    0    0 -0.11328442256E+00  0.17362833215E+01  0.20906934299E+01  0.27200206158E+01  0.00000000000E+00 0. -1.
</event>
<event>
 7    1  0.2811980E-010  0.4778727E+02  0.7816164E-02  0.1312668E+00
        -11   -1    0    0    0    0  0.00000000000E+00  0.00000000000E+00  0.45593999997E+02  0.45594000000E+02  0.51100000000E-03 0.  1.
         11   -1    0    0    0    0 -0.00000000000E+00 -0.00000000000E+00 -0.45593999997E+02  0.45594000000E+02  0.51100000000E-03 0. -1.
    9900012    2    1    2    0    0 -0.25289590926E+02 -0.13686731429E+02 -0.32507436884E+02  0.47787268679E+02  0.19999989216E+02 0.  0.
        -12    1    1    2    0    0  0.25289590926E+02  0.13686731429E+02  0.32507436884E+02  0.43400731321E+02  0.00000000000E+00 0.  1.
         11    1    3    3    0    0 -0.32751672575E+00 -0.11845848118E+01 -0.10500664674E+02  0.10572344453E+02  0.51100000000E-03 0. -1.
        -11    1    3    3    0    0 -0.23844239274E+02 -0.12100892007E+02 -0.23294703786E+02  0.35462974475E+02  0.51100000000E-03 0.  1.
         12    1    3    3    0    0 -0.11178349264E+01 -0.40125461012E+00  0.12879315757E+01  0.17519497505E+01  0.00000000000E+00 0. -1.
</event>
<event>
 7    1  0.2811980E-010  0.4778727E+02  0.7816164E-02  0.1312668E+00
        -11   -1    0    0    0    0  0.00000000000E+00  0.00000000000E+00  0.45593999997E+02  0.45594000000E+02  0.51100000000E-03 0.  1.
         11   -1    0    0    0    0 -0.00000000000E+00 -0.00000000000E+00 -0.45593999997E+02  0.45594000000E+02  0.51100000000E-03 0. -1.
    9900012    2    1    2    0    0 -0.42354792897E+02 -0.61030952384E+01 -0.72420454989E+01  0.47787268718E+02  0.19999989391E+02 0.  0.
        -12    1    1    2    0    0  0.42354792897E+02  0.61030952384E+01  0.72420454989E+01  0.43400731282E+02  0.00000000000E+00 0.  1.
         11    1    3    3    0    0 -0.24175871344E+00 -0.23293819617E+01 -0.42223085665E+01  0.48282872212E+01  0.51100000000E-03 0. -1.
        -11    1    3    3    0    0 -0.14242627438E+01 -0.55687991350E+00  0.11746096141E+01  0.19283017420E+01  0.51100000000E-03 0.  1.
         12    1    3    3    0    0 -0.40688771440E+02 -0.32168333632E+01 -0.41943465466E+01  0.41030679754E+02  0.00000000000E+00 0. -1.
</event>
<event>
 7    1  0.2811980E-010  0.4778727E+02  0.7816164E-02  0.1312668E+00
        -11   -1    0    0    0    0  0.00000000000E+00  0.00000000000E+00  0.45593999997E+02  0.45594000000E+02  0.51100000000E-03 0. -1.
         11   -1    0    0    0    0 -0.00000000000E+00 -0.00000000000E+00 -0.45593999997E+02  0.45594000000E+02  0.51100000000E-03 0.  1.
    9900012    2    1    2    0    0 -0.22464231874E+02 -0.33832209400E+02  0.15308934903E+02  0.47787267352E+02  0.19999983163E+02 0.  0.
        -12    1    1    2    0    0  0.22464231874E+02  0.33832209400E+02 -0.15308934903E+02  0.43400732648E+02  0.00000000000E+00 0.  1.
         11    1    3    3    0    0 -0.97894311566E+01 -0.17355971458E+02 -0.17523292800E+01  0.20003333866E+02  0.51100000000E-03 0. -1.
        -11    1    3    3    0    0 -0.11021675671E+02 -0.12370526546E+02  0.97124085808E+01  0.19205159263E+02  0.51100000000E-03 0.  1.
         12    1    3    3    0    0 -0.16531250467E+01 -0.41057113961E+01  0.73488556027E+01  0.85787742224E+01  0.00000000000E+00 0. -1.
</event>
<event>
 7    1  0.2811980E-010  0.4778727E+02  0.7816164E-02  0.1312668E+00
        -11   -1    0    0    0    0  0.00000000000E+00  0.00000000000E+00  0.45593999997E+02  0.45594000000E+02  0.51100000000E-03 0. -1.
         11   -1    0    0    0    0 -0.00000000000E+00 -0.00000000000E+00 -0.45593999997E+02  0.45594000000E+02  0.51100000000E-03 0.  1.
    9900012    2    1    2    0    0  0.12044793172E+02  0.40214685217E+02  0.11014768670E+02  0.47787273296E+02  0.20000010264E+02 0.  0.
        -12    1    1    2    0    0 -0.12044793172E+02 -0.40214685217E+02 -0.11014768670E+02  0.43400726704E+02  0.00000000000E+00 0.  1.
         11    1    3    3    0    0 -0.83072263359E+00  0.69892148198E+01 -0.36887188064E+01  0.79464376034E+01  0.51100000000E-03 0. -1.
        -11    1    3    3    0    0  0.64948819383E+01  0.27757765779E+02  0.99962401939E+01  0.30209301063E+02  0.51100000000E-03 0.  1.
        -12    1    3    3    0    0  0.63806338675E+01  0.54677046180E+01  0.47072472824E+01  0.96315346294E+01  0.00000000000E+00 0.  1.
</event>
<event>
 7    1  0.2811980E-010  0.4778726E+02  0.7816164E-02  0.1312668E+00
        -11   -1    0    0    0    0  0.00000000000E+00  0.00000000000E+00  0.45593999997E+02  0.45594000000E+02  0.51100000000E-03 0.  1.
         11   -1    0    0    0    0 -0.00000000000E+00 -0.00000000000E+00 -0.45593999997E+02  0.45594000000E+02  0.51100000000E-03 0. -1.
    9900012    2    1    2    0    0  0.67225687228E+01  0.18774445378E+01 -0.42835809558E+02  0.47787259123E+02  0.19999945644E+02 0.  0.
        -12    1    1    2    0    0 -0.67225687228E+01 -0.18774445378E+01  0.42835809558E+02  0.43400740877E+02  0.00000000000E+00 0.  1.
         11    1    3    3    0    0  0.22583932421E+01  0.97714890801E+01 -0.26807321082E+02  0.28621928704E+02  0.51100000000E-03 0. -1.
        -11    1    3    3    0    0  0.44286789466E+01 -0.58892376748E+01 -0.15386545455E+02  0.17059956005E+02  0.51100000000E-03 0.  1.
        -12    1    3    3    0    0  0.35496534064E-01 -0.20048068676E+01 -0.64194302105E+00  0.21053744139E+01  0.00000000000E+00 0.  1.
</event>
<event>
 7    1  0.3385101E-010  0.4778727E+02  0.7816164E-02  0.1312668E+00
        -11   -1    0    0    0    0  0.00000000000E+00  0.00000000000E+00  0.45593999997E+02  0.45594000000E+02  0.51100000000E-03 0.  1.
         11   -1    0    0    0    0 -0.00000000000E+00 -0.00000000000E+00 -0.45593999997E+02  0.45594000000E+02  0.51100000000E-03 0. -1.
    9900012    2    1    2    0    0  0.41855020589E+02  0.86410847385E+01 -0.75572412076E+01  0.47787274331E+02  0.20000014984E+02 0.  0.
        -12    1    1    2    0    0 -0.41855020589E+02 -0.86410847385E+01  0.75572412076E+01  0.43400725669E+02  0.00000000000E+00 0.  1.
         11    1    3    3    0    0  0.23769291163E+02  0.10232856202E+02 -0.37528134424E+01  0.26149075652E+02  0.51100000000E-03 0. -1.
        -11    1    3    3    0    0  0.89185766671E+01 -0.47043757249E+01  0.20985463137E+01  0.10299323163E+02  0.51100000000E-03 0.  1.
        -12    1    3    3    0    0  0.91671527589E+01  0.31126042610E+01 -0.59029740790E+01  0.11338875516E+02  0.00000000000E+00 0.  1.
</event>
<event>
 7    1  0.2811980E-010  0.4778727E+02  0.7816164E-02  0.1312668E+00
        -11   -1    0    0    0    0  0.00000000000E+00  0.00000000000E+00  0.45593999997E+02  0.45594000000E+02  0.51100000000E-03 0. -1.
         11   -1    0    0    0    0 -0.00000000000E+00 -0.00000000000E+00 -0.45593999997E+02  0.45594000000E+02  0.51100000000E-03 0.  1.
    9900012    2    1    2    0    0  0.30510414649E+02  0.14018026702E+02  0.27499693986E+02  0.47787266781E+02  0.19999980560E+02 0.  0.
        -12    1    1    2    0    0 -0.30510414649E+02 -0.14018026702E+02 -0.27499693986E+02  0.43400733219E+02  0.00000000000E+00 0.  1.
         11    1    3    3    0    0  0.19749081380E+02  0.49690146364E+01  0.14089050515E+02  0.24763252341E+02  0.51100000000E-03 0. -1.
        -11    1    3    3    0    0  0.31008753734E+01  0.10298169430E+02  0.94178929095E+01  0.14295608725E+02  0.51100000000E-03 0.  1.
        -12    1    3    3    0    0  0.76604578953E+01 -0.12491573648E+01  0.39927505608E+01  0.87284057151E+01  0.00000000000E+00 0.  1.
</event>
<event>
 7    1  0.2811980E-010  0.4778727E+02  0.7816164E-02  0.1312668E+00
        -11   -1    0    0    0    0  0.00000000000E+00  0.00000000000E+00  0.45593999997E+02  0.45594000000E+02  0.51100000000E-03 0.  1.
         11   -1    0    0    0    0 -0.00000000000E+00 -0.00000000000E+00 -0.45593999997E+02  0.45594000000E+02  0.51100000000E-03 0. -1.
    9900012    2    1    2    0    0  0.69991616104E+01 -0.62867411866E+01 -0.42368759756E+02  0.47787272112E+02  0.20000004866E+02 0.  0.
        -12    1    1    2    0    0 -0.69991616104E+01  0.62867411866E+01  0.42368759756E+02  0.43400727888E+02  0.00000000000E+00 0.  1.
         11    1    3    3    0    0  0.19026341002E+01  0.12030570149E+01 -0.24910712015E+01  0.33574988745E+01  0.51100000000E-03 0. -1.
        -11    1    3    3    0    0  0.50431987598E+01  0.27270040301E+01 -0.28778713774E+02  0.29344245969E+02  0.51100000000E-03 0.  1.
        -12    1    3    3    0    0  0.53328750430E-01 -0.10216802232E+02 -0.11098974780E+02  0.15085527268E+02  0.00000000000E+00 0.  1.
</event>
<event>
 7    1  0.2811980E-010  0.4778727E+02  0.7816164E-02  0.1312668E+00
        -11   -1    0    0    0    0  0.00000000000E+00  0.00000000000E+00  0.45593999997E+02  0.45594000000E+02  0.51100000000E-03 0.  1.
         11   -1    0    0    0    0 -0.00000000000E+00 -0.00000000000E+00 -0.45593999997E+02  0.45594000000E+02  0.51100000000E-03 0. -1.
    9900012    2    1    2    0    0 -0.37021076987E+02 -0.18511656751E+02 -0.13053027660E+02  0.47787272955E+02  0.20000008713E+02 0.  0.
        -12    1    1    2    0    0  0.37021076987E+02  0.18511656751E+02  0.13053027660E+02  0.43400727045E+02  0.00000000000E+00 0.  1.
         11    1    3    3    0    0 -0.33079955816E+02 -0.89072500397E+01 -0.99068577526E+01  0.35661862134E+02  0.51100000000E-03 0. -1.
        -11    1    3    3    0    0 -0.33052913925E+01 -0.79618076054E+01 -0.11706474047E+00  0.86214288809E+01  0.51100000000E-03 0.  1.
         12    1    3    3    0    0 -0.63582977824E+00 -0.16425991058E+01 -0.30291051666E+01  0.35039819406E+01  0.00000000000E+00 0. -1.
</event>
<event>
 7    1  0.2811980E-010  0.4778727E+02  0.7816164E-02  0.1312668E+00
        -11   -1    0    0    0    0  0.00000000000E+00  0.00000000000E+00  0.45593999997E+02  0.45594000000E+02  0.51100000000E-03 0.  1.
         11   -1    0    0    0    0 -0.00000000000E+00 -0.00000000000E+00 -0.45593999997E+02  0.45594000000E+02  0.51100000000E-03 0. -1.
    9900012    2    1    2    0    0 -0.78488670771E+01  0.41462936924E+02 -0.10141165471E+02  0.47787273165E+02  0.20000009667E+02 0.  0.
        -12    1    1    2    0    0  0.78488670771E+01 -0.41462936924E+02  0.10141165471E+02  0.43400726835E+02  0.00000000000E+00 0.  1.
         11    1    3    3    0    0 -0.92460039606E+01  0.18438932718E+02  0.13071244639E+01  0.20668609137E+02  0.51100000000E-03 0. -1.
        -11    1    3    3    0    0  0.17386015436E-01 -0.38761644664E+00 -0.16616398826E+01  0.17063399848E+01  0.51100000000E-03 0.  1.
         12    1    3    3    0    0  0.13797508681E+01  0.23411620652E+02 -0.97866500523E+01  0.25412324043E+02  0.00000000000E+00 0. -1.
</event>
<event>
 7    1  0.2811980E-010  0.4778727E+02  0.7816164E-02  0.1312668E+00
        -11   -1    0    0    0    0  0.00000000000E+00  0.00000000000E+00  0.45593999997E+02  0.45594000000E+02  0.51100000000E-03 0. -1.
         11   -1    0    0    0    0 -0.00000000000E+00 -0.00000000000E+00 -0.45593999997E+02  0.45594000000E+02  0.51100000000E-03 0.  1.
    9900012    2    1    2    0    0 -0.21673082753E+02 -0.18511209333E+02  0.32729741189E+02  0.47787270221E+02  0.19999996247E+02 0.  0.
        -12    1    1    2    0    0  0.21673082753E+02  0.18511209333E+02 -0.32729741189E+02  0.43400729779E+02  0.00000000000E+00 0.  1.
         11    1    3    3    0    0 -0.15266986832E+02 -0.14002423726E+02  0.34003366788E+02  0.39816801860E+02  0.51100000000E-03 0. -1.
        -11    1    3    3    0    0 -0.24246579757E+01 -0.21463936422E+01 -0.55822077870E+00  0.32859675387E+01  0.51100000000E-03 0.  1.
         12    1    3    3    0    0 -0.39814379450E+01 -0.23623919644E+01 -0.71540482003E+00  0.46845008229E+01  0.00000000000E+00 0. -1.
</event>
<event>
 7    1  0.2811980E-010  0.4778727E+02  0.7816164E-02  0.1312668E+00
        -11   -1    0    0    0    0  0.00000000000E+00  0.00000000000E+00  0.45593999997E+02  0.45594000000E+02  0.51100000000E-03 0.  1.
         11   -1    0    0    0    0 -0.00000000000E+00 -0.00000000000E+00 -0.45593999997E+02  0.45594000000E+02  0.51100000000E-03 0. -1.
    9900012    2    1    2    0    0 -0.32892467911E+02 -0.27930009218E+02 -0.46501199123E+01  0.47787268723E+02  0.19999989415E+02 0.  0.
        -12    1    1    2    0    0  0.32892467911E+02  0.27930009218E+02  0.46501199123E+01  0.43400731277E+02  0.00000000000E+00 0.  1.
         11    1    3    3    0    0 -0.26598619130E+02 -0.22518483200E+02 -0.65077944403E+01  0.35453067765E+02  0.51100000000E-03 0. -1.
        -11    1    3    3    0    0 -0.50401280871E+01 -0.12712191732E+00  0.40603445447E+01  0.64734418356E+01  0.51100000000E-03 0.  1.
         12    1    3    3    0    0 -0.12537206937E+01 -0.52844041012E+01 -0.22026700168E+01  0.58607591219E+01  0.00000000000E+00 0. -1.
</event>
<event>
 7    1  0.2811980E-010  0.4778727E+02  0.7816164E-02  0.1312668E+00
        -11   -1    0    0    0    0  0.00000000000E+00  0.00000000000E+00  0.45593999997E+02  0.45594000000E+02  0.51100000000E-03 0. -1.
         11   -1    0    0    0    0 -0.00000000000E+00 -0.00000000000E+00 -0.45593999997E+02  0.45594000000E+02  0.51100000000E-03 0.  1.
    9900012    2    1    2    0    0 -0.38844626282E+01 -0.80353957994E+01  0.42473127338E+02  0.47787272109E+02  0.20000004854E+02 0.  0.
        -12    1    1    2    0    0  0.38844626282E+01  0.80353957994E+01 -0.42473127338E+02  0.43400727891E+02  0.00000000000E+00 0.  1.
         11    1    3    3    0    0 -0.75662312375E+01 -0.12695847251E+02  0.35145646579E+02  0.38126747386E+02  0.51100000000E-03 0. -1.
        -11    1    3    3    0    0  0.32721866139E+01  0.25618255302E+01  0.49399558297E+01  0.64554875217E+01  0.51100000000E-03 0.  1.
         12    1    3    3    0    0  0.40958199540E+00  0.20986259214E+01  0.23875249299E+01  0.32050372010E+01  0.00000000000E+00 0. -1.
</event>
<event>
 7    1  0.2811980E-010  0.4778727E+02  0.7816164E-02  0.1312668E+00
        -11   -1    0    0    0    0  0.00000000000E+00  0.00000000000E+00  0.45593999997E+02  0.45594000000E+02  0.51100000000E-03 0.  1.
         11   -1    0    0    0    0 -0.00000000000E+00 -0.00000000000E+00 -0.45593999997E+02  0.45594000000E+02  0.51100000000E-03 0. -1.
    9900012    2    1    2    0    0  0.84531013588E+01  0.40056543892E+02 -0.14409774008E+02  0.47787271687E+02  0.20000002930E+02 0.  0.
        -12    1    1    2    0    0 -0.84531013588E+01 -0.40056543892E+02  0.14409774008E+02  0.43400728313E+02  0.00000000000E+00 0.  1.
         11    1    3    3    0    0  0.37494791274E+01  0.22038677618E+02 -0.12894957330E+02  0.25807786222E+02  0.51100000000E-03 0. -1.
        -11    1    3    3    0    0 -0.28719736225E+01  0.61427334750E+01  0.26662337594E+01  0.72863028865E+01  0.51100000000E-03 0.  1.
        -12    1    3    3    0    0  0.75755958539E+01  0.11875132799E+02 -0.41810504381E+01  0.14693182579E+02  0.00000000000E+00 0.  1.
</event>
<event>
 7    1  0.2811980E-010  0.4778727E+02  0.7816164E-02  0.1312668E+00
        -11   -1    0    0    0    0  0.00000000000E+00  0.00000000000E+00  0.45593999997E+02  0.45594000000E+02  0.51100000000E-03 0. -1.
         11   -1    0    0    0    0 -0.00000000000E+00 -0.00000000000E+00 -0.45593999997E+02  0.45594000000E+02  0.51100000000E-03 0.  1.
    9900012    2    1    2    0    0 -0.34831433389E+02  0.16163070890E+02  0.20227449146E+02  0.47787270611E+02  0.19999998024E+02 0.  0.
        -12    1    1    2    0    0  0.34831433389E+02 -0.16163070890E+02 -0.20227449146E+02  0.43400729389E+02  0.00000000000E+00 0.  1.
         11    1    3    3    0    0 -0.10687772756E+02  0.28584563926E+01  0.59929258812E+01  0.12582305842E+02  0.51100000000E-03 0. -1.
        -11    1    3    3    0    0 -0.20631700887E+02  0.17190387098E+02  0.10819580888E+02  0.28952371595E+02  0.51100000000E-03 0.  1.
        -12    1    3    3    0    0 -0.35119597463E+01 -0.38857726013E+01  0.34149423770E+01  0.62525931746E+01  0.00000000000E+00 0.  1.
</event>
<event>
 7    1  0.2811980E-010  0.4778722E+02  0.7816164E-02  0.1312668E+00
        -11   -1    0    0    0    0  0.00000000000E+00  0.00000000000E+00  0.45593999997E+02  0.45594000000E+02  0.51100000000E-03 0. -1.
         11   -1    0    0    0    0 -0.00000000000E+00 -0.00000000000E+00 -0.45593999997E+02  0.45594000000E+02  0.51100000000E-03 0.  1.
    9900012    2    1    2    0    0 -0.36594300495E+02  0.82952561301E+01  0.21809948409E+02  0.47787217143E+02  0.19999754241E+02 0.  0.
        -12    1    1    2    0    0  0.36594300495E+02 -0.82952561301E+01 -0.21809948409E+02  0.43400782857E+02  0.00000000000E+00 0.  1.
         11    1    3    3    0    0 -0.25938847774E+02 -0.18950937043E+01  0.86829738348E+01  0.27419140009E+02  0.51100000000E-03 0. -1.
        -11    1    3    3    0    0 -0.67913946152E+01  0.85135872128E+01  0.11538435143E+02  0.15866306876E+02  0.51100000000E-03 0.  1.
         12    1    3    3    0    0 -0.38640581059E+01  0.16767626215E+01  0.15885394312E+01  0.45017702584E+01  0.00000000000E+00 0. -1.
</event>
<event>
 7    1  0.2811980E-010  0.4778727E+02  0.7816164E-02  0.1312668E+00
        -11   -1    0    0    0    0  0.00000000000E+00  0.00000000000E+00  0.45593999997E+02  0.45594000000E+02  0.51100000000E-03 0.  1.
         11   -1    0    0    0    0 -0.00000000000E+00 -0.00000000000E+00 -0.45593999997E+02  0.45594000000E+02  0.51100000000E-03 0. -1.
    9900012    2    1    2    0    0 -0.34356794833E+02 -0.19432387625E+02 -0.18044831340E+02  0.47787274452E+02  0.20000015539E+02 0.  0.
        -12    1    1    2    0    0  0.34356794833E+02  0.19432387625E+02  0.18044831340E+02  0.43400725548E+02  0.00000000000E+00 0.  1.
         11    1    3    3    0    0 -0.16719985252E+02 -0.16591490980E+02 -0.11374672138E+02  0.26157573402E+02  0.51100000000E-03 0. -1.
        -11    1    3    3    0    0 -0.14518582103E+02  0.16442144752E+01 -0.69077369036E+01  0.16161976887E+02  0.51100000000E-03 0.  1.
         12    1    3    3    0    0 -0.31182274785E+01 -0.44851111198E+01  0.23757770195E+00  0.54677241636E+01  0.00000000000E+00 0. -1.
</event>
<event>
 7    1  0.2811980E-010  0.4778727E+02  0.7816164E-02  0.1312668E+00
        -11   -1    0    0    0    0  0.00000000000E+00  0.00000000000E+00  0.45593999997E+02  0.45594000000E+02  0.51100000000E-03 0. -1.
         11   -1    0    0    0    0 -0.00000000000E+00 -0.00000000000E+00 -0.45593999997E+02  0.45594000000E+02  0.51100000000E-03 0.  1.
    9900012    2    1    2    0    0  0.42448904859E+02  0.90306207400E+01  0.40199747232E+00  0.47787271473E+02  0.20000001954E+02 0.  0.
        -12    1    1    2    0    0 -0.42448904859E+02 -0.90306207400E+01 -0.40199747232E+00  0.43400728527E+02  0.00000000000E+00 0.  1.
         11    1    3    3    0    0  0.21217965377E+01  0.15931124756E+01  0.12147002207E+01  0.29181372132E+01  0.51100000000E-03 0. -1.
        -11    1    3    3    0    0  0.99406280787E+01  0.17188111937E+01  0.78229430442E+01  0.12765924826E+02  0.51100000000E-03 0.  1.
        -12    1    3    3    0    0  0.30386480243E+02  0.57186970707E+01 -0.86356457925E+01  0.32103209434E+02  0.00000000000E+00 0.  1.
</event>
<event>
 7    1  0.2811980E-010  0.4778727E+02  0.7816164E-02  0.1312668E+00
        -11   -1    0    0    0    0  0.00000000000E+00  0.00000000000E+00  0.45593999997E+02  0.45594000000E+02  0.51100000000E-03 0.  1.
         11   -1    0    0    0    0 -0.00000000000E+00 -0.00000000000E+00 -0.45593999997E+02  0.45594000000E+02  0.51100000000E-03 0. -1.
    9900012    2    1    2    0    0  0.32027996982E+01 -0.98451992899E+01 -0.42147805941E+02  0.47787269354E+02  0.19999992291E+02 0.  0.
        -12    1    1    2    0    0 -0.32027996982E+01  0.98451992899E+01  0.42147805941E+02  0.43400730646E+02  0.00000000000E+00 0.  1.
         11    1    3    3    0    0 -0.58401310792E+00 -0.61895338335E+01 -0.11026390425E+02  0.12658305039E+02  0.51100000000E-03 0. -1.
        -11    1    3    3    0    0 -0.34285723898E+01 -0.18963474500E+01 -0.25539755308E+02  0.25838543762E+02  0.51100000000E-03 0.  1.
        -12    1    3    3    0    0  0.72153851958E+01 -0.17593180064E+01 -0.55816602086E+01  0.92904205533E+01  0.00000000000E+00 0.  1.
</event>
<event>
 7    1  0.2811980E-010  0.4778726E+02  0.7816164E-02  0.1312668E+00
        -11   -1    0    0    0    0  0.00000000000E+00  0.00000000000E+00  0.45593999997E+02  0.45594000000E+02  0.51100000000E-03 0.  1.
         11   -1    0    0    0    0 -0.00000000000E+00 -0.00000000000E+00 -0.45593999997E+02  0.45594000000E+02  0.51100000000E-03 0. -1.
    9900012    2    1    2    0    0  0.13274481173E+02  0.32029809511E+02 -0.26105631187E+02  0.47787256603E+02  0.19999934156E+02 0.  0.
        -12    1    1    2    0    0 -0.13274481173E+02 -0.32029809511E+02  0.26105631187E+02  0.43400743397E+02  0.00000000000E+00 0.  1.
         11    1    3    3    0    0  0.15408634587E+02  0.26288536218E+02 -0.19276545909E+02  0.36056876997E+02  0.51100000000E-03 0. -1.
        -11    1    3    3    0    0  0.22262914615E+01  0.17397453622E+01 -0.18329107675E+00  0.28313748386E+01  0.51100000000E-03 0.  1.
         12    1    3    3    0    0 -0.43604448752E+01  0.40015279309E+01 -0.66457942008E+01  0.88990047674E+01  0.00000000000E+00 0. -1.
</event>
<event>
 7    1  0.2811980E-010  0.4778727E+02  0.7816164E-02  0.1312668E+00
        -11   -1    0    0    0    0  0.00000000000E+00  0.00000000000E+00  0.45593999997E+02  0.45594000000E+02  0.51100000000E-03 0.  1.
         11   -1    0    0    0    0 -0.00000000000E+00 -0.00000000000E+00 -0.45593999997E+02  0.45594000000E+02  0.51100000000E-03 0. -1.
    9900012    2    1    2    0    0  0.26731357537E+02  0.29115524236E+02 -0.17926069225E+02  0.47787272066E+02  0.20000004658E+02 0.  0.
        -12    1    1    2    0    0 -0.26731357537E+02 -0.29115524236E+02  0.17926069225E+02  0.43400727934E+02  0.00000000000E+00 0.  1.
         11    1    3    3    0    0  0.55984273548E+01  0.29598763152E+01 -0.15416877137E+01  0.65176727377E+01  0.51100000000E-03 0. -1.
        -11    1    3    3    0    0  0.19921100267E+02  0.13145459873E+02 -0.60820945613E+01  0.24630169013E+02  0.51100000000E-03 0.  1.
        -12    1    3    3    0    0  0.12118299152E+01  0.13010188049E+02 -0.10302286950E+02  0.16639430315E+02  0.00000000000E+00 0.  1.
</event>
<event>
 7    1  0.2811980E-010  0.4778724E+02  0.7816164E-02  0.1312668E+00
        -11   -1    0    0    0    0  0.00000000000E+00  0.00000000000E+00  0.45593999997E+02  0.45594000000E+02  0.51100000000E-03 0. -1.
         11   -1    0    0    0    0 -0.00000000000E+00 -0.00000000000E+00 -0.45593999997E+02  0.45594000000E+02  0.51100000000E-03 0.  1.
    9900012    2    1    2    0    0 -0.43364072208E+02  0.13104305858E+01 -0.12105997154E+01  0.47787244955E+02  0.19999881050E+02 0.  0.
        -12    1    1    2    0    0  0.43364072208E+02 -0.13104305858E+01  0.12105997154E+01  0.43400755045E+02  0.00000000000E+00 0.  1.
         11    1    3    3    0    0 -0.18288551558E+02  0.32171665086E+01  0.83509455945E+01  0.20360736013E+02  0.51100000000E-03 0. -1.
        -11    1    3    3    0    0 -0.86019133899E+01 -0.27104297068E+01 -0.50093085805E+01  0.10316613586E+02  0.51100000000E-03 0.  1.
         12    1    3    3    0    0 -0.16473607260E+02  0.80369378393E+00 -0.45522367294E+01  0.17109895356E+02  0.00000000000E+00 0. -1.
</event>
<event>
 7    1  0.2811980E-010  0.4778727E+02  0.7816164E-02  0.1312668E+00
        -11   -1    0    0    0    0  0.00000000000E+00  0.00000000000E+00  0.45593999997E+02  0.45594000000E+02  0.51100000000E-03 0.  1.
         11   -1    0    0    0    0 -0.00000000000E+00 -0.00000000000E+00 -0.45593999997E+02  0.45594000000E+02  0.51100000000E-03 0. -1.
    9900012    2    1    2    0    0 -0.96397520211E-01  0.16089570484E+02 -0.40308057177E+02  0.47787273690E+02  0.20000012062E+02 0.  0.
        -12    1    1    2    0    0  0.96397520211E-01 -0.16089570484E+02  0.40308057177E+02  0.43400726310E+02  0.00000000000E+00 0.  1.
         11    1    3    3    0    0 -0.92093180140E+00 -0.31140789824E+01 -0.16996944088E+01  0.36653191724E+01  0.51100000000E-03 0.  1.
        -11    1    3    3    0    0 -0.27361278489E+00  0.12620874611E+02 -0.15085144895E+02  0.19670356801E+02  0.51100000000E-03 0. -1.
        -12    1    3    3    0    0  0.10981470661E+01  0.65827748544E+01 -0.23523217873E+02  0.24451597716E+02  0.00000000000E+00 0.  1.
</event>
<event>
 7    1  0.2811980E-010  0.4778728E+02  0.7816164E-02  0.1312668E+00
        -11   -1    0    0    0    0  0.00000000000E+00  0.00000000000E+00  0.45593999997E+02  0.45594000000E+02  0.51100000000E-03 0. -1.
         11   -1    0    0    0    0 -0.00000000000E+00 -0.00000000000E+00 -0.45593999997E+02  0.45594000000E+02  0.51100000000E-03 0.  1.
    9900012    2    1    2    0    0 -0.32291737729E+02 -0.28893280033E+02  0.24586349490E+01  0.47787276015E+02  0.20000022662E+02 0.  0.
        -12    1    1    2    0    0  0.32291737729E+02  0.28893280033E+02 -0.24586349490E+01  0.43400723985E+02  0.00000000000E+00 0.  1.
         11    1    3    3    0    0 -0.24536060343E+02 -0.11020943035E+02  0.30013798838E+01  0.27064510415E+02  0.51100000000E-03 0. -1.
        -11    1    3    3    0    0 -0.70663814084E+01 -0.13113327611E+02 -0.31896428593E+01  0.15233743108E+02  0.51100000000E-03 0.  1.
         12    1    3    3    0    0 -0.68929597690E+00 -0.47590093873E+01  0.26468979245E+01  0.54890224917E+01  0.00000000000E+00 0. -1.
</event>
<event>
 7    1  0.2811980E-010  0.4778728E+02  0.7816164E-02  0.1312668E+00
        -11   -1    0    0    0    0  0.00000000000E+00  0.00000000000E+00  0.45593999997E+02  0.45594000000E+02  0.51100000000E-03 0.  1.
         11   -1    0    0    0    0 -0.00000000000E+00 -0.00000000000E+00 -0.45593999997E+02  0.45594000000E+02  0.51100000000E-03 0. -1.
    9900012    2    1    2    0    0 -0.13687093958E+02 -0.99954605480E+01 -0.39954686415E+02  0.47787277205E+02  0.20000028089E+02 0.  0.
        -12    1    1    2    0    0  0.13687093958E+02  0.99954605480E+01  0.39954686415E+02  0.43400722795E+02  0.00000000000E+00 0.  1.
         11    1    3    3    0    0 -0.15494072745E+02 -0.59614178135E+01 -0.24829728707E+02  0.29868381618E+02  0.51100000000E-03 0. -1.
        -11    1    3    3    0    0 -0.28336639803E+01  0.58371112883E+00 -0.31918343237E+01  0.43079202460E+01  0.51100000000E-03 0.  1.
         12    1    3    3    0    0  0.46406427666E+01 -0.46177538633E+01 -0.11933123384E+02  0.13610975341E+02  0.00000000000E+00 0. -1.
</event>
<event>
 7    1  0.2811980E-010  0.4778727E+02  0.7816164E-02  0.1312668E+00
        -11   -1    0    0    0    0  0.00000000000E+00  0.00000000000E+00  0.45593999997E+02  0.45594000000E+02  0.51100000000E-03 0.  1.
         11   -1    0    0    0    0 -0.00000000000E+00 -0.00000000000E+00 -0.45593999997E+02  0.45594000000E+02  0.51100000000E-03 0. -1.
    9900012    2    1    2    0    0 -0.36695546172E+02  0.20852007296E+02 -0.10112067720E+02  0.47787271542E+02  0.20000002267E+02 0.  0.
        -12    1    1    2    0    0  0.36695546172E+02 -0.20852007296E+02  0.10112067720E+02  0.43400728458E+02  0.00000000000E+00 0.  1.
         11    1    3    3    0    0 -0.16452432721E+02 -0.12062093518E+01 -0.24519681144E+01  0.16677818543E+02  0.51100000000E-03 0. -1.
        -11    1    3    3    0    0 -0.80050035580E+01  0.85544624283E+01 -0.48054913874E+01  0.12663003480E+02  0.51100000000E-03 0.  1.
         12    1    3    3    0    0 -0.12238109893E+02  0.13503754220E+02 -0.28546082182E+01  0.18446449519E+02  0.00000000000E+00 0. -1.
</event>
<event>
 7    1  0.2811980E-010  0.4778729E+02  0.7816164E-02  0.1312668E+00
        -11   -1    0    0    0    0  0.00000000000E+00  0.00000000000E+00  0.45593999997E+02  0.45594000000E+02  0.51100000000E-03 0.  1.
         11   -1    0    0    0    0 -0.00000000000E+00 -0.00000000000E+00 -0.45593999997E+02  0.45594000000E+02  0.51100000000E-03 0. -1.
    9900012    2    1    2    0    0 -0.42841726716E+02 -0.17597063714E+01  0.67165243815E+01  0.47787287860E+02  0.20000076668E+02 0.  0.
        -12    1    1    2    0    0  0.42841726716E+02  0.17597063714E+01 -0.67165243815E+01  0.43400712140E+02  0.00000000000E+00 0.  1.
         11    1    3    3    0    0 -0.18044439895E+02 -0.12912016312E+01 -0.13987425458E+01  0.18144572019E+02  0.51100000000E-03 0. -1.
        -11    1    3    3    0    0 -0.99429939005E+01 -0.21526500756E+01  0.10366721352E+02  0.14524666671E+02  0.51100000000E-03 0.  1.
        -12    1    3    3    0    0 -0.14854292920E+02  0.16841453354E+01 -0.22514544247E+01  0.15118049170E+02  0.00000000000E+00 0.  1.
</event>
<event>
 7    1  0.2811980E-010  0.4778729E+02  0.7816164E-02  0.1312668E+00
        -11   -1    0    0    0    0  0.00000000000E+00  0.00000000000E+00  0.45593999997E+02  0.45594000000E+02  0.51100000000E-03 0.  1.
         11   -1    0    0    0    0 -0.00000000000E+00 -0.00000000000E+00 -0.45593999997E+02  0.45594000000E+02  0.51100000000E-03 0. -1.
    9900012    2    1    2    0    0 -0.33889547647E+02  0.23415576975E+02 -0.13668616136E+02  0.47787288579E+02  0.20000079945E+02 0.  0.
        -12    1    1    2    0    0  0.33889547647E+02 -0.23415576975E+02  0.13668616136E+02  0.43400711421E+02  0.00000000000E+00 0.  1.
         11    1    3    3    0    0 -0.26805078153E+02  0.13408567933E+02 -0.11926558736E+02  0.32257475294E+02  0.51100000000E-03 0. -1.
        -11    1    3    3    0    0 -0.86583599853E+01  0.50670488461E+01 -0.23674125439E+01  0.10307610007E+02  0.51100000000E-03 0.  1.
         12    1    3    3    0    0  0.15738904909E+01  0.49399601960E+01  0.62535514416E+00  0.52222032775E+01  0.00000000000E+00 0. -1.
</event>
<event>
 7    1  0.2811980E-010  0.4778727E+02  0.7816164E-02  0.1312668E+00
        -11   -1    0    0    0    0  0.00000000000E+00  0.00000000000E+00  0.45593999997E+02  0.45594000000E+02  0.51100000000E-03 0. -1.
         11   -1    0    0    0    0 -0.00000000000E+00 -0.00000000000E+00 -0.45593999997E+02  0.45594000000E+02  0.51100000000E-03 0.  1.
    9900012    2    1    2    0    0 -0.24837092628E+02 -0.26472326793E+02 -0.23789870478E+02  0.47787271971E+02  0.20000004226E+02 0.  0.
        -12    1    1    2    0    0  0.24837092628E+02  0.26472326793E+02  0.23789870478E+02  0.43400728029E+02  0.00000000000E+00 0.  1.
         11    1    3    3    0    0 -0.15856889616E+02 -0.80996257114E+01 -0.17361444959E+02  0.24868949641E+02  0.51100000000E-03 0. -1.
        -11    1    3    3    0    0 -0.56120605755E+01 -0.99612963841E+01 -0.76774838178E+01  0.13771942767E+02  0.51100000000E-03 0.  1.
         12    1    3    3    0    0 -0.33681424366E+01 -0.84114046979E+01  0.12490582987E+01  0.91463795624E+01  0.00000000000E+00 0. -1.
</event>
<event>
 7    1  0.2811980E-010  0.4778727E+02  0.7816164E-02  0.1312668E+00
        -11   -1    0    0    0    0  0.00000000000E+00  0.00000000000E+00  0.45593999997E+02  0.45594000000E+02  0.51100000000E-03 0.  1.
         11   -1    0    0    0    0 -0.00000000000E+00 -0.00000000000E+00 -0.45593999997E+02  0.45594000000E+02  0.51100000000E-03 0. -1.
    9900012    2    1    2    0    0  0.32314772996E+02  0.20884813794E+02 -0.20079926748E+02  0.47787268909E+02  0.19999990266E+02 0.  0.
        -12    1    1    2    0    0 -0.32314772996E+02 -0.20884813794E+02  0.20079926748E+02  0.43400731091E+02  0.00000000000E+00 0.  1.
         11    1    3    3    0    0  0.23193920845E+02  0.46515325231E+01 -0.13136553139E+02  0.27058524491E+02  0.51100000000E-03 0. -1.
        -11    1    3    3    0    0  0.21997985884E+00 -0.51502002846E+00 -0.12502177130E+00  0.57381832702E+00  0.51100000000E-03 0.  1.
         12    1    3    3    0    0  0.89008722922E+01  0.16748301300E+02 -0.68183518373E+01  0.20154926092E+02  0.00000000000E+00 0. -1.
</event>
<event>
 7    1  0.2811980E-010  0.4778727E+02  0.7816164E-02  0.1312668E+00
        -11   -1    0    0    0    0  0.00000000000E+00  0.00000000000E+00  0.45593999997E+02  0.45594000000E+02  0.51100000000E-03 0. -1.
         11   -1    0    0    0    0 -0.00000000000E+00 -0.00000000000E+00 -0.45593999997E+02  0.45594000000E+02  0.51100000000E-03 0.  1.
    9900012    2    1    2    0    0  0.30109940136E+02  0.30234421023E+02 -0.79305902546E+01  0.47787274529E+02  0.20000015889E+02 0.  0.
        -12    1    1    2    0    0 -0.30109940136E+02 -0.30234421023E+02  0.79305902546E+01  0.43400725471E+02  0.00000000000E+00 0.  1.
         11    1    3    3    0    0 -0.21749432663E+01  0.51019790437E+01 -0.29032795312E+01  0.62601597960E+01  0.51100000000E-03 0. -1.
        -11    1    3    3    0    0  0.42626242145E+01  0.18645725963E+01 -0.16957497689E+01  0.49519858341E+01  0.51100000000E-03 0.  1.
         12    1    3    3    0    0  0.28022259188E+02  0.23267869383E+02 -0.33315609545E+01  0.36575128899E+02  0.00000000000E+00 0. -1.
</event>
<event>
 7    1  0.2811980E-010  0.4778727E+02  0.7816164E-02  0.1312668E+00
        -11   -1    0    0    0    0  0.00000000000E+00  0.00000000000E+00  0.45593999997E+02  0.45594000000E+02  0.51100000000E-03 0.  1.
         11   -1    0    0    0    0 -0.00000000000E+00 -0.00000000000E+00 -0.45593999997E+02  0.45594000000E+02  0.51100000000E-03 0. -1.
    9900012    2    1    2    0    0 -0.68573222952E+01 -0.29486350527E+02 -0.31099129384E+02  0.47787267462E+02  0.19999983665E+02 0.  0.
        -12    1    1    2    0    0  0.68573222952E+01  0.29486350527E+02  0.31099129384E+02  0.43400732538E+02  0.00000000000E+00 0.  1.
         11    1    3    3    0    0 -0.79684792010E+00 -0.20896430751E+02 -0.23201170510E+02  0.31234437694E+02  0.51100000000E-03 0. -1.
        -11    1    3    3    0    0 -0.83599220819E+01 -0.38347037359E+01 -0.57747655077E+01  0.10860072140E+02  0.51100000000E-03 0.  1.
        -12    1    3    3    0    0  0.22994477068E+01 -0.47552160397E+01 -0.21231933654E+01  0.56927576277E+01  0.00000000000E+00 0.  1.
</event>
<event>
 7    1  0.2811980E-010  0.4778727E+02  0.7816164E-02  0.1312668E+00
        -11   -1    0    0    0    0  0.00000000000E+00  0.00000000000E+00  0.45593999997E+02  0.45594000000E+02  0.51100000000E-03 0.  1.
         11   -1    0    0    0    0 -0.00000000000E+00 -0.00000000000E+00 -0.45593999997E+02  0.45594000000E+02  0.51100000000E-03 0. -1.
    9900012    2    1    2    0    0  0.12328357422E+02 -0.72694828785E+01 -0.40973037049E+02  0.47787267943E+02  0.19999985859E+02 0.  0.
        -12    1    1    2    0    0 -0.12328357422E+02  0.72694828785E+01  0.40973037049E+02  0.43400732057E+02  0.00000000000E+00 0.  1.
         11    1    3    3    0    0  0.12271550330E+02 -0.22678274333E+01 -0.36429534115E+02  0.38507725782E+02  0.51100000000E-03 0. -1.
        -11    1    3    3    0    0 -0.46116403608E+00 -0.60439791835E+01 -0.18376613436E+01  0.63339842212E+01  0.51100000000E-03 0.  1.
         12    1    3    3    0    0  0.51797112731E+00  0.10423237383E+01 -0.27058415907E+01  0.29455579400E+01  0.00000000000E+00 0. -1.
</event>
<event>
 7    1  0.2895887E-010  0.4778727E+02  0.7816164E-02  0.1312668E+00
        -11   -1    0    0    0    0  0.00000000000E+00  0.00000000000E+00  0.45593999997E+02  0.45594000000E+02  0.51100000000E-03 0. -1.
         11   -1    0    0    0    0 -0.00000000000E+00 -0.00000000000E+00 -0.45593999997E+02  0.45594000000E+02  0.51100000000E-03 0.  1.
    9900012    2    1    2    0    0 -0.14437194911E+02 -0.52438619089E+01  0.40591780537E+02  0.47787270377E+02  0.19999996958E+02 0.  0.
        -12    1    1    2    0    0  0.14437194911E+02  0.52438619089E+01 -0.40591780537E+02  0.43400729623E+02  0.00000000000E+00 0.  1.
         11    1    3    3    0    0 -0.76248837778E+01  0.26982833412E+01  0.20447340446E+02  0.21988936245E+02  0.51100000000E-03 0. -1.
        -11    1    3    3    0    0  0.18157852989E+01 -0.72187553352E+01  0.87599919900E+01  0.11495432344E+02  0.51100000000E-03 0.  1.
        -12    1    3    3    0    0 -0.86280964319E+01 -0.72338991494E+00  0.11384448101E+02  0.14302901788E+02  0.00000000000E+00 0.  1.
</event>
<event>
 7    1  0.2811980E-010  0.4778725E+02  0.7816164E-02  0.1312668E+00
        -11   -1    0    0    0    0  0.00000000000E+00  0.00000000000E+00  0.45593999997E+02  0.45594000000E+02  0.51100000000E-03 0. -1.
         11   -1    0    0    0    0 -0.00000000000E+00 -0.00000000000E+00 -0.45593999997E+02  0.45594000000E+02  0.51100000000E-03 0.  1.
    9900012    2    1    2    0    0 -0.36236310084E+02  0.11869266517E+02  0.20728608645E+02  0.47787252627E+02  0.19999916028E+02 0.  0.
        -12    1    1    2    0    0  0.36236310084E+02 -0.11869266517E+02 -0.20728608645E+02  0.43400747373E+02  0.00000000000E+00 0.  1.
         11    1    3    3    0    0 -0.23474743034E+02  0.60091028481E+01  0.17647927784E+02  0.29977028420E+02  0.51100000000E-03 0. -1.
        -11    1    3    3    0    0 -0.46369911389E+00 -0.11418482135E+01 -0.23491171905E+01  0.26527695050E+01  0.51100000000E-03 0.  1.
         12    1    3    3    0    0 -0.12297867936E+02  0.70020118819E+01  0.54297980519E+01  0.15157454702E+02  0.00000000000E+00 0. -1.
</event>
<event>
 7    1  0.2811980E-010  0.4778728E+02  0.7816164E-02  0.1312668E+00
        -11   -1    0    0    0    0  0.00000000000E+00  0.00000000000E+00  0.45593999997E+02  0.45594000000E+02  0.51100000000E-03 0. -1.
         11   -1    0    0    0    0 -0.00000000000E+00 -0.00000000000E+00 -0.45593999997E+02  0.45594000000E+02  0.51100000000E-03 0.  1.
    9900012    2    1    2    0    0 -0.13818327550E+02 -0.30860475729E+02  0.27208596628E+02  0.47787275709E+02  0.20000021270E+02 0.  0.
        -12    1    1    2    0    0  0.13818327550E+02  0.30860475729E+02 -0.27208596628E+02  0.43400724291E+02  0.00000000000E+00 0.  1.
         11    1    3    3    0    0  0.41420116881E+00 -0.21455603452E+02  0.14596105669E+02  0.25953049591E+02  0.51100000000E-03 0. -1.
        -11    1    3    3    0    0 -0.77437062370E+01 -0.31648277767E+01  0.36368642668E+01  0.91218366077E+01  0.51100000000E-03 0.  1.
         12    1    3    3    0    0 -0.64888224817E+01 -0.62400445002E+01  0.89756266921E+01  0.12712389511E+02  0.00000000000E+00 0. -1.
</event>
<event>
 7    1  0.2811980E-010  0.4778727E+02  0.7816164E-02  0.1312668E+00
        -11   -1    0    0    0    0  0.00000000000E+00  0.00000000000E+00  0.45593999997E+02  0.45594000000E+02  0.51100000000E-03 0. -1.
         11   -1    0    0    0    0 -0.00000000000E+00 -0.00000000000E+00 -0.45593999997E+02  0.45594000000E+02  0.51100000000E-03 0.  1.
    9900012    2    1    2    0    0  0.13835797231E+02  0.38153612171E+02  0.15378428435E+02  0.47787268810E+02  0.19999989810E+02 0.  0.
        -12    1    1    2    0    0 -0.13835797231E+02 -0.38153612171E+02 -0.15378428435E+02  0.43400731190E+02  0.00000000000E+00 0.  1.
         11    1    3    3    0    0  0.58309817831E+01  0.80417609936E+01  0.65769238822E+01  0.11913278157E+02  0.51100000000E-03 0. -1.
        -11    1    3    3    0    0  0.12001740522E+02  0.25098140981E+02  0.45733839620E+01  0.28193515165E+02  0.51100000000E-03 0.  1.
        -12    1    3    3    0    0 -0.39969250735E+01  0.50137101967E+01  0.42281205913E+01  0.76804754875E+01  0.00000000000E+00 0.  1.
</event>
<event>
 7    1  0.2811980E-010  0.4778727E+02  0.7816164E-02  0.1312668E+00
        -11   -1    0    0    0    0  0.00000000000E+00  0.00000000000E+00  0.45593999997E+02  0.45594000000E+02  0.51100000000E-03 0.  1.
         11   -1    0    0    0    0 -0.00000000000E+00 -0.00000000000E+00 -0.45593999997E+02  0.45594000000E+02  0.51100000000E-03 0. -1.
    9900012    2    1    2    0    0  0.70453418788E+00 -0.20333834857E+02 -0.38336175473E+02  0.47787267767E+02  0.19999985058E+02 0.  0.
        -12    1    1    2    0    0 -0.70453418788E+00  0.20333834857E+02  0.38336175473E+02  0.43400732233E+02  0.00000000000E+00 0.  1.
         11    1    3    3    0    0  0.69804865694E+01 -0.14602946943E+02 -0.20712310743E+02  0.26286366595E+02  0.51100000000E-03 0. -1.
        -11    1    3    3    0    0  0.90129334226E+00  0.13505495062E+00  0.57484400765E+00  0.10775042565E+01  0.51100000000E-03 0.  1.
         12    1    3    3    0    0 -0.71772457238E+01 -0.58659428645E+01 -0.18198708738E+02  0.20423396916E+02  0.00000000000E+00 0. -1.
</event>
<event>
 7    1  0.4494613E-010  0.4778728E+02  0.7816164E-02  0.1312668E+00
        -11   -1    0    0    0    0  0.00000000000E+00  0.00000000000E+00  0.45593999997E+02  0.45594000000E+02  0.51100000000E-03 0. -1.
         11   -1    0    0    0    0 -0.00000000000E+00 -0.00000000000E+00 -0.45593999997E+02  0.45594000000E+02  0.51100000000E-03 0.  1.
    9900012    2    1    2    0    0 -0.11701336122E+02  0.81081534501E+01  0.40999505746E+02  0.47787275458E+02  0.20000020122E+02 0.  0.
        -12    1    1    2    0    0  0.11701336122E+02 -0.81081534501E+01 -0.40999505746E+02  0.43400724542E+02  0.00000000000E+00 0.  1.
         11    1    3    3    0    0 -0.27770768211E+01  0.17453964740E+01  0.12592935141E+02  0.13013092648E+02  0.51100000000E-03 0. -1.
        -11    1    3    3    0    0 -0.56120228688E+01  0.93108144854E+00  0.27808285997E+02  0.28384194258E+02  0.51100000000E-03 0.  1.
        -12    1    3    3    0    0 -0.33122364318E+01  0.54316755276E+01  0.59828460717E+00  0.63899885515E+01  0.00000000000E+00 0.  1.
</event>
<event>
 7    1  0.2811980E-010  0.4778726E+02  0.7816164E-02  0.1312668E+00
        -11   -1    0    0    0    0  0.00000000000E+00  0.00000000000E+00  0.45593999997E+02  0.45594000000E+02  0.51100000000E-03 0.  1.
         11   -1    0    0    0    0 -0.00000000000E+00 -0.00000000000E+00 -0.45593999997E+02  0.45594000000E+02  0.51100000000E-03 0. -1.
    9900012    2    1    2    0    0 -0.14456298534E+02 -0.45995699126E+00 -0.40919778042E+02  0.47787258500E+02  0.19999942806E+02 0.  0.
        -12    1    1    2    0    0  0.14456298534E+02  0.45995699126E+00  0.40919778042E+02  0.43400741500E+02  0.00000000000E+00 0.  1.
         11    1    3    3    0    0 -0.41378386679E+01  0.75548693825E+01 -0.11775238098E+02  0.14589516536E+02  0.51100000000E-03 0. -1.
        -11    1    3    3    0    0  0.52013771594E+00 -0.43378418598E+01 -0.96250604472E+01  0.10570203599E+02  0.51100000000E-03 0.  1.
         12    1    3    3    0    0 -0.10838597582E+02 -0.36769845140E+01 -0.19519479496E+02  0.22627538365E+02  0.00000000000E+00 0. -1.
</event>
<event>
 7    1  0.2811980E-010  0.4778726E+02  0.7816164E-02  0.1312668E+00
        -11   -1    0    0    0    0  0.00000000000E+00  0.00000000000E+00  0.45593999997E+02  0.45594000000E+02  0.51100000000E-03 0.  1.
         11   -1    0    0    0    0 -0.00000000000E+00 -0.00000000000E+00 -0.45593999997E+02  0.45594000000E+02  0.51100000000E-03 0. -1.
    9900012    2    1    2    0    0  0.29116026101E+02 -0.31502301778E+02 -0.65943774649E+01  0.47787264899E+02  0.19999971979E+02 0.  0.
        -12    1    1    2    0    0 -0.29116026101E+02  0.31502301778E+02  0.65943774649E+01  0.43400735101E+02  0.00000000000E+00 0.  1.
         11    1    3    3    0    0  0.59031901747E+01 -0.28289307772E+01 -0.16700810747E+01  0.67557142212E+01  0.51100000000E-03 0. -1.
        -11    1    3    3    0    0  0.23962726060E+02 -0.24573521063E+02 -0.86992171172E+01  0.35408283725E+02  0.51100000000E-03 0.  1.
        -12    1    3    3    0    0 -0.74989013364E+00 -0.40998499371E+01  0.37749207270E+01  0.56232669521E+01  0.00000000000E+00 0.  1.
</event>
<event>
 7    1  0.2811980E-010  0.4778727E+02  0.7816164E-02  0.1312668E+00
        -11   -1    0    0    0    0  0.00000000000E+00  0.00000000000E+00  0.45593999997E+02  0.45594000000E+02  0.51100000000E-03 0.  1.
         11   -1    0    0    0    0 -0.00000000000E+00 -0.00000000000E+00 -0.45593999997E+02  0.45594000000E+02  0.51100000000E-03 0. -1.
    9900012    2    1    2    0    0 -0.42131760823E+02 -0.59302399953E+01 -0.85656461752E+01  0.47787270618E+02  0.19999998057E+02 0.  0.
        -12    1    1    2    0    0  0.42131760823E+02  0.59302399953E+01  0.85656461752E+01  0.43400729382E+02  0.00000000000E+00 0.  1.
         11    1    3    3    0    0 -0.98403561352E+01 -0.68466108631E+01  0.97816134435E+00  0.12027696748E+02  0.51100000000E-03 0. -1.
        -11    1    3    3    0    0 -0.18956139643E+02 -0.12066168355E+01 -0.11363767427E+02  0.22134280308E+02  0.51100000000E-03 0.  1.
        -12    1    3    3    0    0 -0.13335265045E+02  0.21229877033E+01  0.18199599071E+01  0.13625293563E+02  0.00000000000E+00 0.  1.
</event>
<event>
 7    1  0.2811980E-010  0.4778727E+02  0.7816164E-02  0.1312668E+00
        -11   -1    0    0    0    0  0.00000000000E+00  0.00000000000E+00  0.45593999997E+02  0.45594000000E+02  0.51100000000E-03 0.  1.
         11   -1    0    0    0    0 -0.00000000000E+00 -0.00000000000E+00 -0.45593999997E+02  0.45594000000E+02  0.51100000000E-03 0. -1.
    9900012    2    1    2    0    0  0.24218296162E+02 -0.25510224988E+02 -0.25422942538E+02  0.47787268955E+02  0.19999990473E+02 0.  0.
        -12    1    1    2    0    0 -0.24218296162E+02  0.25510224988E+02  0.25422942538E+02  0.43400731045E+02  0.00000000000E+00 0.  1.
         11    1    3    3    0    0  0.15611375095E+02 -0.15053987022E+02 -0.10396868658E+02  0.24050622357E+02  0.51100000000E-03 0. -1.
        -11    1    3    3    0    0 -0.80677890989E+00 -0.53796941745E+01 -0.11067781157E+02  0.12332387507E+02  0.51100000000E-03 0.  1.
         12    1    3    3    0    0  0.94136999773E+01 -0.50765437911E+01 -0.39582927235E+01  0.11404259091E+02  0.00000000000E+00 0. -1.
</event>
<event>
 7    1  0.2811980E-010  0.4778727E+02  0.7816164E-02  0.1312668E+00
        -11   -1    0    0    0    0  0.00000000000E+00  0.00000000000E+00  0.45593999997E+02  0.45594000000E+02  0.51100000000E-03 0. -1.
         11   -1    0    0    0    0 -0.00000000000E+00 -0.00000000000E+00 -0.45593999997E+02  0.45594000000E+02  0.51100000000E-03 0.  1.
    9900012    2    1    2    0    0 -0.33695529238E+02 -0.46932104718E+01 -0.26948247433E+02  0.47787274720E+02  0.20000016758E+02 0.  0.
        -12    1    1    2    0    0  0.33695529238E+02  0.46932104718E+01  0.26948247433E+02  0.43400725280E+02  0.00000000000E+00 0.  1.
         11    1    3    3    0    0 -0.24451281615E+01  0.13011945546E+01 -0.41524233649E-01  0.27701053262E+01  0.51100000000E-03 0. -1.
        -11    1    3    3    0    0 -0.22886932097E+02  0.15200867342E+01 -0.10745469641E+02  0.25329576439E+02  0.51100000000E-03 0.  1.
        -12    1    3    3    0    0 -0.83634689785E+01 -0.75144917607E+01 -0.16161253558E+02  0.19687592955E+02  0.00000000000E+00 0.  1.
</event>
<event>
 7    1  0.2811980E-010  0.4778726E+02  0.7816164E-02  0.1312668E+00
        -11   -1    0    0    0    0  0.00000000000E+00  0.00000000000E+00  0.45593999997E+02  0.45594000000E+02  0.51100000000E-03 0. -1.
         11   -1    0    0    0    0 -0.00000000000E+00 -0.00000000000E+00 -0.45593999997E+02  0.45594000000E+02  0.51100000000E-03 0.  1.
    9900012    2    1    2    0    0 -0.19736977659E+02  0.28469266370E+02  0.26145297421E+02  0.47787262771E+02  0.19999962278E+02 0.  0.
        -12    1    1    2    0    0  0.19736977659E+02 -0.28469266370E+02 -0.26145297421E+02  0.43400737229E+02  0.00000000000E+00 0.  1.
         11    1    3    3    0    0  0.60757388927E-01  0.29539909964E+01 -0.20836387603E+01  0.36154259793E+01  0.51100000000E-03 0. -1.
        -11    1    3    3    0    0 -0.79165744599E+01  0.98956391326E+01  0.46602978502E+01  0.13502377618E+02  0.51100000000E-03 0.  1.
         12    1    3    3    0    0 -0.11881160588E+02  0.15619636241E+02  0.23568638331E+02  0.30669459174E+02  0.00000000000E+00 0. -1.
</event>
<event>
 7    1  0.2811980E-010  0.4778728E+02  0.7816164E-02  0.1312668E+00
        -11   -1    0    0    0    0  0.00000000000E+00  0.00000000000E+00  0.45593999997E+02  0.45594000000E+02  0.51100000000E-03 0. -1.
         11   -1    0    0    0    0 -0.00000000000E+00 -0.00000000000E+00 -0.45593999997E+02  0.45594000000E+02  0.51100000000E-03 0.  1.
    9900012    2    1    2    0    0 -0.20687886879E+02 -0.10764893475E+02  0.36602613468E+02  0.47787275262E+02  0.20000019231E+02 0.  0.
        -12    1    1    2    0    0  0.20687886879E+02  0.10764893475E+02 -0.36602613468E+02  0.43400724738E+02  0.00000000000E+00 0.  1.
         11    1    3    3    0    0 -0.17457665111E+01 -0.32218411539E+01  0.11300172039E+02  0.11879471768E+02  0.51100000000E-03 0. -1.
        -11    1    3    3    0    0 -0.75389833874E+01 -0.43415306504E+01  0.85403546550E+00  0.87415408105E+01  0.51100000000E-03 0.  1.
        -12    1    3    3    0    0 -0.11403136981E+02 -0.32015216705E+01  0.24448405964E+02  0.27166262684E+02  0.00000000000E+00 0.  1.
</event>
<event>
 7    1  0.2811980E-010  0.4778728E+02  0.7816164E-02  0.1312668E+00
        -11   -1    0    0    0    0  0.00000000000E+00  0.00000000000E+00  0.45593999997E+02  0.45594000000E+02  0.51100000000E-03 0. -1.
         11   -1    0    0    0    0 -0.00000000000E+00 -0.00000000000E+00 -0.45593999997E+02  0.45594000000E+02  0.51100000000E-03 0.  1.
    9900012    2    1    2    0    0  0.81491923566E+01  0.29457503879E+02  0.30813444242E+02  0.47787283221E+02  0.20000055518E+02 0.  0.
        -12    1    1    2    0    0 -0.81491923566E+01 -0.29457503879E+02 -0.30813444242E+02  0.43400716779E+02  0.00000000000E+00 0.  1.
         11    1    3    3    0    0 -0.15129170313E+01  0.24197421573E+02  0.15527747506E+02  0.28790885217E+02  0.51100000000E-03 0. -1.
        -11    1    3    3    0    0  0.43633107184E+01  0.19129873082E+01  0.86063282446E+01  0.98370161626E+01  0.51100000000E-03 0.  1.
         12    1    3    3    0    0  0.52987986694E+01  0.33470949979E+01  0.66793684917E+01  0.91593818411E+01  0.00000000000E+00 0. -1.
</event>
<event>
 7    1  0.2811980E-010  0.4778728E+02  0.7816164E-02  0.1312668E+00
        -11   -1    0    0    0    0  0.00000000000E+00  0.00000000000E+00  0.45593999997E+02  0.45594000000E+02  0.51100000000E-03 0. -1.
         11   -1    0    0    0    0 -0.00000000000E+00 -0.00000000000E+00 -0.45593999997E+02  0.45594000000E+02  0.51100000000E-03 0.  1.
    9900012    2    1    2    0    0  0.42752434476E+02 -0.70478052391E+01  0.24859609548E+01  0.47787283253E+02  0.20000055664E+02 0.  0.
        -12    1    1    2    0    0 -0.42752434476E+02  0.70478052391E+01 -0.24859609548E+01  0.43400716747E+02  0.00000000000E+00 0.  1.
         11    1    3    3    0    0  0.24299954264E+02  0.41117308155E+01  0.33269380184E+01  0.24868908789E+02  0.51100000000E-03 0. -1.
        -11    1    3    3    0    0  0.16603465065E+02 -0.11216724963E+02  0.13116230013E+01  0.20080097764E+02  0.51100000000E-03 0.  1.
         12    1    3    3    0    0  0.18490151470E+01  0.57188908904E-01 -0.21526000649E+01  0.28382766998E+01  0.00000000000E+00 0. -1.
</event>
<event>
 7    1  0.2811980E-010  0.4778727E+02  0.7816164E-02  0.1312668E+00
        -11   -1    0    0    0    0  0.00000000000E+00  0.00000000000E+00  0.45593999997E+02  0.45594000000E+02  0.51100000000E-03 0. -1.
         11   -1    0    0    0    0 -0.00000000000E+00 -0.00000000000E+00 -0.45593999997E+02  0.45594000000E+02  0.51100000000E-03 0.  1.
    9900012    2    1    2    0    0 -0.28564342773E+02  0.11978089186E+02  0.30401098212E+02  0.47787273380E+02  0.20000010650E+02 0.  0.
        -12    1    1    2    0    0  0.28564342773E+02 -0.11978089186E+02 -0.30401098212E+02  0.43400726620E+02  0.00000000000E+00 0.  1.
         11    1    3    3    0    0 -0.23607696257E+02  0.14005777833E+02  0.23532020132E+02  0.36155789399E+02  0.51100000000E-03 0.  1.
        -11    1    3    3    0    0  0.58375340061E+00 -0.14177500481E+01  0.57441150023E+01  0.59452199835E+01  0.51100000000E-03 0. -1.
        -12    1    3    3    0    0 -0.55403999161E+01 -0.60993859917E+00  0.11249630778E+01  0.56862639977E+01  0.00000000000E+00 0.  1.
</event>
<event>
 7    1  0.2811980E-010  0.4778728E+02  0.7816164E-02  0.1312668E+00
        -11   -1    0    0    0    0  0.00000000000E+00  0.00000000000E+00  0.45593999997E+02  0.45594000000E+02  0.51100000000E-03 0. -1.
         11   -1    0    0    0    0 -0.00000000000E+00 -0.00000000000E+00 -0.45593999997E+02  0.45594000000E+02  0.51100000000E-03 0.  1.
    9900012    2    1    2    0    0 -0.16405022950E+02  0.85877498948E+01  0.39252368774E+02  0.47787277879E+02  0.20000031161E+02 0.  0.
        -12    1    1    2    0    0  0.16405022950E+02 -0.85877498948E+01 -0.39252368774E+02  0.43400722121E+02  0.00000000000E+00 0.  1.
         11    1    3    3    0    0 -0.47031782887E+01  0.42170429787E+01  0.24512895776E+02  0.25313739295E+02  0.51100000000E-03 0. -1.
        -11    1    3    3    0    0 -0.12576230785E+02  0.10729606969E+01  0.80675520899E+01  0.14979927316E+02  0.51100000000E-03 0.  1.
        -12    1    3    3    0    0  0.87438612430E+00  0.32977462192E+01  0.66719209083E+01  0.74936112674E+01  0.00000000000E+00 0.  1.
</event>
<event>
 7    1  0.2811980E-010  0.4778731E+02  0.7816164E-02  0.1312668E+00
        -11   -1    0    0    0    0  0.00000000000E+00  0.00000000000E+00  0.45593999997E+02  0.45594000000E+02  0.51100000000E-03 0.  1.
         11   -1    0    0    0    0 -0.00000000000E+00 -0.00000000000E+00 -0.45593999997E+02  0.45594000000E+02  0.51100000000E-03 0. -1.
    9900012    2    1    2    0    0  0.89944750191E+01  0.23149540835E+02 -0.35592393563E+02  0.47787305290E+02  0.20000156139E+02 0.  0.
        -12    1    1    2    0    0 -0.89944750191E+01 -0.23149540835E+02  0.35592393563E+02  0.43400694710E+02  0.00000000000E+00 0.  1.
         11    1    3    3    0    0  0.20248822505E+01  0.29376789699E+01 -0.77070669432E+01  0.84928786043E+01  0.51100000000E-03 0. -1.
        -11    1    3    3    0    0 -0.32574422579E+01 -0.15669516898E+01 -0.32975889782E+01  0.48928888186E+01  0.51100000000E-03 0.  1.
        -12    1    3    3    0    0  0.10227035026E+02  0.21778813555E+02 -0.24587737642E+02  0.34401537867E+02  0.00000000000E+00 0.  1.
</event>
<event>
 7    1  0.2811980E-010  0.4778727E+02  0.7816164E-02  0.1312668E+00
        -11   -1    0    0    0    0  0.00000000000E+00  0.00000000000E+00  0.45593999997E+02  0.45594000000E+02  0.51100000000E-03 0. -1.
         11   -1    0    0    0    0 -0.00000000000E+00 -0.00000000000E+00 -0.45593999997E+02  0.45594000000E+02  0.51100000000E-03 0.  1.
    9900012    2    1    2    0    0  0.25524249821E+02 -0.25024777408E+02  0.24614965156E+02  0.47787270480E+02  0.19999997426E+02 0.  0.
        -12    1    1    2    0    0 -0.25524249821E+02  0.25024777408E+02 -0.24614965156E+02  0.43400729520E+02  0.00000000000E+00 0.  1.
         11    1    3    3    0    0  0.22029121959E+02 -0.14264470485E+02  0.24712754549E+02  0.36048267229E+02  0.51100000000E-03 0. -1.
        -11    1    3    3    0    0  0.28017580492E+01 -0.10545534315E+02  0.29162350334E+00  0.10915273092E+02  0.51100000000E-03 0.  1.
         12    1    3    3    0    0  0.69336981283E+00 -0.21477260787E+00 -0.38941289661E+00  0.82373015878E+00  0.00000000000E+00 0. -1.
</event>
<event>
 7    1  0.2811980E-010  0.4778727E+02  0.7816164E-02  0.1312668E+00
        -11   -1    0    0    0    0  0.00000000000E+00  0.00000000000E+00  0.45593999997E+02  0.45594000000E+02  0.51100000000E-03 0.  1.
         11   -1    0    0    0    0 -0.00000000000E+00 -0.00000000000E+00 -0.45593999997E+02  0.45594000000E+02  0.51100000000E-03 0. -1.
    9900012    2    1    2    0    0  0.18107879342E+02  0.39408225460E+02 -0.16492522552E+01  0.47787267735E+02  0.19999984910E+02 0.  0.
        -12    1    1    2    0    0 -0.18107879342E+02 -0.39408225460E+02  0.16492522552E+01  0.43400732265E+02  0.00000000000E+00 0.  1.
         11    1    3    3    0    0  0.10222840495E+02  0.29881506982E+02 -0.20095985698E+01  0.31645685551E+02  0.51100000000E-03 0. -1.
        -11    1    3    3    0    0  0.81675873809E+01  0.54891694623E+01  0.40719918047E+01  0.10649956926E+02  0.51100000000E-03 0.  1.
         12    1    3    3    0    0 -0.28254853415E+00  0.40375490154E+01 -0.37116454901E+01  0.54916252576E+01  0.00000000000E+00 0. -1.
</event>
<event>
 7    1  0.2811980E-010  0.4778727E+02  0.7816164E-02  0.1312668E+00
        -11   -1    0    0    0    0  0.00000000000E+00  0.00000000000E+00  0.45593999997E+02  0.45594000000E+02  0.51100000000E-03 0. -1.
         11   -1    0    0    0    0 -0.00000000000E+00 -0.00000000000E+00 -0.45593999997E+02  0.45594000000E+02  0.51100000000E-03 0.  1.
    9900012    2    1    2    0    0 -0.42781264362E+02  0.35743056600E+00 -0.72978739644E+01  0.47787270728E+02  0.19999998555E+02 0.  0.
        -12    1    1    2    0    0  0.42781264362E+02 -0.35743056600E+00  0.72978739644E+01  0.43400729272E+02  0.00000000000E+00 0.  1.
         11    1    3    3    0    0 -0.11848930196E+02 -0.68904047792E+00 -0.94107798656E+01  0.15147102083E+02  0.51100000000E-03 0.  1.
        -11    1    3    3    0    0 -0.12811181910E+02  0.31377762454E+01 -0.33305850436E+01  0.13603853083E+02  0.51100000000E-03 0. -1.
         12    1    3    3    0    0 -0.18121152255E+02 -0.20913052015E+01  0.54434909448E+01  0.19036315562E+02  0.00000000000E+00 0. -1.
</event>
<event>
 7    1  0.2811980E-010  0.4778727E+02  0.7816164E-02  0.1312668E+00
        -11   -1    0    0    0    0  0.00000000000E+00  0.00000000000E+00  0.45593999997E+02  0.45594000000E+02  0.51100000000E-03 0.  1.
         11   -1    0    0    0    0 -0.00000000000E+00 -0.00000000000E+00 -0.45593999997E+02  0.45594000000E+02  0.51100000000E-03 0. -1.
    9900012    2    1    2    0    0 -0.17403046071E+02  0.84610440866E+01 -0.38848011690E+02  0.47787270837E+02  0.19999999054E+02 0.  0.
        -12    1    1    2    0    0  0.17403046071E+02 -0.84610440866E+01  0.38848011690E+02  0.43400729163E+02  0.00000000000E+00 0.  1.
         11    1    3    3    0    0 -0.16808514025E+02  0.54776664540E+01 -0.35326483243E+02  0.39503055478E+02  0.51100000000E-03 0. -1.
        -11    1    3    3    0    0  0.24393332407E+01 -0.56229675494E+00 -0.11375108868E+00  0.25058858455E+01  0.51100000000E-03 0.  1.
        -12    1    3    3    0    0 -0.30338652866E+01  0.35456743875E+01 -0.34077773585E+01  0.57783295133E+01  0.00000000000E+00 0.  1.
</event>
<event>
 7    1  0.2811980E-010  0.4778727E+02  0.7816164E-02  0.1312668E+00
        -11   -1    0    0    0    0  0.00000000000E+00  0.00000000000E+00  0.45593999997E+02  0.45594000000E+02  0.51100000000E-03 0.  1.
         11   -1    0    0    0    0 -0.00000000000E+00 -0.00000000000E+00 -0.45593999997E+02  0.45594000000E+02  0.51100000000E-03 0. -1.
    9900012    2    1    2    0    0 -0.17910991688E+02 -0.34905684948E+02 -0.18558359113E+02  0.47787272380E+02  0.20000006090E+02 0.  0.
        -12    1    1    2    0    0  0.17910991688E+02  0.34905684948E+02  0.18558359113E+02  0.43400727620E+02  0.00000000000E+00 0.  1.
         11    1    3    3    0    0 -0.11785267338E+02 -0.78075483766E+01 -0.27780609454E+01  0.14407219050E+02  0.51100000000E-03 0. -1.
        -11    1    3    3    0    0 -0.18413742112E+01 -0.10579290258E+01  0.73591339422E+00  0.22475412330E+01  0.51100000000E-03 0.  1.
         12    1    3    3    0    0 -0.42843501396E+01 -0.26040207546E+02 -0.16516211562E+02  0.31132512097E+02  0.00000000000E+00 0. -1.
</event>
<event>
 7    1  0.2811980E-010  0.4778729E+02  0.7816164E-02  0.1312668E+00
        -11   -1    0    0    0    0  0.00000000000E+00  0.00000000000E+00  0.45593999997E+02  0.45594000000E+02  0.51100000000E-03 0.  1.
         11   -1    0    0    0    0 -0.00000000000E+00 -0.00000000000E+00 -0.45593999997E+02  0.45594000000E+02  0.51100000000E-03 0. -1.
    9900012    2    1    2    0    0 -0.41913274733E+02 -0.13398197703E+01  0.11184995531E+02  0.47787287553E+02  0.20000075268E+02 0.  0.
        -12    1    1    2    0    0  0.41913274733E+02  0.13398197703E+01 -0.11184995531E+02  0.43400712447E+02  0.00000000000E+00 0.  1.
         11    1    3    3    0    0 -0.28146139320E+02 -0.29794316271E+01  0.43259224455E+01  0.28632076011E+02  0.51100000000E-03 0. -1.
        -11    1    3    3    0    0 -0.24620734744E+01 -0.35895540231E+01  0.48866180316E+01  0.65441378291E+01  0.51100000000E-03 0.  1.
         12    1    3    3    0    0 -0.11305061939E+02  0.52291658800E+01  0.19724550537E+01  0.12611073713E+02  0.00000000000E+00 0. -1.
</event>
<event>
 7    1  0.2811980E-010  0.4778727E+02  0.7816164E-02  0.1312668E+00
        -11   -1    0    0    0    0  0.00000000000E+00  0.00000000000E+00  0.45593999997E+02  0.45594000000E+02  0.51100000000E-03 0.  1.
         11   -1    0    0    0    0 -0.00000000000E+00 -0.00000000000E+00 -0.45593999997E+02  0.45594000000E+02  0.51100000000E-03 0. -1.
    9900012    2    1    2    0    0  0.39783498839E+01 -0.19504485562E+02 -0.38566450583E+02  0.47787270336E+02  0.19999996769E+02 0.  0.
        -12    1    1    2    0    0 -0.39783498839E+01  0.19504485562E+02  0.38566450583E+02  0.43400729664E+02  0.00000000000E+00 0.  1.
         11    1    3    3    0    0  0.32949570601E+00 -0.17813405883E+02 -0.24361064745E+02  0.30180912384E+02  0.51100000000E-03 0. -1.
        -11    1    3    3    0    0  0.60761925983E+01  0.11093026380E+01 -0.60384383542E+01  0.86379052352E+01  0.51100000000E-03 0.  1.
        -12    1    3    3    0    0 -0.24273384204E+01 -0.28003823170E+01 -0.81669474835E+01  0.89684527164E+01  0.00000000000E+00 0.  1.
</event>
<event>
 7    1  0.2811980E-010  0.4778727E+02  0.7816164E-02  0.1312668E+00
        -11   -1    0    0    0    0  0.00000000000E+00  0.00000000000E+00  0.45593999997E+02  0.45594000000E+02  0.51100000000E-03 0.  1.
         11   -1    0    0    0    0 -0.00000000000E+00 -0.00000000000E+00 -0.45593999997E+02  0.45594000000E+02  0.51100000000E-03 0. -1.
    9900012    2    1    2    0    0 -0.10196412189E+02  0.37320069552E+02 -0.19668987326E+02  0.47787268724E+02  0.19999989418E+02 0.  0.
        -12    1    1    2    0    0  0.10196412189E+02 -0.37320069552E+02  0.19668987326E+02  0.43400731276E+02  0.00000000000E+00 0.  1.
         11    1    3    3    0    0 -0.63046187370E+01  0.24942852026E+02 -0.40494443768E+01  0.26044041250E+02  0.51100000000E-03 0. -1.
        -11    1    3    3    0    0  0.12198993573E+01 -0.45351846364E+00 -0.11019787190E+01  0.17053418417E+01  0.51100000000E-03 0.  1.
         12    1    3    3    0    0 -0.51116928097E+01  0.12830735989E+02 -0.14517564230E+02  0.20037885632E+02  0.00000000000E+00 0. -1.
</event>
<event>
 7    1  0.2811980E-010  0.4778727E+02  0.7816164E-02  0.1312668E+00
        -11   -1    0    0    0    0  0.00000000000E+00  0.00000000000E+00  0.45593999997E+02  0.45594000000E+02  0.51100000000E-03 0. -1.
         11   -1    0    0    0    0 -0.00000000000E+00 -0.00000000000E+00 -0.45593999997E+02  0.45594000000E+02  0.51100000000E-03 0.  1.
    9900012    2    1    2    0    0  0.38790323312E+02  0.14556032688E+02  0.12925013276E+02  0.47787271453E+02  0.20000001862E+02 0.  0.
        -12    1    1    2    0    0 -0.38790323312E+02 -0.14556032688E+02 -0.12925013276E+02  0.43400728547E+02  0.00000000000E+00 0.  1.
         11    1    3    3    0    0  0.18733620956E+02  0.16852093036E+02  0.10030076547E+02  0.27120914985E+02  0.51100000000E-03 0. -1.
        -11    1    3    3    0    0  0.75539246917E+01 -0.25038497602E+01  0.11178422319E+01  0.80362064052E+01  0.51100000000E-03 0.  1.
         12    1    3    3    0    0  0.12502777664E+02  0.20778941219E+00  0.17770944967E+01  0.12630150062E+02  0.00000000000E+00 0. -1.
</event>
<event>
 7    1  0.2811980E-010  0.4778727E+02  0.7816164E-02  0.1312668E+00
        -11   -1    0    0    0    0  0.00000000000E+00  0.00000000000E+00  0.45593999997E+02  0.45594000000E+02  0.51100000000E-03 0. -1.
         11   -1    0    0    0    0 -0.00000000000E+00 -0.00000000000E+00 -0.45593999997E+02  0.45594000000E+02  0.51100000000E-03 0.  1.
    9900012    2    1    2    0    0  0.37198171347E+02 -0.22289749760E+02 -0.17568060132E+01  0.47787271166E+02  0.20000000556E+02 0.  0.
        -12    1    1    2    0    0 -0.37198171347E+02  0.22289749760E+02  0.17568060132E+01  0.43400728834E+02  0.00000000000E+00 0.  1.
         11    1    3    3    0    0  0.13946525231E+02 -0.10904300837E+02  0.82399081344E+01  0.19527043532E+02  0.51100000000E-03 0. -1.
        -11    1    3    3    0    0  0.12831535651E+01 -0.23520137266E+01 -0.10670546685E+01  0.28839309230E+01  0.51100000000E-03 0.  1.
         12    1    3    3    0    0  0.21968492550E+02 -0.90334351970E+01 -0.89296594792E+01  0.25376296712E+02  0.00000000000E+00 0. -1.
</event>
<event>
 7    1  0.2811980E-010  0.4778728E+02  0.7816164E-02  0.1312668E+00
        -11   -1    0    0    0    0  0.00000000000E+00  0.00000000000E+00  0.45593999997E+02  0.45594000000E+02  0.51100000000E-03 0. -1.
         11   -1    0    0    0    0 -0.00000000000E+00 -0.00000000000E+00 -0.45593999997E+02  0.45594000000E+02  0.51100000000E-03 0.  1.
    9900012    2    1    2    0    0  0.41349148269E+02 -0.75419475335E+01  0.10816184871E+02  0.47787275463E+02  0.20000020146E+02 0.  0.
        -12    1    1    2    0    0 -0.41349148269E+02  0.75419475335E+01 -0.10816184871E+02  0.43400724537E+02  0.00000000000E+00 0.  1.
         11    1    3    3    0    0  0.14863808999E+02  0.62801315721E+01  0.35245870651E+01  0.16516524597E+02  0.51100000000E-03 0. -1.
        -11    1    3    3    0    0  0.66974207970E+01 -0.11700127908E+01  0.47886799388E+00  0.68156943945E+01  0.51100000000E-03 0.  1.
         12    1    3    3    0    0  0.19787918473E+02 -0.12652066315E+02  0.68127298116E+01  0.24455056472E+02  0.00000000000E+00 0. -1.
</event>
<event>
 7    1  0.2811980E-010  0.4778727E+02  0.7816164E-02  0.1312668E+00
        -11   -1    0    0    0    0  0.00000000000E+00  0.00000000000E+00  0.45593999997E+02  0.45594000000E+02  0.51100000000E-03 0. -1.
         11   -1    0    0    0    0 -0.00000000000E+00 -0.00000000000E+00 -0.45593999997E+02  0.45594000000E+02  0.51100000000E-03 0.  1.
    9900012    2    1    2    0    0 -0.81227964421E+01 -0.42305761598E+02  0.52788395027E+01  0.47787269212E+02  0.19999991646E+02 0.  0.
        -12    1    1    2    0    0  0.81227964421E+01  0.42305761598E+02 -0.52788395027E+01  0.43400730788E+02  0.00000000000E+00 0.  1.
         11    1    3    3    0    0 -0.35701759785E+00 -0.76238352352E+01  0.28893440099E+01  0.81607986329E+01  0.51100000000E-03 0. -1.
        -11    1    3    3    0    0 -0.12421703630E+01 -0.23052252686E+02  0.89570527090E+01  0.24762433939E+02  0.51100000000E-03 0.  1.
        -12    1    3    3    0    0 -0.65236084813E+01 -0.11629673677E+02 -0.65675572163E+01  0.14864036640E+02  0.00000000000E+00 0.  1.
</event>
<event>
 7    1  0.2811980E-010  0.4778727E+02  0.7816164E-02  0.1312668E+00
        -11   -1    0    0    0    0  0.00000000000E+00  0.00000000000E+00  0.45593999997E+02  0.45594000000E+02  0.51100000000E-03 0. -1.
         11   -1    0    0    0    0 -0.00000000000E+00 -0.00000000000E+00 -0.45593999997E+02  0.45594000000E+02  0.51100000000E-03 0.  1.
    9900012    2    1    2    0    0 -0.11365479802E+02 -0.41879338587E+02  0.75517821260E+00  0.47787269295E+02  0.19999992022E+02 0.  0.
        -12    1    1    2    0    0  0.11365479802E+02  0.41879338587E+02 -0.75517821260E+00  0.43400730705E+02  0.00000000000E+00 0.  1.
         11    1    3    3    0    0 -0.84304940958E+01 -0.15329049235E+02  0.81267720269E+01  0.19289826464E+02  0.51100000000E-03 0. -1.
        -11    1    3    3    0    0 -0.19058025226E+01 -0.97409094934E+01 -0.60060936030E+01  0.11601317237E+02  0.51100000000E-03 0.  1.
         12    1    3    3    0    0 -0.10291831839E+01 -0.16809379858E+02 -0.13655002113E+01  0.16896125594E+02  0.00000000000E+00 0. -1.
</event>
<event>
 7    1  0.2811980E-010  0.4778728E+02  0.7816164E-02  0.1312668E+00
        -11   -1    0    0    0    0  0.00000000000E+00  0.00000000000E+00  0.45593999997E+02  0.45594000000E+02  0.51100000000E-03 0. -1.
         11   -1    0    0    0    0 -0.00000000000E+00 -0.00000000000E+00 -0.45593999997E+02  0.45594000000E+02  0.51100000000E-03 0.  1.
    9900012    2    1    2    0    0  0.29996756162E+02  0.31298689284E+02  0.20516678880E+01  0.47787277975E+02  0.20000031598E+02 0.  0.
        -12    1    1    2    0    0 -0.29996756162E+02 -0.31298689284E+02 -0.20516678880E+01  0.43400722025E+02  0.00000000000E+00 0.  1.
         11    1    3    3    0    0  0.66669868835E+00  0.99074266292E+01  0.51022848000E+01  0.11164000179E+02  0.51100000000E-03 0. -1.
        -11    1    3    3    0    0  0.27374524621E+02  0.19312709437E+02 -0.19289584235E+01  0.33556910241E+02  0.51100000000E-03 0.  1.
        -12    1    3    3    0    0  0.19555328529E+01  0.20785532181E+01 -0.11216584886E+01  0.30663675553E+01  0.00000000000E+00 0.  1.
</event>
<event>
 7    1  0.2811980E-010  0.4778727E+02  0.7816164E-02  0.1312668E+00
        -11   -1    0    0    0    0  0.00000000000E+00  0.00000000000E+00  0.45593999997E+02  0.45594000000E+02  0.51100000000E-03 0. -1.
         11   -1    0    0    0    0 -0.00000000000E+00 -0.00000000000E+00 -0.45593999997E+02  0.45594000000E+02  0.51100000000E-03 0.  1.
    9900012    2    1    2    0    0  0.30458560039E+02 -0.59497430791E+01  0.30339741693E+02  0.47787271338E+02  0.20000001338E+02 0.  0.
        -12    1    1    2    0    0 -0.30458560039E+02  0.59497430791E+01 -0.30339741693E+02  0.43400728662E+02  0.00000000000E+00 0.  1.
         11    1    3    3    0    0  0.20840573234E+02 -0.46875253036E+01  0.20415361903E+02  0.29548086031E+02  0.51100000000E-03 0. -1.
        -11    1    3    3    0    0  0.65261430553E+00  0.26827693496E+01 -0.15390778320E+01  0.31609994700E+01  0.51100000000E-03 0.  1.
         12    1    3    3    0    0  0.89653724998E+01 -0.39449871252E+01  0.11463457622E+02  0.15078185837E+02  0.00000000000E+00 0. -1.
</event>
<event>
 7    1  0.2811980E-010  0.4778727E+02  0.7816164E-02  0.1312668E+00
        -11   -1    0    0    0    0  0.00000000000E+00  0.00000000000E+00  0.45593999997E+02  0.45594000000E+02  0.51100000000E-03 0.  1.
         11   -1    0    0    0    0 -0.00000000000E+00 -0.00000000000E+00 -0.45593999997E+02  0.45594000000E+02  0.51100000000E-03 0. -1.
    9900012    2    1    2    0    0 -0.23866410714E+02  0.17216127457E+02 -0.31900196296E+02  0.47787272716E+02  0.20000007623E+02 0.  0.
        -12    1    1    2    0    0  0.23866410714E+02 -0.17216127457E+02  0.31900196296E+02  0.43400727284E+02  0.00000000000E+00 0.  1.
         11    1    3    3    0    0 -0.14961978246E+02  0.10929210226E+02 -0.10842273135E+02  0.21467727318E+02  0.51100000000E-03 0. -1.
        -11    1    3    3    0    0 -0.28588342473E+01  0.66778231251E+01 -0.41655046021E+01  0.83736302638E+01  0.51100000000E-03 0.  1.
         12    1    3    3    0    0 -0.60455982213E+01 -0.39090589347E+00 -0.16892418559E+02  0.17945915135E+02  0.00000000000E+00 0. -1.
</event>
<event>
 7    1  0.2811980E-010  0.4778727E+02  0.7816164E-02  0.1312668E+00
        -11   -1    0    0    0    0  0.00000000000E+00  0.00000000000E+00  0.45593999997E+02  0.45594000000E+02  0.51100000000E-03 0.  1.
         11   -1    0    0    0    0 -0.00000000000E+00 -0.00000000000E+00 -0.45593999997E+02  0.45594000000E+02  0.51100000000E-03 0. -1.
    9900012    2    1    2    0    0 -0.27728172640E+02  0.33245041780E+02  0.30884927362E+01  0.47787272491E+02  0.20000006596E+02 0.  0.
        -12    1    1    2    0    0  0.27728172640E+02 -0.33245041780E+02 -0.30884927362E+01  0.43400727509E+02  0.00000000000E+00 0.  1.
         11    1    3    3    0    0 -0.14327594901E+02  0.14527915884E+02 -0.33548420852E+01  0.20678377143E+02  0.51100000000E-03 0. -1.
        -11    1    3    3    0    0  0.21351768235E+01  0.13483231517E+01  0.23489119788E+01  0.34488176429E+01  0.51100000000E-03 0.  1.
        -12    1    3    3    0    0 -0.15535754562E+02  0.17368802744E+02  0.40944228427E+01  0.23660077705E+02  0.00000000000E+00 0.  1.
</event>
<event>
 7    1  0.2811980E-010  0.4778726E+02  0.7816164E-02  0.1312668E+00
        -11   -1    0    0    0    0  0.00000000000E+00  0.00000000000E+00  0.45593999997E+02  0.45594000000E+02  0.51100000000E-03 0. -1.
         11   -1    0    0    0    0 -0.00000000000E+00 -0.00000000000E+00 -0.45593999997E+02  0.45594000000E+02  0.51100000000E-03 0.  1.
    9900012    2    1    2    0    0 -0.26052026502E+02  0.12882356620E+02  0.32232914822E+02  0.47787262738E+02  0.19999962128E+02 0.  0.
        -12    1    1    2    0    0  0.26052026502E+02 -0.12882356620E+02 -0.32232914822E+02  0.43400737262E+02  0.00000000000E+00 0.  1.
         11    1    3    3    0    0 -0.25736758099E+02  0.15876240688E+02  0.24464866012E+02  0.38896855979E+02  0.51100000000E-03 0. -1.
        -11    1    3    3    0    0  0.12574248951E+01 -0.16227971807E+01  0.25703331627E+01  0.32895593755E+01  0.51100000000E-03 0.  1.
         12    1    3    3    0    0 -0.15726932986E+01 -0.13710868874E+01  0.51977156471E+01  0.56008473834E+01  0.00000000000E+00 0. -1.
</event>
<event>
 7    1  0.2811980E-010  0.4778727E+02  0.7816164E-02  0.1312668E+00
        -11   -1    0    0    0    0  0.00000000000E+00  0.00000000000E+00  0.45593999997E+02  0.45594000000E+02  0.51100000000E-03 0.  1.
         11   -1    0    0    0    0 -0.00000000000E+00 -0.00000000000E+00 -0.45593999997E+02  0.45594000000E+02  0.51100000000E-03 0. -1.
    9900012    2    1    2    0    0 -0.19332138847E+02  0.20942697271E+02 -0.32730644219E+02  0.47787271523E+02  0.20000002180E+02 0.  0.
        -12    1    1    2    0    0  0.19332138847E+02 -0.20942697271E+02  0.32730644219E+02  0.43400728477E+02  0.00000000000E+00 0.  1.
         11    1    3    3    0    0 -0.55153942667E+00  0.13397255065E+02 -0.11571916917E+02  0.17711575323E+02  0.51100000000E-03 0. -1.
        -11    1    3    3    0    0 -0.14565219383E+02  0.63013190341E+01 -0.11930235621E+02  0.19854036353E+02  0.51100000000E-03 0.  1.
         12    1    3    3    0    0 -0.42153800366E+01  0.12441231713E+01 -0.92284916811E+01  0.10221659847E+02  0.00000000000E+00 0. -1.
</event>
<event>
 7    1  0.2811980E-010  0.4778727E+02  0.7816164E-02  0.1312668E+00
        -11   -1    0    0    0    0  0.00000000000E+00  0.00000000000E+00  0.45593999997E+02  0.45594000000E+02  0.51100000000E-03 0.  1.
         11   -1    0    0    0    0 -0.00000000000E+00 -0.00000000000E+00 -0.45593999997E+02  0.45594000000E+02  0.51100000000E-03 0. -1.
    9900012    2    1    2    0    0 -0.89926685430E+01  0.27691143383E+02 -0.32186264959E+02  0.47787272340E+02  0.20000005909E+02 0.  0.
        -12    1    1    2    0    0  0.89926685430E+01 -0.27691143383E+02  0.32186264959E+02  0.43400727660E+02  0.00000000000E+00 0.  1.
         11    1    3    3    0    0 -0.27645162015E+01  0.13961297518E+02 -0.55467306709E+01  0.15275031902E+02  0.51100000000E-03 0. -1.
        -11    1    3    3    0    0  0.14202482056E+01  0.12559046584E+01 -0.10733945566E+02  0.10900091245E+02  0.51100000000E-03 0.  1.
        -12    1    3    3    0    0 -0.76484005472E+01  0.12473941206E+02 -0.15905588722E+02  0.21612149193E+02  0.00000000000E+00 0.  1.
</event>
<event>
 7    1  0.2811980E-010  0.4778726E+02  0.7816164E-02  0.1312668E+00
        -11   -1    0    0    0    0  0.00000000000E+00  0.00000000000E+00  0.45593999997E+02  0.45594000000E+02  0.51100000000E-03 0.  1.
         11   -1    0    0    0    0 -0.00000000000E+00 -0.00000000000E+00 -0.45593999997E+02  0.45594000000E+02  0.51100000000E-03 0. -1.
    9900012    2    1    2    0    0  0.90077512558E+01 -0.37506461763E+02 -0.19893456538E+02  0.47787264181E+02  0.19999968705E+02 0.  0.
        -12    1    1    2    0    0 -0.90077512558E+01  0.37506461763E+02  0.19893456538E+02  0.43400735819E+02  0.00000000000E+00 0.  1.
         11    1    3    3    0    0 -0.34805206716E+01 -0.12224836708E+02 -0.32143524945E+01  0.13110786357E+02  0.51100000000E-03 0. -1.
        -11    1    3    3    0    0  0.34423130026E+01 -0.16263576791E+02 -0.49761310237E+01  0.17352674983E+02  0.51100000000E-03 0.  1.
         12    1    3    3    0    0  0.90459589248E+01 -0.90180482639E+01 -0.11702973020E+02  0.17323802841E+02  0.00000000000E+00 0. -1.
</event>
<event>
 7    1  0.2811980E-010  0.4778727E+02  0.7816164E-02  0.1312668E+00
        -11   -1    0    0    0    0  0.00000000000E+00  0.00000000000E+00  0.45593999997E+02  0.45594000000E+02  0.51100000000E-03 0.  1.
         11   -1    0    0    0    0 -0.00000000000E+00 -0.00000000000E+00 -0.45593999997E+02  0.45594000000E+02  0.51100000000E-03 0. -1.
    9900012    2    1    2    0    0 -0.24130705876E+02 -0.34541305137E+02  0.10403387707E+02  0.47787271868E+02  0.20000003754E+02 0.  0.
        -12    1    1    2    0    0  0.24130705876E+02  0.34541305137E+02 -0.10403387707E+02  0.43400728132E+02  0.00000000000E+00 0.  1.
         11    1    3    3    0    0 -0.87995802867E+01 -0.12194212239E+02  0.28530419916E+01  0.15305922848E+02  0.51100000000E-03 0. -1.
        -11    1    3    3    0    0 -0.10851631319E+02 -0.98512031609E+01 -0.36602603944E+01  0.15106343449E+02  0.51100000000E-03 0.  1.
        -12    1    3    3    0    0 -0.44794942704E+01 -0.12495889737E+02  0.11210606110E+02  0.17375005571E+02  0.00000000000E+00 0.  1.
</event>
<event>
 7    1  0.2811980E-010  0.4778727E+02  0.7816164E-02  0.1312668E+00
        -11   -1    0    0    0    0  0.00000000000E+00  0.00000000000E+00  0.45593999997E+02  0.45594000000E+02  0.51100000000E-03 0. -1.
         11   -1    0    0    0    0 -0.00000000000E+00 -0.00000000000E+00 -0.45593999997E+02  0.45594000000E+02  0.51100000000E-03 0.  1.
    9900012    2    1    2    0    0 -0.20703173029E+02 -0.24065893952E+02  0.29594503495E+02  0.47787271178E+02  0.20000000608E+02 0.  0.
        -12    1    1    2    0    0  0.20703173029E+02  0.24065893952E+02 -0.29594503495E+02  0.43400728822E+02  0.00000000000E+00 0.  1.
         11    1    3    3    0    0 -0.14955777547E+02 -0.14651208134E+02  0.95348483440E+01  0.23005358398E+02  0.51100000000E-03 0. -1.
        -11    1    3    3    0    0 -0.49373030477E+01  0.12451408541E+00  0.77071278368E+01  0.91538125880E+01  0.51100000000E-03 0.  1.
         12    1    3    3    0    0 -0.81009243424E+00 -0.95391999033E+01  0.12352527314E+02  0.15628100192E+02  0.00000000000E+00 0. -1.
</event>
<event>
 7    1  0.2811980E-010  0.4778727E+02  0.7816164E-02  0.1312668E+00
        -11   -1    0    0    0    0  0.00000000000E+00  0.00000000000E+00  0.45593999997E+02  0.45594000000E+02  0.51100000000E-03 0.  1.
         11   -1    0    0    0    0 -0.00000000000E+00 -0.00000000000E+00 -0.45593999997E+02  0.45594000000E+02  0.51100000000E-03 0. -1.
    9900012    2    1    2    0    0 -0.14755939228E+02 -0.24220218247E+02 -0.32852193504E+02  0.47787270369E+02  0.19999996921E+02 0.  0.
        -12    1    1    2    0    0  0.14755939228E+02  0.24220218247E+02  0.32852193504E+02  0.43400729631E+02  0.00000000000E+00 0.  1.
         11    1    3    3    0    0  0.19879719664E+01 -0.73246175289E+01 -0.81985535042E+01  0.11172212597E+02  0.51100000000E-03 0. -1.
        -11    1    3    3    0    0 -0.10193125351E+02 -0.10820370736E+02 -0.61885635848E+01  0.16102128642E+02  0.51100000000E-03 0.  1.
        -12    1    3    3    0    0 -0.65507858434E+01 -0.60752299827E+01 -0.18465076415E+02  0.20512929131E+02  0.00000000000E+00 0.  1.
</event>
<event>
 7    1  0.2811980E-010  0.4778727E+02  0.7816164E-02  0.1312668E+00
        -11   -1    0    0    0    0  0.00000000000E+00  0.00000000000E+00  0.45593999997E+02  0.45594000000E+02  0.51100000000E-03 0.  1.
         11   -1    0    0    0    0 -0.00000000000E+00 -0.00000000000E+00 -0.45593999997E+02  0.45594000000E+02  0.51100000000E-03 0. -1.
    9900012    2    1    2    0    0  0.10397594441E+02 -0.37924626792E+02 -0.18363987624E+02  0.47787270410E+02  0.19999997107E+02 0.  0.
        -12    1    1    2    0    0 -0.10397594441E+02  0.37924626792E+02  0.18363987624E+02  0.43400729590E+02  0.00000000000E+00 0.  1.
         11    1    3    3    0    0  0.72974380630E+00 -0.12355680904E+02 -0.58696235842E+01  0.13698461881E+02  0.51100000000E-03 0. -1.
        -11    1    3    3    0    0  0.25254476618E+01 -0.16073656487E+02  0.75983813925E+00  0.16288574923E+02  0.51100000000E-03 0.  1.
        -12    1    3    3    0    0  0.71424029730E+01 -0.94952894016E+01 -0.13254202179E+02  0.17800233607E+02  0.00000000000E+00 0.  1.
</event>
<event>
 7    1  0.2811980E-010  0.4778727E+02  0.7816164E-02  0.1312668E+00
        -11   -1    0    0    0    0  0.00000000000E+00  0.00000000000E+00  0.45593999997E+02  0.45594000000E+02  0.51100000000E-03 0. -1.
         11   -1    0    0    0    0 -0.00000000000E+00 -0.00000000000E+00 -0.45593999997E+02  0.45594000000E+02  0.51100000000E-03 0.  1.
    9900012    2    1    2    0    0 -0.31052650285E+02 -0.23944994759E+02  0.18600906376E+02  0.47787267498E+02  0.19999983830E+02 0.  0.
        -12    1    1    2    0    0  0.31052650285E+02  0.23944994759E+02 -0.18600906376E+02  0.43400732502E+02  0.00000000000E+00 0.  1.
         11    1    3    3    0    0 -0.18390581454E+02 -0.12918144669E+02  0.10986334757E+02  0.25015824983E+02  0.51100000000E-03 0. -1.
        -11    1    3    3    0    0  0.91406532258E+00 -0.25680329645E+01 -0.26207209377E+01  0.37813340523E+01  0.51100000000E-03 0.  1.
        -12    1    3    3    0    0 -0.13576134153E+02 -0.84588171254E+01  0.10235292557E+02  0.18990108463E+02  0.00000000000E+00 0.  1.
</event>
<event>
 7    1  0.2811980E-010  0.4778727E+02  0.7816164E-02  0.1312668E+00
        -11   -1    0    0    0    0  0.00000000000E+00  0.00000000000E+00  0.45593999997E+02  0.45594000000E+02  0.51100000000E-03 0.  1.
         11   -1    0    0    0    0 -0.00000000000E+00 -0.00000000000E+00 -0.45593999997E+02  0.45594000000E+02  0.51100000000E-03 0. -1.
    9900012    2    1    2    0    0  0.30694000196E+02  0.85349752936E+01 -0.29472965122E+02  0.47787272767E+02  0.20000007853E+02 0.  0.
        -12    1    1    2    0    0 -0.30694000196E+02 -0.85349752936E+01  0.29472965122E+02  0.43400727233E+02  0.00000000000E+00 0.  1.
         11    1    3    3    0    0  0.52973690566E+01  0.15116153131E+01  0.11531317797E+01  0.56282157865E+01  0.51100000000E-03 0.  1.
        -11    1    3    3    0    0  0.23611624247E+02  0.20755396095E+01 -0.24624581303E+02  0.34178745864E+02  0.51100000000E-03 0. -1.
        -12    1    3    3    0    0  0.17850068927E+01  0.49478203710E+01 -0.60015155987E+01  0.79803111163E+01  0.00000000000E+00 0.  1.
</event>
<event>
 7    1  0.2811980E-010  0.4778727E+02  0.7816164E-02  0.1312668E+00
        -11   -1    0    0    0    0  0.00000000000E+00  0.00000000000E+00  0.45593999997E+02  0.45594000000E+02  0.51100000000E-03 0.  1.
         11   -1    0    0    0    0 -0.00000000000E+00 -0.00000000000E+00 -0.45593999997E+02  0.45594000000E+02  0.51100000000E-03 0. -1.
    9900012    2    1    2    0    0  0.17718419954E+02 -0.39582468225E+02  0.17056267694E+01  0.47787270062E+02  0.19999995521E+02 0.  0.
        -12    1    1    2    0    0 -0.17718419954E+02  0.39582468225E+02 -0.17056267694E+01  0.43400729938E+02  0.00000000000E+00 0.  1.
         11    1    3    3    0    0  0.97642742722E+00 -0.17860847548E+02 -0.53835191399E+01  0.18680084696E+02  0.51100000000E-03 0. -1.
        -11    1    3    3    0    0  0.11413404018E+02 -0.11666263566E+02  0.69166301952E+01  0.17725892654E+02  0.51100000000E-03 0.  1.
         12    1    3    3    0    0  0.53285885088E+01 -0.10055357111E+02  0.17251571413E+00  0.11381292712E+02  0.00000000000E+00 0. -1.
</event>
<event>
 7    1  0.2811980E-010  0.4778727E+02  0.7816164E-02  0.1312668E+00
        -11   -1    0    0    0    0  0.00000000000E+00  0.00000000000E+00  0.45593999997E+02  0.45594000000E+02  0.51100000000E-03 0.  1.
         11   -1    0    0    0    0 -0.00000000000E+00 -0.00000000000E+00 -0.45593999997E+02  0.45594000000E+02  0.51100000000E-03 0. -1.
    9900012    2    1    2    0    0 -0.12509183662E+02 -0.29785388101E+02 -0.28982308028E+02  0.47787271908E+02  0.20000003939E+02 0.  0.
        -12    1    1    2    0    0  0.12509183662E+02  0.29785388101E+02  0.28982308028E+02  0.43400728092E+02  0.00000000000E+00 0.  1.
         11    1    3    3    0    0 -0.13282904730E+02 -0.17110433825E+02 -0.21009001000E+02  0.30175828523E+02  0.51100000000E-03 0. -1.
        -11    1    3    3    0    0 -0.17856550808E+01 -0.12740393345E+02 -0.53116477499E+01  0.13918325644E+02  0.51100000000E-03 0.  1.
         12    1    3    3    0    0  0.25593761485E+01  0.65439068632E-01 -0.26616592786E+01  0.36931177420E+01  0.00000000000E+00 0. -1.
</event>
<event>
 7    1  0.2811980E-010  0.4778727E+02  0.7816164E-02  0.1312668E+00
        -11   -1    0    0    0    0  0.00000000000E+00  0.00000000000E+00  0.45593999997E+02  0.45594000000E+02  0.51100000000E-03 0.  1.
         11   -1    0    0    0    0 -0.00000000000E+00 -0.00000000000E+00 -0.45593999997E+02  0.45594000000E+02  0.51100000000E-03 0. -1.
    9900012    2    1    2    0    0  0.38087090258E+02 -0.20769376519E+02 -0.12766363133E+01  0.47787271370E+02  0.20000001486E+02 0.  0.
        -12    1    1    2    0    0 -0.38087090258E+02  0.20769376519E+02  0.12766363133E+01  0.43400728630E+02  0.00000000000E+00 0.  1.
         11    1    3    3    0    0  0.18191920252E+02 -0.61895627190E+01 -0.10300931320E+01  0.19243641579E+02  0.51100000000E-03 0. -1.
        -11    1    3    3    0    0  0.54066285811E+01 -0.11651486569E+02 -0.36940137729E+01  0.13365422174E+02  0.51100000000E-03 0.  1.
        -12    1    3    3    0    0  0.14488541425E+02 -0.29283272314E+01  0.34474705916E+01  0.15178207618E+02  0.00000000000E+00 0.  1.
</event>
<event>
 7    1  0.2811980E-010  0.4778727E+02  0.7816164E-02  0.1312668E+00
        -11   -1    0    0    0    0  0.00000000000E+00  0.00000000000E+00  0.45593999997E+02  0.45594000000E+02  0.51100000000E-03 0. -1.
         11   -1    0    0    0    0 -0.00000000000E+00 -0.00000000000E+00 -0.45593999997E+02  0.45594000000E+02  0.51100000000E-03 0.  1.
    9900012    2    1    2    0    0 -0.25234022348E+02  0.34239902825E+02 -0.86311214441E+01  0.47787273200E+02  0.20000009829E+02 0.  0.
        -12    1    1    2    0    0  0.25234022348E+02 -0.34239902825E+02  0.86311214441E+01  0.43400726800E+02  0.00000000000E+00 0.  1.
         11    1    3    3    0    0 -0.50539418013E+01  0.94696331315E+01 -0.46219511358E+01  0.11686689520E+02  0.51100000000E-03 0.  1.
        -11    1    3    3    0    0 -0.22612133197E+02  0.23685571662E+02 -0.52470867671E+01  0.33163938132E+02  0.51100000000E-03 0. -1.
        -12    1    3    3    0    0  0.24320526500E+01  0.10846980325E+01  0.12379164588E+01  0.29366455478E+01  0.00000000000E+00 0.  1.
</event>
<event>
 7    1  0.2811980E-010  0.4778727E+02  0.7816164E-02  0.1312668E+00
        -11   -1    0    0    0    0  0.00000000000E+00  0.00000000000E+00  0.45593999997E+02  0.45594000000E+02  0.51100000000E-03 0.  1.
         11   -1    0    0    0    0 -0.00000000000E+00 -0.00000000000E+00 -0.45593999997E+02  0.45594000000E+02  0.51100000000E-03 0. -1.
    9900012    2    1    2    0    0 -0.12751095769E+02  0.38706576211E+02 -0.14927624134E+02  0.47787269043E+02  0.19999990877E+02 0.  0.
        -12    1    1    2    0    0  0.12751095769E+02 -0.38706576211E+02  0.14927624134E+02  0.43400730957E+02  0.00000000000E+00 0.  1.
         11    1    3    3    0    0 -0.63298106011E+01  0.16656498320E+01 -0.23463500809E+01  0.69531468108E+01  0.51100000000E-03 0. -1.
        -11    1    3    3    0    0 -0.21417142366E+01  0.43355469924E+01  0.13621050993E+01  0.50238668531E+01  0.51100000000E-03 0.  1.
         12    1    3    3    0    0 -0.42795709313E+01  0.32705379386E+02 -0.13943379153E+02  0.35810255380E+02  0.00000000000E+00 0. -1.
</event>
<event>
 7    1  0.2811980E-010  0.4778727E+02  0.7816164E-02  0.1312668E+00
        -11   -1    0    0    0    0  0.00000000000E+00  0.00000000000E+00  0.45593999997E+02  0.45594000000E+02  0.51100000000E-03 0. -1.
         11   -1    0    0    0    0 -0.00000000000E+00 -0.00000000000E+00 -0.45593999997E+02  0.45594000000E+02  0.51100000000E-03 0.  1.
    9900012    2    1    2    0    0 -0.78572633369E+01  0.26935900394E+01  0.42598486744E+02  0.47787273194E+02  0.20000009800E+02 0.  0.
        -12    1    1    2    0    0  0.78572633369E+01 -0.26935900394E+01 -0.42598486744E+02  0.43400726806E+02  0.00000000000E+00 0.  1.
         11    1    3    3    0    0  0.15408714909E+01 -0.39268043736E+01  0.23271589101E+02  0.23650812609E+02  0.51100000000E-03 0. -1.
        -11    1    3    3    0    0 -0.45313419455E+01 -0.91220115579E+00  0.30052896644E+01  0.55133417275E+01  0.51100000000E-03 0.  1.
         12    1    3    3    0    0 -0.48667928823E+01  0.75325955688E+01  0.16321607979E+02  0.18623118857E+02  0.00000000000E+00 0. -1.
</event>
<event>
 7    1  0.2811980E-010  0.4778727E+02  0.7816164E-02  0.1312668E+00
        -11   -1    0    0    0    0  0.00000000000E+00  0.00000000000E+00  0.45593999997E+02  0.45594000000E+02  0.51100000000E-03 0. -1.
         11   -1    0    0    0    0 -0.00000000000E+00 -0.00000000000E+00 -0.45593999997E+02  0.45594000000E+02  0.51100000000E-03 0.  1.
    9900012    2    1    2    0    0 -0.28155165332E+02 -0.21583801971E+02  0.25000982652E+02  0.47787274476E+02  0.20000015648E+02 0.  0.
        -12    1    1    2    0    0  0.28155165332E+02  0.21583801971E+02 -0.25000982652E+02  0.43400725524E+02  0.00000000000E+00 0.  1.
         11    1    3    3    0    0 -0.39356627635E+01 -0.47194814734E+01  0.34127668051E+01  0.70292193231E+01  0.51100000000E-03 0. -1.
        -11    1    3    3    0    0  0.15028958406E+01 -0.50156837171E+01  0.14916382391E+00  0.52381322210E+01  0.51100000000E-03 0.  1.
        -12    1    3    3    0    0 -0.25722398409E+02 -0.11848636781E+02  0.21439052023E+02  0.35519922932E+02  0.00000000000E+00 0.  1.
</event>
<event>
 7    1  0.2811980E-010  0.4778725E+02  0.7816164E-02  0.1312668E+00
        -11   -1    0    0    0    0  0.00000000000E+00  0.00000000000E+00  0.45593999997E+02  0.45594000000E+02  0.51100000000E-03 0. -1.
         11   -1    0    0    0    0 -0.00000000000E+00 -0.00000000000E+00 -0.45593999997E+02  0.45594000000E+02  0.51100000000E-03 0.  1.
    9900012    2    1    2    0    0  0.12585609960E+02  0.37903457617E+02  0.16986914474E+02  0.47787251841E+02  0.19999912445E+02 0.  0.
        -12    1    1    2    0    0 -0.12585609960E+02 -0.37903457617E+02 -0.16986914474E+02  0.43400748159E+02  0.00000000000E+00 0.  1.
         11    1    3    3    0    0  0.15858193422E+01  0.21428753242E+02  0.15307784707E+02  0.26382466931E+02  0.51100000000E-03 0. -1.
        -11    1    3    3    0    0  0.78947554935E+01  0.16369143728E+02  0.86994705710E+00  0.18194307869E+02  0.51100000000E-03 0.  1.
        -12    1    3    3    0    0  0.31050351245E+01  0.10556064710E+00  0.80918271024E+00  0.32104770413E+01  0.00000000000E+00 0.  1.
</event>
<event>
 7    1  0.2811980E-010  0.4778727E+02  0.7816164E-02  0.1312668E+00
        -11   -1    0    0    0    0  0.00000000000E+00  0.00000000000E+00  0.45593999997E+02  0.45594000000E+02  0.51100000000E-03 0. -1.
         11   -1    0    0    0    0 -0.00000000000E+00 -0.00000000000E+00 -0.45593999997E+02  0.45594000000E+02  0.51100000000E-03 0.  1.
    9900012    2    1    2    0    0  0.78511935783E+01  0.42682405144E+02 -0.44074587372E+00  0.47787271822E+02  0.20000003546E+02 0.  0.
        -12    1    1    2    0    0 -0.78511935783E+01 -0.42682405144E+02  0.44074587372E+00  0.43400728178E+02  0.00000000000E+00 0.  1.
         11    1    3    3    0    0  0.94246167418E+01  0.21112834960E+02  0.61125966843E+01  0.23915247004E+02  0.51100000000E-03 0. -1.
        -11    1    3    3    0    0 -0.39485340386E+01  0.13338648019E+02 -0.16686901920E+01  0.14010531012E+02  0.51100000000E-03 0.  1.
        -12    1    3    3    0    0  0.23751108751E+01  0.82309221654E+01 -0.48846523661E+01  0.98614938067E+01  0.00000000000E+00 0.  1.
</event>
<event>
 7    1  0.2811980E-010  0.4778727E+02  0.7816164E-02  0.1312668E+00
        -11   -1    0    0    0    0  0.00000000000E+00  0.00000000000E+00  0.45593999997E+02  0.45594000000E+02  0.51100000000E-03 0. -1.
         11   -1    0    0    0    0 -0.00000000000E+00 -0.00000000000E+00 -0.45593999997E+02  0.45594000000E+02  0.51100000000E-03 0.  1.
    9900012    2    1    2    0    0  0.87034087529E+01 -0.41045208389E+02  0.11097970385E+02  0.47787269565E+02  0.19999993256E+02 0.  0.
        -12    1    1    2    0    0 -0.87034087529E+01  0.41045208389E+02 -0.11097970385E+02  0.43400730435E+02  0.00000000000E+00 0.  1.
         11    1    3    3    0    0  0.10443074192E+02 -0.17624262897E+02  0.44681282986E+01  0.20967513252E+02  0.51100000000E-03 0. -1.
        -11    1    3    3    0    0 -0.54618264438E+01 -0.93160867106E+01  0.72182517509E-02  0.10799123671E+02  0.51100000000E-03 0.  1.
         12    1    3    3    0    0  0.37221610051E+01 -0.14104858781E+02  0.66226238350E+01  0.16020632642E+02  0.00000000000E+00 0. -1.
</event>
<event>
 7    1  0.2811980E-010  0.4778727E+02  0.7816164E-02  0.1312668E+00
        -11   -1    0    0    0    0  0.00000000000E+00  0.00000000000E+00  0.45593999997E+02  0.45594000000E+02  0.51100000000E-03 0. -1.
         11   -1    0    0    0    0 -0.00000000000E+00 -0.00000000000E+00 -0.45593999997E+02  0.45594000000E+02  0.51100000000E-03 0.  1.
    9900012    2    1    2    0    0 -0.41221005083E+02  0.95811727412E+01 -0.96256504539E+01  0.47787270999E+02  0.19999999794E+02 0.  0.
        -12    1    1    2    0    0  0.41221005083E+02 -0.95811727412E+01  0.96256504539E+01  0.43400729001E+02  0.00000000000E+00 0.  1.
         11    1    3    3    0    0 -0.89941605403E+01  0.71831831053E+01  0.87245610499E+00  0.11543579309E+02  0.51100000000E-03 0. -1.
        -11    1    3    3    0    0 -0.10755085698E+02 -0.51446193365E+01 -0.40182538069E+01  0.12581150202E+02  0.51100000000E-03 0.  1.
        -12    1    3    3    0    0 -0.21471758845E+02  0.75426089724E+01 -0.64798527520E+01  0.23662541488E+02  0.00000000000E+00 0.  1.
</event>
<event>
 7    1  0.2811980E-010  0.4778727E+02  0.7816164E-02  0.1312668E+00
        -11   -1    0    0    0    0  0.00000000000E+00  0.00000000000E+00  0.45593999997E+02  0.45594000000E+02  0.51100000000E-03 0.  1.
         11   -1    0    0    0    0 -0.00000000000E+00 -0.00000000000E+00 -0.45593999997E+02  0.45594000000E+02  0.51100000000E-03 0. -1.
    9900012    2    1    2    0    0 -0.12442917552E+02 -0.36320419091E+02 -0.20239178944E+02  0.47787269540E+02  0.19999993139E+02 0.  0.
        -12    1    1    2    0    0  0.12442917552E+02  0.36320419091E+02  0.20239178944E+02  0.43400730460E+02  0.00000000000E+00 0.  1.
         11    1    3    3    0    0 -0.36761989048E+01 -0.77971066777E+01 -0.15343516135E+01  0.87557721571E+01  0.51100000000E-03 0. -1.
        -11    1    3    3    0    0 -0.72125347441E+01 -0.30685307397E+02 -0.17902305855E+02  0.36250535205E+02  0.51100000000E-03 0.  1.
        -12    1    3    3    0    0 -0.15541839029E+01  0.21619949836E+01 -0.80252147599E+00  0.27809621775E+01  0.00000000000E+00 0.  1.
</event>
<event>
 7    1  0.2811980E-010  0.4778728E+02  0.7816164E-02  0.1312668E+00
        -11   -1    0    0    0    0  0.00000000000E+00  0.00000000000E+00  0.45593999997E+02  0.45594000000E+02  0.51100000000E-03 0. -1.
         11   -1    0    0    0    0 -0.00000000000E+00 -0.00000000000E+00 -0.45593999997E+02  0.45594000000E+02  0.51100000000E-03 0.  1.
    9900012    2    1    2    0    0 -0.56701794932E+01 -0.28854083259E+02  0.31920430293E+02  0.47787275049E+02  0.20000018257E+02 0.  0.
        -12    1    1    2    0    0  0.56701794932E+01  0.28854083259E+02 -0.31920430293E+02  0.43400724951E+02  0.00000000000E+00 0.  1.
         11    1    3    3    0    0 -0.20393461456E+01 -0.20880707159E+02  0.14541935018E+02  0.25527058948E+02  0.51100000000E-03 0. -1.
        -11    1    3    3    0    0 -0.33201505591E+01 -0.27241374630E+01  0.16346792739E+02  0.16901537142E+02  0.51100000000E-03 0.  1.
        -12    1    3    3    0    0 -0.31068278851E+00 -0.52492386371E+01  0.10317025353E+01  0.53586789590E+01  0.00000000000E+00 0.  1.
</event>
<event>
 7    1  0.2811980E-010  0.4778729E+02  0.7816164E-02  0.1312668E+00
        -11   -1    0    0    0    0  0.00000000000E+00  0.00000000000E+00  0.45593999997E+02  0.45594000000E+02  0.51100000000E-03 0. -1.
         11   -1    0    0    0    0 -0.00000000000E+00 -0.00000000000E+00 -0.45593999997E+02  0.45594000000E+02  0.51100000000E-03 0.  1.
    9900012    2    1    2    0    0  0.40980781330E+02  0.10673521266E+02  0.95012318159E+01  0.47787286864E+02  0.20000072130E+02 0.  0.
        -12    1    1    2    0    0 -0.40980781330E+02 -0.10673521266E+02 -0.95012318159E+01  0.43400713136E+02  0.00000000000E+00 0.  1.
         11    1    3    3    0    0  0.11854583623E+02  0.37431826457E+01  0.77293172141E-01  0.12431755455E+02  0.51100000000E-03 0. -1.
        -11    1    3    3    0    0  0.22287826649E+02 -0.99794083474E+00  0.17583998116E+01  0.22379344781E+02  0.51100000000E-03 0.  1.
        -12    1    3    3    0    0  0.68383710584E+01  0.79282794549E+01  0.76655388322E+01  0.12976186629E+02  0.00000000000E+00 0.  1.
</event>
<event>
 7    1  0.2811980E-010  0.4778727E+02  0.7816164E-02  0.1312668E+00
        -11   -1    0    0    0    0  0.00000000000E+00  0.00000000000E+00  0.45593999997E+02  0.45594000000E+02  0.51100000000E-03 0. -1.
         11   -1    0    0    0    0 -0.00000000000E+00 -0.00000000000E+00 -0.45593999997E+02  0.45594000000E+02  0.51100000000E-03 0.  1.
    9900012    2    1    2    0    0 -0.30132250792E+02  0.28981134897E+02  0.11651811065E+02  0.47787269375E+02  0.19999992389E+02 0.  0.
        -12    1    1    2    0    0  0.30132250792E+02 -0.28981134897E+02 -0.11651811065E+02  0.43400730625E+02  0.00000000000E+00 0.  1.
         11    1    3    3    0    0 -0.23557232144E+02  0.11236715753E+02  0.10773931986E+02  0.28236228110E+02  0.51100000000E-03 0. -1.
        -11    1    3    3    0    0 -0.47096720679E+01  0.10774599079E+02 -0.17166779379E+01  0.11883601294E+02  0.51100000000E-03 0.  1.
        -12    1    3    3    0    0 -0.18653465801E+01  0.69698200647E+01  0.25945570168E+01  0.76674399712E+01  0.00000000000E+00 0.  1.
</event>
<event>
 7    1  0.2811980E-010  0.4778728E+02  0.7816164E-02  0.1312668E+00
        -11   -1    0    0    0    0  0.00000000000E+00  0.00000000000E+00  0.45593999997E+02  0.45594000000E+02  0.51100000000E-03 0. -1.
         11   -1    0    0    0    0 -0.00000000000E+00 -0.00000000000E+00 -0.45593999997E+02  0.45594000000E+02  0.51100000000E-03 0.  1.
    9900012    2    1    2    0    0 -0.35271465409E+02 -0.70713371679E+01  0.24280490029E+02  0.47787282523E+02  0.20000052336E+02 0.  0.
        -12    1    1    2    0    0  0.35271465409E+02  0.70713371679E+01 -0.24280490029E+02  0.43400717477E+02  0.00000000000E+00 0.  1.
         11    1    3    3    0    0 -0.94199956011E+01  0.25713976027E+01  0.97408806166E+01  0.13792503696E+02  0.51100000000E-03 0. -1.
        -11    1    3    3    0    0 -0.39410782130E+01 -0.70411637479E+01  0.10590799124E+01  0.81382882063E+01  0.51100000000E-03 0.  1.
        -12    1    3    3    0    0 -0.21910391595E+02 -0.26015710226E+01  0.13480529500E+02  0.25856490621E+02  0.00000000000E+00 0.  1.
</event>
<event>
 7    1  0.2811980E-010  0.4778726E+02  0.7816164E-02  0.1312668E+00
        -11   -1    0    0    0    0  0.00000000000E+00  0.00000000000E+00  0.45593999997E+02  0.45594000000E+02  0.51100000000E-03 0.  1.
         11   -1    0    0    0    0 -0.00000000000E+00 -0.00000000000E+00 -0.45593999997E+02  0.45594000000E+02  0.51100000000E-03 0. -1.
    9900012    2    1    2    0    0 -0.12735926091E+02 -0.24822588976E+02 -0.33245441279E+02  0.47787261495E+02  0.19999956462E+02 0.  0.
        -12    1    1    2    0    0  0.12735926091E+02  0.24822588976E+02  0.33245441279E+02  0.43400738505E+02  0.00000000000E+00 0.  1.
         11    1    3    3    0    0 -0.13646179929E+02 -0.22049515402E+02 -0.25051211466E+02  0.36054993445E+02  0.51100000000E-03 0. -1.
        -11    1    3    3    0    0  0.68521306274E+00  0.22420430795E+01 -0.56225382398E+01  0.60917329744E+01  0.51100000000E-03 0.  1.
        -12    1    3    3    0    0  0.22504077518E+00 -0.50151166536E+01 -0.25716915738E+01  0.56405350765E+01  0.00000000000E+00 0.  1.
</event>
<event>
 7    1  0.2811980E-010  0.4778727E+02  0.7816164E-02  0.1312668E+00
        -11   -1    0    0    0    0  0.00000000000E+00  0.00000000000E+00  0.45593999997E+02  0.45594000000E+02  0.51100000000E-03 0. -1.
         11   -1    0    0    0    0 -0.00000000000E+00 -0.00000000000E+00 -0.45593999997E+02  0.45594000000E+02  0.51100000000E-03 0.  1.
    9900012    2    1    2    0    0 -0.16945090306E+02  0.63085288942E+01  0.39454905314E+02  0.47787272177E+02  0.20000005162E+02 0.  0.
        -12    1    1    2    0    0  0.16945090306E+02 -0.63085288942E+01 -0.39454905314E+02  0.43400727823E+02  0.00000000000E+00 0.  1.
         11    1    3    3    0    0 -0.90526637801E+00 -0.17420591049E+01 -0.10050977652E+01  0.22055609080E+01  0.51100000000E-03 0. -1.
        -11    1    3    3    0    0 -0.59903658454E+01  0.90433729079E+01  0.19433989024E+02  0.22256392479E+02  0.51100000000E-03 0.  1.
         12    1    3    3    0    0 -0.10049458082E+02 -0.99278490881E+00  0.21026014055E+02  0.23325318790E+02  0.00000000000E+00 0. -1.
</event>
<event>
 7    1  0.2811980E-010  0.4778727E+02  0.7816164E-02  0.1312668E+00
        -11   -1    0    0    0    0  0.00000000000E+00  0.00000000000E+00  0.45593999997E+02  0.45594000000E+02  0.51100000000E-03 0. -1.
         11   -1    0    0    0    0 -0.00000000000E+00 -0.00000000000E+00 -0.45593999997E+02  0.45594000000E+02  0.51100000000E-03 0.  1.
    9900012    2    1    2    0    0 -0.13346643763E+02 -0.29366017230E+02  0.29036652073E+02  0.47787273838E+02  0.20000012739E+02 0.  0.
        -12    1    1    2    0    0  0.13346643763E+02  0.29366017230E+02 -0.29036652073E+02  0.43400726162E+02  0.00000000000E+00 0.  1.
         11    1    3    3    0    0 -0.46897961476E+01 -0.13560007590E+02  0.83259547464E+01  0.16588837103E+02  0.51100000000E-03 0. -1.
        -11    1    3    3    0    0 -0.11604048280E+02 -0.10303910307E+02  0.19360470899E+02  0.24812342449E+02  0.51100000000E-03 0.  1.
        -12    1    3    3    0    0  0.29472006642E+01 -0.55020993334E+01  0.13502264281E+01  0.63860942866E+01  0.00000000000E+00 0.  1.
</event>
<event>
 7    1  0.2811980E-010  0.4778728E+02  0.7816164E-02  0.1312668E+00
        -11   -1    0    0    0    0  0.00000000000E+00  0.00000000000E+00  0.45593999997E+02  0.45594000000E+02  0.51100000000E-03 0. -1.
         11   -1    0    0    0    0 -0.00000000000E+00 -0.00000000000E+00 -0.45593999997E+02  0.45594000000E+02  0.51100000000E-03 0.  1.
    9900012    2    1    2    0    0  0.14388391119E+02 -0.32253264305E+02  0.25225464284E+02  0.47787275286E+02  0.20000019339E+02 0.  0.
        -12    1    1    2    0    0 -0.14388391119E+02  0.32253264305E+02 -0.25225464284E+02  0.43400724714E+02  0.00000000000E+00 0.  1.
         11    1    3    3    0    0  0.55839282760E+01 -0.21140055791E+02  0.10203019516E+02  0.24128485683E+02  0.51100000000E-03 0. -1.
        -11    1    3    3    0    0  0.52082659753E+01  0.11119398285E+01  0.61268369219E+01  0.81179169483E+01  0.51100000000E-03 0.  1.
        -12    1    3    3    0    0  0.35961968680E+01 -0.12225148343E+02  0.88956078467E+01  0.15540872655E+02  0.00000000000E+00 0.  1.
</event>
<event>
 7    1  0.2811980E-010  0.4778727E+02  0.7816164E-02  0.1312668E+00
        -11   -1    0    0    0    0  0.00000000000E+00  0.00000000000E+00  0.45593999997E+02  0.45594000000E+02  0.51100000000E-03 0. -1.
         11   -1    0    0    0    0 -0.00000000000E+00 -0.00000000000E+00 -0.45593999997E+02  0.45594000000E+02  0.51100000000E-03 0.  1.
    9900012    2    1    2    0    0  0.34841455346E+02  0.25716975133E+02  0.28867136444E+01  0.47787274934E+02  0.20000017734E+02 0.  0.
        -12    1    1    2    0    0 -0.34841455346E+02 -0.25716975133E+02 -0.28867136444E+01  0.43400725066E+02  0.00000000000E+00 0.  1.
         11    1    3    3    0    0  0.26845112270E+01  0.22423876200E+01  0.37745754390E+01  0.51460978199E+01  0.51100000000E-03 0. -1.
        -11    1    3    3    0    0  0.16102969318E+02  0.20202917450E+02  0.23442810835E+01  0.25941456173E+02  0.51100000000E-03 0.  1.
        -12    1    3    3    0    0  0.16053974801E+02  0.32716700632E+01 -0.32321428781E+01  0.16699720941E+02  0.00000000000E+00 0.  1.
</event>
<event>
 7    1  0.2811980E-010  0.4778727E+02  0.7816164E-02  0.1312668E+00
        -11   -1    0    0    0    0  0.00000000000E+00  0.00000000000E+00  0.45593999997E+02  0.45594000000E+02  0.51100000000E-03 0.  1.
         11   -1    0    0    0    0 -0.00000000000E+00 -0.00000000000E+00 -0.45593999997E+02  0.45594000000E+02  0.51100000000E-03 0. -1.
    9900012    2    1    2    0    0 -0.89116459238E+01 -0.90091961058E+01 -0.41509520170E+02  0.47787270602E+02  0.19999997982E+02 0.  0.
        -12    1    1    2    0    0  0.89116459238E+01  0.90091961058E+01  0.41509520170E+02  0.43400729398E+02  0.00000000000E+00 0.  1.
         11    1    3    3    0    0 -0.41601811789E+01 -0.49818733643E+01 -0.11366132654E+02  0.13088741018E+02  0.51100000000E-03 0. -1.
        -11    1    3    3    0    0  0.61071284098E+00 -0.73163455064E+01 -0.26347905700E+02  0.27351673017E+02  0.51100000000E-03 0.  1.
        -12    1    3    3    0    0 -0.53621775859E+01  0.32890227650E+01 -0.37954818159E+01  0.73468565677E+01  0.00000000000E+00 0.  1.
</event>
<event>
 7    1  0.2811980E-010  0.4778727E+02  0.7816164E-02  0.1312668E+00
        -11   -1    0    0    0    0  0.00000000000E+00  0.00000000000E+00  0.45593999997E+02  0.45594000000E+02  0.51100000000E-03 0. -1.
         11   -1    0    0    0    0 -0.00000000000E+00 -0.00000000000E+00 -0.45593999997E+02  0.45594000000E+02  0.51100000000E-03 0.  1.
    9900012    2    1    2    0    0 -0.60096381390E+01  0.26503863066E+02  0.33838627637E+02  0.47787271569E+02  0.20000002391E+02 0.  0.
        -12    1    1    2    0    0  0.60096381390E+01 -0.26503863066E+02 -0.33838627637E+02  0.43400728431E+02  0.00000000000E+00 0.  1.
         11    1    3    3    0    0 -0.73436357290E+00  0.19261877066E+02  0.17516284732E+02  0.26045718056E+02  0.51100000000E-03 0. -1.
        -11    1    3    3    0    0 -0.61219233811E+01  0.35449534983E+01  0.16491801375E+02  0.17945031459E+02  0.51100000000E-03 0.  1.
        -12    1    3    3    0    0  0.84664881495E+00  0.36970325024E+01 -0.16945847049E+00  0.37965220549E+01  0.00000000000E+00 0.  1.
</event>
<event>
 7    1  0.2811980E-010  0.4778727E+02  0.7816164E-02  0.1312668E+00
        -11   -1    0    0    0    0  0.00000000000E+00  0.00000000000E+00  0.45593999997E+02  0.45594000000E+02  0.51100000000E-03 0. -1.
         11   -1    0    0    0    0 -0.00000000000E+00 -0.00000000000E+00 -0.45593999997E+02  0.45594000000E+02  0.51100000000E-03 0.  1.
    9900012    2    1    2    0    0 -0.66824090678E+01  0.31945199719E+02  0.28608967365E+02  0.47787269710E+02  0.19999993915E+02 0.  0.
        -12    1    1    2    0    0  0.66824090678E+01 -0.31945199719E+02 -0.28608967365E+02  0.43400730290E+02  0.00000000000E+00 0.  1.
         11    1    3    3    0    0  0.35835556983E-01  0.18388183920E+02  0.18163790317E+02  0.25846660732E+02  0.51100000000E-03 0. -1.
        -11    1    3    3    0    0  0.65231995834E+00  0.44001111137E+01 -0.19510452417E+01  0.48572705233E+01  0.51100000000E-03 0.  1.
        -12    1    3    3    0    0 -0.73705645831E+01  0.91569046854E+01  0.12396222290E+02  0.17083338454E+02  0.00000000000E+00 0.  1.
</event>
<event>
 7    1  0.2811980E-010  0.4778727E+02  0.7816164E-02  0.1312668E+00
        -11   -1    0    0    0    0  0.00000000000E+00  0.00000000000E+00  0.45593999997E+02  0.45594000000E+02  0.51100000000E-03 0.  1.
         11   -1    0    0    0    0 -0.00000000000E+00 -0.00000000000E+00 -0.45593999997E+02  0.45594000000E+02  0.51100000000E-03 0. -1.
    9900012    2    1    2    0    0 -0.34061113470E+02  0.26814308472E+02 -0.21110932714E+01  0.47787270692E+02  0.19999998392E+02 0.  0.
        -12    1    1    2    0    0  0.34061113470E+02 -0.26814308472E+02  0.21110932714E+01  0.43400729308E+02  0.00000000000E+00 0.  1.
         11    1    3    3    0    0 -0.15204598347E+02  0.50982999072E+01 -0.61841301918E+01  0.17187668234E+02  0.51100000000E-03 0. -1.
        -11    1    3    3    0    0 -0.14864548171E+02  0.12955351520E+02  0.63341831190E+01  0.20710330789E+02  0.51100000000E-03 0.  1.
         12    1    3    3    0    0 -0.39919669522E+01  0.87606570454E+01 -0.22611461986E+01  0.98892716691E+01  0.00000000000E+00 0. -1.
</event>
<event>
 7    1  0.2811980E-010  0.4778722E+02  0.7816164E-02  0.1312668E+00
        -11   -1    0    0    0    0  0.00000000000E+00  0.00000000000E+00  0.45593999997E+02  0.45594000000E+02  0.51100000000E-03 0. -1.
         11   -1    0    0    0    0 -0.00000000000E+00 -0.00000000000E+00 -0.45593999997E+02  0.45594000000E+02  0.51100000000E-03 0.  1.
    9900012    2    1    2    0    0  0.41087259467E+02 -0.13886936803E+02 -0.16179330647E+01  0.47787221071E+02  0.19999772148E+02 0.  0.
        -12    1    1    2    0    0 -0.41087259467E+02  0.13886936803E+02  0.16179330647E+01  0.43400778929E+02  0.00000000000E+00 0.  1.
         11    1    3    3    0    0  0.95129182099E+01 -0.53573666570E+01 -0.29525726527E+01  0.11309937042E+02  0.51100000000E-03 0. -1.
        -11    1    3    3    0    0  0.11883672994E+02 -0.70974706768E+00 -0.68846323584E+01  0.13752221191E+02  0.51100000000E-03 0.  1.
        -12    1    3    3    0    0  0.19690668263E+02 -0.78198230783E+01  0.82192719464E+01  0.22725062837E+02  0.00000000000E+00 0.  1.
</event>
<event>
 7    1  0.2811980E-010  0.4778727E+02  0.7816164E-02  0.1312668E+00
        -11   -1    0    0    0    0  0.00000000000E+00  0.00000000000E+00  0.45593999997E+02  0.45594000000E+02  0.51100000000E-03 0. -1.
         11   -1    0    0    0    0 -0.00000000000E+00 -0.00000000000E+00 -0.45593999997E+02  0.45594000000E+02  0.51100000000E-03 0.  1.
    9900012    2    1    2    0    0  0.19755940273E+02  0.75271918738E+01  0.37903395235E+02  0.47787272311E+02  0.20000005777E+02 0.  0.
        -12    1    1    2    0    0 -0.19755940273E+02 -0.75271918738E+01 -0.37903395235E+02  0.43400727689E+02  0.00000000000E+00 0.  1.
         11    1    3    3    0    0  0.44727632077E+01 -0.58041800317E+01  0.82216872730E+01  0.11013185662E+02  0.51100000000E-03 0. -1.
        -11    1    3    3    0    0  0.15401585440E+02  0.13907486820E+02  0.27135499543E+02  0.34160830778E+02  0.51100000000E-03 0.  1.
        -12    1    3    3    0    0 -0.11840837507E+00 -0.57611491453E+00  0.25462084189E+01  0.26132558716E+01  0.00000000000E+00 0.  1.
</event>
<event>
 7    1  0.2811980E-010  0.4778727E+02  0.7816164E-02  0.1312668E+00
        -11   -1    0    0    0    0  0.00000000000E+00  0.00000000000E+00  0.45593999997E+02  0.45594000000E+02  0.51100000000E-03 0. -1.
         11   -1    0    0    0    0 -0.00000000000E+00 -0.00000000000E+00 -0.45593999997E+02  0.45594000000E+02  0.51100000000E-03 0.  1.
    9900012    2    1    2    0    0  0.27646500104E+02 -0.24187577554E+02 -0.23113967616E+02  0.47787269881E+02  0.19999994695E+02 0.  0.
        -12    1    1    2    0    0 -0.27646500104E+02  0.24187577554E+02  0.23113967616E+02  0.43400730119E+02  0.00000000000E+00 0.  1.
         11    1    3    3    0    0  0.11130879189E+02 -0.16893182485E+02 -0.79645453052E+01  0.21741896609E+02  0.51100000000E-03 0. -1.
        -11    1    3    3    0    0  0.20968449339E+01  0.19919245985E+00 -0.80349136208E+01  0.83063995491E+01  0.51100000000E-03 0.  1.
         12    1    3    3    0    0  0.14418775981E+02 -0.74935875292E+01 -0.71145086899E+01  0.17738973723E+02  0.00000000000E+00 0. -1.
</event>
<event>
 7    1  0.2811980E-010  0.4778727E+02  0.7816164E-02  0.1312668E+00
        -11   -1    0    0    0    0  0.00000000000E+00  0.00000000000E+00  0.45593999997E+02  0.45594000000E+02  0.51100000000E-03 0.  1.
         11   -1    0    0    0    0 -0.00000000000E+00 -0.00000000000E+00 -0.45593999997E+02  0.45594000000E+02  0.51100000000E-03 0. -1.
    9900012    2    1    2    0    0 -0.68994252103E+01  0.41319752601E+02  0.11344572408E+02  0.47787270209E+02  0.19999996191E+02 0.  0.
        -12    1    1    2    0    0  0.68994252103E+01 -0.41319752601E+02 -0.11344572408E+02  0.43400729791E+02  0.00000000000E+00 0.  1.
         11    1    3    3    0    0  0.12928831049E+01  0.13200520098E+00  0.29983294378E+01  0.32678665478E+01  0.51100000000E-03 0.  1.
        -11    1    3    3    0    0 -0.93066615136E+01  0.30178379579E+02  0.10431428228E+02  0.33259032422E+02  0.51100000000E-03 0. -1.
        -12    1    3    3    0    0  0.11143531983E+01  0.11009367821E+02 -0.20851852574E+01  0.11260371239E+02  0.00000000000E+00 0.  1.
</event>
<event>
 7    1  0.2811980E-010  0.4778727E+02  0.7816164E-02  0.1312668E+00
        -11   -1    0    0    0    0  0.00000000000E+00  0.00000000000E+00  0.45593999997E+02  0.45594000000E+02  0.51100000000E-03 0. -1.
         11   -1    0    0    0    0 -0.00000000000E+00 -0.00000000000E+00 -0.45593999997E+02  0.45594000000E+02  0.51100000000E-03 0.  1.
    9900012    2    1    2    0    0 -0.34834021116E+02 -0.22676015570E+02  0.12490492630E+02  0.47787272871E+02  0.20000008326E+02 0.  0.
        -12    1    1    2    0    0  0.34834021116E+02  0.22676015570E+02 -0.12490492630E+02  0.43400727129E+02  0.00000000000E+00 0.  1.
         11    1    3    3    0    0 -0.55078557017E+01 -0.30094953847E+01  0.25456583436E+01  0.67730283895E+01  0.51100000000E-03 0. -1.
        -11    1    3    3    0    0  0.14104629780E+01 -0.57606151050E+01  0.26637502384E+01  0.65015119622E+01  0.51100000000E-03 0.  1.
        -12    1    3    3    0    0 -0.30736628392E+02 -0.13905905080E+02  0.72810840478E+01  0.34512732519E+02  0.00000000000E+00 0.  1.
</event>
<event>
 7    1  0.2811980E-010  0.4778727E+02  0.7816164E-02  0.1312668E+00
        -11   -1    0    0    0    0  0.00000000000E+00  0.00000000000E+00  0.45593999997E+02  0.45594000000E+02  0.51100000000E-03 0.  1.
         11   -1    0    0    0    0 -0.00000000000E+00 -0.00000000000E+00 -0.45593999997E+02  0.45594000000E+02  0.51100000000E-03 0. -1.
    9900012    2    1    2    0    0 -0.57119119095E+00 -0.28258596632E+02 -0.32935521535E+02  0.47787272797E+02  0.20000007989E+02 0.  0.
        -12    1    1    2    0    0  0.57119119095E+00  0.28258596632E+02  0.32935521535E+02  0.43400727203E+02  0.00000000000E+00 0.  1.
         11    1    3    3    0    0 -0.79034282718E+01 -0.76546565905E+01 -0.10924197437E+02  0.15504710119E+02  0.51100000000E-03 0. -1.
        -11    1    3    3    0    0  0.75140589240E+01 -0.78847552064E+01 -0.99102915022E+01  0.14725634930E+02  0.51100000000E-03 0.  1.
         12    1    3    3    0    0 -0.18182184314E+00 -0.12719184835E+02 -0.12101032596E+02  0.17556927747E+02  0.00000000000E+00 0. -1.
</event>
<event>
 7    1  0.2811980E-010  0.4778727E+02  0.7816164E-02  0.1312668E+00
        -11   -1    0    0    0    0  0.00000000000E+00  0.00000000000E+00  0.45593999997E+02  0.45594000000E+02  0.51100000000E-03 0.  1.
         11   -1    0    0    0    0 -0.00000000000E+00 -0.00000000000E+00 -0.45593999997E+02  0.45594000000E+02  0.51100000000E-03 0. -1.
    9900012    2    1    2    0    0 -0.89182807331E+01  0.28329042066E+02 -0.31647319840E+02  0.47787271796E+02  0.20000003428E+02 0.  0.
        -12    1    1    2    0    0  0.89182807331E+01 -0.28329042066E+02  0.31647319840E+02  0.43400728204E+02  0.00000000000E+00 0.  1.
         11    1    3    3    0    0 -0.70842077187E+01  0.88413569627E+01 -0.13324570487E+02  0.17489990591E+02  0.51100000000E-03 0. -1.
        -11    1    3    3    0    0  0.35821628835E+01 -0.12097648364E-01 -0.46658671063E+01  0.58823765088E+01  0.51100000000E-03 0.  1.
        -12    1    3    3    0    0 -0.54162358979E+01  0.19499782751E+02 -0.13656882246E+02  0.24414904696E+02  0.00000000000E+00 0.  1.
</event>
<event>
 7    1  0.2811980E-010  0.4778726E+02  0.7816164E-02  0.1312668E+00
        -11   -1    0    0    0    0  0.00000000000E+00  0.00000000000E+00  0.45593999997E+02  0.45594000000E+02  0.51100000000E-03 0.  1.
         11   -1    0    0    0    0 -0.00000000000E+00 -0.00000000000E+00 -0.45593999997E+02  0.45594000000E+02  0.51100000000E-03 0. -1.
    9900012    2    1    2    0    0 -0.43769079784E+01 -0.28398243530E+02 -0.32527016160E+02  0.47787258770E+02  0.19999944036E+02 0.  0.
        -12    1    1    2    0    0  0.43769079784E+01  0.28398243530E+02  0.32527016160E+02  0.43400741230E+02  0.00000000000E+00 0.  1.
         11    1    3    3    0    0  0.86662142385E+00 -0.55604960629E+01 -0.16574826104E+02  0.17504142647E+02  0.51100000000E-03 0.  1.
        -11    1    3    3    0    0 -0.15618843594E+01 -0.89996690080E+01 -0.12623934358E+02  0.15581952508E+02  0.51100000000E-03 0. -1.
         12    1    3    3    0    0 -0.36816450429E+01 -0.13838078459E+02 -0.33282556978E+01  0.14701163616E+02  0.00000000000E+00 0. -1.
</event>
<event>
 7    1  0.2811980E-010  0.4778727E+02  0.7816164E-02  0.1312668E+00
        -11   -1    0    0    0    0  0.00000000000E+00  0.00000000000E+00  0.45593999997E+02  0.45594000000E+02  0.51100000000E-03 0. -1.
         11   -1    0    0    0    0 -0.00000000000E+00 -0.00000000000E+00 -0.45593999997E+02  0.45594000000E+02  0.51100000000E-03 0.  1.
    9900012    2    1    2    0    0  0.13527442354E+01 -0.39419109360E+02  0.18108759475E+02  0.47787271096E+02  0.20000000234E+02 0.  0.
        -12    1    1    2    0    0 -0.13527442354E+01  0.39419109360E+02 -0.18108759475E+02  0.43400728904E+02  0.00000000000E+00 0.  1.
         11    1    3    3    0    0 -0.12828550253E+01 -0.36948160941E+02  0.13636605843E+02  0.39405194240E+02  0.51100000000E-03 0. -1.
        -11    1    3    3    0    0 -0.13027643666E+00  0.14676778853E+01  0.30113198739E+01  0.33524763935E+01  0.51100000000E-03 0.  1.
        -12    1    3    3    0    0  0.27658756974E+01 -0.39386263047E+01  0.14608337573E+01  0.50296004621E+01  0.00000000000E+00 0.  1.
</event>
<event>
 7    1  0.2811980E-010  0.4778727E+02  0.7816164E-02  0.1312668E+00
        -11   -1    0    0    0    0  0.00000000000E+00  0.00000000000E+00  0.45593999997E+02  0.45594000000E+02  0.51100000000E-03 0. -1.
         11   -1    0    0    0    0 -0.00000000000E+00 -0.00000000000E+00 -0.45593999997E+02  0.45594000000E+02  0.51100000000E-03 0.  1.
    9900012    2    1    2    0    0 -0.41287244522E+02 -0.12009676978E+02  0.58952664067E+01  0.47787273423E+02  0.20000010847E+02 0.  0.
        -12    1    1    2    0    0  0.41287244522E+02  0.12009676978E+02 -0.58952664067E+01  0.43400726577E+02  0.00000000000E+00 0.  1.
         11    1    3    3    0    0 -0.41623652178E+02 -0.12679658601E+02  0.50519056864E+01  0.43804382363E+02  0.51100000000E-03 0. -1.
        -11    1    3    3    0    0  0.19319210138E+01  0.11256276041E+00 -0.27738113558E+00  0.19549756352E+01  0.51100000000E-03 0.  1.
         12    1    3    3    0    0 -0.15955133580E+01  0.55741886256E+00  0.11207418559E+01  0.20279154251E+01  0.00000000000E+00 0. -1.
</event>
<event>
 7    1  0.2811980E-010  0.4778727E+02  0.7816164E-02  0.1312668E+00
        -11   -1    0    0    0    0  0.00000000000E+00  0.00000000000E+00  0.45593999997E+02  0.45594000000E+02  0.51100000000E-03 0. -1.
         11   -1    0    0    0    0 -0.00000000000E+00 -0.00000000000E+00 -0.45593999997E+02  0.45594000000E+02  0.51100000000E-03 0.  1.
    9900012    2    1    2    0    0 -0.42102057963E+02 -0.10388072684E+02 -0.17685835461E+01  0.47787271590E+02  0.20000002485E+02 0.  0.
        -12    1    1    2    0    0  0.42102057963E+02  0.10388072684E+02  0.17685835461E+01  0.43400728410E+02  0.00000000000E+00 0.  1.
         11    1    3    3    0    0 -0.33340412573E+02 -0.49997293415E+00  0.14326009543E+01  0.33374922160E+02  0.51100000000E-03 0. -1.
        -11    1    3    3    0    0 -0.58602172323E+01 -0.78782041478E+01 -0.26695832845E+00  0.98223985673E+01  0.51100000000E-03 0.  1.
         12    1    3    3    0    0 -0.29014281579E+01 -0.20098956021E+01 -0.29342261719E+01  0.45899508619E+01  0.00000000000E+00 0. -1.
</event>
<event>
 7    1  0.2811980E-010  0.4778727E+02  0.7816164E-02  0.1312668E+00
        -11   -1    0    0    0    0  0.00000000000E+00  0.00000000000E+00  0.45593999997E+02  0.45594000000E+02  0.51100000000E-03 0.  1.
         11   -1    0    0    0    0 -0.00000000000E+00 -0.00000000000E+00 -0.45593999997E+02  0.45594000000E+02  0.51100000000E-03 0. -1.
    9900012    2    1    2    0    0 -0.12295227767E+02 -0.35327572176E+02  0.22009394303E+02  0.47787269370E+02  0.19999992365E+02 0.  0.
        -12    1    1    2    0    0  0.12295227767E+02  0.35327572176E+02 -0.22009394303E+02  0.43400730630E+02  0.00000000000E+00 0.  1.
         11    1    3    3    0    0 -0.15860923504E+02 -0.17467987664E+02  0.14568341871E+02  0.27729696583E+02  0.51100000000E-03 0. -1.
        -11    1    3    3    0    0  0.35296011994E+01 -0.77452442470E+01  0.33470501294E+01  0.91460175980E+01  0.51100000000E-03 0.  1.
         12    1    3    3    0    0  0.36094537824E-01 -0.10114340264E+02  0.40940023024E+01  0.10911555189E+02  0.00000000000E+00 0. -1.
</event>
<event>
 7    1  0.2811980E-010  0.4778727E+02  0.7816164E-02  0.1312668E+00
        -11   -1    0    0    0    0  0.00000000000E+00  0.00000000000E+00  0.45593999997E+02  0.45594000000E+02  0.51100000000E-03 0.  1.
         11   -1    0    0    0    0 -0.00000000000E+00 -0.00000000000E+00 -0.45593999997E+02  0.45594000000E+02  0.51100000000E-03 0. -1.
    9900012    2    1    2    0    0 -0.15921069481E+02  0.36721262075E+02 -0.16783667884E+02  0.47787273630E+02  0.20000011787E+02 0.  0.
        -12    1    1    2    0    0  0.15921069481E+02 -0.36721262075E+02  0.16783667884E+02  0.43400726370E+02  0.00000000000E+00 0.  1.
         11    1    3    3    0    0 -0.87412770141E+01  0.14087585020E+02 -0.15623422002E+02  0.22780721912E+02  0.51100000000E-03 0. -1.
        -11    1    3    3    0    0 -0.58533569537E+01  0.22781465438E+02 -0.52213852531E+00  0.23527209440E+02  0.51100000000E-03 0.  1.
         12    1    3    3    0    0 -0.13264355130E+01 -0.14778838236E+00 -0.63810735758E+00  0.14793422781E+01  0.00000000000E+00 0. -1.
</event>
<event>
 7    1  0.2811980E-010  0.4778727E+02  0.7816164E-02  0.1312668E+00
        -11   -1    0    0    0    0  0.00000000000E+00  0.00000000000E+00  0.45593999997E+02  0.45594000000E+02  0.51100000000E-03 0.  1.
         11   -1    0    0    0    0 -0.00000000000E+00 -0.00000000000E+00 -0.45593999997E+02  0.45594000000E+02  0.51100000000E-03 0. -1.
    9900012    2    1    2    0    0  0.19939930347E+02 -0.16203147686E+02 -0.34978281801E+02  0.47787274028E+02  0.20000013601E+02 0.  0.
        -12    1    1    2    0    0 -0.19939930347E+02  0.16203147686E+02  0.34978281801E+02  0.43400725972E+02  0.00000000000E+00 0.  1.
         11    1    3    3    0    0  0.78142594504E+01 -0.15454557996E+02 -0.20482736633E+02  0.26822537424E+02  0.51100000000E-03 0. -1.
        -11    1    3    3    0    0  0.88014368754E-01 -0.71487722814E+00 -0.64403954059E+01  0.64805469851E+01  0.51100000000E-03 0.  1.
         12    1    3    3    0    0  0.12037656528E+02 -0.33712461432E-01 -0.80551497618E+01  0.14484189618E+02  0.00000000000E+00 0. -1.
</event>
<event>
 7    1  0.2811980E-010  0.4778728E+02  0.7816164E-02  0.1312668E+00
        -11   -1    0    0    0    0  0.00000000000E+00  0.00000000000E+00  0.45593999997E+02  0.45594000000E+02  0.51100000000E-03 0.  1.
         11   -1    0    0    0    0 -0.00000000000E+00 -0.00000000000E+00 -0.45593999997E+02  0.45594000000E+02  0.51100000000E-03 0. -1.
    9900012    2    1    2    0    0 -0.23925847599E+02 -0.24833086900E+02 -0.26353257758E+02  0.47787279006E+02  0.20000036301E+02 0.  0.
        -12    1    1    2    0    0  0.23925847599E+02  0.24833086900E+02  0.26353257758E+02  0.43400720994E+02  0.00000000000E+00 0.  1.
         11    1    3    3    0    0 -0.19651568724E+02 -0.11700926373E+02 -0.82902398538E+01  0.24327431192E+02  0.51100000000E-03 0. -1.
        -11    1    3    3    0    0 -0.31869185025E+01 -0.13455693532E+02 -0.16492139389E+02  0.21522146730E+02  0.51100000000E-03 0.  1.
         12    1    3    3    0    0 -0.10873603724E+01  0.32353300477E+00 -0.15708785146E+01  0.19377010843E+01  0.00000000000E+00 0. -1.
</event>
<event>
 7    1  0.2811980E-010  0.4778727E+02  0.7816164E-02  0.1312668E+00
        -11   -1    0    0    0    0  0.00000000000E+00  0.00000000000E+00  0.45593999997E+02  0.45594000000E+02  0.51100000000E-03 0.  1.
         11   -1    0    0    0    0 -0.00000000000E+00 -0.00000000000E+00 -0.45593999997E+02  0.45594000000E+02  0.51100000000E-03 0. -1.
    9900012    2    1    2    0    0 -0.32038206836E+01  0.17432036880E+01 -0.43247194766E+02  0.47787273264E+02  0.20000010119E+02 0.  0.
        -12    1    1    2    0    0  0.32038206836E+01 -0.17432036880E+01  0.43247194766E+02  0.43400726736E+02  0.00000000000E+00 0.  1.
         11    1    3    3    0    0 -0.29636918146E+01  0.79271784416E+01 -0.29851423109E+02  0.31027908230E+02  0.51100000000E-03 0. -1.
        -11    1    3    3    0    0 -0.13380933030E+01 -0.74113302152E+01 -0.74641543842E+01  0.10603391447E+02  0.51100000000E-03 0.  1.
        -12    1    3    3    0    0  0.10979644341E+01  0.12273554616E+01 -0.59316172728E+01  0.61559735865E+01  0.00000000000E+00 0.  1.
</event>
<event>
 7    1  0.2811980E-010  0.4778727E+02  0.7816164E-02  0.1312668E+00
        -11   -1    0    0    0    0  0.00000000000E+00  0.00000000000E+00  0.45593999997E+02  0.45594000000E+02  0.51100000000E-03 0. -1.
         11   -1    0    0    0    0 -0.00000000000E+00 -0.00000000000E+00 -0.45593999997E+02  0.45594000000E+02  0.51100000000E-03 0.  1.
    9900012    2    1    2    0    0 -0.30924574253E+02  0.86320801923E+01  0.29202426199E+02  0.47787265017E+02  0.19999972520E+02 0.  0.
        -12    1    1    2    0    0  0.30924574253E+02 -0.86320801923E+01 -0.29202426199E+02  0.43400734983E+02  0.00000000000E+00 0.  1.
         11    1    3    3    0    0 -0.12051230788E+02  0.64263840306E+01  0.18951506145E+01  0.13788479660E+02  0.51100000000E-03 0. -1.
        -11    1    3    3    0    0 -0.63716196025E+01 -0.82551521517E+00  0.46033913484E+01  0.79038107200E+01  0.51100000000E-03 0.  1.
         12    1    3    3    0    0 -0.12501723862E+02  0.30312113768E+01  0.22703884236E+02  0.26094974637E+02  0.00000000000E+00 0. -1.
</event>
<event>
 7    1  0.2811980E-010  0.4778727E+02  0.7816164E-02  0.1312668E+00
        -11   -1    0    0    0    0  0.00000000000E+00  0.00000000000E+00  0.45593999997E+02  0.45594000000E+02  0.51100000000E-03 0. -1.
         11   -1    0    0    0    0 -0.00000000000E+00 -0.00000000000E+00 -0.45593999997E+02  0.45594000000E+02  0.51100000000E-03 0.  1.
    9900012    2    1    2    0    0 -0.42039875244E+01 -0.19610602714E+02  0.38488621415E+02  0.47787271569E+02  0.20000002390E+02 0.  0.
        -12    1    1    2    0    0  0.42039875244E+01  0.19610602714E+02 -0.38488621415E+02  0.43400728431E+02  0.00000000000E+00 0.  1.
         11    1    3    3    0    0 -0.39870230542E+01  0.28607845770E-01  0.14156150424E+02  0.14706929194E+02  0.51100000000E-03 0. -1.
        -11    1    3    3    0    0  0.43515151023E+01 -0.58038015457E+01  0.11851983648E+02  0.13895658053E+02  0.51100000000E-03 0.  1.
         12    1    3    3    0    0 -0.45684795724E+01 -0.13835409014E+02  0.12480487344E+02  0.19184684322E+02  0.00000000000E+00 0. -1.
</event>
<event>
 7    1  0.2811980E-010  0.4778727E+02  0.7816164E-02  0.1312668E+00
        -11   -1    0    0    0    0  0.00000000000E+00  0.00000000000E+00  0.45593999997E+02  0.45594000000E+02  0.51100000000E-03 0.  1.
         11   -1    0    0    0    0 -0.00000000000E+00 -0.00000000000E+00 -0.45593999997E+02  0.45594000000E+02  0.51100000000E-03 0. -1.
    9900012    2    1    2    0    0  0.56818730705E+01 -0.29123967855E+02 -0.31672290636E+02  0.47787272133E+02  0.20000004963E+02 0.  0.
        -12    1    1    2    0    0 -0.56818730705E+01  0.29123967855E+02  0.31672290636E+02  0.43400727867E+02  0.00000000000E+00 0.  1.
         11    1    3    3    0    0 -0.14507614308E+01 -0.18802577843E+02 -0.10070485511E+02  0.21378875577E+02  0.51100000000E-03 0. -1.
        -11    1    3    3    0    0  0.47655735416E+01 -0.23123061041E+00 -0.57885472538E+01  0.75014290869E+01  0.51100000000E-03 0.  1.
        -12    1    3    3    0    0  0.23670609597E+01 -0.10090159402E+02 -0.15813257871E+02  0.18906967469E+02  0.00000000000E+00 0.  1.
</event>
<event>
 7    1  0.2811980E-010  0.4778727E+02  0.7816164E-02  0.1312668E+00
        -11   -1    0    0    0    0  0.00000000000E+00  0.00000000000E+00  0.45593999997E+02  0.45594000000E+02  0.51100000000E-03 0.  1.
         11   -1    0    0    0    0 -0.00000000000E+00 -0.00000000000E+00 -0.45593999997E+02  0.45594000000E+02  0.51100000000E-03 0. -1.
    9900012    2    1    2    0    0  0.24442046598E+02 -0.87131995677E+01 -0.34789221008E+02  0.47787269742E+02  0.19999994063E+02 0.  0.
        -12    1    1    2    0    0 -0.24442046598E+02  0.87131995677E+01  0.34789221008E+02  0.43400730258E+02  0.00000000000E+00 0.  1.
         11    1    3    3    0    0  0.22475114176E+01 -0.93669846696E+00 -0.11514135200E+01  0.26934113955E+01  0.51100000000E-03 0. -1.
        -11    1    3    3    0    0  0.54830775011E+01 -0.11562582149E+02 -0.16223983610E+02  0.20663375554E+02  0.51100000000E-03 0.  1.
        -12    1    3    3    0    0  0.16711457679E+02  0.37860810482E+01 -0.17413823877E+02  0.24430482793E+02  0.00000000000E+00 0.  1.
</event>
<event>
 7    1  0.2811980E-010  0.4778727E+02  0.7816164E-02  0.1312668E+00
        -11   -1    0    0    0    0  0.00000000000E+00  0.00000000000E+00  0.45593999997E+02  0.45594000000E+02  0.51100000000E-03 0.  1.
         11   -1    0    0    0    0 -0.00000000000E+00 -0.00000000000E+00 -0.45593999997E+02  0.45594000000E+02  0.51100000000E-03 0. -1.
    9900012    2    1    2    0    0  0.88893525576E+00  0.13772767322E+02 -0.41147828314E+02  0.47787273041E+02  0.20000009104E+02 0.  0.
        -12    1    1    2    0    0 -0.88893525576E+00 -0.13772767322E+02  0.41147828314E+02  0.43400726959E+02  0.00000000000E+00 0.  1.
         11    1    3    3    0    0  0.45312556712E+01  0.90587913804E+01 -0.13479330721E+02  0.16860792869E+02  0.51100000000E-03 0. -1.
        -11    1    3    3    0    0 -0.65699903446E+01  0.54930890719E+01 -0.26191588317E+02  0.27556090062E+02  0.51100000000E-03 0.  1.
        -12    1    3    3    0    0  0.29276699291E+01 -0.77911313000E+00 -0.14769092759E+01  0.33703901099E+01  0.00000000000E+00 0.  1.
</event>
<event>
 7    1  0.2811980E-010  0.4778727E+02  0.7816164E-02  0.1312668E+00
        -11   -1    0    0    0    0  0.00000000000E+00  0.00000000000E+00  0.45593999997E+02  0.45594000000E+02  0.51100000000E-03 0. -1.
         11   -1    0    0    0    0 -0.00000000000E+00 -0.00000000000E+00 -0.45593999997E+02  0.45594000000E+02  0.51100000000E-03 0.  1.
    9900012    2    1    2    0    0 -0.36848239468E+02  0.21504720980E+02 -0.79609877145E+01  0.47787273028E+02  0.20000009042E+02 0.  0.
        -12    1    1    2    0    0  0.36848239468E+02 -0.21504720980E+02  0.79609877145E+01  0.43400726972E+02  0.00000000000E+00 0.  1.
         11    1    3    3    0    0 -0.32818997387E+02  0.17023734220E+02 -0.14933187263E+01  0.37001677224E+02  0.51100000000E-03 0. -1.
        -11    1    3    3    0    0 -0.26321137643E+01  0.56294481878E+01 -0.64782480849E+01  0.89769932760E+01  0.51100000000E-03 0.  1.
         12    1    3    3    0    0 -0.13971283171E+01 -0.11484614281E+01  0.10579096758E-01  0.18086025278E+01  0.00000000000E+00 0. -1.
</event>
<event>
 7    1  0.2811980E-010  0.4778727E+02  0.7816164E-02  0.1312668E+00
        -11   -1    0    0    0    0  0.00000000000E+00  0.00000000000E+00  0.45593999997E+02  0.45594000000E+02  0.51100000000E-03 0.  1.
         11   -1    0    0    0    0 -0.00000000000E+00 -0.00000000000E+00 -0.45593999997E+02  0.45594000000E+02  0.51100000000E-03 0. -1.
    9900012    2    1    2    0    0 -0.37254287589E+02  0.99241804279E+01 -0.19931184801E+02  0.47787269263E+02  0.19999991879E+02 0.  0.
        -12    1    1    2    0    0  0.37254287589E+02 -0.99241804279E+01  0.19931184801E+02  0.43400730737E+02  0.00000000000E+00 0.  1.
         11    1    3    3    0    0 -0.16963089355E+02  0.75500267943E+01 -0.17148179679E+02  0.25274678467E+02  0.51100000000E-03 0. -1.
        -11    1    3    3    0    0 -0.14320549574E+02 -0.24365581634E+01 -0.30386337244E+01  0.14840763152E+02  0.51100000000E-03 0.  1.
         12    1    3    3    0    0 -0.59706486599E+01  0.48107117970E+01  0.25562860198E+00  0.76718276438E+01  0.00000000000E+00 0. -1.
</event>
<event>
 7    1  0.2811980E-010  0.4778727E+02  0.7816164E-02  0.1312668E+00
        -11   -1    0    0    0    0  0.00000000000E+00  0.00000000000E+00  0.45593999997E+02  0.45594000000E+02  0.51100000000E-03 0.  1.
         11   -1    0    0    0    0 -0.00000000000E+00 -0.00000000000E+00 -0.45593999997E+02  0.45594000000E+02  0.51100000000E-03 0. -1.
    9900012    2    1    2    0    0 -0.64249953547E+01 -0.72056735394E+01 -0.42313368182E+02  0.47787269322E+02  0.19999992146E+02 0.  0.
        -12    1    1    2    0    0  0.64249953547E+01  0.72056735394E+01  0.42313368182E+02  0.43400730678E+02  0.00000000000E+00 0.  1.
         11    1    3    3    0    0 -0.34176772463E+01 -0.13000079434E+02 -0.35397079677E+02  0.37863383803E+02  0.51100000000E-03 0. -1.
        -11    1    3    3    0    0 -0.30123594626E+01  0.41378915387E+01 -0.37316063028E+01  0.63341409661E+01  0.51100000000E-03 0.  1.
         12    1    3    3    0    0  0.50413542538E-02  0.16565143557E+01 -0.31846822022E+01  0.35897445529E+01  0.00000000000E+00 0. -1.
</event>
<event>
 7    1  0.2811980E-010  0.4778729E+02  0.7816164E-02  0.1312668E+00
        -11   -1    0    0    0    0  0.00000000000E+00  0.00000000000E+00  0.45593999997E+02  0.45594000000E+02  0.51100000000E-03 0.  1.
         11   -1    0    0    0    0 -0.00000000000E+00 -0.00000000000E+00 -0.45593999997E+02  0.45594000000E+02  0.51100000000E-03 0. -1.
    9900012    2    1    2    0    0  0.27654831572E+02  0.93145938474E+01 -0.32125846203E+02  0.47787293069E+02  0.20000100419E+02 0.  0.
        -12    1    1    2    0    0 -0.27654831572E+02 -0.93145938474E+01  0.32125846203E+02  0.43400706931E+02  0.00000000000E+00 0.  1.
         11    1    3    3    0    0  0.15643693519E+02 -0.64966847318E+00 -0.19342695830E+02  0.24885479668E+02  0.51100000000E-03 0. -1.
        -11    1    3    3    0    0 -0.14469656556E+01  0.75364458694E+00  0.66713797352E+00  0.17626012336E+01  0.51100000000E-03 0.  1.
         12    1    3    3    0    0  0.13458103709E+02  0.92106177336E+01 -0.13450288347E+02  0.21139212168E+02  0.00000000000E+00 0. -1.
</event>
<event>
 7    1  0.2811980E-010  0.4778727E+02  0.7816164E-02  0.1312668E+00
        -11   -1    0    0    0    0  0.00000000000E+00  0.00000000000E+00  0.45593999997E+02  0.45594000000E+02  0.51100000000E-03 0.  1.
         11   -1    0    0    0    0 -0.00000000000E+00 -0.00000000000E+00 -0.45593999997E+02  0.45594000000E+02  0.51100000000E-03 0. -1.
    9900012    2    1    2    0    0  0.13344963078E+02 -0.25433512610E+02 -0.32537229900E+02  0.47787274974E+02  0.20000017914E+02 0.  0.
        -12    1    1    2    0    0 -0.13344963078E+02  0.25433512610E+02  0.32537229900E+02  0.43400725026E+02  0.00000000000E+00 0.  1.
         11    1    3    3    0    0 -0.43499764525E+01 -0.25132901785E+01 -0.83106375483E+01  0.97111080407E+01  0.51100000000E-03 0. -1.
        -11    1    3    3    0    0  0.10563515327E+01 -0.41882451752E+01 -0.36528487256E+01  0.56569055394E+01  0.51100000000E-03 0.  1.
         12    1    3    3    0    0  0.16638587997E+02 -0.18731977256E+02 -0.20573743627E+02  0.32419261393E+02  0.00000000000E+00 0. -1.
</event>
<event>
 7    1  0.2811980E-010  0.4778727E+02  0.7816164E-02  0.1312668E+00
        -11   -1    0    0    0    0  0.00000000000E+00  0.00000000000E+00  0.45593999997E+02  0.45594000000E+02  0.51100000000E-03 0.  1.
         11   -1    0    0    0    0 -0.00000000000E+00 -0.00000000000E+00 -0.45593999997E+02  0.45594000000E+02  0.51100000000E-03 0. -1.
    9900012    2    1    2    0    0  0.36355339969E+02 -0.10029000174E+01 -0.23683474413E+02  0.47787268290E+02  0.19999987441E+02 0.  0.
        -12    1    1    2    0    0 -0.36355339969E+02  0.10029000174E+01  0.23683474413E+02  0.43400731710E+02  0.00000000000E+00 0.  1.
         11    1    3    3    0    0  0.28333779788E+02 -0.40402423314E+01 -0.20606808792E+02  0.35267083860E+02  0.51100000000E-03 0. -1.
        -11    1    3    3    0    0  0.67277915747E+01  0.57801670281E+01 -0.11917980189E+01  0.89495191560E+01  0.51100000000E-03 0.  1.
         12    1    3    3    0    0  0.12937686066E+01 -0.27428247140E+01 -0.18848676017E+01  0.35706652735E+01  0.00000000000E+00 0. -1.
</event>
<event>
 7    1  0.2811980E-010  0.4778727E+02  0.7816164E-02  0.1312668E+00
        -11   -1    0    0    0    0  0.00000000000E+00  0.00000000000E+00  0.45593999997E+02  0.45594000000E+02  0.51100000000E-03 0. -1.
         11   -1    0    0    0    0 -0.00000000000E+00 -0.00000000000E+00 -0.45593999997E+02  0.45594000000E+02  0.51100000000E-03 0.  1.
    9900012    2    1    2    0    0 -0.67316235794E+01 -0.42875482276E+02 -0.38791114115E-01  0.47787271422E+02  0.20000001720E+02 0.  0.
        -12    1    1    2    0    0  0.67316235794E+01  0.42875482276E+02  0.38791114115E-01  0.43400728578E+02  0.00000000000E+00 0.  1.
         11    1    3    3    0    0  0.41358347609E+01 -0.99667806636E+01  0.43779993408E+01  0.11645115906E+02  0.51100000000E-03 0. -1.
        -11    1    3    3    0    0 -0.51044781919E+01 -0.27123853263E+02 -0.22360855964E+01  0.27690416979E+02  0.51100000000E-03 0.  1.
         12    1    3    3    0    0 -0.57629801484E+01 -0.57848483491E+01 -0.21807048585E+01  0.84517385367E+01  0.00000000000E+00 0. -1.
</event>
<event>
 7    1  0.2811980E-010  0.4778729E+02  0.7816164E-02  0.1312668E+00
        -11   -1    0    0    0    0  0.00000000000E+00  0.00000000000E+00  0.45593999997E+02  0.45594000000E+02  0.51100000000E-03 0.  1.
         11   -1    0    0    0    0 -0.00000000000E+00 -0.00000000000E+00 -0.45593999997E+02  0.45594000000E+02  0.51100000000E-03 0. -1.
    9900012    2    1    2    0    0 -0.20974254450E+02  0.13328598104E+02 -0.35581602087E+02  0.47787293966E+02  0.20000104508E+02 0.  0.
        -12    1    1    2    0    0  0.20974254450E+02 -0.13328598104E+02  0.35581602087E+02  0.43400706034E+02  0.00000000000E+00 0.  1.
         11    1    3    3    0    0 -0.39482111406E+01  0.39954677958E+01 -0.18916944299E+02  0.19733294605E+02  0.51100000000E-03 0. -1.
        -11    1    3    3    0    0 -0.14775721629E+02  0.23910386191E+01 -0.89740088052E+01  0.17451986982E+02  0.51100000000E-03 0.  1.
        -12    1    3    3    0    0 -0.22503216802E+01  0.69420916890E+01 -0.76906489835E+01  0.10602012378E+02  0.00000000000E+00 0.  1.
</event>
<event>
 7    1  0.2811980E-010  0.4778725E+02  0.7816164E-02  0.1312668E+00
        -11   -1    0    0    0    0  0.00000000000E+00  0.00000000000E+00  0.45593999997E+02  0.45594000000E+02  0.51100000000E-03 0.  1.
         11   -1    0    0    0    0 -0.00000000000E+00 -0.00000000000E+00 -0.45593999997E+02  0.45594000000E+02  0.51100000000E-03 0. -1.
    9900012    2    1    2    0    0 -0.21939311481E+02  0.16982061007E+02 -0.33375158127E+02  0.47787251570E+02  0.19999911207E+02 0.  0.
        -12    1    1    2    0    0  0.21939311481E+02 -0.16982061007E+02  0.33375158127E+02  0.43400748430E+02  0.00000000000E+00 0.  1.
         11    1    3    3    0    0 -0.35372540326E+00  0.56704901243E+00  0.60623416779E+00  0.90232276417E+00  0.51100000000E-03 0. -1.
        -11    1    3    3    0    0 -0.13261160733E+02 -0.69027846199E+00 -0.13885608776E+02  0.19213146533E+02  0.51100000000E-03 0.  1.
        -12    1    3    3    0    0 -0.83244253448E+01  0.17105290457E+02 -0.20095783519E+02  0.27671782273E+02  0.00000000000E+00 0.  1.
</event>
<event>
 7    1  0.2811980E-010  0.4778727E+02  0.7816164E-02  0.1312668E+00
        -11   -1    0    0    0    0  0.00000000000E+00  0.00000000000E+00  0.45593999997E+02  0.45594000000E+02  0.51100000000E-03 0. -1.
         11   -1    0    0    0    0 -0.00000000000E+00 -0.00000000000E+00 -0.45593999997E+02  0.45594000000E+02  0.51100000000E-03 0.  1.
    9900012    2    1    2    0    0 -0.34009742119E+02  0.81389181282E+01  0.25704452712E+02  0.47787269171E+02  0.19999991456E+02 0.  0.
        -12    1    1    2    0    0  0.34009742119E+02 -0.81389181282E+01 -0.25704452712E+02  0.43400730829E+02  0.00000000000E+00 0.  1.
         11    1    3    3    0    0 -0.22661085636E+02  0.15620114925E+01  0.15084725252E+02  0.27267446127E+02  0.51100000000E-03 0. -1.
        -11    1    3    3    0    0  0.24006553936E+01  0.84945770053E+00  0.75989638172E+00  0.26574738900E+01  0.51100000000E-03 0.  1.
         12    1    3    3    0    0 -0.13749311877E+02  0.57274489351E+01  0.98598310783E+01  0.17862349154E+02  0.00000000000E+00 0. -1.
</event>
<event>
 7    1  0.2811980E-010  0.4778727E+02  0.7816164E-02  0.1312668E+00
        -11   -1    0    0    0    0  0.00000000000E+00  0.00000000000E+00  0.45593999997E+02  0.45594000000E+02  0.51100000000E-03 0.  1.
         11   -1    0    0    0    0 -0.00000000000E+00 -0.00000000000E+00 -0.45593999997E+02  0.45594000000E+02  0.51100000000E-03 0. -1.
    9900012    2    1    2    0    0  0.26707793956E+02 -0.28651281455E+02 -0.18692816049E+02  0.47787267761E+02  0.19999985031E+02 0.  0.
        -12    1    1    2    0    0 -0.26707793956E+02  0.28651281455E+02  0.18692816049E+02  0.43400732239E+02  0.00000000000E+00 0.  1.
         11    1    3    3    0    0  0.11788614508E+02 -0.18031675300E+02 -0.41205300705E+01  0.21933798451E+02  0.51100000000E-03 0. -1.
        -11    1    3    3    0    0  0.12969836236E+02 -0.30570266515E+01 -0.10937757376E+02  0.17239390958E+02  0.51100000000E-03 0.  1.
        -12    1    3    3    0    0  0.19493432120E+01 -0.75625795034E+01 -0.36345286027E+01  0.86140783527E+01  0.00000000000E+00 0.  1.
</event>
<event>
 7    1  0.2811980E-010  0.4778726E+02  0.7816164E-02  0.1312668E+00
        -11   -1    0    0    0    0  0.00000000000E+00  0.00000000000E+00  0.45593999997E+02  0.45594000000E+02  0.51100000000E-03 0.  1.
         11   -1    0    0    0    0 -0.00000000000E+00 -0.00000000000E+00 -0.45593999997E+02  0.45594000000E+02  0.51100000000E-03 0. -1.
    9900012    2    1    2    0    0  0.44731108298E+01 -0.33009467887E+02 -0.27820680172E+02  0.47787263418E+02  0.19999965226E+02 0.  0.
        -12    1    1    2    0    0 -0.44731108298E+01  0.33009467887E+02  0.27820680172E+02  0.43400736582E+02  0.00000000000E+00 0.  1.
         11    1    3    3    0    0  0.11603805968E+01 -0.25894963426E+02 -0.19276340481E+02  0.32302831402E+02  0.51100000000E-03 0. -1.
        -11    1    3    3    0    0  0.47217364917E+01 -0.27174104138E+01  0.35411606050E+00  0.54593509962E+01  0.51100000000E-03 0.  1.
         12    1    3    3    0    0 -0.14090062587E+01 -0.43970940470E+01 -0.88984557513E+01  0.10025081020E+02  0.00000000000E+00 0. -1.
</event>
<event>
 7    1  0.2811980E-010  0.4778727E+02  0.7816164E-02  0.1312668E+00
        -11   -1    0    0    0    0  0.00000000000E+00  0.00000000000E+00  0.45593999997E+02  0.45594000000E+02  0.51100000000E-03 0. -1.
         11   -1    0    0    0    0 -0.00000000000E+00 -0.00000000000E+00 -0.45593999997E+02  0.45594000000E+02  0.51100000000E-03 0.  1.
    9900012    2    1    2    0    0 -0.26668597123E+02  0.26402879154E+02  0.21801313392E+02  0.47787269986E+02  0.19999995175E+02 0.  0.
        -12    1    1    2    0    0  0.26668597123E+02 -0.26402879154E+02 -0.21801313392E+02  0.43400730014E+02  0.00000000000E+00 0.  1.
         11    1    3    3    0    0 -0.21938852775E+02  0.22689324050E+02  0.14896485849E+02  0.34900200255E+02  0.51100000000E-03 0. -1.
        -11    1    3    3    0    0  0.87575215173E+00 -0.23677199333E+01  0.95690736048E+00  0.26997613731E+01  0.51100000000E-03 0.  1.
        -12    1    3    3    0    0 -0.56054964992E+01  0.60812750370E+01  0.59479201830E+01  0.10187308358E+02  0.00000000000E+00 0.  1.
</event>
<event>
 7    1  0.2811980E-010  0.4778727E+02  0.7816164E-02  0.1312668E+00
        -11   -1    0    0    0    0  0.00000000000E+00  0.00000000000E+00  0.45593999997E+02  0.45594000000E+02  0.51100000000E-03 0.  1.
         11   -1    0    0    0    0 -0.00000000000E+00 -0.00000000000E+00 -0.45593999997E+02  0.45594000000E+02  0.51100000000E-03 0. -1.
    9900012    2    1    2    0    0  0.50360655488E+01  0.34645954425E+02 -0.25649937795E+02  0.47787269325E+02  0.19999992162E+02 0.  0.
        -12    1    1    2    0    0 -0.50360655488E+01 -0.34645954425E+02  0.25649937795E+02  0.43400730675E+02  0.00000000000E+00 0.  1.
         11    1    3    3    0    0 -0.81091939303E+00  0.37921593000E+01  0.20730631623E+01  0.43972324881E+01  0.51100000000E-03 0. -1.
        -11    1    3    3    0    0  0.72156233250E+01  0.19960327569E+02 -0.23396598992E+02  0.31589250407E+02  0.51100000000E-03 0.  1.
        -12    1    3    3    0    0 -0.13686383833E+01  0.10893467556E+02 -0.43264019656E+01  0.11800786431E+02  0.00000000000E+00 0.  1.
</event>
<event>
 7    1  0.2811980E-010  0.4778727E+02  0.7816164E-02  0.1312668E+00
        -11   -1    0    0    0    0  0.00000000000E+00  0.00000000000E+00  0.45593999997E+02  0.45594000000E+02  0.51100000000E-03 0.  1.
         11   -1    0    0    0    0 -0.00000000000E+00 -0.00000000000E+00 -0.45593999997E+02  0.45594000000E+02  0.51100000000E-03 0. -1.
    9900012    2    1    2    0    0 -0.37834653267E+01 -0.37207639503E+02  0.22020458036E+02  0.47787267064E+02  0.19999981852E+02 0.  0.
        -12    1    1    2    0    0  0.37834653267E+01  0.37207639503E+02 -0.22020458036E+02  0.43400732936E+02  0.00000000000E+00 0.  1.
         11    1    3    3    0    0 -0.42481030145E+01 -0.16193009273E+02  0.15203584741E+02  0.22614352031E+02  0.51100000000E-03 0. -1.
        -11    1    3    3    0    0 -0.16783213583E+01 -0.17658868808E+02  0.54854543217E+00  0.17746924029E+02  0.51100000000E-03 0.  1.
         12    1    3    3    0    0  0.21429590461E+01 -0.33557614221E+01  0.62683278623E+01  0.74259910036E+01  0.00000000000E+00 0. -1.
</event>
<event>
 7    1  0.2811980E-010  0.4778727E+02  0.7816164E-02  0.1312668E+00
        -11   -1    0    0    0    0  0.00000000000E+00  0.00000000000E+00  0.45593999997E+02  0.45594000000E+02  0.51100000000E-03 0.  1.
         11   -1    0    0    0    0 -0.00000000000E+00 -0.00000000000E+00 -0.45593999997E+02  0.45594000000E+02  0.51100000000E-03 0. -1.
    9900012    2    1    2    0    0 -0.39515314944E+02 -0.16448179398E+02 -0.71847565418E+01  0.47787269048E+02  0.19999990895E+02 0.  0.
        -12    1    1    2    0    0  0.39515314944E+02  0.16448179398E+02  0.71847565418E+01  0.43400730952E+02  0.00000000000E+00 0.  1.
         11    1    3    3    0    0 -0.15318286823E+02 -0.79742253959E+01 -0.67505038950E+00  0.17282762370E+02  0.51100000000E-03 0. -1.
        -11    1    3    3    0    0 -0.50245439426E+01  0.37591031159E+01 -0.44002745564E+01  0.76641577815E+01  0.51100000000E-03 0.  1.
        -12    1    3    3    0    0 -0.19172484179E+02 -0.12233057118E+02 -0.21094315958E+01  0.22840348896E+02  0.00000000000E+00 0.  1.
</event>
<event>
 7    1  0.2811980E-010  0.4778727E+02  0.7816164E-02  0.1312668E+00
        -11   -1    0    0    0    0  0.00000000000E+00  0.00000000000E+00  0.45593999997E+02  0.45594000000E+02  0.51100000000E-03 0. -1.
         11   -1    0    0    0    0 -0.00000000000E+00 -0.00000000000E+00 -0.45593999997E+02  0.45594000000E+02  0.51100000000E-03 0.  1.
    9900012    2    1    2    0    0 -0.28794072838E+02  0.24262762501E+02  0.21583401635E+02  0.47787268428E+02  0.19999988072E+02 0.  0.
        -12    1    1    2    0    0  0.28794072838E+02 -0.24262762501E+02 -0.21583401635E+02  0.43400731572E+02  0.00000000000E+00 0.  1.
         11    1    3    3    0    0 -0.45119433166E+01  0.93957397436E+01  0.11920991736E+02  0.15835011906E+02  0.51100000000E-03 0. -1.
        -11    1    3    3    0    0 -0.81270736812E+01  0.74308640853E+01 -0.12563707404E+01  0.11083570516E+02  0.51100000000E-03 0.  1.
        -12    1    3    3    0    0 -0.16155055840E+02  0.74361586724E+01  0.10918780639E+02  0.20868686007E+02  0.00000000000E+00 0.  1.
</event>
<event>
 7    1  0.2811980E-010  0.4778729E+02  0.7816164E-02  0.1312668E+00
        -11   -1    0    0    0    0  0.00000000000E+00  0.00000000000E+00  0.45593999997E+02  0.45594000000E+02  0.51100000000E-03 0.  1.
         11   -1    0    0    0    0 -0.00000000000E+00 -0.00000000000E+00 -0.45593999997E+02  0.45594000000E+02  0.51100000000E-03 0. -1.
    9900012    2    1    2    0    0 -0.29186033722E+02  0.36438372088E+01 -0.31914255262E+02  0.47787287990E+02  0.20000077263E+02 0.  0.
        -12    1    1    2    0    0  0.29186033722E+02 -0.36438372088E+01  0.31914255262E+02  0.43400712010E+02  0.00000000000E+00 0.  1.
         11    1    3    3    0    0 -0.20571153076E+02  0.59600015619E+01 -0.25659853969E+02  0.33423376003E+02  0.51100000000E-03 0. -1.
        -11    1    3    3    0    0 -0.72576406875E+01  0.11901700995E+01 -0.34859335832E+00  0.73628371438E+01  0.51100000000E-03 0.  1.
        -12    1    3    3    0    0 -0.13572399588E+01 -0.35063344527E+01 -0.59058079347E+01  0.70010748433E+01  0.00000000000E+00 0.  1.
</event>
<event>
 7    1  0.2811980E-010  0.4778728E+02  0.7816164E-02  0.1312668E+00
        -11   -1    0    0    0    0  0.00000000000E+00  0.00000000000E+00  0.45593999997E+02  0.45594000000E+02  0.51100000000E-03 0.  1.
         11   -1    0    0    0    0 -0.00000000000E+00 -0.00000000000E+00 -0.45593999997E+02  0.45594000000E+02  0.51100000000E-03 0. -1.
    9900012    2    1    2    0    0  0.12575366001E+02 -0.16161828768E+02 -0.38265889590E+02  0.47787275982E+02  0.20000022514E+02 0.  0.
        -12    1    1    2    0    0 -0.12575366001E+02  0.16161828768E+02  0.38265889590E+02  0.43400724018E+02  0.00000000000E+00 0.  1.
         11    1    3    3    0    0  0.34481725242E+01 -0.12293213775E+02 -0.29971904291E+02  0.32578030108E+02  0.51100000000E-03 0. -1.
        -11    1    3    3    0    0  0.32165776331E+01 -0.40637925959E+01 -0.20211368854E+00  0.51866783336E+01  0.51100000000E-03 0.  1.
         12    1    3    3    0    0  0.59106158435E+01  0.19517760261E+00 -0.80918716103E+01  0.10022567540E+02  0.00000000000E+00 0. -1.
</event>
<event>
 7    1  0.2811980E-010  0.4778725E+02  0.7816164E-02  0.1312668E+00
        -11   -1    0    0    0    0  0.00000000000E+00  0.00000000000E+00  0.45593999997E+02  0.45594000000E+02  0.51100000000E-03 0.  1.
         11   -1    0    0    0    0 -0.00000000000E+00 -0.00000000000E+00 -0.45593999997E+02  0.45594000000E+02  0.51100000000E-03 0. -1.
    9900012    2    1    2    0    0  0.20108557931E+02 -0.33625879014E+02 -0.18670055605E+02  0.47787253258E+02  0.19999918903E+02 0.  0.
        -12    1    1    2    0    0 -0.20108557931E+02  0.33625879014E+02  0.18670055605E+02  0.43400746742E+02  0.00000000000E+00 0.  1.
         11    1    3    3    0    0  0.11637024349E+02 -0.22845685211E+02 -0.55518172712E+01  0.26232962923E+02  0.51100000000E-03 0. -1.
        -11    1    3    3    0    0  0.59236040442E+01 -0.37182119405E+00 -0.24118499101E+01  0.64065869324E+01  0.51100000000E-03 0.  1.
         12    1    3    3    0    0  0.25479295381E+01 -0.10408372609E+02 -0.10706388423E+02  0.15147703402E+02  0.00000000000E+00 0. -1.
</event>
<event>
 7    1  0.2811980E-010  0.4778727E+02  0.7816164E-02  0.1312668E+00
        -11   -1    0    0    0    0  0.00000000000E+00  0.00000000000E+00  0.45593999997E+02  0.45594000000E+02  0.51100000000E-03 0.  1.
         11   -1    0    0    0    0 -0.00000000000E+00 -0.00000000000E+00 -0.45593999997E+02  0.45594000000E+02  0.51100000000E-03 0. -1.
    9900012    2    1    2    0    0 -0.29933266228E+02  0.20786484443E+02 -0.23570002561E+02  0.47787269784E+02  0.19999994254E+02 0.  0.
        -12    1    1    2    0    0  0.29933266228E+02 -0.20786484443E+02  0.23570002561E+02  0.43400730216E+02  0.00000000000E+00 0.  1.
         11    1    3    3    0    0 -0.14513224622E+02  0.47285896011E+01 -0.11771102683E+02  0.19275686944E+02  0.51100000000E-03 0. -1.
        -11    1    3    3    0    0 -0.12641652140E+02  0.16749764472E+02 -0.56553681065E+01  0.21733595363E+02  0.51100000000E-03 0.  1.
        -12    1    3    3    0    0 -0.27783894659E+01 -0.69186963091E+00 -0.61435317718E+01  0.67779874773E+01  0.00000000000E+00 0.  1.
</event>
<event>
 7    1  0.2811980E-010  0.4778727E+02  0.7816164E-02  0.1312668E+00
        -11   -1    0    0    0    0  0.00000000000E+00  0.00000000000E+00  0.45593999997E+02  0.45594000000E+02  0.51100000000E-03 0.  1.
         11   -1    0    0    0    0 -0.00000000000E+00 -0.00000000000E+00 -0.45593999997E+02  0.45594000000E+02  0.51100000000E-03 0. -1.
    9900012    2    1    2    0    0 -0.22361807833E+02 -0.23292933168E+02 -0.29000214535E+02  0.47787266962E+02  0.19999981387E+02 0.  0.
        -12    1    1    2    0    0  0.22361807833E+02  0.23292933168E+02  0.29000214535E+02  0.43400733038E+02  0.00000000000E+00 0.  1.
         11    1    3    3    0    0 -0.76616539945E+00 -0.32825511784E+01 -0.70087741743E+01  0.77772146264E+01  0.51100000000E-03 0. -1.
        -11    1    3    3    0    0 -0.58994420543E+01 -0.14778223968E+02 -0.60177900805E+01  0.17012146188E+02  0.51100000000E-03 0.  1.
        -12    1    3    3    0    0 -0.15696200379E+02 -0.52321580221E+01 -0.15973650280E+02  0.22997906148E+02  0.00000000000E+00 0.  1.
</event>
<event>
 7    1  0.2811980E-010  0.4778728E+02  0.7816164E-02  0.1312668E+00
        -11   -1    0    0    0    0  0.00000000000E+00  0.00000000000E+00  0.45593999997E+02  0.45594000000E+02  0.51100000000E-03 0.  1.
         11   -1    0    0    0    0 -0.00000000000E+00 -0.00000000000E+00 -0.45593999997E+02  0.45594000000E+02  0.51100000000E-03 0. -1.
    9900012    2    1    2    0    0  0.31586225276E+02 -0.45134233847E+01 -0.29420430670E+02  0.47787281588E+02  0.20000048074E+02 0.  0.
        -12    1    1    2    0    0 -0.31586225276E+02  0.45134233847E+01  0.29420430670E+02  0.43400718412E+02  0.00000000000E+00 0.  1.
         11    1    3    3    0    0  0.28058060023E+00  0.11094075431E+01  0.94181902231E+00  0.14820708154E+01  0.51100000000E-03 0.  1.
        -11    1    3    3    0    0  0.15492603396E+02 -0.10133810772E+02 -0.16472357219E+02  0.24780101561E+02  0.51100000000E-03 0. -1.
        -12    1    3    3    0    0  0.15813041280E+02  0.45109798442E+01 -0.13889892473E+02  0.21525109212E+02  0.00000000000E+00 0.  1.
</event>
<event>
 7    1  0.2811980E-010  0.4778727E+02  0.7816164E-02  0.1312668E+00
        -11   -1    0    0    0    0  0.00000000000E+00  0.00000000000E+00  0.45593999997E+02  0.45594000000E+02  0.51100000000E-03 0.  1.
         11   -1    0    0    0    0 -0.00000000000E+00 -0.00000000000E+00 -0.45593999997E+02  0.45594000000E+02  0.51100000000E-03 0. -1.
    9900012    2    1    2    0    0  0.23890317217E+02  0.10846727114E+02 -0.34572014763E+02  0.47787274769E+02  0.20000016981E+02 0.  0.
        -12    1    1    2    0    0 -0.23890317217E+02 -0.10846727114E+02  0.34572014763E+02  0.43400725231E+02  0.00000000000E+00 0.  1.
         11    1    3    3    0    0  0.13337156114E+02  0.13365890375E+02 -0.18731400806E+02  0.26596844458E+02  0.51100000000E-03 0. -1.
        -11    1    3    3    0    0  0.75652735433E+01 -0.45987031978E+01 -0.59916657918E+01  0.10690252294E+02  0.51100000000E-03 0.  1.
        -12    1    3    3    0    0  0.29878875589E+01  0.20795399377E+01 -0.98489481655E+01  0.10500178017E+02  0.00000000000E+00 0.  1.
</event>
<event>
 7    1  0.2811980E-010  0.4778727E+02  0.7816164E-02  0.1312668E+00
        -11   -1    0    0    0    0  0.00000000000E+00  0.00000000000E+00  0.45593999997E+02  0.45594000000E+02  0.51100000000E-03 0. -1.
         11   -1    0    0    0    0 -0.00000000000E+00 -0.00000000000E+00 -0.45593999997E+02  0.45594000000E+02  0.51100000000E-03 0.  1.
    9900012    2    1    2    0    0 -0.19481256037E+02  0.21026468021E+02  0.32588210949E+02  0.47787272045E+02  0.20000004560E+02 0.  0.
        -12    1    1    2    0    0  0.19481256037E+02 -0.21026468021E+02 -0.32588210949E+02  0.43400727955E+02  0.00000000000E+00 0.  1.
         11    1    3    3    0    0 -0.33439739984E+00  0.31202133447E+01  0.55088771025E+01  0.63399747736E+01  0.51100000000E-03 0.  1.
        -11    1    3    3    0    0 -0.78836253349E+01  0.17803616353E+02  0.21038390789E+02  0.28665906421E+02  0.51100000000E-03 0. -1.
        -12    1    3    3    0    0 -0.11263233302E+02  0.10263832249E+00  0.60409430578E+01  0.12781390850E+02  0.00000000000E+00 0.  1.
</event>
<event>
 7    1  0.2811980E-010  0.4778724E+02  0.7816164E-02  0.1312668E+00
        -11   -1    0    0    0    0  0.00000000000E+00  0.00000000000E+00  0.45593999997E+02  0.45594000000E+02  0.51100000000E-03 0.  1.
         11   -1    0    0    0    0 -0.00000000000E+00 -0.00000000000E+00 -0.45593999997E+02  0.45594000000E+02  0.51100000000E-03 0. -1.
    9900012    2    1    2    0    0 -0.39819348863E+02 -0.18522458296E+01 -0.17164332274E+02  0.47787243545E+02  0.19999874617E+02 0.  0.
        -12    1    1    2    0    0  0.39819348863E+02  0.18522458296E+01  0.17164332274E+02  0.43400756455E+02  0.00000000000E+00 0.  1.
         11    1    3    3    0    0  0.25910491449E+00 -0.40953552460E+01 -0.27077031489E+01  0.49163733129E+01  0.51100000000E-03 0. -1.
        -11    1    3    3    0    0 -0.19447373861E+02  0.65081631842E+00 -0.48300203724E+01  0.20048765774E+02  0.51100000000E-03 0.  1.
         12    1    3    3    0    0 -0.20631079916E+02  0.15922930980E+01 -0.96266087528E+01  0.22822104458E+02  0.00000000000E+00 0. -1.
</event>
<event>
 7    1  0.2811980E-010  0.4778725E+02  0.7816164E-02  0.1312668E+00
        -11   -1    0    0    0    0  0.00000000000E+00  0.00000000000E+00  0.45593999997E+02  0.45594000000E+02  0.51100000000E-03 0. -1.
         11   -1    0    0    0    0 -0.00000000000E+00 -0.00000000000E+00 -0.45593999997E+02  0.45594000000E+02  0.51100000000E-03 0.  1.
    9900012    2    1    2    0    0  0.30960461951E+02 -0.19914804632E+02  0.22988586943E+02  0.47787253723E+02  0.19999921025E+02 0.  0.
        -12    1    1    2    0    0 -0.30960461951E+02  0.19914804632E+02 -0.22988586943E+02  0.43400746277E+02  0.00000000000E+00 0.  1.
         11    1    3    3    0    0 -0.20633442556E+01 -0.10406830811E+01 -0.46732235557E+00  0.23577110165E+01  0.51100000000E-03 0.  1.
        -11    1    3    3    0    0  0.26908361553E+02 -0.18640643775E+02  0.18886660869E+02  0.37792055790E+02  0.51100000000E-03 0. -1.
        -12    1    3    3    0    0  0.61154446541E+01 -0.23347777537E+00  0.45692484292E+01  0.76374869163E+01  0.00000000000E+00 0.  1.
</event>
<event>
 7    1  0.2811980E-010  0.4778727E+02  0.7816164E-02  0.1312668E+00
        -11   -1    0    0    0    0  0.00000000000E+00  0.00000000000E+00  0.45593999997E+02  0.45594000000E+02  0.51100000000E-03 0.  1.
         11   -1    0    0    0    0 -0.00000000000E+00 -0.00000000000E+00 -0.45593999997E+02  0.45594000000E+02  0.51100000000E-03 0. -1.
    9900012    2    1    2    0    0 -0.19702591726E+02  0.72873329274E+01 -0.37977967471E+02  0.47787270108E+02  0.19999995730E+02 0.  0.
        -12    1    1    2    0    0  0.19702591726E+02 -0.72873329274E+01  0.37977967471E+02  0.43400729892E+02  0.00000000000E+00 0.  1.
         11    1    3    3    0    0 -0.84628767616E+00 -0.26365001835E+01 -0.14066680128E+02  0.14336625340E+02  0.51100000000E-03 0. -1.
        -11    1    3    3    0    0 -0.19260654382E+02  0.77796077541E+01 -0.23234048507E+02  0.31165944785E+02  0.51100000000E-03 0.  1.
        -12    1    3    3    0    0  0.40435033218E+00  0.21442253568E+01 -0.67723883615E+00  0.22846999832E+01  0.00000000000E+00 0.  1.
</event>
<event>
 7    1  0.2811980E-010  0.4778728E+02  0.7816164E-02  0.1312668E+00
        -11   -1    0    0    0    0  0.00000000000E+00  0.00000000000E+00  0.45593999997E+02  0.45594000000E+02  0.51100000000E-03 0.  1.
         11   -1    0    0    0    0 -0.00000000000E+00 -0.00000000000E+00 -0.45593999997E+02  0.45594000000E+02  0.51100000000E-03 0. -1.
    9900012    2    1    2    0    0 -0.72392466425E+01 -0.29973194514E+02 -0.30542164475E+02  0.47787275442E+02  0.20000020052E+02 0.  0.
        -12    1    1    2    0    0  0.72392466425E+01  0.29973194514E+02  0.30542164475E+02  0.43400724558E+02  0.00000000000E+00 0.  1.
         11    1    3    3    0    0 -0.76679651226E+00 -0.75203850433E+01 -0.76220744036E+01  0.10734998210E+02  0.51100000000E-03 0. -1.
        -11    1    3    3    0    0  0.34881872841E+01 -0.16066480523E+02 -0.88603593988E+01  0.18676327687E+02  0.51100000000E-03 0.  1.
        -12    1    3    3    0    0 -0.99606374144E+01 -0.63863289473E+01 -0.14059730673E+02  0.18375949546E+02  0.00000000000E+00 0.  1.
</event>
<event>
 7    1  0.2811980E-010  0.4778727E+02  0.7816164E-02  0.1312668E+00
        -11   -1    0    0    0    0  0.00000000000E+00  0.00000000000E+00  0.45593999997E+02  0.45594000000E+02  0.51100000000E-03 0.  1.
         11   -1    0    0    0    0 -0.00000000000E+00 -0.00000000000E+00 -0.45593999997E+02  0.45594000000E+02  0.51100000000E-03 0. -1.
    9900012    2    1    2    0    0  0.19566042958E+02  0.18332606276E+02 -0.34127829723E+02  0.47787271302E+02  0.20000001173E+02 0.  0.
        -12    1    1    2    0    0 -0.19566042958E+02 -0.18332606276E+02  0.34127829723E+02  0.43400728698E+02  0.00000000000E+00 0.  1.
         11    1    3    3    0    0  0.98122225966E+01  0.12496527249E+02 -0.92034688212E+01  0.18361556148E+02  0.51100000000E-03 0. -1.
        -11    1    3    3    0    0  0.90425003301E+01 -0.21302335557E+00 -0.11096576258E+02  0.14315942026E+02  0.51100000000E-03 0.  1.
         12    1    3    3    0    0  0.71132003162E+00  0.60491023828E+01 -0.13827784644E+02  0.15109773128E+02  0.00000000000E+00 0. -1.
</event>
<event>
 7    1  0.2811980E-010  0.4778727E+02  0.7816164E-02  0.1312668E+00
        -11   -1    0    0    0    0  0.00000000000E+00  0.00000000000E+00  0.45593999997E+02  0.45594000000E+02  0.51100000000E-03 0. -1.
         11   -1    0    0    0    0 -0.00000000000E+00 -0.00000000000E+00 -0.45593999997E+02  0.45594000000E+02  0.51100000000E-03 0.  1.
    9900012    2    1    2    0    0 -0.26110591379E+02 -0.74193917769E+01  0.33864622378E+02  0.47787274139E+02  0.20000014107E+02 0.  0.
        -12    1    1    2    0    0  0.26110591379E+02  0.74193917769E+01 -0.33864622378E+02  0.43400725861E+02  0.00000000000E+00 0.  1.
         11    1    3    3    0    0 -0.10423171334E+02  0.18652072027E+01  0.21711940699E+02  0.24156362883E+02  0.51100000000E-03 0. -1.
        -11    1    3    3    0    0 -0.14225277930E+02 -0.41686620776E+01  0.77637338146E+01  0.16733554276E+02  0.51100000000E-03 0.  1.
         12    1    3    3    0    0 -0.14621421157E+01 -0.51159369021E+01  0.43889478645E+01  0.68973569800E+01  0.00000000000E+00 0. -1.
</event>
<event>
 7    1  0.2811980E-010  0.4778727E+02  0.7816164E-02  0.1312668E+00
        -11   -1    0    0    0    0  0.00000000000E+00  0.00000000000E+00  0.45593999997E+02  0.45594000000E+02  0.51100000000E-03 0. -1.
         11   -1    0    0    0    0 -0.00000000000E+00 -0.00000000000E+00 -0.45593999997E+02  0.45594000000E+02  0.51100000000E-03 0.  1.
    9900012    2    1    2    0    0 -0.29256718159E+02 -0.18848899673E+02  0.25930424698E+02  0.47787268424E+02  0.19999988054E+02 0.  0.
        -12    1    1    2    0    0  0.29256718159E+02  0.18848899673E+02 -0.25930424698E+02  0.43400731576E+02  0.00000000000E+00 0.  1.
         11    1    3    3    0    0 -0.17342401153E+02 -0.94789686705E+01  0.56719894561E+01  0.20561643647E+02  0.51100000000E-03 0. -1.
        -11    1    3    3    0    0 -0.74659131647E+01 -0.20160968663E+01  0.15689977333E+02  0.17492281010E+02  0.51100000000E-03 0.  1.
         12    1    3    3    0    0 -0.44484038412E+01 -0.73538341365E+01  0.45684579082E+01  0.97333437677E+01  0.00000000000E+00 0. -1.
</event>
<event>
 7    1  0.2811980E-010  0.4778728E+02  0.7816164E-02  0.1312668E+00
        -11   -1    0    0    0    0  0.00000000000E+00  0.00000000000E+00  0.45593999997E+02  0.45594000000E+02  0.51100000000E-03 0.  1.
         11   -1    0    0    0    0 -0.00000000000E+00 -0.00000000000E+00 -0.45593999997E+02  0.45594000000E+02  0.51100000000E-03 0. -1.
    9900012    2    1    2    0    0 -0.25338629837E+02 -0.81963056755E+01 -0.34269479450E+02  0.47787276383E+02  0.20000024338E+02 0.  0.
        -12    1    1    2    0    0  0.25338629837E+02  0.81963056755E+01  0.34269479450E+02  0.43400723617E+02  0.00000000000E+00 0.  1.
         11    1    3    3    0    0 -0.16775839535E+02 -0.49705962529E+01 -0.84208514175E+01  0.19417681583E+02  0.51100000000E-03 0. -1.
        -11    1    3    3    0    0 -0.46136428258E+01  0.19823083246E+01 -0.13389863023E+02  0.14300478259E+02  0.51100000000E-03 0.  1.
         12    1    3    3    0    0 -0.39491474763E+01 -0.52080177472E+01 -0.12458765010E+02  0.14069116540E+02  0.00000000000E+00 0. -1.
</event>
<event>
 7    1  0.2811980E-010  0.4778726E+02  0.7816164E-02  0.1312668E+00
        -11   -1    0    0    0    0  0.00000000000E+00  0.00000000000E+00  0.45593999997E+02  0.45594000000E+02  0.51100000000E-03 0.  1.
         11   -1    0    0    0    0 -0.00000000000E+00 -0.00000000000E+00 -0.45593999997E+02  0.45594000000E+02  0.51100000000E-03 0. -1.
    9900012    2    1    2    0    0  0.21425161882E+02 -0.37663255942E+02  0.24628685607E+01  0.47787261166E+02  0.19999954958E+02 0.  0.
        -12    1    1    2    0    0 -0.21425161882E+02  0.37663255942E+02 -0.24628685607E+01  0.43400738834E+02  0.00000000000E+00 0.  1.
         11    1    3    3    0    0  0.14184949562E+02 -0.28773212015E+02 -0.44703263337E+01  0.32389725864E+02  0.51100000000E-03 0. -1.
        -11    1    3    3    0    0  0.39816548346E+01 -0.92350595989E+01  0.67571008390E+01  0.12116035367E+02  0.51100000000E-03 0.  1.
        -12    1    3    3    0    0  0.32585574858E+01  0.34501567205E+00  0.17609405552E+00  0.32814999343E+01  0.00000000000E+00 0.  1.
</event>
<event>
 7    1  0.2811980E-010  0.4778727E+02  0.7816164E-02  0.1312668E+00
        -11   -1    0    0    0    0  0.00000000000E+00  0.00000000000E+00  0.45593999997E+02  0.45594000000E+02  0.51100000000E-03 0. -1.
         11   -1    0    0    0    0 -0.00000000000E+00 -0.00000000000E+00 -0.45593999997E+02  0.45594000000E+02  0.51100000000E-03 0.  1.
    9900012    2    1    2    0    0 -0.42739546489E+02  0.33069890365E+01  0.67836617485E+01  0.47787273310E+02  0.20000010328E+02 0.  0.
        -12    1    1    2    0    0  0.42739546489E+02 -0.33069890365E+01 -0.67836617485E+01  0.43400726690E+02  0.00000000000E+00 0.  1.
         11    1    3    3    0    0 -0.10447423836E+02  0.12123447289E+01  0.63501383939E+00  0.10536682941E+02  0.51100000000E-03 0. -1.
        -11    1    3    3    0    0 -0.27841646158E+02 -0.40919964552E+01  0.12050951059E+01  0.28166539551E+02  0.51100000000E-03 0.  1.
        -12    1    3    3    0    0 -0.44504764944E+01  0.61866407628E+01  0.49435528031E+01  0.90840508184E+01  0.00000000000E+00 0.  1.
</event>
<event>
 7    1  0.2811980E-010  0.4778727E+02  0.7816164E-02  0.1312668E+00
        -11   -1    0    0    0    0  0.00000000000E+00  0.00000000000E+00  0.45593999997E+02  0.45594000000E+02  0.51100000000E-03 0. -1.
         11   -1    0    0    0    0 -0.00000000000E+00 -0.00000000000E+00 -0.45593999997E+02  0.45594000000E+02  0.51100000000E-03 0.  1.
    9900012    2    1    2    0    0  0.48182425372E+01  0.15169229488E+02  0.40377001326E+02  0.47787271659E+02  0.20000002804E+02 0.  0.
        -12    1    1    2    0    0 -0.48182425372E+01 -0.15169229488E+02 -0.40377001326E+02  0.43400728341E+02  0.00000000000E+00 0.  1.
         11    1    3    3    0    0 -0.36912725881E+01  0.35332527807E+01  0.16117161923E+02  0.16907757901E+02  0.51100000000E-03 0. -1.
        -11    1    3    3    0    0  0.48153629203E+01  0.42569061712E+00  0.12099166424E+01  0.49832550705E+01  0.51100000000E-03 0.  1.
        -12    1    3    3    0    0  0.36941522050E+01  0.11210286090E+02  0.23049922761E+02  0.25896258688E+02  0.00000000000E+00 0.  1.
</event>
<event>
 7    1  0.2811980E-010  0.4778727E+02  0.7816164E-02  0.1312668E+00
        -11   -1    0    0    0    0  0.00000000000E+00  0.00000000000E+00  0.45593999997E+02  0.45594000000E+02  0.51100000000E-03 0.  1.
         11   -1    0    0    0    0 -0.00000000000E+00 -0.00000000000E+00 -0.45593999997E+02  0.45594000000E+02  0.51100000000E-03 0. -1.
    9900012    2    1    2    0    0 -0.14699824653E+02  0.15169250359E+02 -0.37913480019E+02  0.47787274563E+02  0.20000016045E+02 0.  0.
        -12    1    1    2    0    0  0.14699824653E+02 -0.15169250359E+02  0.37913480019E+02  0.43400725437E+02  0.00000000000E+00 0.  1.
         11    1    3    3    0    0  0.65957561608E+00 -0.28088552514E+01 -0.10636736222E+02  0.11021109996E+02  0.51100000000E-03 0. -1.
        -11    1    3    3    0    0 -0.90304677217E+01  0.53172363162E+01 -0.10913058621E+02  0.15130009850E+02  0.51100000000E-03 0.  1.
         12    1    3    3    0    0 -0.63289325470E+01  0.12660869294E+02 -0.16363685175E+02  0.21636154718E+02  0.00000000000E+00 0. -1.
</event>
<event>
 7    1  0.2811980E-010  0.4778723E+02  0.7816164E-02  0.1312668E+00
        -11   -1    0    0    0    0  0.00000000000E+00  0.00000000000E+00  0.45593999997E+02  0.45594000000E+02  0.51100000000E-03 0.  1.
         11   -1    0    0    0    0 -0.00000000000E+00 -0.00000000000E+00 -0.45593999997E+02  0.45594000000E+02  0.51100000000E-03 0. -1.
    9900012    2    1    2    0    0 -0.33575292687E+02 -0.38095100283E+01 -0.27236269470E+02  0.47787227883E+02  0.19999803210E+02 0.  0.
        -12    1    1    2    0    0  0.33575292687E+02  0.38095100283E+01  0.27236269470E+02  0.43400772117E+02  0.00000000000E+00 0.  1.
         11    1    3    3    0    0 -0.10195328849E+02 -0.11426765685E+01 -0.20093393473E+02  0.22560915354E+02  0.51100000000E-03 0. -1.
        -11    1    3    3    0    0 -0.18054535539E+02  0.54974240567E-01 -0.65917045760E+01  0.19220297739E+02  0.51100000000E-03 0.  1.
         12    1    3    3    0    0 -0.53254282994E+01 -0.27218077004E+01 -0.55117142118E+00  0.60060147907E+01  0.00000000000E+00 0. -1.
</event>
<event>
 7    1  0.2811980E-010  0.4778727E+02  0.7816164E-02  0.1312668E+00
        -11   -1    0    0    0    0  0.00000000000E+00  0.00000000000E+00  0.45593999997E+02  0.45594000000E+02  0.51100000000E-03 0.  1.
         11   -1    0    0    0    0 -0.00000000000E+00 -0.00000000000E+00 -0.45593999997E+02  0.45594000000E+02  0.51100000000E-03 0. -1.
    9900012    2    1    2    0    0 -0.20364140459E+02 -0.11205049009E+02 -0.36652040859E+02  0.47787269142E+02  0.19999991326E+02 0.  0.
        -12    1    1    2    0    0  0.20364140459E+02  0.11205049009E+02  0.36652040859E+02  0.43400730858E+02  0.00000000000E+00 0.  1.
         11    1    3    3    0    0 -0.11766325861E+01 -0.36232803480E+01  0.10783741090E+01  0.39592317062E+01  0.51100000000E-03 0.  1.
        -11    1    3    3    0    0 -0.91072775270E+01  0.79447263281E+00 -0.14041368263E+02  0.16755110077E+02  0.51100000000E-03 0. -1.
         12    1    3    3    0    0 -0.10080230346E+02 -0.83762412936E+01 -0.23689046705E+02  0.27072927359E+02  0.00000000000E+00 0. -1.
</event>
<event>
 7    1  0.2811980E-010  0.4778727E+02  0.7816164E-02  0.1312668E+00
        -11   -1    0    0    0    0  0.00000000000E+00  0.00000000000E+00  0.45593999997E+02  0.45594000000E+02  0.51100000000E-03 0.  1.
         11   -1    0    0    0    0 -0.00000000000E+00 -0.00000000000E+00 -0.45593999997E+02  0.45594000000E+02  0.51100000000E-03 0. -1.
    9900012    2    1    2    0    0 -0.75905796557E+01  0.23853923841E+02 -0.35454150043E+02  0.47787270312E+02  0.19999996663E+02 0.  0.
        -12    1    1    2    0    0  0.75905796557E+01 -0.23853923841E+02  0.35454150043E+02  0.43400729688E+02  0.00000000000E+00 0.  1.
         11    1    3    3    0    0  0.28565041523E+01  0.29870195877E+01 -0.54667338212E+00  0.41690231515E+01  0.51100000000E-03 0. -1.
        -11    1    3    3    0    0 -0.87805854295E+01  0.63676173718E+01 -0.20024481907E+02  0.22773342033E+02  0.51100000000E-03 0.  1.
         12    1    3    3    0    0 -0.16664983786E+01  0.14499286881E+02 -0.14882994755E+02  0.20844905128E+02  0.00000000000E+00 0. -1.
</event>
<event>
 7    1  0.2811980E-010  0.4778727E+02  0.7816164E-02  0.1312668E+00
        -11   -1    0    0    0    0  0.00000000000E+00  0.00000000000E+00  0.45593999997E+02  0.45594000000E+02  0.51100000000E-03 0.  1.
         11   -1    0    0    0    0 -0.00000000000E+00 -0.00000000000E+00 -0.45593999997E+02  0.45594000000E+02  0.51100000000E-03 0. -1.
    9900012    2    1    2    0    0  0.26560898386E+02 -0.10757498230E+02 -0.32594759083E+02  0.47787269466E+02  0.19999992804E+02 0.  0.
        -12    1    1    2    0    0 -0.26560898386E+02  0.10757498230E+02  0.32594759083E+02  0.43400730534E+02  0.00000000000E+00 0.  1.
         11    1    3    3    0    0 -0.47988479542E+00  0.10504134091E+01  0.12488058883E+01  0.17009333187E+01  0.51100000000E-03 0.  1.
        -11    1    3    3    0    0  0.73645172007E+01  0.14271531221E+01 -0.94613814636E+01  0.12074378621E+02  0.51100000000E-03 0. -1.
         12    1    3    3    0    0  0.19676265980E+02 -0.13235064761E+02 -0.24382183507E+02  0.34011957526E+02  0.00000000000E+00 0. -1.
</event>
<event>
 7    1  0.2811980E-010  0.4778724E+02  0.7816164E-02  0.1312668E+00
        -11   -1    0    0    0    0  0.00000000000E+00  0.00000000000E+00  0.45593999997E+02  0.45594000000E+02  0.51100000000E-03 0.  1.
         11   -1    0    0    0    0 -0.00000000000E+00 -0.00000000000E+00 -0.45593999997E+02  0.45594000000E+02  0.51100000000E-03 0. -1.
    9900012    2    1    2    0    0 -0.32353941757E+02  0.16561327778E+02 -0.23718582317E+02  0.47787236503E+02  0.19999842509E+02 0.  0.
        -12    1    1    2    0    0  0.32353941757E+02 -0.16561327778E+02  0.23718582317E+02  0.43400763497E+02  0.00000000000E+00 0.  1.
         11    1    3    3    0    0 -0.18544944188E+02  0.17752618155E+02 -0.10230347647E+02  0.27635672952E+02  0.51100000000E-03 0. -1.
        -11    1    3    3    0    0 -0.26988093573E+01 -0.67990926445E+00 -0.63575137691E+01  0.69400165807E+01  0.51100000000E-03 0.  1.
         12    1    3    3    0    0 -0.11110188212E+02 -0.51138111247E+00 -0.71307209014E+01  0.13211546970E+02  0.00000000000E+00 0. -1.
</event>
<event>
 7    1  0.2811980E-010  0.4778727E+02  0.7816164E-02  0.1312668E+00
        -11   -1    0    0    0    0  0.00000000000E+00  0.00000000000E+00  0.45593999997E+02  0.45594000000E+02  0.51100000000E-03 0. -1.
         11   -1    0    0    0    0 -0.00000000000E+00 -0.00000000000E+00 -0.45593999997E+02  0.45594000000E+02  0.51100000000E-03 0.  1.
    9900012    2    1    2    0    0 -0.29970355077E+02  0.26471180569E+02  0.16872392993E+02  0.47787271556E+02  0.20000002334E+02 0.  0.
        -12    1    1    2    0    0  0.29970355077E+02 -0.26471180569E+02 -0.16872392993E+02  0.43400728444E+02  0.00000000000E+00 0.  1.
         11    1    3    3    0    0 -0.20617212869E+02  0.20684807224E+02  0.17517586910E+02  0.34055786113E+02  0.51100000000E-03 0. -1.
        -11    1    3    3    0    0 -0.74785827165E+01  0.64473225407E+01 -0.33036878425E+01  0.10412085335E+02  0.51100000000E-03 0.  1.
         12    1    3    3    0    0 -0.18745594916E+01 -0.66094919603E+00  0.26584939262E+01  0.33194001089E+01  0.00000000000E+00 0. -1.
</event>
<event>
 7    1  0.2811980E-010  0.4778727E+02  0.7816164E-02  0.1312668E+00
        -11   -1    0    0    0    0  0.00000000000E+00  0.00000000000E+00  0.45593999997E+02  0.45594000000E+02  0.51100000000E-03 0. -1.
         11   -1    0    0    0    0 -0.00000000000E+00 -0.00000000000E+00 -0.45593999997E+02  0.45594000000E+02  0.51100000000E-03 0.  1.
    9900012    2    1    2    0    0 -0.29655664778E+02 -0.15712742456E+02  0.27518619995E+02  0.47787272180E+02  0.20000005176E+02 0.  0.
        -12    1    1    2    0    0  0.29655664778E+02  0.15712742456E+02 -0.27518619995E+02  0.43400727820E+02  0.00000000000E+00 0.  1.
         11    1    3    3    0    0 -0.94187095792E+01 -0.83631407948E+01  0.12839128285E+02  0.17986034290E+02  0.51100000000E-03 0. -1.
        -11    1    3    3    0    0 -0.17570390709E+02  0.19837249306E+00  0.77151911303E+01  0.19190678876E+02  0.51100000000E-03 0.  1.
        -12    1    3    3    0    0 -0.26665644903E+01 -0.75479741545E+01  0.69643005792E+01  0.10610559013E+02  0.00000000000E+00 0.  1.
</event>
<event>
 7    1  0.2811980E-010  0.4778727E+02  0.7816164E-02  0.1312668E+00
        -11   -1    0    0    0    0  0.00000000000E+00  0.00000000000E+00  0.45593999997E+02  0.45594000000E+02  0.51100000000E-03 0. -1.
         11   -1    0    0    0    0 -0.00000000000E+00 -0.00000000000E+00 -0.45593999997E+02  0.45594000000E+02  0.51100000000E-03 0.  1.
    9900012    2    1    2    0    0 -0.18887593127E+02 -0.36815380677E+02  0.13096173353E+02  0.47787272068E+02  0.20000004667E+02 0.  0.
        -12    1    1    2    0    0  0.18887593127E+02  0.36815380677E+02 -0.13096173353E+02  0.43400727932E+02  0.00000000000E+00 0.  1.
         11    1    3    3    0    0 -0.11025393417E+02 -0.27961543624E+02  0.13013853195E+02  0.32753131103E+02  0.51100000000E-03 0. -1.
        -11    1    3    3    0    0 -0.85909769743E+01 -0.80764858894E+01  0.27964335069E+01  0.12118355925E+02  0.51100000000E-03 0.  1.
         12    1    3    3    0    0  0.72877726449E+00 -0.77735116339E+00 -0.27141133481E+01  0.29157850399E+01  0.00000000000E+00 0. -1.
</event>
<event>
 7    1  0.2811980E-010  0.4778727E+02  0.7816164E-02  0.1312668E+00
        -11   -1    0    0    0    0  0.00000000000E+00  0.00000000000E+00  0.45593999997E+02  0.45594000000E+02  0.51100000000E-03 0. -1.
         11   -1    0    0    0    0 -0.00000000000E+00 -0.00000000000E+00 -0.45593999997E+02  0.45594000000E+02  0.51100000000E-03 0.  1.
    9900012    2    1    2    0    0 -0.30126498291E+02 -0.22804616643E+02  0.21353383800E+02  0.47787269139E+02  0.19999991314E+02 0.  0.
        -12    1    1    2    0    0  0.30126498291E+02  0.22804616643E+02 -0.21353383800E+02  0.43400730861E+02  0.00000000000E+00 0.  1.
         11    1    3    3    0    0 -0.56208483503E+01 -0.15512525350E+01  0.11174863563E+02  0.12604677565E+02  0.51100000000E-03 0. -1.
        -11    1    3    3    0    0 -0.12858623529E+01  0.47996780251E+00 -0.73656383912E+00  0.15576705788E+01  0.51100000000E-03 0.  1.
         12    1    3    3    0    0 -0.23219787588E+02 -0.21733331911E+02  0.10915084077E+02  0.33624920996E+02  0.00000000000E+00 0. -1.
</event>
<event>
 7    1  0.2811980E-010  0.4778727E+02  0.7816164E-02  0.1312668E+00
        -11   -1    0    0    0    0  0.00000000000E+00  0.00000000000E+00  0.45593999997E+02  0.45594000000E+02  0.51100000000E-03 0.  1.
         11   -1    0    0    0    0 -0.00000000000E+00 -0.00000000000E+00 -0.45593999997E+02  0.45594000000E+02  0.51100000000E-03 0. -1.
    9900012    2    1    2    0    0  0.43394331567E+02 -0.25428097586E+00 -0.70043287117E+00  0.47787271007E+02  0.19999999829E+02 0.  0.
        -12    1    1    2    0    0 -0.43394331567E+02  0.25428097586E+00  0.70043287117E+00  0.43400728993E+02  0.00000000000E+00 0.  1.
         11    1    3    3    0    0  0.58598148080E+01  0.26776537592E+01 -0.50455516862E+01  0.81832054426E+01  0.51100000000E-03 0. -1.
        -11    1    3    3    0    0  0.21600763699E+02 -0.37617820235E+01  0.78127774637E+01  0.23276243003E+02  0.51100000000E-03 0.  1.
         12    1    3    3    0    0  0.15933753060E+02  0.82984728847E+00 -0.34676586487E+01  0.16327822561E+02  0.00000000000E+00 0. -1.
</event>
<event>
 7    1  0.2811980E-010  0.4778727E+02  0.7816164E-02  0.1312668E+00
        -11   -1    0    0    0    0  0.00000000000E+00  0.00000000000E+00  0.45593999997E+02  0.45594000000E+02  0.51100000000E-03 0.  1.
         11   -1    0    0    0    0 -0.00000000000E+00 -0.00000000000E+00 -0.45593999997E+02  0.45594000000E+02  0.51100000000E-03 0. -1.
    9900012    2    1    2    0    0  0.40369089144E+02  0.12998915353E+01  0.15883015764E+02  0.47787271134E+02  0.20000000409E+02 0.  0.
        -12    1    1    2    0    0 -0.40369089144E+02 -0.12998915353E+01 -0.15883015764E+02  0.43400728866E+02  0.00000000000E+00 0.  1.
         11    1    3    3    0    0  0.32555549833E+02  0.69792609292E+01  0.91192602745E+01  0.34521512369E+02  0.51100000000E-03 0. -1.
        -11    1    3    3    0    0  0.47175151210E+01 -0.61377360397E+01  0.28379078941E+01  0.82450272338E+01  0.51100000000E-03 0.  1.
         12    1    3    3    0    0  0.30960241902E+01  0.45836664576E+00  0.39258475950E+01  0.50207315311E+01  0.00000000000E+00 0. -1.
</event>
<event>
 7    1  0.2811980E-010  0.4778727E+02  0.7816164E-02  0.1312668E+00
        -11   -1    0    0    0    0  0.00000000000E+00  0.00000000000E+00  0.45593999997E+02  0.45594000000E+02  0.51100000000E-03 0.  1.
         11   -1    0    0    0    0 -0.00000000000E+00 -0.00000000000E+00 -0.45593999997E+02  0.45594000000E+02  0.51100000000E-03 0. -1.
    9900012    2    1    2    0    0 -0.28185233232E+02 -0.10476917827E+02 -0.31296164855E+02  0.47787272885E+02  0.20000008393E+02 0.  0.
        -12    1    1    2    0    0  0.28185233232E+02  0.10476917827E+02  0.31296164855E+02  0.43400727115E+02  0.00000000000E+00 0.  1.
         11    1    3    3    0    0 -0.18520576803E+02 -0.81663142589E+01 -0.13272069087E+02  0.24204302754E+02  0.51100000000E-03 0. -1.
        -11    1    3    3    0    0  0.31359811350E+00 -0.46132513372E+01 -0.80757212638E+01  0.93057888365E+01  0.51100000000E-03 0.  1.
        -12    1    3    3    0    0 -0.99782545422E+01  0.23026477691E+01 -0.99483745033E+01  0.14277181294E+02  0.00000000000E+00 0.  1.
</event>
<event>
 7    1  0.2811980E-010  0.4778727E+02  0.7816164E-02  0.1312668E+00
        -11   -1    0    0    0    0  0.00000000000E+00  0.00000000000E+00  0.45593999997E+02  0.45594000000E+02  0.51100000000E-03 0.  1.
         11   -1    0    0    0    0 -0.00000000000E+00 -0.00000000000E+00 -0.45593999997E+02  0.45594000000E+02  0.51100000000E-03 0. -1.
    9900012    2    1    2    0    0  0.34607516379E+02  0.18711418343E+02 -0.18325551095E+02  0.47787272020E+02  0.20000004447E+02 0.  0.
        -12    1    1    2    0    0 -0.34607516379E+02 -0.18711418343E+02  0.18325551095E+02  0.43400727980E+02  0.00000000000E+00 0.  1.
         11    1    3    3    0    0  0.18533217965E+02  0.50319580577E+01 -0.40508461008E+01  0.19626770606E+02  0.51100000000E-03 0. -1.
        -11    1    3    3    0    0  0.15283209903E+02  0.13807048514E+02 -0.16116143787E+02  0.26152269202E+02  0.51100000000E-03 0.  1.
        -12    1    3    3    0    0  0.79108851058E+00 -0.12758822880E+00  0.18414387928E+01  0.20082322115E+01  0.00000000000E+00 0.  1.
</event>
<event>
 7    1  0.2811980E-010  0.4778727E+02  0.7816164E-02  0.1312668E+00
        -11   -1    0    0    0    0  0.00000000000E+00  0.00000000000E+00  0.45593999997E+02  0.45594000000E+02  0.51100000000E-03 0.  1.
         11   -1    0    0    0    0 -0.00000000000E+00 -0.00000000000E+00 -0.45593999997E+02  0.45594000000E+02  0.51100000000E-03 0. -1.
    9900012    2    1    2    0    0  0.53150103762E+01  0.40898010481E+02 -0.13517655515E+02  0.47787267204E+02  0.19999982488E+02 0.  0.
        -12    1    1    2    0    0 -0.53150103762E+01 -0.40898010481E+02  0.13517655515E+02  0.43400732796E+02  0.00000000000E+00 0.  1.
         11    1    3    3    0    0 -0.32225201324E-01  0.22283282128E+02  0.12664434808E+01  0.22319264778E+02  0.51100000000E-03 0. -1.
        -11    1    3    3    0    0  0.57553250352E+01  0.90352327979E+01 -0.10380628389E+02  0.14916991788E+02  0.51100000000E-03 0.  1.
         12    1    3    3    0    0 -0.40808945766E+00  0.95794955552E+01 -0.44034706069E+01  0.10551010638E+02  0.00000000000E+00 0. -1.
</event>
<event>
 7    1  0.2811980E-010  0.4778727E+02  0.7816164E-02  0.1312668E+00
        -11   -1    0    0    0    0  0.00000000000E+00  0.00000000000E+00  0.45593999997E+02  0.45594000000E+02  0.51100000000E-03 0. -1.
         11   -1    0    0    0    0 -0.00000000000E+00 -0.00000000000E+00 -0.45593999997E+02  0.45594000000E+02  0.51100000000E-03 0.  1.
    9900012    2    1    2    0    0  0.27937838513E+01 -0.13240828144E+02  0.41237101895E+02  0.47787270388E+02  0.19999997006E+02 0.  0.
        -12    1    1    2    0    0 -0.27937838513E+01  0.13240828144E+02 -0.41237101895E+02  0.43400729612E+02  0.00000000000E+00 0.  1.
         11    1    3    3    0    0  0.94883793452E+00 -0.36263770268E+01  0.53618114076E+01  0.65421652072E+01  0.51100000000E-03 0. -1.
        -11    1    3    3    0    0  0.15078760700E+01 -0.10918120912E+02  0.37528146742E+02  0.39113180038E+02  0.51100000000E-03 0.  1.
        -12    1    3    3    0    0  0.33706984678E+00  0.13036697947E+01 -0.16528562548E+01  0.21319251428E+01  0.00000000000E+00 0.  1.
</event>
<event>
 7    1  0.2811980E-010  0.4778730E+02  0.7816164E-02  0.1312668E+00
        -11   -1    0    0    0    0  0.00000000000E+00  0.00000000000E+00  0.45593999997E+02  0.45594000000E+02  0.51100000000E-03 0. -1.
         11   -1    0    0    0    0 -0.00000000000E+00 -0.00000000000E+00 -0.45593999997E+02  0.45594000000E+02  0.51100000000E-03 0.  1.
    9900012    2    1    2    0    0 -0.27201371042E+02  0.59105958666E+01  0.33298216383E+02  0.47787297882E+02  0.20000122364E+02 0.  0.
        -12    1    1    2    0    0  0.27201371042E+02 -0.59105958666E+01 -0.33298216383E+02  0.43400702118E+02  0.00000000000E+00 0.  1.
         11    1    3    3    0    0 -0.47110647566E+01  0.25516970759E+01 -0.55219811365E+00  0.53861128958E+01  0.51100000000E-03 0. -1.
        -11    1    3    3    0    0 -0.99099968504E+01  0.42906434982E+01  0.24259472505E+02  0.26554466022E+02  0.51100000000E-03 0.  1.
         12    1    3    3    0    0 -0.12580309435E+02 -0.93174470756E+00  0.95909419914E+01  0.15846718965E+02  0.00000000000E+00 0. -1.
</event>
<event>
 7    1  0.2811980E-010  0.4778727E+02  0.7816164E-02  0.1312668E+00
        -11   -1    0    0    0    0  0.00000000000E+00  0.00000000000E+00  0.45593999997E+02  0.45594000000E+02  0.51100000000E-03 0.  1.
         11   -1    0    0    0    0 -0.00000000000E+00 -0.00000000000E+00 -0.45593999997E+02  0.45594000000E+02  0.51100000000E-03 0. -1.
    9900012    2    1    2    0    0  0.20269145775E+02  0.31378957237E+02 -0.22094029725E+02  0.47787269854E+02  0.19999994574E+02 0.  0.
        -12    1    1    2    0    0 -0.20269145775E+02 -0.31378957237E+02  0.22094029725E+02  0.43400730146E+02  0.00000000000E+00 0.  1.
         11    1    3    3    0    0  0.60235611720E+01  0.22493214628E+02 -0.19741010942E+02  0.30527618753E+02  0.51100000000E-03 0. -1.
        -11    1    3    3    0    0  0.49962170354E+01  0.13912863139E+01 -0.95206512589E+00  0.52729773883E+01  0.51100000000E-03 0.  1.
         12    1    3    3    0    0  0.92493675672E+01  0.74944562948E+01 -0.14009536571E+01  0.11986673713E+02  0.00000000000E+00 0. -1.
</event>
<event>
 7    1  0.2811980E-010  0.4778728E+02  0.7816164E-02  0.1312668E+00
        -11   -1    0    0    0    0  0.00000000000E+00  0.00000000000E+00  0.45593999997E+02  0.45594000000E+02  0.51100000000E-03 0.  1.
         11   -1    0    0    0    0 -0.00000000000E+00 -0.00000000000E+00 -0.45593999997E+02  0.45594000000E+02  0.51100000000E-03 0. -1.
    9900012    2    1    2    0    0  0.42143599544E+02 -0.74653977634E+01 -0.71977080029E+01  0.47787284029E+02  0.20000059201E+02 0.  0.
        -12    1    1    2    0    0 -0.42143599544E+02  0.74653977634E+01  0.71977080029E+01  0.43400715971E+02  0.00000000000E+00 0.  1.
         11    1    3    3    0    0  0.24687484135E+02 -0.13724439101E+01 -0.32723001416E+01  0.24941199323E+02  0.51100000000E-03 0.  1.
        -11    1    3    3    0    0  0.11953288268E+02 -0.79685828025E+01 -0.73101467554E+01  0.16118860324E+02  0.51100000000E-03 0. -1.
        -12    1    3    3    0    0  0.55028271415E+01  0.18756289492E+01  0.33847388941E+01  0.67272243820E+01  0.00000000000E+00 0.  1.
</event>
<event>
 7    1  0.2811980E-010  0.4778727E+02  0.7816164E-02  0.1312668E+00
        -11   -1    0    0    0    0  0.00000000000E+00  0.00000000000E+00  0.45593999997E+02  0.45594000000E+02  0.51100000000E-03 0.  1.
         11   -1    0    0    0    0 -0.00000000000E+00 -0.00000000000E+00 -0.45593999997E+02  0.45594000000E+02  0.51100000000E-03 0. -1.
    9900012    2    1    2    0    0 -0.42949697422E+02  0.61111264971E+01  0.12653590276E+01  0.47787268334E+02  0.19999987641E+02 0.  0.
        -12    1    1    2    0    0  0.42949697422E+02 -0.61111264971E+01 -0.12653590276E+01  0.43400731666E+02  0.00000000000E+00 0.  1.
         11    1    3    3    0    0 -0.17809708796E+02  0.78515908946E+01  0.18472259001E+01  0.19551098454E+02  0.51100000000E-03 0. -1.
        -11    1    3    3    0    0 -0.10744610104E+02  0.55091975467E+01  0.47217815051E+00  0.12083908985E+02  0.51100000000E-03 0.  1.
        -12    1    3    3    0    0 -0.14395378521E+02 -0.72496619442E+01 -0.10540450230E+01  0.16152260894E+02  0.00000000000E+00 0.  1.
</event>
<event>
 7    1  0.2811980E-010  0.4778727E+02  0.7816164E-02  0.1312668E+00
        -11   -1    0    0    0    0  0.00000000000E+00  0.00000000000E+00  0.45593999997E+02  0.45594000000E+02  0.51100000000E-03 0. -1.
         11   -1    0    0    0    0 -0.00000000000E+00 -0.00000000000E+00 -0.45593999997E+02  0.45594000000E+02  0.51100000000E-03 0.  1.
    9900012    2    1    2    0    0 -0.35508301606E+02  0.21411325244E+02 -0.12819468762E+02  0.47787272921E+02  0.20000008556E+02 0.  0.
        -12    1    1    2    0    0  0.35508301606E+02 -0.21411325244E+02  0.12819468762E+02  0.43400727079E+02  0.00000000000E+00 0.  1.
         11    1    3    3    0    0 -0.16307436614E+02  0.15674830887E+02 -0.13153143497E+02  0.26165588019E+02  0.51100000000E-03 0. -1.
        -11    1    3    3    0    0 -0.33050806468E+01  0.75764463666E+00 -0.31226341336E+01  0.46096016825E+01  0.51100000000E-03 0.  1.
         12    1    3    3    0    0 -0.15895784345E+02  0.49788497201E+01  0.34563088687E+01  0.17012083220E+02  0.00000000000E+00 0. -1.
</event>
<event>
 7    1  0.2811980E-010  0.4778724E+02  0.7816164E-02  0.1312668E+00
        -11   -1    0    0    0    0  0.00000000000E+00  0.00000000000E+00  0.45593999997E+02  0.45594000000E+02  0.51100000000E-03 0.  1.
         11   -1    0    0    0    0 -0.00000000000E+00 -0.00000000000E+00 -0.45593999997E+02  0.45594000000E+02  0.51100000000E-03 0. -1.
    9900012    2    1    2    0    0 -0.10256232557E+02  0.16553941692E+02 -0.38786627959E+02  0.47787241939E+02  0.19999867298E+02 0.  0.
        -12    1    1    2    0    0  0.10256232557E+02 -0.16553941692E+02  0.38786627959E+02  0.43400758061E+02  0.00000000000E+00 0.  1.
         11    1    3    3    0    0 -0.23375305573E+01  0.10786086024E+02 -0.27296853239E+02  0.29443537455E+02  0.51100000000E-03 0. -1.
        -11    1    3    3    0    0 -0.65239460819E+01  0.11049594015E+01 -0.88548143228E+00  0.66758434213E+01  0.51100000000E-03 0.  1.
        -12    1    3    3    0    0 -0.13947559183E+01  0.46628962668E+01 -0.10604293288E+02  0.11667861063E+02  0.00000000000E+00 0.  1.
</event>
<event>
 7    1  0.2811980E-010  0.4778722E+02  0.7816164E-02  0.1312668E+00
        -11   -1    0    0    0    0  0.00000000000E+00  0.00000000000E+00  0.45593999997E+02  0.45594000000E+02  0.51100000000E-03 0. -1.
         11   -1    0    0    0    0 -0.00000000000E+00 -0.00000000000E+00 -0.45593999997E+02  0.45594000000E+02  0.51100000000E-03 0.  1.
    9900012    2    1    2    0    0 -0.40699927032E+02 -0.12226466236E+02 -0.88123097068E+01  0.47787224208E+02  0.19999786452E+02 0.  0.
        -12    1    1    2    0    0  0.40699927032E+02  0.12226466236E+02  0.88123097068E+01  0.43400775792E+02  0.00000000000E+00 0.  1.
         11    1    3    3    0    0 -0.16443065604E+02 -0.23546679888E+01 -0.82147545962E+01  0.18531083647E+02  0.51100000000E-03 0. -1.
        -11    1    3    3    0    0 -0.17822682086E+02 -0.36218644061E+01  0.47710019084E+01  0.18802349799E+02  0.51100000000E-03 0.  1.
        -12    1    3    3    0    0 -0.64341793423E+01 -0.62499338410E+01 -0.53685570190E+01  0.10453790762E+02  0.00000000000E+00 0.  1.
</event>
<event>
 7    1  0.2811980E-010  0.4778727E+02  0.7816164E-02  0.1312668E+00
        -11   -1    0    0    0    0  0.00000000000E+00  0.00000000000E+00  0.45593999997E+02  0.45594000000E+02  0.51100000000E-03 0.  1.
         11   -1    0    0    0    0 -0.00000000000E+00 -0.00000000000E+00 -0.45593999997E+02  0.45594000000E+02  0.51100000000E-03 0. -1.
    9900012    2    1    2    0    0  0.16449350054E+02 -0.13625244770E+02 -0.37780886019E+02  0.47787265437E+02  0.19999974435E+02 0.  0.
        -12    1    1    2    0    0 -0.16449350054E+02  0.13625244770E+02  0.37780886019E+02  0.43400734563E+02  0.00000000000E+00 0.  1.
         11    1    3    3    0    0  0.12237979528E+02 -0.24351491016E+01 -0.11855322209E+02  0.17211820328E+02  0.51100000000E-03 0. -1.
        -11    1    3    3    0    0  0.26871901845E+01 -0.11100986348E+02 -0.26567965543E+02  0.28919019388E+02  0.51100000000E-03 0.  1.
        -12    1    3    3    0    0  0.15241803414E+01 -0.89109319798E-01  0.64240173302E+00  0.16564257214E+01  0.00000000000E+00 0.  1.
</event>
<event>
 7    1  0.2811980E-010  0.4778727E+02  0.7816164E-02  0.1312668E+00
        -11   -1    0    0    0    0  0.00000000000E+00  0.00000000000E+00  0.45593999997E+02  0.45594000000E+02  0.51100000000E-03 0.  1.
         11   -1    0    0    0    0 -0.00000000000E+00 -0.00000000000E+00 -0.45593999997E+02  0.45594000000E+02  0.51100000000E-03 0. -1.
    9900012    2    1    2    0    0 -0.17529288691E+02  0.30039425991E+02 -0.25961126279E+02  0.47787272431E+02  0.20000006320E+02 0.  0.
        -12    1    1    2    0    0  0.17529288691E+02 -0.30039425991E+02  0.25961126279E+02  0.43400727569E+02  0.00000000000E+00 0.  1.
         11    1    3    3    0    0 -0.94972079401E+01  0.21223392713E+01 -0.27369325883E+01  0.10109009986E+02  0.51100000000E-03 0. -1.
        -11    1    3    3    0    0 -0.23514470891E+01  0.10635790923E+02 -0.12423392647E+02  0.16522410148E+02  0.51100000000E-03 0.  1.
         12    1    3    3    0    0 -0.56806336621E+01  0.17281295797E+02 -0.10800801043E+02  0.21155852297E+02  0.00000000000E+00 0. -1.
</event>
<event>
 7    1  0.2811980E-010  0.4778727E+02  0.7816164E-02  0.1312668E+00
        -11   -1    0    0    0    0  0.00000000000E+00  0.00000000000E+00  0.45593999997E+02  0.45594000000E+02  0.51100000000E-03 0. -1.
         11   -1    0    0    0    0 -0.00000000000E+00 -0.00000000000E+00 -0.45593999997E+02  0.45594000000E+02  0.51100000000E-03 0.  1.
    9900012    2    1    2    0    0  0.34315193123E+02 -0.26277221544E+02 -0.39494768128E+01  0.47787271685E+02  0.20000002922E+02 0.  0.
        -12    1    1    2    0    0 -0.34315193123E+02  0.26277221544E+02  0.39494768128E+01  0.43400728315E+02  0.00000000000E+00 0.  1.
         11    1    3    3    0    0  0.10367505199E+02 -0.83139751259E+01 -0.38486244508E+01  0.13835434828E+02  0.51100000000E-03 0. -1.
        -11    1    3    3    0    0  0.80365498868E+01 -0.14557061057E+02 -0.42436664560E+01  0.17161085803E+02  0.51100000000E-03 0.  1.
        -12    1    3    3    0    0  0.15911138037E+02 -0.34061853612E+01  0.41428140941E+01  0.16790751054E+02  0.00000000000E+00 0.  1.
</event>
<event>
 7    1  0.2811980E-010  0.4778728E+02  0.7816164E-02  0.1312668E+00
        -11   -1    0    0    0    0  0.00000000000E+00  0.00000000000E+00  0.45593999997E+02  0.45594000000E+02  0.51100000000E-03 0. -1.
         11   -1    0    0    0    0 -0.00000000000E+00 -0.00000000000E+00 -0.45593999997E+02  0.45594000000E+02  0.51100000000E-03 0.  1.
    9900012    2    1    2    0    0 -0.35262194879E+02 -0.25081112541E+02 -0.33374086929E+01  0.47787275459E+02  0.20000020126E+02 0.  0.
        -12    1    1    2    0    0  0.35262194879E+02  0.25081112541E+02  0.33374086929E+01  0.43400724541E+02  0.00000000000E+00 0.  1.
         11    1    3    3    0    0 -0.16854379252E+02 -0.18375032408E+02  0.41842341723E+00  0.24937662168E+02  0.51100000000E-03 0. -1.
        -11    1    3    3    0    0 -0.13002527648E+02 -0.27480692738E+01 -0.74124816814E+01  0.15217177626E+02  0.51100000000E-03 0.  1.
         12    1    3    3    0    0 -0.54052879783E+01 -0.39580108587E+01  0.36566495712E+01  0.76324356646E+01  0.00000000000E+00 0. -1.
</event>
<event>
 7    1  0.2811980E-010  0.4778727E+02  0.7816164E-02  0.1312668E+00
        -11   -1    0    0    0    0  0.00000000000E+00  0.00000000000E+00  0.45593999997E+02  0.45594000000E+02  0.51100000000E-03 0.  1.
         11   -1    0    0    0    0 -0.00000000000E+00 -0.00000000000E+00 -0.45593999997E+02  0.45594000000E+02  0.51100000000E-03 0. -1.
    9900012    2    1    2    0    0 -0.23255530464E+02 -0.93096641031E+01 -0.35441981106E+02  0.47787267661E+02  0.19999984573E+02 0.  0.
        -12    1    1    2    0    0  0.23255530464E+02  0.93096641031E+01  0.35441981106E+02  0.43400732339E+02  0.00000000000E+00 0.  1.
         11    1    3    3    0    0 -0.59372126537E+01  0.16791850827E+01 -0.44180800154E+00  0.61858993855E+01  0.51100000000E-03 0. -1.
        -11    1    3    3    0    0 -0.36902397283E+01 -0.38955413334E+01 -0.31068093567E+01  0.62004335472E+01  0.51100000000E-03 0.  1.
         12    1    3    3    0    0 -0.13628078082E+02 -0.70933078524E+01 -0.31893363748E+02  0.35400934728E+02  0.00000000000E+00 0. -1.
</event>
<event>
 7    1  0.2811980E-010  0.4778727E+02  0.7816164E-02  0.1312668E+00
        -11   -1    0    0    0    0  0.00000000000E+00  0.00000000000E+00  0.45593999997E+02  0.45594000000E+02  0.51100000000E-03 0.  1.
         11   -1    0    0    0    0 -0.00000000000E+00 -0.00000000000E+00 -0.45593999997E+02  0.45594000000E+02  0.51100000000E-03 0. -1.
    9900012    2    1    2    0    0  0.36861356689E+02 -0.22479472180E+02 -0.44200939331E+01  0.47787268245E+02  0.19999987238E+02 0.  0.
        -12    1    1    2    0    0 -0.36861356689E+02  0.22479472180E+02  0.44200939331E+01  0.43400731755E+02  0.00000000000E+00 0.  1.
         11    1    3    3    0    0  0.13456630021E+02 -0.15490790646E+02 -0.29902481880E+01  0.20736129601E+02  0.51100000000E-03 0. -1.
        -11    1    3    3    0    0  0.74858179920E+01 -0.16355570296E+01  0.49087890928E+01  0.90999301330E+01  0.51100000000E-03 0.  1.
         12    1    3    3    0    0  0.15918908676E+02 -0.53531245047E+01 -0.63386348380E+01  0.17951208511E+02  0.00000000000E+00 0. -1.
</event>
<event>
 7    1  0.2811980E-010  0.4778731E+02  0.7816164E-02  0.1312668E+00
        -11   -1    0    0    0    0  0.00000000000E+00  0.00000000000E+00  0.45593999997E+02  0.45594000000E+02  0.51100000000E-03 0.  1.
         11   -1    0    0    0    0 -0.00000000000E+00 -0.00000000000E+00 -0.45593999997E+02  0.45594000000E+02  0.51100000000E-03 0. -1.
    9900012    2    1    2    0    0 -0.39755994084E+02 -0.16105627905E+02  0.66098194839E+01  0.47787308422E+02  0.20000170419E+02 0.  0.
        -12    1    1    2    0    0  0.39755994084E+02  0.16105627905E+02 -0.66098194839E+01  0.43400691578E+02  0.00000000000E+00 0.  1.
         11    1    3    3    0    0 -0.35902353540E+02 -0.98772872536E+01  0.71082151304E+01  0.37908660169E+02  0.51100000000E-03 0. -1.
        -11    1    3    3    0    0  0.14276014480E+01 -0.37878938710E+01 -0.17065244436E+00  0.40515809742E+01  0.51100000000E-03 0.  1.
         12    1    3    3    0    0 -0.52812419923E+01 -0.24404467805E+01 -0.32774320208E+00  0.58270672792E+01  0.00000000000E+00 0. -1.
</event>
<event>
 7    1  0.2811980E-010  0.4778727E+02  0.7816164E-02  0.1312668E+00
        -11   -1    0    0    0    0  0.00000000000E+00  0.00000000000E+00  0.45593999997E+02  0.45594000000E+02  0.51100000000E-03 0.  1.
         11   -1    0    0    0    0 -0.00000000000E+00 -0.00000000000E+00 -0.45593999997E+02  0.45594000000E+02  0.51100000000E-03 0. -1.
    9900012    2    1    2    0    0 -0.32242431642E+02 -0.28907028819E+02 -0.29038616742E+01  0.47787272749E+02  0.20000007770E+02 0.  0.
        -12    1    1    2    0    0  0.32242431642E+02  0.28907028819E+02  0.29038616742E+01  0.43400727251E+02  0.00000000000E+00 0.  1.
         11    1    3    3    0    0 -0.46386930746E+01 -0.14682036631E+02  0.89198787423E+00  0.15423207050E+02  0.51100000000E-03 0. -1.
        -11    1    3    3    0    0 -0.26012015404E+02 -0.10646666763E+02 -0.42325339812E+01  0.28423419969E+02  0.51100000000E-03 0.  1.
        -12    1    3    3    0    0 -0.15917231635E+01 -0.35783254252E+01  0.43668443277E+00  0.39406457303E+01  0.00000000000E+00 0.  1.
</event>
<event>
 7    1  0.2811980E-010  0.4778728E+02  0.7816164E-02  0.1312668E+00
        -11   -1    0    0    0    0  0.00000000000E+00  0.00000000000E+00  0.45593999997E+02  0.45594000000E+02  0.51100000000E-03 0. -1.
         11   -1    0    0    0    0 -0.00000000000E+00 -0.00000000000E+00 -0.45593999997E+02  0.45594000000E+02  0.51100000000E-03 0.  1.
    9900012    2    1    2    0    0  0.15767024476E+02  0.20039588862E+02  0.35120344415E+02  0.47787276798E+02  0.20000026234E+02 0.  0.
        -12    1    1    2    0    0 -0.15767024476E+02 -0.20039588862E+02 -0.35120344415E+02  0.43400723202E+02  0.00000000000E+00 0.  1.
         11    1    3    3    0    0  0.12137354479E+02  0.67862883933E+01  0.86330167014E+01  0.16367591806E+02  0.51100000000E-03 0. -1.
        -11    1    3    3    0    0  0.24962996580E+00  0.12159222272E+02  0.24491201617E+02  0.27344614795E+02  0.51100000000E-03 0.  1.
        -12    1    3    3    0    0  0.33800400316E+01  0.10940781965E+01  0.19961260966E+01  0.40750701968E+01  0.00000000000E+00 0.  1.
</event>
<event>
 7    1  0.2811980E-010  0.4778727E+02  0.7816164E-02  0.1312668E+00
        -11   -1    0    0    0    0  0.00000000000E+00  0.00000000000E+00  0.45593999997E+02  0.45594000000E+02  0.51100000000E-03 0. -1.
         11   -1    0    0    0    0 -0.00000000000E+00 -0.00000000000E+00 -0.45593999997E+02  0.45594000000E+02  0.51100000000E-03 0.  1.
    9900012    2    1    2    0    0 -0.19691160684E+02 -0.38550338983E+02  0.31229449652E+01  0.47787271549E+02  0.20000002302E+02 0.  0.
        -12    1    1    2    0    0  0.19691160684E+02  0.38550338983E+02 -0.31229449652E+01  0.43400728451E+02  0.00000000000E+00 0.  1.
         11    1    3    3    0    0 -0.10952182317E+02 -0.16416410976E+02  0.10504453593E+02  0.22356037046E+02  0.51100000000E-03 0. -1.
        -11    1    3    3    0    0 -0.38638062918E+01 -0.13041644495E+02 -0.65044901411E+01  0.15077197434E+02  0.51100000000E-03 0.  1.
         12    1    3    3    0    0 -0.48751720758E+01 -0.90922835110E+01 -0.87701848682E+00  0.10354037070E+02  0.00000000000E+00 0. -1.
</event>
<event>
 7    1  0.2811980E-010  0.4778727E+02  0.7816164E-02  0.1312668E+00
        -11   -1    0    0    0    0  0.00000000000E+00  0.00000000000E+00  0.45593999997E+02  0.45594000000E+02  0.51100000000E-03 0.  1.
         11   -1    0    0    0    0 -0.00000000000E+00 -0.00000000000E+00 -0.45593999997E+02  0.45594000000E+02  0.51100000000E-03 0. -1.
    9900012    2    1    2    0    0 -0.13236235513E+01 -0.41248549174E+02  0.13432378740E+02  0.47787267439E+02  0.19999983560E+02 0.  0.
        -12    1    1    2    0    0  0.13236235513E+01  0.41248549174E+02 -0.13432378740E+02  0.43400732561E+02  0.00000000000E+00 0.  1.
         11    1    3    3    0    0  0.12137745854E-01 -0.21102345486E+02  0.70576542114E+00  0.21114147803E+02  0.51100000000E-03 0. -1.
        -11    1    3    3    0    0 -0.20106163851E+01 -0.30390496325E+01  0.81865439914E+01  0.89609097586E+01  0.51100000000E-03 0.  1.
        -12    1    3    3    0    0  0.67485508790E+00 -0.17107154055E+02  0.45400693278E+01  0.17712209877E+02  0.00000000000E+00 0.  1.
</event>
<event>
 7    1  0.2811980E-010  0.4778727E+02  0.7816164E-02  0.1312668E+00
        -11   -1    0    0    0    0  0.00000000000E+00  0.00000000000E+00  0.45593999997E+02  0.45594000000E+02  0.51100000000E-03 0.  1.
         11   -1    0    0    0    0 -0.00000000000E+00 -0.00000000000E+00 -0.45593999997E+02  0.45594000000E+02  0.51100000000E-03 0. -1.
    9900012    2    1    2    0    0 -0.17586279106E+02  0.20469607366E+02 -0.33990307486E+02  0.47787273722E+02  0.20000012206E+02 0.  0.
        -12    1    1    2    0    0  0.17586279106E+02 -0.20469607366E+02  0.33990307486E+02  0.43400726278E+02  0.00000000000E+00 0.  1.
         11    1    3    3    0    0  0.12551334224E+01  0.39931585620E+01 -0.28412636910E+00  0.41954026343E+01  0.51100000000E-03 0.  1.
        -11    1    3    3    0    0 -0.18660223167E+02  0.12434371193E+02 -0.32275075004E+02  0.39300101557E+02  0.51100000000E-03 0. -1.
        -12    1    3    3    0    0 -0.18118936203E+00  0.40420776110E+01 -0.14311061127E+01  0.42917695306E+01  0.00000000000E+00 0.  1.
</event>
<event>
 7    1  0.2811980E-010  0.4778727E+02  0.7816164E-02  0.1312668E+00
        -11   -1    0    0    0    0  0.00000000000E+00  0.00000000000E+00  0.45593999997E+02  0.45594000000E+02  0.51100000000E-03 0.  1.
         11   -1    0    0    0    0 -0.00000000000E+00 -0.00000000000E+00 -0.45593999997E+02  0.45594000000E+02  0.51100000000E-03 0. -1.
    9900012    2    1    2    0    0  0.13423860176E+02 -0.31439832888E+02 -0.26738734509E+02  0.47787273771E+02  0.20000012432E+02 0.  0.
        -12    1    1    2    0    0 -0.13423860176E+02  0.31439832888E+02  0.26738734509E+02  0.43400726229E+02  0.00000000000E+00 0.  1.
         11    1    3    3    0    0  0.13918819955E+02 -0.31613788465E+02 -0.22456374722E+02  0.41200169125E+02  0.51100000000E-03 0. -1.
        -11    1    3    3    0    0 -0.21498967289E+01  0.11525473196E+01 -0.39403496194E+01  0.46343043332E+01  0.51100000000E-03 0.  1.
        -12    1    3    3    0    0  0.16549369492E+01 -0.97859174349E+00 -0.34201016746E+00  0.19528003126E+01  0.00000000000E+00 0.  1.
</event>
<event>
 7    1  0.2811980E-010  0.4778727E+02  0.7816164E-02  0.1312668E+00
        -11   -1    0    0    0    0  0.00000000000E+00  0.00000000000E+00  0.45593999997E+02  0.45594000000E+02  0.51100000000E-03 0.  1.
         11   -1    0    0    0    0 -0.00000000000E+00 -0.00000000000E+00 -0.45593999997E+02  0.45594000000E+02  0.51100000000E-03 0. -1.
    9900012    2    1    2    0    0 -0.42844503087E+02 -0.45235361938E+01 -0.52449733427E+01  0.47787267635E+02  0.19999984456E+02 0.  0.
        -12    1    1    2    0    0  0.42844503087E+02  0.45235361938E+01  0.52449733427E+01  0.43400732365E+02  0.00000000000E+00 0.  1.
         11    1    3    3    0    0 -0.40766890528E+02 -0.45166270074E+00 -0.51698865514E+01  0.41095876797E+02  0.51100000000E-03 0. -1.
        -11    1    3    3    0    0 -0.11603106951E+01 -0.39342325007E+01 -0.19934679334E+01  0.45605285813E+01  0.51100000000E-03 0.  1.
        -12    1    3    3    0    0 -0.91730186378E+00 -0.13764099240E+00  0.19183811421E+01  0.21308622570E+01  0.00000000000E+00 0.  1.
</event>
<event>
 7    1  0.2811980E-010  0.4778727E+02  0.7816164E-02  0.1312668E+00
        -11   -1    0    0    0    0  0.00000000000E+00  0.00000000000E+00  0.45593999997E+02  0.45594000000E+02  0.51100000000E-03 0.  1.
         11   -1    0    0    0    0 -0.00000000000E+00 -0.00000000000E+00 -0.45593999997E+02  0.45594000000E+02  0.51100000000E-03 0. -1.
    9900012    2    1    2    0    0 -0.62755580937E+01  0.23239488081E+02 -0.36113247929E+02  0.47787272914E+02  0.20000008523E+02 0.  0.
        -12    1    1    2    0    0  0.62755580937E+01 -0.23239488081E+02  0.36113247929E+02  0.43400727086E+02  0.00000000000E+00 0.  1.
         11    1    3    3    0    0 -0.26060602906E+01  0.17064750352E+02 -0.30034698715E+02  0.34642176346E+02  0.51100000000E-03 0. -1.
        -11    1    3    3    0    0  0.88534567321E+00  0.55383655130E+01 -0.10947447995E+00  0.56097517270E+01  0.51100000000E-03 0.  1.
        -12    1    3    3    0    0 -0.45548434763E+01  0.63637221584E+00 -0.59690747337E+01  0.75353448406E+01  0.00000000000E+00 0.  1.
</event>
<event>
 7    1  0.2811980E-010  0.4778726E+02  0.7816164E-02  0.1312668E+00
        -11   -1    0    0    0    0  0.00000000000E+00  0.00000000000E+00  0.45593999997E+02  0.45594000000E+02  0.51100000000E-03 0.  1.
         11   -1    0    0    0    0 -0.00000000000E+00 -0.00000000000E+00 -0.45593999997E+02  0.45594000000E+02  0.51100000000E-03 0. -1.
    9900012    2    1    2    0    0 -0.41983547021E+02  0.99909819310E+01  0.46029023921E+01  0.47787255181E+02  0.19999927673E+02 0.  0.
        -12    1    1    2    0    0  0.41983547021E+02 -0.99909819310E+01 -0.46029023921E+01  0.43400744819E+02  0.00000000000E+00 0.  1.
         11    1    3    3    0    0 -0.89863313189E+01  0.28243587168E+01 -0.99612665038E+00  0.94722447867E+01  0.51100000000E-03 0. -1.
        -11    1    3    3    0    0 -0.14569370525E+02  0.10267241585E+02 -0.24067744834E+01  0.17985421066E+02  0.51100000000E-03 0.  1.
        -12    1    3    3    0    0 -0.18427845177E+02 -0.31006183711E+01  0.80058035259E+01  0.20329589328E+02  0.00000000000E+00 0.  1.
</event>
<event>
 7    1  0.2811980E-010  0.4778727E+02  0.7816164E-02  0.1312668E+00
        -11   -1    0    0    0    0  0.00000000000E+00  0.00000000000E+00  0.45593999997E+02  0.45594000000E+02  0.51100000000E-03 0.  1.
         11   -1    0    0    0    0 -0.00000000000E+00 -0.00000000000E+00 -0.45593999997E+02  0.45594000000E+02  0.51100000000E-03 0. -1.
    9900012    2    1    2    0    0  0.53539541440E+01 -0.25636620636E+02 -0.34608123184E+02  0.47787270364E+02  0.19999996898E+02 0.  0.
        -12    1    1    2    0    0 -0.53539541440E+01  0.25636620636E+02  0.34608123184E+02  0.43400729636E+02  0.00000000000E+00 0.  1.
         11    1    3    3    0    0 -0.41280844131E+00 -0.48499737920E+01 -0.74598331585E+01  0.89073995985E+01  0.51100000000E-03 0. -1.
        -11    1    3    3    0    0  0.11341679137E+02 -0.11404183257E+02 -0.20662029250E+02  0.26184127528E+02  0.51100000000E-03 0.  1.
        -12    1    3    3    0    0 -0.55749165513E+01 -0.93824635873E+01 -0.64862607751E+01  0.12695743238E+02  0.00000000000E+00 0.  1.
</event>
<event>
 7    1  0.2811980E-010  0.4778727E+02  0.7816164E-02  0.1312668E+00
        -11   -1    0    0    0    0  0.00000000000E+00  0.00000000000E+00  0.45593999997E+02  0.45594000000E+02  0.51100000000E-03 0.  1.
         11   -1    0    0    0    0 -0.00000000000E+00 -0.00000000000E+00 -0.45593999997E+02  0.45594000000E+02  0.51100000000E-03 0. -1.
    9900012    2    1    2    0    0  0.20382665690E+02 -0.29956131212E+02 -0.23891424600E+02  0.47787273886E+02  0.20000012954E+02 0.  0.
        -12    1    1    2    0    0 -0.20382665690E+02  0.29956131212E+02  0.23891424600E+02  0.43400726114E+02  0.00000000000E+00 0.  1.
         11    1    3    3    0    0  0.95163443935E+01 -0.13171757057E+02 -0.17255801277E+02  0.23702714456E+02  0.51100000000E-03 0. -1.
        -11    1    3    3    0    0  0.55087570292E+01 -0.58255986265E+01  0.29783903776E+01  0.85530586848E+01  0.51100000000E-03 0.  1.
        -12    1    3    3    0    0  0.53575642675E+01 -0.10958775528E+02 -0.96140137009E+01  0.15531500745E+02  0.00000000000E+00 0.  1.
</event>
<event>
 7    1  0.2811980E-010  0.4778727E+02  0.7816164E-02  0.1312668E+00
        -11   -1    0    0    0    0  0.00000000000E+00  0.00000000000E+00  0.45593999997E+02  0.45594000000E+02  0.51100000000E-03 0.  1.
         11   -1    0    0    0    0 -0.00000000000E+00 -0.00000000000E+00 -0.45593999997E+02  0.45594000000E+02  0.51100000000E-03 0. -1.
    9900012    2    1    2    0    0  0.31097855227E+02  0.14725184754E+02 -0.26452135922E+02  0.47787272349E+02  0.20000005949E+02 0.  0.
        -12    1    1    2    0    0 -0.31097855227E+02 -0.14725184754E+02  0.26452135922E+02  0.43400727651E+02  0.00000000000E+00 0.  1.
         11    1    3    3    0    0  0.16546704904E+02  0.56382730140E+01 -0.12447152348E+02  0.21459617135E+02  0.51100000000E-03 0. -1.
        -11    1    3    3    0    0  0.45361556944E+01 -0.20610921014E+01  0.10429758688E+01  0.50904428156E+01  0.51100000000E-03 0.  1.
        -12    1    3    3    0    0  0.10014994629E+02  0.11148003842E+02 -0.15047959443E+02  0.21237212399E+02  0.00000000000E+00 0.  1.
</event>
<event>
 7    1  0.2811980E-010  0.4778725E+02  0.7816164E-02  0.1312668E+00
        -11   -1    0    0    0    0  0.00000000000E+00  0.00000000000E+00  0.45593999997E+02  0.45594000000E+02  0.51100000000E-03 0.  1.
         11   -1    0    0    0    0 -0.00000000000E+00 -0.00000000000E+00 -0.45593999997E+02  0.45594000000E+02  0.51100000000E-03 0. -1.
    9900012    2    1    2    0    0 -0.32576832678E+02  0.22860526592E+02 -0.17313895608E+02  0.47787254793E+02  0.19999925903E+02 0.  0.
        -12    1    1    2    0    0  0.32576832678E+02 -0.22860526592E+02  0.17313895608E+02  0.43400745207E+02  0.00000000000E+00 0.  1.
         11    1    3    3    0    0 -0.87411101412E+01  0.82869513034E+01 -0.69996478725E+01  0.13931103295E+02  0.51100000000E-03 0. -1.
        -11    1    3    3    0    0 -0.54808067396E-01 -0.20940133662E+00 -0.54273795737E+01  0.54316942239E+01  0.51100000000E-03 0.  1.
        -12    1    3    3    0    0 -0.23780914469E+02  0.14782976625E+02 -0.48868681617E+01  0.28424457274E+02  0.00000000000E+00 0.  1.
</event>
<event>
 7    1  0.2811980E-010  0.4778727E+02  0.7816164E-02  0.1312668E+00
        -11   -1    0    0    0    0  0.00000000000E+00  0.00000000000E+00  0.45593999997E+02  0.45594000000E+02  0.51100000000E-03 0.  1.
         11   -1    0    0    0    0 -0.00000000000E+00 -0.00000000000E+00 -0.45593999997E+02  0.45594000000E+02  0.51100000000E-03 0. -1.
    9900012    2    1    2    0    0 -0.26491907167E+01  0.43319657284E+02  0.11152909027E+00  0.47787270083E+02  0.19999995615E+02 0.  0.
        -12    1    1    2    0    0  0.26491907167E+01 -0.43319657284E+02 -0.11152909027E+00  0.43400729917E+02  0.00000000000E+00 0.  1.
         11    1    3    3    0    0  0.98574096957E+00  0.28452711137E+02  0.34952130155E+01  0.28683531348E+02  0.51100000000E-03 0. -1.
        -11    1    3    3    0    0 -0.15338718479E+01 -0.15341996714E+01  0.21950149293E+00  0.21805303584E+01  0.51100000000E-03 0.  1.
        -12    1    3    3    0    0 -0.21010598383E+01  0.16401145818E+02 -0.36031854181E+01  0.16923208376E+02  0.00000000000E+00 0.  1.
</event>
<event>
 7    1  0.2811980E-010  0.4778727E+02  0.7816164E-02  0.1312668E+00
        -11   -1    0    0    0    0  0.00000000000E+00  0.00000000000E+00  0.45593999997E+02  0.45594000000E+02  0.51100000000E-03 0.  1.
         11   -1    0    0    0    0 -0.00000000000E+00 -0.00000000000E+00 -0.45593999997E+02  0.45594000000E+02  0.51100000000E-03 0. -1.
    9900012    2    1    2    0    0  0.42815598002E+02  0.21108476083E+00 -0.70995401624E+01  0.47787268905E+02  0.19999990246E+02 0.  0.
        -12    1    1    2    0    0 -0.42815598002E+02 -0.21108476083E+00  0.70995401624E+01  0.43400731095E+02  0.00000000000E+00 0.  1.
         11    1    3    3    0    0  0.15498678657E+02 -0.58359342267E+01 -0.59003858046E+01  0.17580720159E+02  0.51100000000E-03 0. -1.
        -11    1    3    3    0    0  0.57598316282E+01 -0.33516528393E+01 -0.12632501177E+00  0.66652228328E+01  0.51100000000E-03 0.  1.
         12    1    3    3    0    0  0.21557087717E+02  0.93986718269E+01 -0.10728293460E+01  0.23541325913E+02  0.00000000000E+00 0. -1.
</event>
<event>
 7    1  0.2811980E-010  0.4778727E+02  0.7816164E-02  0.1312668E+00
        -11   -1    0    0    0    0  0.00000000000E+00  0.00000000000E+00  0.45593999997E+02  0.45594000000E+02  0.51100000000E-03 0. -1.
         11   -1    0    0    0    0 -0.00000000000E+00 -0.00000000000E+00 -0.45593999997E+02  0.45594000000E+02  0.51100000000E-03 0.  1.
    9900012    2    1    2    0    0 -0.24125328215E+02  0.16978705710E+02  0.31832620964E+02  0.47787266521E+02  0.19999979377E+02 0.  0.
        -12    1    1    2    0    0  0.24125328215E+02 -0.16978705710E+02 -0.31832620964E+02  0.43400733479E+02  0.00000000000E+00 0.  1.
         11    1    3    3    0    0 -0.11395704944E+02  0.50951083715E+01  0.11747539196E+02  0.17141379697E+02  0.51100000000E-03 0. -1.
        -11    1    3    3    0    0  0.17714780198E+01  0.78196480816E+01  0.81216610735E+01  0.11412554900E+02  0.51100000000E-03 0.  1.
        -12    1    3    3    0    0 -0.14501101290E+02  0.40639492569E+01  0.11963420695E+02  0.19233331924E+02  0.00000000000E+00 0.  1.
</event>
<event>
 7    1  0.2811980E-010  0.4778726E+02  0.7816164E-02  0.1312668E+00
        -11   -1    0    0    0    0  0.00000000000E+00  0.00000000000E+00  0.45593999997E+02  0.45594000000E+02  0.51100000000E-03 0.  1.
         11   -1    0    0    0    0 -0.00000000000E+00 -0.00000000000E+00 -0.45593999997E+02  0.45594000000E+02  0.51100000000E-03 0. -1.
    9900012    2    1    2    0    0  0.10079781329E+02  0.19004377617E+01 -0.42171202365E+02  0.47787263091E+02  0.19999963739E+02 0.  0.
        -12    1    1    2    0    0 -0.10079781329E+02 -0.19004377617E+01  0.42171202365E+02  0.43400736909E+02  0.00000000000E+00 0.  1.
         11    1    3    3    0    0  0.13359083704E+02  0.44114987023E+01 -0.39629432138E+02  0.42052566272E+02  0.51100000000E-03 0. -1.
        -11    1    3    3    0    0 -0.22443588691E+01 -0.29832216369E+01 -0.10875105445E+01  0.38883720904E+01  0.51100000000E-03 0.  1.
         12    1    3    3    0    0 -0.10349435054E+01  0.47216069636E+00 -0.14542596816E+01  0.18463247287E+01  0.00000000000E+00 0. -1.
</event>
<event>
 7    1  0.2811980E-010  0.4778727E+02  0.7816164E-02  0.1312668E+00
        -11   -1    0    0    0    0  0.00000000000E+00  0.00000000000E+00  0.45593999997E+02  0.45594000000E+02  0.51100000000E-03 0.  1.
         11   -1    0    0    0    0 -0.00000000000E+00 -0.00000000000E+00 -0.45593999997E+02  0.45594000000E+02  0.51100000000E-03 0. -1.
    9900012    2    1    2    0    0  0.19601383623E+02 -0.96633658331E+01 -0.37497047269E+02  0.47787269211E+02  0.19999991640E+02 0.  0.
        -12    1    1    2    0    0 -0.19601383623E+02  0.96633658331E+01  0.37497047269E+02  0.43400730789E+02  0.00000000000E+00 0.  1.
         11    1    3    3    0    0  0.45349189340E+01 -0.10039857871E+02 -0.23911965857E+02  0.26327672651E+02  0.51100000000E-03 0. -1.
        -11    1    3    3    0    0 -0.15492237461E+00  0.75602037648E+00 -0.25254174884E+01  0.26407009493E+01  0.51100000000E-03 0.  1.
         12    1    3    3    0    0  0.15221387064E+02 -0.37952833840E+00 -0.11059663923E+02  0.18818895610E+02  0.00000000000E+00 0. -1.
</event>
<event>
 7    1  0.2811980E-010  0.4778727E+02  0.7816164E-02  0.1312668E+00
        -11   -1    0    0    0    0  0.00000000000E+00  0.00000000000E+00  0.45593999997E+02  0.45594000000E+02  0.51100000000E-03 0.  1.
         11   -1    0    0    0    0 -0.00000000000E+00 -0.00000000000E+00 -0.45593999997E+02  0.45594000000E+02  0.51100000000E-03 0. -1.
    9900012    2    1    2    0    0 -0.12747075853E+02  0.18597957938E+02 -0.37084381023E+02  0.47787270765E+02  0.19999998726E+02 0.  0.
        -12    1    1    2    0    0  0.12747075853E+02 -0.18597957938E+02  0.37084381023E+02  0.43400729235E+02  0.00000000000E+00 0.  1.
         11    1    3    3    0    0 -0.11449773507E+02  0.74899382527E+01 -0.14150543609E+02  0.19683352689E+02  0.51100000000E-03 0. -1.
        -11    1    3    3    0    0  0.52410360030E+01  0.45897563633E+01 -0.10906622849E+02  0.12941744244E+02  0.51100000000E-03 0.  1.
        -12    1    3    3    0    0 -0.65383383487E+01  0.65182633224E+01 -0.12027214565E+02  0.15162173832E+02  0.00000000000E+00 0.  1.
</event>
<event>
 7    1  0.2811980E-010  0.4778728E+02  0.7816164E-02  0.1312668E+00
        -11   -1    0    0    0    0  0.00000000000E+00  0.00000000000E+00  0.45593999997E+02  0.45594000000E+02  0.51100000000E-03 0. -1.
         11   -1    0    0    0    0 -0.00000000000E+00 -0.00000000000E+00 -0.45593999997E+02  0.45594000000E+02  0.51100000000E-03 0.  1.
    9900012    2    1    2    0    0  0.33979811293E+02  0.23037707032E+02  0.14080443027E+02  0.47787281151E+02  0.20000046079E+02 0.  0.
        -12    1    1    2    0    0 -0.33979811293E+02 -0.23037707032E+02 -0.14080443027E+02  0.43400718849E+02  0.00000000000E+00 0.  1.
         11    1    3    3    0    0  0.12877433283E+02  0.14099460275E+02  0.51372714567E+01  0.19774089772E+02  0.51100000000E-03 0. -1.
        -11    1    3    3    0    0  0.16301699512E+02  0.95010327305E+00  0.21279130223E+01  0.16467425946E+02  0.51100000000E-03 0.  1.
        -12    1    3    3    0    0  0.48006784978E+01  0.79881434840E+01  0.68152585479E+01  0.11545765433E+02  0.00000000000E+00 0.  1.
</event>
<event>
 7    1  0.2811980E-010  0.4778727E+02  0.7816164E-02  0.1312668E+00
        -11   -1    0    0    0    0  0.00000000000E+00  0.00000000000E+00  0.45593999997E+02  0.45594000000E+02  0.51100000000E-03 0. -1.
         11   -1    0    0    0    0 -0.00000000000E+00 -0.00000000000E+00 -0.45593999997E+02  0.45594000000E+02  0.51100000000E-03 0.  1.
    9900012    2    1    2    0    0  0.21826170923E+02 -0.90087284944E+01  0.36415439458E+02  0.47787272389E+02  0.20000006131E+02 0.  0.
        -12    1    1    2    0    0 -0.21826170923E+02  0.90087284944E+01 -0.36415439458E+02  0.43400727611E+02  0.00000000000E+00 0.  1.
         11    1    3    3    0    0  0.62047636002E+01 -0.44096064917E+01  0.20343229473E+02  0.21720743689E+02  0.51100000000E-03 0. -1.
        -11    1    3    3    0    0  0.35494080596E+01  0.46681919948E+00  0.11744346695E+02  0.12277862082E+02  0.51100000000E-03 0.  1.
         12    1    3    3    0    0  0.12071999263E+02 -0.50659412022E+01  0.43278632899E+01  0.13788666619E+02  0.00000000000E+00 0. -1.
</event>
<event>
 7    1  0.2811980E-010  0.4778728E+02  0.7816164E-02  0.1312668E+00
        -11   -1    0    0    0    0  0.00000000000E+00  0.00000000000E+00  0.45593999997E+02  0.45594000000E+02  0.51100000000E-03 0.  1.
         11   -1    0    0    0    0 -0.00000000000E+00 -0.00000000000E+00 -0.45593999997E+02  0.45594000000E+02  0.51100000000E-03 0. -1.
    9900012    2    1    2    0    0  0.40456712392E+02  0.98392529652E+01  0.12250139571E+02  0.47787281158E+02  0.20000046112E+02 0.  0.
        -12    1    1    2    0    0 -0.40456712392E+02 -0.98392529652E+01 -0.12250139571E+02  0.43400718842E+02  0.00000000000E+00 0.  1.
         11    1    3    3    0    0  0.22546188773E+02  0.35461140635E+01  0.61921396737E+01  0.23648428005E+02  0.51100000000E-03 0. -1.
        -11    1    3    3    0    0  0.47483971917E+01  0.81954740072E+01  0.52169377901E+01  0.10813394946E+02  0.51100000000E-03 0.  1.
        -12    1    3    3    0    0  0.13162126427E+02 -0.19023351055E+01  0.84106210750E+00  0.13325458207E+02  0.00000000000E+00 0.  1.
</event>
<event>
 7    1  0.2811980E-010  0.4778727E+02  0.7816164E-02  0.1312668E+00
        -11   -1    0    0    0    0  0.00000000000E+00  0.00000000000E+00  0.45593999997E+02  0.45594000000E+02  0.51100000000E-03 0.  1.
         11   -1    0    0    0    0 -0.00000000000E+00 -0.00000000000E+00 -0.45593999997E+02  0.45594000000E+02  0.51100000000E-03 0. -1.
    9900012    2    1    2    0    0 -0.12266622954E+02 -0.13372664325E+02 -0.39424930952E+02  0.47787269932E+02  0.19999994929E+02 0.  0.
        -12    1    1    2    0    0  0.12266622954E+02  0.13372664325E+02  0.39424930952E+02  0.43400730068E+02  0.00000000000E+00 0.  1.
         11    1    3    3    0    0 -0.89375352320E+00 -0.49273821146E+01 -0.10862232246E+01  0.51242337006E+01  0.51100000000E-03 0.  1.
        -11    1    3    3    0    0 -0.11735528851E+02 -0.56525229090E+01 -0.37540096937E+02  0.39735784011E+02  0.51100000000E-03 0. -1.
         12    1    3    3    0    0  0.36265941996E+00 -0.27927593015E+01 -0.79861079067E+00  0.29272522211E+01  0.00000000000E+00 0. -1.
</event>
<event>
 7    1  0.2811980E-010  0.4778727E+02  0.7816164E-02  0.1312668E+00
        -11   -1    0    0    0    0  0.00000000000E+00  0.00000000000E+00  0.45593999997E+02  0.45594000000E+02  0.51100000000E-03 0. -1.
         11   -1    0    0    0    0 -0.00000000000E+00 -0.00000000000E+00 -0.45593999997E+02  0.45594000000E+02  0.51100000000E-03 0.  1.
    9900012    2    1    2    0    0  0.35296017103E+02 -0.25248937013E+02  0.55281702670E+00  0.47787271316E+02  0.20000001237E+02 0.  0.
        -12    1    1    2    0    0 -0.35296017103E+02  0.25248937013E+02 -0.55281702670E+00  0.43400728684E+02  0.00000000000E+00 0.  1.
         11    1    3    3    0    0  0.36454264969E+01 -0.55649696635E+01 -0.59877650235E+01  0.89504945080E+01  0.51100000000E-03 0.  1.
        -11    1    3    3    0    0  0.14534946063E+02 -0.13857920488E+02  0.49719397877E+01  0.20688808637E+02  0.51100000000E-03 0. -1.
        -12    1    3    3    0    0  0.17115644544E+02 -0.58260468619E+01  0.15686422625E+01  0.18147968171E+02  0.00000000000E+00 0.  1.
</event>
<event>
 7    1  0.2811980E-010  0.4778727E+02  0.7816164E-02  0.1312668E+00
        -11   -1    0    0    0    0  0.00000000000E+00  0.00000000000E+00  0.45593999997E+02  0.45594000000E+02  0.51100000000E-03 0.  1.
         11   -1    0    0    0    0 -0.00000000000E+00 -0.00000000000E+00 -0.45593999997E+02  0.45594000000E+02  0.51100000000E-03 0. -1.
    9900012    2    1    2    0    0  0.28076302278E+02  0.84396024382E+01 -0.32001837532E+02  0.47787271385E+02  0.20000001554E+02 0.  0.
        -12    1    1    2    0    0 -0.28076302278E+02 -0.84396024382E+01  0.32001837532E+02  0.43400728615E+02  0.00000000000E+00 0.  1.
         11    1    3    3    0    0  0.10614426026E+02  0.46107392263E+01 -0.18237600578E+02  0.21599422010E+02  0.51100000000E-03 0. -1.
        -11    1    3    3    0    0  0.70185710522E+01 -0.26016316243E+01  0.34519856507E+00  0.74931961828E+01  0.51100000000E-03 0.  1.
        -12    1    3    3    0    0  0.10443305199E+02  0.64304948362E+01 -0.14109435519E+02  0.18694653193E+02  0.00000000000E+00 0.  1.
</event>
<event>
 7    1  0.2811980E-010  0.4778727E+02  0.7816164E-02  0.1312668E+00
        -11   -1    0    0    0    0  0.00000000000E+00  0.00000000000E+00  0.45593999997E+02  0.45594000000E+02  0.51100000000E-03 0.  1.
         11   -1    0    0    0    0 -0.00000000000E+00 -0.00000000000E+00 -0.45593999997E+02  0.45594000000E+02  0.51100000000E-03 0. -1.
    9900012    2    1    2    0    0 -0.14734183136E+02  0.27752419865E+02 -0.29938775704E+02  0.47787271300E+02  0.20000001163E+02 0.  0.
        -12    1    1    2    0    0  0.14734183136E+02 -0.27752419865E+02  0.29938775704E+02  0.43400728700E+02  0.00000000000E+00 0.  1.
         11    1    3    3    0    0 -0.68557455788E+01  0.26034157359E+02 -0.20987890902E+02  0.34136053691E+02  0.51100000000E-03 0. -1.
        -11    1    3    3    0    0 -0.73390589887E+01 -0.81473684970E+00 -0.49659372891E+01  0.88986581233E+01  0.51100000000E-03 0.  1.
        -12    1    3    3    0    0 -0.53937856804E+00  0.25329993566E+01 -0.39849475135E+01  0.47525594858E+01  0.00000000000E+00 0.  1.
</event>
<event>
 7    1  0.2811980E-010  0.4778727E+02  0.7816164E-02  0.1312668E+00
        -11   -1    0    0    0    0  0.00000000000E+00  0.00000000000E+00  0.45593999997E+02  0.45594000000E+02  0.51100000000E-03 0.  1.
         11   -1    0    0    0    0 -0.00000000000E+00 -0.00000000000E+00 -0.45593999997E+02  0.45594000000E+02  0.51100000000E-03 0. -1.
    9900012    2    1    2    0    0 -0.13140213092E+02 -0.39256089237E+02 -0.13035257367E+02  0.47787266401E+02  0.19999978831E+02 0.  0.
        -12    1    1    2    0    0  0.13140213092E+02  0.39256089237E+02  0.13035257367E+02  0.43400733599E+02  0.00000000000E+00 0.  1.
         11    1    3    3    0    0 -0.99883262296E+00 -0.24399411834E+02 -0.43001715296E+01  0.24795572990E+02  0.51100000000E-03 0. -1.
        -11    1    3    3    0    0 -0.41538928712E+01  0.51342849524E-01 -0.30321569505E+01  0.51430961596E+01  0.51100000000E-03 0.  1.
         12    1    3    3    0    0 -0.79874875980E+01 -0.14908020252E+02 -0.57029288866E+01  0.17848597252E+02  0.00000000000E+00 0. -1.
</event>
<event>
 7    1  0.2811980E-010  0.4778727E+02  0.7816164E-02  0.1312668E+00
        -11   -1    0    0    0    0  0.00000000000E+00  0.00000000000E+00  0.45593999997E+02  0.45594000000E+02  0.51100000000E-03 0.  1.
         11   -1    0    0    0    0 -0.00000000000E+00 -0.00000000000E+00 -0.45593999997E+02  0.45594000000E+02  0.51100000000E-03 0. -1.
    9900012    2    1    2    0    0 -0.26428565610E+02 -0.34136052507E+02 -0.44591630192E+01  0.47787270792E+02  0.19999998850E+02 0.  0.
        -12    1    1    2    0    0  0.26428565610E+02  0.34136052507E+02  0.44591630192E+01  0.43400729208E+02  0.00000000000E+00 0.  1.
         11    1    3    3    0    0 -0.18391454194E+02 -0.27759153794E+02  0.43393272754E+01  0.33580440262E+02  0.51100000000E-03 0. -1.
        -11    1    3    3    0    0 -0.29212202185E+01 -0.19543857692E+01 -0.58606792856E+01  0.68337920110E+01  0.51100000000E-03 0.  1.
         12    1    3    3    0    0 -0.51158911975E+01 -0.44225129431E+01 -0.29378110091E+01  0.73730385190E+01  0.00000000000E+00 0. -1.
</event>
<event>
 7    1  0.2811980E-010  0.4778727E+02  0.7816164E-02  0.1312668E+00
        -11   -1    0    0    0    0  0.00000000000E+00  0.00000000000E+00  0.45593999997E+02  0.45594000000E+02  0.51100000000E-03 0.  1.
         11   -1    0    0    0    0 -0.00000000000E+00 -0.00000000000E+00 -0.45593999997E+02  0.45594000000E+02  0.51100000000E-03 0. -1.
    9900012    2    1    2    0    0 -0.27829075486E+02  0.14407359207E+02 -0.30026549298E+02  0.47787272996E+02  0.20000008899E+02 0.  0.
        -12    1    1    2    0    0  0.27829075486E+02 -0.14407359207E+02  0.30026549298E+02  0.43400727004E+02  0.00000000000E+00 0.  1.
         11    1    3    3    0    0 -0.19945380634E+02  0.73901671110E+00 -0.13192239711E+02  0.23924872898E+02  0.51100000000E-03 0. -1.
        -11    1    3    3    0    0 -0.11576019941E+01  0.77743209877E+01 -0.92309303106E+01  0.12123950835E+02  0.51100000000E-03 0.  1.
        -12    1    3    3    0    0 -0.67260928573E+01  0.58940215085E+01 -0.76033792763E+01  0.11738449262E+02  0.00000000000E+00 0.  1.
</event>
<event>
 7    1  0.2811980E-010  0.4778727E+02  0.7816164E-02  0.1312668E+00
        -11   -1    0    0    0    0  0.00000000000E+00  0.00000000000E+00  0.45593999997E+02  0.45594000000E+02  0.51100000000E-03 0.  1.
         11   -1    0    0    0    0 -0.00000000000E+00 -0.00000000000E+00 -0.45593999997E+02  0.45594000000E+02  0.51100000000E-03 0. -1.
    9900012    2    1    2    0    0  0.25587784258E+02 -0.13905627377E+01 -0.35027917228E+02  0.47787270129E+02  0.19999995827E+02 0.  0.
        -12    1    1    2    0    0 -0.25587784258E+02  0.13905627377E+01  0.35027917228E+02  0.43400729871E+02  0.00000000000E+00 0.  1.
         11    1    3    3    0    0  0.15693549064E+02  0.40874762037E+01 -0.12480637014E+02  0.20463656674E+02  0.51100000000E-03 0. -1.
        -11    1    3    3    0    0  0.83634815402E+01 -0.85614576726E+01 -0.16875115912E+02  0.20688545581E+02  0.51100000000E-03 0.  1.
         12    1    3    3    0    0  0.15307536542E+01  0.30834187312E+01 -0.56721643019E+01  0.66350678738E+01  0.00000000000E+00 0. -1.
</event>
<event>
 7    1  0.2811980E-010  0.4778727E+02  0.7816164E-02  0.1312668E+00
        -11   -1    0    0    0    0  0.00000000000E+00  0.00000000000E+00  0.45593999997E+02  0.45594000000E+02  0.51100000000E-03 0. -1.
         11   -1    0    0    0    0 -0.00000000000E+00 -0.00000000000E+00 -0.45593999997E+02  0.45594000000E+02  0.51100000000E-03 0.  1.
    9900012    2    1    2    0    0 -0.40611446136E+02  0.14813557313E+02  0.38590494208E+01  0.47787270744E+02  0.19999998632E+02 0.  0.
        -12    1    1    2    0    0  0.40611446136E+02 -0.14813557313E+02 -0.38590494208E+01  0.43400729256E+02  0.00000000000E+00 0.  1.
         11    1    3    3    0    0 -0.18277585135E+02  0.30693493748E+01  0.26388110592E+01  0.18720425957E+02  0.51100000000E-03 0. -1.
        -11    1    3    3    0    0 -0.99061919996E+01  0.12708917997E+02 -0.18774822595E+01  0.16222643942E+02  0.51100000000E-03 0.  1.
        -12    1    3    3    0    0 -0.12427669001E+02 -0.96471005894E+00  0.30977206211E+01  0.12844200845E+02  0.00000000000E+00 0.  1.
</event>
<event>
 7    1  0.2811980E-010  0.4778727E+02  0.7816164E-02  0.1312668E+00
        -11   -1    0    0    0    0  0.00000000000E+00  0.00000000000E+00  0.45593999997E+02  0.45594000000E+02  0.51100000000E-03 0. -1.
         11   -1    0    0    0    0 -0.00000000000E+00 -0.00000000000E+00 -0.45593999997E+02  0.45594000000E+02  0.51100000000E-03 0.  1.
    9900012    2    1    2    0    0 -0.21334153837E+02  0.26306135707E+02  0.27137873379E+02  0.47787273424E+02  0.20000010850E+02 0.  0.
        -12    1    1    2    0    0  0.21334153837E+02 -0.26306135707E+02 -0.27137873379E+02  0.43400726576E+02  0.00000000000E+00 0.  1.
         11    1    3    3    0    0 -0.11313685334E+02  0.16453400914E+02  0.23874357101E+02  0.31123926564E+02  0.51100000000E-03 0. -1.
        -11    1    3    3    0    0  0.45724579336E+00  0.31522435338E+01 -0.12654314018E+01  0.34273940401E+01  0.51100000000E-03 0.  1.
        -12    1    3    3    0    0 -0.10477714296E+02  0.67004912588E+01  0.45289476798E+01  0.13235952821E+02  0.00000000000E+00 0.  1.
</event>
<event>
 7    1  0.2811980E-010  0.4778727E+02  0.7816164E-02  0.1312668E+00
        -11   -1    0    0    0    0  0.00000000000E+00  0.00000000000E+00  0.45593999997E+02  0.45594000000E+02  0.51100000000E-03 0.  1.
         11   -1    0    0    0    0 -0.00000000000E+00 -0.00000000000E+00 -0.45593999997E+02  0.45594000000E+02  0.51100000000E-03 0. -1.
    9900012    2    1    2    0    0  0.30272212709E+02  0.27342112507E+02 -0.14819751594E+02  0.47787274016E+02  0.20000013548E+02 0.  0.
        -12    1    1    2    0    0 -0.30272212709E+02 -0.27342112507E+02  0.14819751594E+02  0.43400725984E+02  0.00000000000E+00 0.  1.
         11    1    3    3    0    0  0.25160855399E+02  0.18409147008E+02 -0.14158617222E+02  0.34240791169E+02  0.51100000000E-03 0. -1.
        -11    1    3    3    0    0  0.74071686460E+01  0.82772690030E+01 -0.91587819467E+00  0.11145320212E+02  0.51100000000E-03 0.  1.
         12    1    3    3    0    0 -0.22958113359E+01  0.65569649599E+00  0.25474382281E+00  0.24011626351E+01  0.00000000000E+00 0. -1.
</event>
<event>
 7    1  0.2811980E-010  0.4778726E+02  0.7816164E-02  0.1312668E+00
        -11   -1    0    0    0    0  0.00000000000E+00  0.00000000000E+00  0.45593999997E+02  0.45594000000E+02  0.51100000000E-03 0. -1.
         11   -1    0    0    0    0 -0.00000000000E+00 -0.00000000000E+00 -0.45593999997E+02  0.45594000000E+02  0.51100000000E-03 0.  1.
    9900012    2    1    2    0    0 -0.11922802657E+02 -0.23176939054E+01  0.41666520566E+02  0.47787264242E+02  0.19999968984E+02 0.  0.
        -12    1    1    2    0    0  0.11922802657E+02  0.23176939054E+01 -0.41666520566E+02  0.43400735758E+02  0.00000000000E+00 0.  1.
         11    1    3    3    0    0 -0.37983359736E+01  0.28495660767E+01  0.18548768490E+01  0.50978379124E+01  0.51100000000E-03 0. -1.
        -11    1    3    3    0    0 -0.97437550039E+00 -0.43172972470E+00 -0.70321360410E+00  0.12768350736E+01  0.51100000000E-03 0.  1.
         12    1    3    3    0    0 -0.71500911833E+01 -0.47355302574E+01  0.40514857321E+02  0.41412591256E+02  0.00000000000E+00 0. -1.
</event>
<event>
 7    1  0.2811980E-010  0.4778727E+02  0.7816164E-02  0.1312668E+00
        -11   -1    0    0    0    0  0.00000000000E+00  0.00000000000E+00  0.45593999997E+02  0.45594000000E+02  0.51100000000E-03 0. -1.
         11   -1    0    0    0    0 -0.00000000000E+00 -0.00000000000E+00 -0.45593999997E+02  0.45594000000E+02  0.51100000000E-03 0.  1.
    9900012    2    1    2    0    0 -0.22455254387E+02  0.31908396732E+02 -0.19006295191E+02  0.47787268573E+02  0.19999988729E+02 0.  0.
        -12    1    1    2    0    0  0.22455254387E+02 -0.31908396732E+02  0.19006295191E+02  0.43400731427E+02  0.00000000000E+00 0.  1.
         11    1    3    3    0    0 -0.97626175569E+00  0.78430899405E+01 -0.82236894705E+00  0.79462845265E+01  0.51100000000E-03 0. -1.
        -11    1    3    3    0    0 -0.35615423786E+01  0.13527267463E+02 -0.11176660694E+02  0.17905007502E+02  0.51100000000E-03 0.  1.
        -12    1    3    3    0    0 -0.17917450253E+02  0.10538039328E+02 -0.70072655496E+01  0.21935976544E+02  0.00000000000E+00 0.  1.
</event>
<event>
 7    1  0.2811980E-010  0.4778727E+02  0.7816164E-02  0.1312668E+00
        -11   -1    0    0    0    0  0.00000000000E+00  0.00000000000E+00  0.45593999997E+02  0.45594000000E+02  0.51100000000E-03 0. -1.
         11   -1    0    0    0    0 -0.00000000000E+00 -0.00000000000E+00 -0.45593999997E+02  0.45594000000E+02  0.51100000000E-03 0.  1.
    9900012    2    1    2    0    0 -0.12601446026E+01 -0.41568665778E+02 -0.12412951136E+02  0.47787270802E+02  0.19999998895E+02 0.  0.
        -12    1    1    2    0    0  0.12601446026E+01  0.41568665778E+02  0.12412951136E+02  0.43400729198E+02  0.00000000000E+00 0.  1.
         11    1    3    3    0    0 -0.25962296834E+01 -0.14368076536E+02 -0.10415910466E+02  0.17935250849E+02  0.51100000000E-03 0. -1.
        -11    1    3    3    0    0  0.82622416826E+00 -0.27740709928E+02 -0.33864095321E-01  0.27753031919E+02  0.51100000000E-03 0.  1.
        -12    1    3    3    0    0  0.50986091261E+00  0.54012068527E+00 -0.19631765742E+01  0.20989880339E+01  0.00000000000E+00 0.  1.
</event>
<event>
 7    1  0.2811980E-010  0.4778727E+02  0.7816164E-02  0.1312668E+00
        -11   -1    0    0    0    0  0.00000000000E+00  0.00000000000E+00  0.45593999997E+02  0.45594000000E+02  0.51100000000E-03 0.  1.
         11   -1    0    0    0    0 -0.00000000000E+00 -0.00000000000E+00 -0.45593999997E+02  0.45594000000E+02  0.51100000000E-03 0. -1.
    9900012    2    1    2    0    0 -0.16176107747E+01 -0.39546252395E+02 -0.17807313834E+02  0.47787272252E+02  0.20000005505E+02 0.  0.
        -12    1    1    2    0    0  0.16176107747E+01  0.39546252395E+02  0.17807313834E+02  0.43400727748E+02  0.00000000000E+00 0.  1.
         11    1    3    3    0    0 -0.49771316054E+01 -0.22907721289E+02 -0.67228660285E+01  0.24387137216E+02  0.51100000000E-03 0. -1.
        -11    1    3    3    0    0  0.42539216346E+01 -0.14401711240E+02 -0.13350141858E+02  0.20093069048E+02  0.51100000000E-03 0.  1.
        -12    1    3    3    0    0 -0.89440080391E+00 -0.22368198661E+01  0.22656940518E+01  0.33070659878E+01  0.00000000000E+00 0.  1.
</event>
<event>
 7    1  0.2811980E-010  0.4778727E+02  0.7816164E-02  0.1312668E+00
        -11   -1    0    0    0    0  0.00000000000E+00  0.00000000000E+00  0.45593999997E+02  0.45594000000E+02  0.51100000000E-03 0.  1.
         11   -1    0    0    0    0 -0.00000000000E+00 -0.00000000000E+00 -0.45593999997E+02  0.45594000000E+02  0.51100000000E-03 0. -1.
    9900012    2    1    2    0    0 -0.14041837189E+02  0.36280832403E+02 -0.19239320027E+02  0.47787269285E+02  0.19999991977E+02 0.  0.
        -12    1    1    2    0    0  0.14041837189E+02 -0.36280832403E+02  0.19239320027E+02  0.43400730715E+02  0.00000000000E+00 0.  1.
         11    1    3    3    0    0 -0.12885738428E+02  0.27339708503E+02 -0.20902387479E+02  0.36747948493E+02  0.51100000000E-03 0. -1.
        -11    1    3    3    0    0 -0.35610752144E+01  0.64547978827E+01  0.17587592696E+01  0.75788460084E+01  0.51100000000E-03 0.  1.
        -12    1    3    3    0    0  0.24049764529E+01  0.24863260173E+01 -0.95691817773E-01  0.34604747835E+01  0.00000000000E+00 0.  1.
</event>
<event>
 7    1  0.2811980E-010  0.4778727E+02  0.7816164E-02  0.1312668E+00
        -11   -1    0    0    0    0  0.00000000000E+00  0.00000000000E+00  0.45593999997E+02  0.45594000000E+02  0.51100000000E-03 0. -1.
         11   -1    0    0    0    0 -0.00000000000E+00 -0.00000000000E+00 -0.45593999997E+02  0.45594000000E+02  0.51100000000E-03 0.  1.
    9900012    2    1    2    0    0 -0.20369795917E+02  0.35688186605E+02  0.13965966703E+02  0.47787268730E+02  0.19999989447E+02 0.  0.
        -12    1    1    2    0    0  0.20369795917E+02 -0.35688186605E+02 -0.13965966703E+02  0.43400731270E+02  0.00000000000E+00 0.  1.
         11    1    3    3    0    0 -0.10696704872E+02  0.13522624185E+02  0.94697783160E+01  0.19671236911E+02  0.51100000000E-03 0. -1.
        -11    1    3    3    0    0  0.12583990406E+01  0.49745043440E+01 -0.35209057345E+01  0.62230249129E+01  0.51100000000E-03 0.  1.
        -12    1    3    3    0    0 -0.10931490085E+02  0.17191058075E+02  0.80170941217E+01  0.21893006906E+02  0.00000000000E+00 0.  1.
</event>
<event>
 7    1  0.2811980E-010  0.4778727E+02  0.7816164E-02  0.1312668E+00
        -11   -1    0    0    0    0  0.00000000000E+00  0.00000000000E+00  0.45593999997E+02  0.45594000000E+02  0.51100000000E-03 0.  1.
         11   -1    0    0    0    0 -0.00000000000E+00 -0.00000000000E+00 -0.45593999997E+02  0.45594000000E+02  0.51100000000E-03 0. -1.
    9900012    2    1    2    0    0  0.37050840836E+02 -0.16941744841E+02 -0.14961130073E+02  0.47787274914E+02  0.20000017643E+02 0.  0.
        -12    1    1    2    0    0 -0.37050840836E+02  0.16941744841E+02  0.14961130073E+02  0.43400725086E+02  0.00000000000E+00 0.  1.
         11    1    3    3    0    0  0.34319599801E+02 -0.20146750581E+02 -0.13642607361E+02  0.42069552236E+02  0.51100000000E-03 0. -1.
        -11    1    3    3    0    0 -0.24086364031E-02  0.13149440366E+01  0.10114176699E+01  0.16589302532E+01  0.51100000000E-03 0.  1.
        -12    1    3    3    0    0  0.27336496719E+01  0.18900617027E+01 -0.23299403815E+01  0.40587924251E+01  0.00000000000E+00 0.  1.
</event>
<event>
 7    1  0.2811980E-010  0.4778727E+02  0.7816164E-02  0.1312668E+00
        -11   -1    0    0    0    0  0.00000000000E+00  0.00000000000E+00  0.45593999997E+02  0.45594000000E+02  0.51100000000E-03 0. -1.
         11   -1    0    0    0    0 -0.00000000000E+00 -0.00000000000E+00 -0.45593999997E+02  0.45594000000E+02  0.51100000000E-03 0.  1.
    9900012    2    1    2    0    0  0.33499165976E+02  0.16284774433E+02  0.22276331542E+02  0.47787274817E+02  0.20000017201E+02 0.  0.
        -12    1    1    2    0    0 -0.33499165976E+02 -0.16284774433E+02 -0.22276331542E+02  0.43400725183E+02  0.00000000000E+00 0.  1.
         11    1    3    3    0    0 -0.10774857053E+01 -0.42182201097E-01  0.31081302247E+01  0.32898675563E+01  0.51100000000E-03 0. -1.
        -11    1    3    3    0    0  0.16220484649E+01  0.14534726099E+01  0.53761076454E+01  0.58005307970E+01  0.51100000000E-03 0.  1.
         12    1    3    3    0    0  0.32954603217E+02  0.14873484025E+02  0.13792093671E+02  0.38696876464E+02  0.00000000000E+00 0. -1.
</event>
<event>
 7    1  0.2811980E-010  0.4778727E+02  0.7816164E-02  0.1312668E+00
        -11   -1    0    0    0    0  0.00000000000E+00  0.00000000000E+00  0.45593999997E+02  0.45594000000E+02  0.51100000000E-03 0.  1.
         11   -1    0    0    0    0 -0.00000000000E+00 -0.00000000000E+00 -0.45593999997E+02  0.45594000000E+02  0.51100000000E-03 0. -1.
    9900012    2    1    2    0    0  0.21171029718E+02 -0.11031516046E+02 -0.36245224753E+02  0.47787272322E+02  0.20000005824E+02 0.  0.
        -12    1    1    2    0    0 -0.21171029718E+02  0.11031516046E+02  0.36245224753E+02  0.43400727678E+02  0.00000000000E+00 0.  1.
         11    1    3    3    0    0  0.83650277900E+00 -0.75141479544E+01 -0.64045038756E+01  0.99085733854E+01  0.51100000000E-03 0. -1.
        -11    1    3    3    0    0  0.20688865480E+02 -0.28701816032E+01 -0.23279911908E+02  0.31276531074E+02  0.51100000000E-03 0.  1.
         12    1    3    3    0    0 -0.35433854119E+00 -0.64718648839E+00 -0.65608089696E+01  0.66021678627E+01  0.00000000000E+00 0. -1.
</event>
<event>
 7    1  0.2811980E-010  0.4778727E+02  0.7816164E-02  0.1312668E+00
        -11   -1    0    0    0    0  0.00000000000E+00  0.00000000000E+00  0.45593999997E+02  0.45594000000E+02  0.51100000000E-03 0.  1.
         11   -1    0    0    0    0 -0.00000000000E+00 -0.00000000000E+00 -0.45593999997E+02  0.45594000000E+02  0.51100000000E-03 0. -1.
    9900012    2    1    2    0    0 -0.30051574453E+02 -0.83159588469E+01 -0.30188921735E+02  0.47787270811E+02  0.19999998935E+02 0.  0.
        -12    1    1    2    0    0  0.30051574453E+02  0.83159588469E+01  0.30188921735E+02  0.43400729189E+02  0.00000000000E+00 0.  1.
         11    1    3    3    0    0 -0.64388579974E+01  0.18394354970E+01 -0.53677910727E+01  0.85822838755E+01  0.51100000000E-03 0. -1.
        -11    1    3    3    0    0 -0.22681297122E+02 -0.84004886004E+01 -0.27004743207E+02  0.36252801323E+02  0.51100000000E-03 0.  1.
        -12    1    3    3    0    0 -0.93141933328E+00 -0.17549057435E+01  0.21836125447E+01  0.29521856121E+01  0.00000000000E+00 0.  1.
</event>
<event>
 7    1  0.2811980E-010  0.4778727E+02  0.7816164E-02  0.1312668E+00
        -11   -1    0    0    0    0  0.00000000000E+00  0.00000000000E+00  0.45593999997E+02  0.45594000000E+02  0.51100000000E-03 0.  1.
         11   -1    0    0    0    0 -0.00000000000E+00 -0.00000000000E+00 -0.45593999997E+02  0.45594000000E+02  0.51100000000E-03 0. -1.
    9900012    2    1    2    0    0  0.30264109457E+02  0.19656887866E+02 -0.24110449559E+02  0.47787270286E+02  0.19999996540E+02 0.  0.
        -12    1    1    2    0    0 -0.30264109457E+02 -0.19656887866E+02  0.24110449559E+02  0.43400729714E+02  0.00000000000E+00 0.  1.
         11    1    3    3    0    0  0.31527191343E+02  0.13960271137E+02 -0.22016776619E+02  0.40909551662E+02  0.51100000000E-03 0. -1.
        -11    1    3    3    0    0 -0.19558888853E+01  0.28965926297E+01 -0.36303423509E+00  0.35139072712E+01  0.51100000000E-03 0.  1.
         12    1    3    3    0    0  0.69280699987E+00  0.28000240986E+01 -0.17306387045E+01  0.33638113528E+01  0.00000000000E+00 0. -1.
</event>
<event>
 7    1  0.2811980E-010  0.4778727E+02  0.7816164E-02  0.1312668E+00
        -11   -1    0    0    0    0  0.00000000000E+00  0.00000000000E+00  0.45593999997E+02  0.45594000000E+02  0.51100000000E-03 0.  1.
         11   -1    0    0    0    0 -0.00000000000E+00 -0.00000000000E+00 -0.45593999997E+02  0.45594000000E+02  0.51100000000E-03 0. -1.
    9900012    2    1    2    0    0 -0.14755741048E+02  0.91786396982E+01 -0.39769887993E+02  0.47787270610E+02  0.19999998021E+02 0.  0.
        -12    1    1    2    0    0  0.14755741048E+02 -0.91786396982E+01  0.39769887993E+02  0.43400729390E+02  0.00000000000E+00 0.  1.
         11    1    3    3    0    0 -0.10407621259E+02  0.44508676410E+01 -0.20275215095E+02  0.23220963598E+02  0.51100000000E-03 0. -1.
        -11    1    3    3    0    0 -0.37301371437E+01  0.66929866868E+01 -0.34727595110E+01  0.84124938503E+01  0.51100000000E-03 0.  1.
        -12    1    3    3    0    0 -0.61798264533E+00 -0.19652146295E+01 -0.16021913387E+02  0.16153813162E+02  0.00000000000E+00 0.  1.
</event>
<event>
 7    1  0.2811980E-010  0.4778727E+02  0.7816164E-02  0.1312668E+00
        -11   -1    0    0    0    0  0.00000000000E+00  0.00000000000E+00  0.45593999997E+02  0.45594000000E+02  0.51100000000E-03 0.  1.
         11   -1    0    0    0    0 -0.00000000000E+00 -0.00000000000E+00 -0.45593999997E+02  0.45594000000E+02  0.51100000000E-03 0. -1.
    9900012    2    1    2    0    0 -0.16283739201E+02 -0.38217862823E+02  0.12564157312E+02  0.47787271318E+02  0.20000001249E+02 0.  0.
        -12    1    1    2    0    0  0.16283739201E+02  0.38217862823E+02 -0.12564157312E+02  0.43400728682E+02  0.00000000000E+00 0.  1.
         11    1    3    3    0    0  0.19088024804E+01 -0.59654955807E+01  0.66355990237E+01  0.91247925509E+01  0.51100000000E-03 0. -1.
        -11    1    3    3    0    0 -0.34187714244E+01 -0.53758721118E+01  0.47922685556E+01  0.79720660550E+01  0.51100000000E-03 0.  1.
         12    1    3    3    0    0 -0.14773770257E+02 -0.26876495131E+02  0.11362897327E+01  0.30690412713E+02  0.00000000000E+00 0. -1.
</event>
<event>
 7    1  0.2811980E-010  0.4778728E+02  0.7816164E-02  0.1312668E+00
        -11   -1    0    0    0    0  0.00000000000E+00  0.00000000000E+00  0.45593999997E+02  0.45594000000E+02  0.51100000000E-03 0. -1.
         11   -1    0    0    0    0 -0.00000000000E+00 -0.00000000000E+00 -0.45593999997E+02  0.45594000000E+02  0.51100000000E-03 0.  1.
    9900012    2    1    2    0    0  0.47320421824E+01 -0.33385108603E+02  0.27325168436E+02  0.47787279618E+02  0.20000039089E+02 0.  0.
        -12    1    1    2    0    0 -0.47320421824E+01  0.33385108603E+02 -0.27325168436E+02  0.43400720382E+02  0.00000000000E+00 0.  1.
         11    1    3    3    0    0  0.10002971321E+02 -0.14778514759E+02  0.13120183314E+02  0.22149563070E+02  0.51100000000E-03 0. -1.
        -11    1    3    3    0    0  0.18280742717E+01 -0.23025601824E+01  0.45111629864E+01  0.53846291132E+01  0.51100000000E-03 0.  1.
         12    1    3    3    0    0 -0.70990034099E+01 -0.16304033661E+02  0.96938221351E+01  0.20253087435E+02  0.00000000000E+00 0. -1.
</event>
<event>
 7    1  0.2811980E-010  0.4778727E+02  0.7816164E-02  0.1312668E+00
        -11   -1    0    0    0    0  0.00000000000E+00  0.00000000000E+00  0.45593999997E+02  0.45594000000E+02  0.51100000000E-03 0.  1.
         11   -1    0    0    0    0 -0.00000000000E+00 -0.00000000000E+00 -0.45593999997E+02  0.45594000000E+02  0.51100000000E-03 0. -1.
    9900012    2    1    2    0    0 -0.41743900783E+02 -0.92493441702E+01 -0.74511540880E+01  0.47787270543E+02  0.19999997715E+02 0.  0.
        -12    1    1    2    0    0  0.41743900783E+02  0.92493441702E+01  0.74511540880E+01  0.43400729457E+02  0.00000000000E+00 0.  1.
         11    1    3    3    0    0 -0.87918510861E+01 -0.21059940403E+01 -0.10730388995E-01  0.90405736444E+01  0.51100000000E-03 0. -1.
        -11    1    3    3    0    0 -0.23439691761E+02 -0.88064875928E+01 -0.12343516682E+02  0.27916586072E+02  0.51100000000E-03 0.  1.
        -12    1    3    3    0    0 -0.95123579360E+01  0.16631374629E+01  0.49030929834E+01  0.10830110827E+02  0.00000000000E+00 0.  1.
</event>
<event>
 7    1  0.2811980E-010  0.4778725E+02  0.7816164E-02  0.1312668E+00
        -11   -1    0    0    0    0  0.00000000000E+00  0.00000000000E+00  0.45593999997E+02  0.45594000000E+02  0.51100000000E-03 0.  1.
         11   -1    0    0    0    0 -0.00000000000E+00 -0.00000000000E+00 -0.45593999997E+02  0.45594000000E+02  0.51100000000E-03 0. -1.
    9900012    2    1    2    0    0  0.17572296509E+02 -0.25021309909E+02 -0.30802162008E+02  0.47787254170E+02  0.19999923064E+02 0.  0.
        -12    1    1    2    0    0 -0.17572296509E+02  0.25021309909E+02  0.30802162008E+02  0.43400745830E+02  0.00000000000E+00 0.  1.
         11    1    3    3    0    0  0.14509787943E+01 -0.22986109119E+00 -0.31064381404E+01  0.34362965187E+01  0.51100000000E-03 0. -1.
        -11    1    3    3    0    0  0.11749341774E+01  0.28267640290E+01 -0.12919377012E+01  0.33226748986E+01  0.51100000000E-03 0.  1.
        -12    1    3    3    0    0  0.14946383538E+02 -0.27618212847E+02 -0.26403786167E+02  0.41028282753E+02  0.00000000000E+00 0.  1.
</event>
<event>
 7    1  0.2811980E-010  0.4778727E+02  0.7816164E-02  0.1312668E+00
        -11   -1    0    0    0    0  0.00000000000E+00  0.00000000000E+00  0.45593999997E+02  0.45594000000E+02  0.51100000000E-03 0.  1.
         11   -1    0    0    0    0 -0.00000000000E+00 -0.00000000000E+00 -0.45593999997E+02  0.45594000000E+02  0.51100000000E-03 0. -1.
    9900012    2    1    2    0    0  0.12235104128E+02 -0.16414236760E+02 -0.38268768098E+02  0.47787267827E+02  0.19999985329E+02 0.  0.
        -12    1    1    2    0    0 -0.12235104128E+02  0.16414236760E+02  0.38268768098E+02  0.43400732173E+02  0.00000000000E+00 0.  1.
         11    1    3    3    0    0  0.27829376084E+01  0.14171235848E+00 -0.26888987994E+01  0.38723379423E+01  0.51100000000E-03 0.  1.
        -11    1    3    3    0    0  0.13434437162E+02 -0.14140878530E+02 -0.21237840478E+02  0.28835644884E+02  0.51100000000E-03 0. -1.
        -12    1    3    3    0    0 -0.39822706426E+01 -0.24150705884E+01 -0.14342028821E+02  0.15079285000E+02  0.00000000000E+00 0.  1.
</event>
<event>
 7    1  0.2811980E-010  0.4778727E+02  0.7816164E-02  0.1312668E+00
        -11   -1    0    0    0    0  0.00000000000E+00  0.00000000000E+00  0.45593999997E+02  0.45594000000E+02  0.51100000000E-03 0.  1.
         11   -1    0    0    0    0 -0.00000000000E+00 -0.00000000000E+00 -0.45593999997E+02  0.45594000000E+02  0.51100000000E-03 0. -1.
    9900012    2    1    2    0    0  0.37285140915E+02 -0.83312249611E+00 -0.22197919648E+02  0.47787268867E+02  0.19999990074E+02 0.  0.
        -12    1    1    2    0    0 -0.37285140915E+02  0.83312249611E+00  0.22197919648E+02  0.43400731133E+02  0.00000000000E+00 0.  1.
         11    1    3    3    0    0  0.67353843876E+01  0.22895081005E+01 -0.35110226184E+01  0.79331286564E+01  0.51100000000E-03 0. -1.
        -11    1    3    3    0    0  0.67870957062E+01  0.31029618415E+01 -0.12441386112E+02  0.14507967775E+02  0.51100000000E-03 0.  1.
        -12    1    3    3    0    0  0.23762660822E+02 -0.62255924381E+01 -0.62455109169E+01  0.25346172436E+02  0.00000000000E+00 0.  1.
</event>
<event>
 7    1  0.2811980E-010  0.4778726E+02  0.7816164E-02  0.1312668E+00
        -11   -1    0    0    0    0  0.00000000000E+00  0.00000000000E+00  0.45593999997E+02  0.45594000000E+02  0.51100000000E-03 0.  1.
         11   -1    0    0    0    0 -0.00000000000E+00 -0.00000000000E+00 -0.45593999997E+02  0.45594000000E+02  0.51100000000E-03 0. -1.
    9900012    2    1    2    0    0 -0.53013733743E+01  0.32974360074E+02  0.27716619804E+02  0.47787262733E+02  0.19999962106E+02 0.  0.
        -12    1    1    2    0    0  0.53013733743E+01 -0.32974360074E+02 -0.27716619804E+02  0.43400737267E+02  0.00000000000E+00 0.  1.
         11    1    3    3    0    0 -0.18042435498E+01  0.28404767212E+02  0.13300989306E+02  0.31416594531E+02  0.51100000000E-03 0. -1.
        -11    1    3    3    0    0 -0.43069640676E+01  0.15169468732E+01  0.92584497485E+01  0.10323272703E+02  0.51100000000E-03 0.  1.
        -12    1    3    3    0    0  0.80983424311E+00  0.30526459883E+01  0.51571807502E+01  0.60473954990E+01  0.00000000000E+00 0.  1.
</event>
<event>
 7    1  0.2811980E-010  0.4778727E+02  0.7816164E-02  0.1312668E+00
        -11   -1    0    0    0    0  0.00000000000E+00  0.00000000000E+00  0.45593999997E+02  0.45594000000E+02  0.51100000000E-03 0.  1.
         11   -1    0    0    0    0 -0.00000000000E+00 -0.00000000000E+00 -0.45593999997E+02  0.45594000000E+02  0.51100000000E-03 0. -1.
    9900012    2    1    2    0    0  0.14925605312E+01  0.41996510054E+02 -0.10848458405E+02  0.47787266787E+02  0.19999980589E+02 0.  0.
        -12    1    1    2    0    0 -0.14925605312E+01 -0.41996510054E+02  0.10848458405E+02  0.43400733213E+02  0.00000000000E+00 0.  1.
         11    1    3    3    0    0  0.21270262562E+01  0.23522785576E+01 -0.30553473118E+01  0.44037032784E+01  0.51100000000E-03 0. -1.
        -11    1    3    3    0    0  0.83293616843E+00  0.27405538687E+02 -0.12572196466E+02  0.30163180495E+02  0.51100000000E-03 0.  1.
        -12    1    3    3    0    0 -0.14674018934E+01  0.12238692810E+02  0.47790853729E+01  0.13220383013E+02  0.00000000000E+00 0.  1.
</event>
<event>
 7    1  0.2811980E-010  0.4778727E+02  0.7816164E-02  0.1312668E+00
        -11   -1    0    0    0    0  0.00000000000E+00  0.00000000000E+00  0.45593999997E+02  0.45594000000E+02  0.51100000000E-03 0. -1.
         11   -1    0    0    0    0 -0.00000000000E+00 -0.00000000000E+00 -0.45593999997E+02  0.45594000000E+02  0.51100000000E-03 0.  1.
    9900012    2    1    2    0    0  0.18332855321E+02  0.23631840964E+02  0.31449416966E+02  0.47787270524E+02  0.19999997626E+02 0.  0.
        -12    1    1    2    0    0 -0.18332855321E+02 -0.23631840964E+02 -0.31449416966E+02  0.43400729476E+02  0.00000000000E+00 0.  1.
         11    1    3    3    0    0  0.33739357542E+01  0.13599982829E+01  0.85037171403E+01  0.92491212159E+01  0.51100000000E-03 0. -1.
        -11    1    3    3    0    0 -0.54318530166E-01  0.67305096100E+01  0.13234448633E+02  0.14847671231E+02  0.51100000000E-03 0.  1.
        -12    1    3    3    0    0  0.15013238097E+02  0.15541333071E+02  0.97112511932E+01  0.23690478077E+02  0.00000000000E+00 0.  1.
</event>
<event>
 7    1  0.2811980E-010  0.4778725E+02  0.7816164E-02  0.1312668E+00
        -11   -1    0    0    0    0  0.00000000000E+00  0.00000000000E+00  0.45593999997E+02  0.45594000000E+02  0.51100000000E-03 0. -1.
         11   -1    0    0    0    0 -0.00000000000E+00 -0.00000000000E+00 -0.45593999997E+02  0.45594000000E+02  0.51100000000E-03 0.  1.
    9900012    2    1    2    0    0 -0.34556720820E+02 -0.30141474627E+01  0.26083965977E+02  0.47787247474E+02  0.19999892531E+02 0.  0.
        -12    1    1    2    0    0  0.34556720820E+02  0.30141474627E+01 -0.26083965977E+02  0.43400752526E+02  0.00000000000E+00 0.  1.
         11    1    3    3    0    0 -0.91354445489E+01 -0.57727973627E+01  0.16382726200E+02  0.19625882260E+02  0.51100000000E-03 0. -1.
        -11    1    3    3    0    0 -0.18680715939E+02 -0.73490696473E+00  0.55152173397E+01  0.19491712567E+02  0.51100000000E-03 0.  1.
         12    1    3    3    0    0 -0.67405603324E+01  0.34935568647E+01  0.41860224375E+01  0.86696526464E+01  0.00000000000E+00 0. -1.
</event>
<event>
 7    1  0.2811980E-010  0.4778727E+02  0.7816164E-02  0.1312668E+00
        -11   -1    0    0    0    0  0.00000000000E+00  0.00000000000E+00  0.45593999997E+02  0.45594000000E+02  0.51100000000E-03 0. -1.
         11   -1    0    0    0    0 -0.00000000000E+00 -0.00000000000E+00 -0.45593999997E+02  0.45594000000E+02  0.51100000000E-03 0.  1.
    9900012    2    1    2    0    0 -0.29621367656E+02  0.12050573601E+02  0.29342490522E+02  0.47787268486E+02  0.19999988336E+02 0.  0.
        -12    1    1    2    0    0  0.29621367656E+02 -0.12050573601E+02 -0.29342490522E+02  0.43400731514E+02  0.00000000000E+00 0.  1.
         11    1    3    3    0    0 -0.90659426228E+01  0.48797415683E+01  0.21751291073E+02  0.24064950800E+02  0.51100000000E-03 0. -1.
        -11    1    3    3    0    0 -0.17524797136E+01 -0.38259940183E-01  0.23172928116E+01  0.29055972201E+01  0.51100000000E-03 0.  1.
         12    1    3    3    0    0 -0.18802945319E+02  0.72090919725E+01  0.52739066375E+01  0.20816720466E+02  0.00000000000E+00 0. -1.
</event>
<event>
 7    1  0.2811980E-010  0.4778727E+02  0.7816164E-02  0.1312668E+00
        -11   -1    0    0    0    0  0.00000000000E+00  0.00000000000E+00  0.45593999997E+02  0.45594000000E+02  0.51100000000E-03 0.  1.
         11   -1    0    0    0    0 -0.00000000000E+00 -0.00000000000E+00 -0.45593999997E+02  0.45594000000E+02  0.51100000000E-03 0. -1.
    9900012    2    1    2    0    0  0.63149188001E+01  0.27797345790E+02 -0.32726940924E+02  0.47787270805E+02  0.19999998910E+02 0.  0.
        -12    1    1    2    0    0 -0.63149188001E+01 -0.27797345790E+02  0.32726940924E+02  0.43400729195E+02  0.00000000000E+00 0.  1.
         11    1    3    3    0    0 -0.21572281805E+01  0.24139744412E+02 -0.27092079330E+02  0.36350538598E+02  0.51100000000E-03 0. -1.
        -11    1    3    3    0    0  0.70737105574E+01  0.16356274495E+01 -0.52234055878E+01  0.89440832062E+01  0.51100000000E-03 0.  1.
         12    1    3    3    0    0  0.13984364232E+01  0.20219739287E+01 -0.41145600598E+00  0.24926490011E+01  0.00000000000E+00 0. -1.
</event>
<event>
 7    1  0.2811980E-010  0.4778726E+02  0.7816164E-02  0.1312668E+00
        -11   -1    0    0    0    0  0.00000000000E+00  0.00000000000E+00  0.45593999997E+02  0.45594000000E+02  0.51100000000E-03 0.  1.
         11   -1    0    0    0    0 -0.00000000000E+00 -0.00000000000E+00 -0.45593999997E+02  0.45594000000E+02  0.51100000000E-03 0. -1.
    9900012    2    1    2    0    0  0.76168929250E+01 -0.30465734804E+02 -0.29957399464E+02  0.47787264549E+02  0.19999970386E+02 0.  0.
        -12    1    1    2    0    0 -0.76168929250E+01  0.30465734804E+02  0.29957399464E+02  0.43400735451E+02  0.00000000000E+00 0.  1.
         11    1    3    3    0    0  0.15860984862E+00 -0.12654297796E+02 -0.10477125317E+02  0.16429442016E+02  0.51100000000E-03 0. -1.
        -11    1    3    3    0    0  0.11014590847E+02 -0.13071457595E+02 -0.18774334946E+02  0.25390152975E+02  0.51100000000E-03 0.  1.
        -12    1    3    3    0    0 -0.35563077705E+01 -0.47399794132E+01 -0.70593920105E+00  0.59676695578E+01  0.00000000000E+00 0.  1.
</event>
<event>
 7    1  0.2811980E-010  0.4778726E+02  0.7816164E-02  0.1312668E+00
        -11   -1    0    0    0    0  0.00000000000E+00  0.00000000000E+00  0.45593999997E+02  0.45594000000E+02  0.51100000000E-03 0. -1.
         11   -1    0    0    0    0 -0.00000000000E+00 -0.00000000000E+00 -0.45593999997E+02  0.45594000000E+02  0.51100000000E-03 0.  1.
    9900012    2    1    2    0    0  0.33912410088E+01 -0.33922900337E+02  0.26858152896E+02  0.47787261990E+02  0.19999958717E+02 0.  0.
        -12    1    1    2    0    0 -0.33912410088E+01  0.33922900337E+02 -0.26858152896E+02  0.43400738010E+02  0.00000000000E+00 0.  1.
         11    1    3    3    0    0  0.42976325715E+01 -0.14660176408E+02  0.20399492138E+02  0.25485872514E+02  0.51100000000E-03 0. -1.
        -11    1    3    3    0    0  0.19543560004E+01 -0.17646408828E+02  0.40046290953E+01  0.18200338083E+02  0.51100000000E-03 0.  1.
        -12    1    3    3    0    0 -0.28607475631E+01 -0.16163151005E+01  0.24540316625E+01  0.41010513925E+01  0.00000000000E+00 0.  1.
</event>
<event>
 7    1  0.2811980E-010  0.4778726E+02  0.7816164E-02  0.1312668E+00
        -11   -1    0    0    0    0  0.00000000000E+00  0.00000000000E+00  0.45593999997E+02  0.45594000000E+02  0.51100000000E-03 0. -1.
         11   -1    0    0    0    0 -0.00000000000E+00 -0.00000000000E+00 -0.45593999997E+02  0.45594000000E+02  0.51100000000E-03 0.  1.
    9900012    2    1    2    0    0  0.39141128737E+02  0.16229442956E+02  0.93915419472E+01  0.47787264550E+02  0.19999970390E+02 0.  0.
        -12    1    1    2    0    0 -0.39141128737E+02 -0.16229442956E+02 -0.93915419472E+01  0.43400735450E+02  0.00000000000E+00 0.  1.
         11    1    3    3    0    0  0.11929119916E+02  0.12514764627E+02  0.93712298503E+01  0.19665787165E+02  0.51100000000E-03 0. -1.
        -11    1    3    3    0    0  0.23387854444E+02  0.41336266570E+01  0.19260033764E+01  0.23828304474E+02  0.51100000000E-03 0.  1.
        -12    1    3    3    0    0  0.38241543764E+01 -0.41894832818E+00 -0.19056912795E+01  0.42931729116E+01  0.00000000000E+00 0.  1.
</event>
<event>
 7    1  0.2811980E-010  0.4778727E+02  0.7816164E-02  0.1312668E+00
        -11   -1    0    0    0    0  0.00000000000E+00  0.00000000000E+00  0.45593999997E+02  0.45594000000E+02  0.51100000000E-03 0.  1.
         11   -1    0    0    0    0 -0.00000000000E+00 -0.00000000000E+00 -0.45593999997E+02  0.45594000000E+02  0.51100000000E-03 0. -1.
    9900012    2    1    2    0    0  0.17246151739E+02 -0.26840369737E+01 -0.39736498617E+02  0.47787272741E+02  0.20000007735E+02 0.  0.
        -12    1    1    2    0    0 -0.17246151739E+02  0.26840369737E+01  0.39736498617E+02  0.43400727259E+02  0.00000000000E+00 0.  1.
         11    1    3    3    0    0  0.47921200245E+01 -0.33619393060E+01 -0.69069218315E+01  0.90538731863E+01  0.51100000000E-03 0. -1.
        -11    1    3    3    0    0  0.32716133792E+01 -0.56080829331E+01 -0.22956515954E+02  0.23856983742E+02  0.51100000000E-03 0.  1.
        -12    1    3    3    0    0  0.91824183350E+01  0.62859852654E+01 -0.98730608319E+01  0.14876415812E+02  0.00000000000E+00 0.  1.
</event>
<event>
 7    1  0.2811980E-010  0.4778727E+02  0.7816164E-02  0.1312668E+00
        -11   -1    0    0    0    0  0.00000000000E+00  0.00000000000E+00  0.45593999997E+02  0.45594000000E+02  0.51100000000E-03 0. -1.
         11   -1    0    0    0    0 -0.00000000000E+00 -0.00000000000E+00 -0.45593999997E+02  0.45594000000E+02  0.51100000000E-03 0.  1.
    9900012    2    1    2    0    0  0.12164453967E+02 -0.40437736845E+02 -0.10021903602E+02  0.47787273586E+02  0.20000011586E+02 0.  0.
        -12    1    1    2    0    0 -0.12164453967E+02  0.40437736845E+02  0.10021903602E+02  0.43400726414E+02  0.00000000000E+00 0.  1.
         11    1    3    3    0    0  0.97747898572E+01 -0.40559861278E+02 -0.13072079047E+02  0.43721026000E+02  0.51100000000E-03 0. -1.
        -11    1    3    3    0    0  0.16148650857E+01 -0.50165806956E+00  0.18218259004E+01  0.24856588536E+01  0.51100000000E-03 0.  1.
         12    1    3    3    0    0  0.77479902390E+00  0.62378250188E+00  0.12283495443E+01  0.15805887321E+01  0.00000000000E+00 0. -1.
</event>
<event>
 7    1  0.2811980E-010  0.4778727E+02  0.7816164E-02  0.1312668E+00
        -11   -1    0    0    0    0  0.00000000000E+00  0.00000000000E+00  0.45593999997E+02  0.45594000000E+02  0.51100000000E-03 0.  1.
         11   -1    0    0    0    0 -0.00000000000E+00 -0.00000000000E+00 -0.45593999997E+02  0.45594000000E+02  0.51100000000E-03 0. -1.
    9900012    2    1    2    0    0  0.37557082646E+02 -0.16524544212E+02 -0.14143139702E+02  0.47787269374E+02  0.19999992382E+02 0.  0.
        -12    1    1    2    0    0 -0.37557082646E+02  0.16524544212E+02  0.14143139702E+02  0.43400730626E+02  0.00000000000E+00 0.  1.
         11    1    3    3    0    0  0.12283178252E+02 -0.11620916336E+02 -0.12965521488E+02  0.21307907269E+02  0.51100000000E-03 0. -1.
        -11    1    3    3    0    0  0.12824324657E+02  0.51484623942E+00 -0.13078034472E+01  0.12901113117E+02  0.51100000000E-03 0.  1.
        -12    1    3    3    0    0  0.12449579737E+02 -0.54184741151E+01  0.13018523318E+00  0.13578248988E+02  0.00000000000E+00 0.  1.
</event>
<event>
 7    1  0.2811980E-010  0.4778728E+02  0.7816164E-02  0.1312668E+00
        -11   -1    0    0    0    0  0.00000000000E+00  0.00000000000E+00  0.45593999997E+02  0.45594000000E+02  0.51100000000E-03 0.  1.
         11   -1    0    0    0    0 -0.00000000000E+00 -0.00000000000E+00 -0.45593999997E+02  0.45594000000E+02  0.51100000000E-03 0. -1.
    9900012    2    1    2    0    0 -0.76824975428E+01  0.29405904908E+02 -0.30982168912E+02  0.47787276476E+02  0.20000024763E+02 0.  0.
        -12    1    1    2    0    0  0.76824975428E+01 -0.29405904908E+02  0.30982168912E+02  0.43400723524E+02  0.00000000000E+00 0.  1.
         11    1    3    3    0    0  0.27428587950E+01  0.12004314679E+02 -0.16213064881E+02  0.20359035301E+02  0.51100000000E-03 0. -1.
        -11    1    3    3    0    0 -0.89349284452E+01  0.17813746788E+02 -0.97690471394E+01  0.22194521919E+02  0.51100000000E-03 0.  1.
        -12    1    3    3    0    0 -0.14904278926E+01 -0.41215655872E+00 -0.50000568914E+01  0.52337192558E+01  0.00000000000E+00 0.  1.
</event>
<event>
 7    1  0.2811980E-010  0.4778727E+02  0.7816164E-02  0.1312668E+00
        -11   -1    0    0    0    0  0.00000000000E+00  0.00000000000E+00  0.45593999997E+02  0.45594000000E+02  0.51100000000E-03 0.  1.
         11   -1    0    0    0    0 -0.00000000000E+00 -0.00000000000E+00 -0.45593999997E+02  0.45594000000E+02  0.51100000000E-03 0. -1.
    9900012    2    1    2    0    0 -0.20857813578E+02  0.91265231860E+01 -0.36949716728E+02  0.47787269833E+02  0.19999994476E+02 0.  0.
        -12    1    1    2    0    0  0.20857813578E+02 -0.91265231860E+01  0.36949716728E+02  0.43400730167E+02  0.00000000000E+00 0.  1.
         11    1    3    3    0    0 -0.12128027867E+01 -0.34187062262E+01 -0.42642250201E+00  0.36524347047E+01  0.51100000000E-03 0. -1.
        -11    1    3    3    0    0 -0.16349588305E+02  0.64335959355E+01 -0.23105910080E+02  0.29027285014E+02  0.51100000000E-03 0.  1.
         12    1    3    3    0    0 -0.32954224862E+01  0.61116334768E+01 -0.13417384147E+02  0.15107550114E+02  0.00000000000E+00 0. -1.
</event>
<event>
 7    1  0.2811980E-010  0.4778727E+02  0.7816164E-02  0.1312668E+00
        -11   -1    0    0    0    0  0.00000000000E+00  0.00000000000E+00  0.45593999997E+02  0.45594000000E+02  0.51100000000E-03 0. -1.
         11   -1    0    0    0    0 -0.00000000000E+00 -0.00000000000E+00 -0.45593999997E+02  0.45594000000E+02  0.51100000000E-03 0.  1.
    9900012    2    1    2    0    0 -0.91177216158E+01 -0.37956035576E+02  0.18969179778E+02  0.47787271140E+02  0.20000000436E+02 0.  0.
        -12    1    1    2    0    0  0.91177216158E+01  0.37956035576E+02 -0.18969179778E+02  0.43400728860E+02  0.00000000000E+00 0.  1.
         11    1    3    3    0    0 -0.47970593905E+01 -0.25384873084E+02  0.82529501562E+01  0.27120375123E+02  0.51100000000E-03 0. -1.
        -11    1    3    3    0    0 -0.17434872922E+01 -0.43544033267E+00  0.76894680912E+01  0.78966623334E+01  0.51100000000E-03 0.  1.
        -12    1    3    3    0    0 -0.25771749330E+01 -0.12135722160E+02  0.30267615306E+01  0.12770233684E+02  0.00000000000E+00 0.  1.
</event>
<event>
 7    1  0.2811980E-010  0.4778726E+02  0.7816164E-02  0.1312668E+00
        -11   -1    0    0    0    0  0.00000000000E+00  0.00000000000E+00  0.45593999997E+02  0.45594000000E+02  0.51100000000E-03 0.  1.
         11   -1    0    0    0    0 -0.00000000000E+00 -0.00000000000E+00 -0.45593999997E+02  0.45594000000E+02  0.51100000000E-03 0. -1.
    9900012    2    1    2    0    0 -0.24378968324E+01  0.29130207912E+02 -0.32079768519E+02  0.47787263806E+02  0.19999966995E+02 0.  0.
        -12    1    1    2    0    0  0.24378968324E+01 -0.29130207912E+02  0.32079768519E+02  0.43400736194E+02  0.00000000000E+00 0.  1.
         11    1    3    3    0    0  0.42196338236E+01  0.31165560251E+01 -0.84066376903E+01  0.99090760710E+01  0.51100000000E-03 0. -1.
        -11    1    3    3    0    0 -0.78923255538E+01  0.13401875219E+02 -0.73191906257E+01  0.17189229584E+02  0.51100000000E-03 0.  1.
        -12    1    3    3    0    0  0.12347948978E+01  0.12611776668E+02 -0.16353940203E+02  0.20688958150E+02  0.00000000000E+00 0.  1.
</event>
<event>
 7    1  0.2811980E-010  0.4778727E+02  0.7816164E-02  0.1312668E+00
        -11   -1    0    0    0    0  0.00000000000E+00  0.00000000000E+00  0.45593999997E+02  0.45594000000E+02  0.51100000000E-03 0.  1.
         11   -1    0    0    0    0 -0.00000000000E+00 -0.00000000000E+00 -0.45593999997E+02  0.45594000000E+02  0.51100000000E-03 0. -1.
    9900012    2    1    2    0    0 -0.26832445451E+02 -0.19084731664E+02 -0.28273948590E+02  0.47787270969E+02  0.19999999655E+02 0.  0.
        -12    1    1    2    0    0  0.26832445451E+02  0.19084731664E+02  0.28273948590E+02  0.43400729031E+02  0.00000000000E+00 0.  1.
         11    1    3    3    0    0 -0.15197274979E+02 -0.58910248396E+01 -0.20056197293E+02  0.25844001056E+02  0.51100000000E-03 0. -1.
        -11    1    3    3    0    0 -0.58835121296E+01 -0.62161838192E+01  0.14775204729E+01  0.86856043694E+01  0.51100000000E-03 0.  1.
        -12    1    3    3    0    0 -0.57516583428E+01 -0.69775230051E+01 -0.96952717699E+01  0.13257665544E+02  0.00000000000E+00 0.  1.
</event>
<event>
 7    1  0.2811980E-010  0.4778727E+02  0.7816164E-02  0.1312668E+00
        -11   -1    0    0    0    0  0.00000000000E+00  0.00000000000E+00  0.45593999997E+02  0.45594000000E+02  0.51100000000E-03 0.  1.
         11   -1    0    0    0    0 -0.00000000000E+00 -0.00000000000E+00 -0.45593999997E+02  0.45594000000E+02  0.51100000000E-03 0. -1.
    9900012    2    1    2    0    0  0.31458806266E+02  0.57998174163E+01 -0.29331364483E+02  0.47787270557E+02  0.19999997776E+02 0.  0.
        -12    1    1    2    0    0 -0.31458806266E+02 -0.57998174163E+01  0.29331364483E+02  0.43400729443E+02  0.00000000000E+00 0.  1.
         11    1    3    3    0    0  0.26913044830E+02  0.56704947993E+01 -0.17830434596E+02  0.32777902487E+02  0.51100000000E-03 0. -1.
        -11    1    3    3    0    0 -0.16169918886E+01 -0.66690333270E+00  0.20025621552E+00  0.17605469707E+01  0.51100000000E-03 0.  1.
         12    1    3    3    0    0  0.61627533248E+01  0.79622594973E+00 -0.11701186103E+02  0.13248821100E+02  0.00000000000E+00 0. -1.
</event>
<event>
 7    1  0.2811980E-010  0.4778727E+02  0.7816164E-02  0.1312668E+00
        -11   -1    0    0    0    0  0.00000000000E+00  0.00000000000E+00  0.45593999997E+02  0.45594000000E+02  0.51100000000E-03 0.  1.
         11   -1    0    0    0    0 -0.00000000000E+00 -0.00000000000E+00 -0.45593999997E+02  0.45594000000E+02  0.51100000000E-03 0. -1.
    9900012    2    1    2    0    0  0.27301419175E+02  0.28580932478E+02 -0.17927249934E+02  0.47787268664E+02  0.19999989147E+02 0.  0.
        -12    1    1    2    0    0 -0.27301419175E+02 -0.28580932478E+02  0.17927249934E+02  0.43400731336E+02  0.00000000000E+00 0.  1.
         11    1    3    3    0    0  0.60366000882E+01  0.34410902904E+01 -0.15227489006E+01  0.71133963398E+01  0.51100000000E-03 0. -1.
        -11    1    3    3    0    0  0.43225633441E+01 -0.20219535401E+01 -0.15805997489E+00  0.47747076559E+01  0.51100000000E-03 0.  1.
        -12    1    3    3    0    0  0.16942255743E+02  0.27161795728E+02 -0.16246441058E+02  0.35899164668E+02  0.00000000000E+00 0.  1.
</event>
<event>
 7    1  0.2811980E-010  0.4778727E+02  0.7816164E-02  0.1312668E+00
        -11   -1    0    0    0    0  0.00000000000E+00  0.00000000000E+00  0.45593999997E+02  0.45594000000E+02  0.51100000000E-03 0.  1.
         11   -1    0    0    0    0 -0.00000000000E+00 -0.00000000000E+00 -0.45593999997E+02  0.45594000000E+02  0.51100000000E-03 0. -1.
    9900012    2    1    2    0    0 -0.38224331199E+02  0.16334352117E+02  0.12478495788E+02  0.47787269456E+02  0.19999992756E+02 0.  0.
        -12    1    1    2    0    0  0.38224331199E+02 -0.16334352117E+02 -0.12478495788E+02  0.43400730544E+02  0.00000000000E+00 0.  1.
         11    1    3    3    0    0 -0.23914740390E+02  0.15663783451E+02  0.83550044082E+01  0.29783804640E+02  0.51100000000E-03 0. -1.
        -11    1    3    3    0    0 -0.17680816195E+01 -0.25033523662E+01 -0.20315783284E+01  0.36769819755E+01  0.51100000000E-03 0.  1.
        -12    1    3    3    0    0 -0.12541509189E+02  0.31739210319E+01  0.61550697081E+01  0.14326482840E+02  0.00000000000E+00 0.  1.
</event>
<event>
 7    1  0.2811980E-010  0.4778727E+02  0.7816164E-02  0.1312668E+00
        -11   -1    0    0    0    0  0.00000000000E+00  0.00000000000E+00  0.45593999997E+02  0.45594000000E+02  0.51100000000E-03 0. -1.
         11   -1    0    0    0    0 -0.00000000000E+00 -0.00000000000E+00 -0.45593999997E+02  0.45594000000E+02  0.51100000000E-03 0.  1.
    9900012    2    1    2    0    0  0.38255565454E+02 -0.14146495469E+02  0.14832789803E+02  0.47787271025E+02  0.19999999910E+02 0.  0.
        -12    1    1    2    0    0 -0.38255565454E+02  0.14146495469E+02 -0.14832789803E+02  0.43400728975E+02  0.00000000000E+00 0.  1.
         11    1    3    3    0    0  0.13230594202E+02 -0.10067118985E+02  0.47659947935E+01  0.17294803099E+02  0.51100000000E-03 0. -1.
        -11    1    3    3    0    0  0.51716937773E+00  0.31277773211E+01  0.47559219371E+00  0.32057204075E+01  0.51100000000E-03 0.  1.
        -12    1    3    3    0    0  0.24507801874E+02 -0.72071538046E+01  0.95912028161E+01  0.27286747519E+02  0.00000000000E+00 0.  1.
</event>
<event>
 7    1  0.2811980E-010  0.4778727E+02  0.7816164E-02  0.1312668E+00
        -11   -1    0    0    0    0  0.00000000000E+00  0.00000000000E+00  0.45593999997E+02  0.45594000000E+02  0.51100000000E-03 0.  1.
         11   -1    0    0    0    0 -0.00000000000E+00 -0.00000000000E+00 -0.45593999997E+02  0.45594000000E+02  0.51100000000E-03 0. -1.
    9900012    2    1    2    0    0  0.37596534986E+02 -0.19071250131E+02 -0.10315590512E+02  0.47787269221E+02  0.19999991687E+02 0.  0.
        -12    1    1    2    0    0 -0.37596534986E+02  0.19071250131E+02  0.10315590512E+02  0.43400730779E+02  0.00000000000E+00 0.  1.
         11    1    3    3    0    0  0.25769371688E+01  0.66793883697E+00 -0.60299120723E+01  0.65914025307E+01  0.51100000000E-03 0.  1.
        -11    1    3    3    0    0  0.14169068975E+02 -0.11545901055E+02 -0.43717233451E+01  0.18793145347E+02  0.51100000000E-03 0. -1.
         12    1    3    3    0    0  0.20850528843E+02 -0.81932879133E+01  0.86044905428E-01  0.22402721343E+02  0.00000000000E+00 0. -1.
</event>
<event>
 7    1  0.2811980E-010  0.4778727E+02  0.7816164E-02  0.1312668E+00
        -11   -1    0    0    0    0  0.00000000000E+00  0.00000000000E+00  0.45593999997E+02  0.45594000000E+02  0.51100000000E-03 0. -1.
         11   -1    0    0    0    0 -0.00000000000E+00 -0.00000000000E+00 -0.45593999997E+02  0.45594000000E+02  0.51100000000E-03 0.  1.
    9900012    2    1    2    0    0 -0.20557913269E+02 -0.28082395474E+02  0.25930179429E+02  0.47787274905E+02  0.20000017602E+02 0.  0.
        -12    1    1    2    0    0  0.20557913269E+02  0.28082395474E+02 -0.25930179429E+02  0.43400725095E+02  0.00000000000E+00 0.  1.
         11    1    3    3    0    0 -0.77939171884E+01 -0.73264706803E+01  0.60993633604E+01  0.12313592142E+02  0.51100000000E-03 0. -1.
        -11    1    3    3    0    0 -0.13276652677E+02 -0.12730825924E+02  0.57736524284E+01  0.19278965159E+02  0.51100000000E-03 0.  1.
        -12    1    3    3    0    0  0.51265659581E+00 -0.80250988703E+01  0.14057163640E+02  0.16194717604E+02  0.00000000000E+00 0.  1.
</event>
<event>
 7    1  0.2811980E-010  0.4778727E+02  0.7816164E-02  0.1312668E+00
        -11   -1    0    0    0    0  0.00000000000E+00  0.00000000000E+00  0.45593999997E+02  0.45594000000E+02  0.51100000000E-03 0.  1.
         11   -1    0    0    0    0 -0.00000000000E+00 -0.00000000000E+00 -0.45593999997E+02  0.45594000000E+02  0.51100000000E-03 0. -1.
    9900012    2    1    2    0    0  0.83775770510E+01  0.76076173336E+01 -0.41899448943E+02  0.47787268895E+02  0.19999990199E+02 0.  0.
        -12    1    1    2    0    0 -0.83775770510E+01 -0.76076173336E+01  0.41899448943E+02  0.43400731105E+02  0.00000000000E+00 0.  1.
         11    1    3    3    0    0  0.23050974627E+01  0.41847062948E+01 -0.16545527896E+02  0.17221490490E+02  0.51100000000E-03 0. -1.
        -11    1    3    3    0    0  0.58111082002E+01 -0.54605896154E+01 -0.14395120509E+02  0.16456199811E+02  0.51100000000E-03 0.  1.
        -12    1    3    3    0    0  0.26137138803E+00  0.88835006541E+01 -0.10958800537E+02  0.14109578594E+02  0.00000000000E+00 0.  1.
</event>
<event>
 7    1  0.2811980E-010  0.4778727E+02  0.7816164E-02  0.1312668E+00
        -11   -1    0    0    0    0  0.00000000000E+00  0.00000000000E+00  0.45593999997E+02  0.45594000000E+02  0.51100000000E-03 0. -1.
         11   -1    0    0    0    0 -0.00000000000E+00 -0.00000000000E+00 -0.45593999997E+02  0.45594000000E+02  0.51100000000E-03 0.  1.
    9900012    2    1    2    0    0 -0.14129848994E+02 -0.81889194893E+01  0.40210847695E+02  0.47787270659E+02  0.19999998243E+02 0.  0.
        -12    1    1    2    0    0  0.14129848994E+02  0.81889194893E+01 -0.40210847695E+02  0.43400729341E+02  0.00000000000E+00 0.  1.
         11    1    3    3    0    0 -0.59333373200E+01 -0.67436450813E+01  0.62460005165E+01  0.10940464499E+02  0.51100000000E-03 0. -1.
        -11    1    3    3    0    0 -0.48047957993E+01  0.16771745084E+01  0.38505414705E+01  0.63816648988E+01  0.51100000000E-03 0.  1.
         12    1    3    3    0    0 -0.33917158743E+01 -0.31224489164E+01  0.30114305708E+02  0.30465141261E+02  0.00000000000E+00 0. -1.
</event>
<event>
 7    1  0.2811980E-010  0.4778727E+02  0.7816164E-02  0.1312668E+00
        -11   -1    0    0    0    0  0.00000000000E+00  0.00000000000E+00  0.45593999997E+02  0.45594000000E+02  0.51100000000E-03 0. -1.
         11   -1    0    0    0    0 -0.00000000000E+00 -0.00000000000E+00 -0.45593999997E+02  0.45594000000E+02  0.51100000000E-03 0.  1.
    9900012    2    1    2    0    0  0.19449532494E+02 -0.37008003737E+01  0.38621795824E+02  0.47787270164E+02  0.19999995986E+02 0.  0.
        -12    1    1    2    0    0 -0.19449532494E+02  0.37008003737E+01 -0.38621795824E+02  0.43400729836E+02  0.00000000000E+00 0.  1.
         11    1    3    3    0    0  0.79087865277E+01  0.13010648611E+01  0.40119070692E+01  0.89630950406E+01  0.51100000000E-03 0.  1.
        -11    1    3    3    0    0  0.84550024601E+01 -0.88552442825E+01  0.28122424539E+02  0.30672026019E+02  0.51100000000E-03 0. -1.
        -12    1    3    3    0    0  0.30857435061E+01  0.38533790476E+01  0.64874642156E+01  0.81521491043E+01  0.00000000000E+00 0.  1.
</event>
<event>
 7    1  0.2811980E-010  0.4778727E+02  0.7816164E-02  0.1312668E+00
        -11   -1    0    0    0    0  0.00000000000E+00  0.00000000000E+00  0.45593999997E+02  0.45594000000E+02  0.51100000000E-03 0.  1.
         11   -1    0    0    0    0 -0.00000000000E+00 -0.00000000000E+00 -0.45593999997E+02  0.45594000000E+02  0.51100000000E-03 0. -1.
    9900012    2    1    2    0    0 -0.17274120982E+02 -0.38718889148E+02  0.92776879156E+01  0.47787272753E+02  0.20000007789E+02 0.  0.
        -12    1    1    2    0    0  0.17274120982E+02  0.38718889148E+02 -0.92776879156E+01  0.43400727247E+02  0.00000000000E+00 0.  1.
         11    1    3    3    0    0 -0.17290978430E+01 -0.55399846791E+01 -0.51073947558E+00  0.58259818631E+01  0.51100000000E-03 0. -1.
        -11    1    3    3    0    0 -0.17978825857E+01 -0.29097530795E+01 -0.46035535744E+01  0.57351330019E+01  0.51100000000E-03 0.  1.
        -12    1    3    3    0    0 -0.13747140553E+02 -0.30269151389E+02  0.14391980966E+02  0.36226157888E+02  0.00000000000E+00 0.  1.
</event>
<event>
 7    1  0.2811980E-010  0.4778727E+02  0.7816164E-02  0.1312668E+00
        -11   -1    0    0    0    0  0.00000000000E+00  0.00000000000E+00  0.45593999997E+02  0.45594000000E+02  0.51100000000E-03 0.  1.
         11   -1    0    0    0    0 -0.00000000000E+00 -0.00000000000E+00 -0.45593999997E+02  0.45594000000E+02  0.51100000000E-03 0. -1.
    9900012    2    1    2    0    0 -0.13581648500E+02  0.41100908685E+02  0.31428268295E+01  0.47787271536E+02  0.20000002241E+02 0.  0.
        -12    1    1    2    0    0  0.13581648500E+02 -0.41100908685E+02 -0.31428268295E+01  0.43400728464E+02  0.00000000000E+00 0.  1.
         11    1    3    3    0    0 -0.85417638712E+01  0.17807650420E+02  0.43863406232E+01  0.20231513236E+02  0.51100000000E-03 0.  1.
        -11    1    3    3    0    0  0.36186743457E+01  0.14907728842E+02  0.64998667458E+00  0.15354402177E+02  0.51100000000E-03 0. -1.
        -12    1    3    3    0    0 -0.86585589747E+01  0.83855294232E+01 -0.18935004684E+01  0.12201356123E+02  0.00000000000E+00 0.  1.
</event>
<event>
 7    1  0.2811980E-010  0.4778727E+02  0.7816164E-02  0.1312668E+00
        -11   -1    0    0    0    0  0.00000000000E+00  0.00000000000E+00  0.45593999997E+02  0.45594000000E+02  0.51100000000E-03 0.  1.
         11   -1    0    0    0    0 -0.00000000000E+00 -0.00000000000E+00 -0.45593999997E+02  0.45594000000E+02  0.51100000000E-03 0. -1.
    9900012    2    1    2    0    0 -0.34801455053E+02  0.31914127099E+00 -0.25930292004E+02  0.47787272260E+02  0.20000005543E+02 0.  0.
        -12    1    1    2    0    0  0.34801455053E+02 -0.31914127099E+00  0.25930292004E+02  0.43400727740E+02  0.00000000000E+00 0.  1.
         11    1    3    3    0    0 -0.92890878871E+01 -0.27243409224E+01 -0.11344765126E+02  0.14913513444E+02  0.51100000000E-03 0. -1.
        -11    1    3    3    0    0 -0.24869013333E+02 -0.10630225080E+01 -0.14301019268E+02  0.28707437945E+02  0.51100000000E-03 0.  1.
        -12    1    3    3    0    0 -0.64335383252E+00  0.41065047015E+01 -0.28450761055E+00  0.41663208707E+01  0.00000000000E+00 0.  1.
</event>
<event>
 7    1  0.2811980E-010  0.4778727E+02  0.7816164E-02  0.1312668E+00
        -11   -1    0    0    0    0  0.00000000000E+00  0.00000000000E+00  0.45593999997E+02  0.45594000000E+02  0.51100000000E-03 0. -1.
         11   -1    0    0    0    0 -0.00000000000E+00 -0.00000000000E+00 -0.45593999997E+02  0.45594000000E+02  0.51100000000E-03 0.  1.
    9900012    2    1    2    0    0 -0.15848975237E+02  0.21785232217E+02  0.34027009882E+02  0.47787265440E+02  0.19999974447E+02 0.  0.
        -12    1    1    2    0    0  0.15848975237E+02 -0.21785232217E+02 -0.34027009882E+02  0.43400734560E+02  0.00000000000E+00 0.  1.
         11    1    3    3    0    0 -0.59452829546E+01  0.19386798922E+02  0.17543321409E+02  0.26813475869E+02  0.51100000000E-03 0. -1.
        -11    1    3    3    0    0  0.86766270555E+00  0.17857258166E+01  0.40600817965E+01  0.45195043665E+01  0.51100000000E-03 0.  1.
         12    1    3    3    0    0 -0.10771354988E+02  0.61270747816E+00  0.12423606677E+02  0.16454285205E+02  0.00000000000E+00 0. -1.
</event>
<event>
 7    1  0.2811980E-010  0.4778727E+02  0.7816164E-02  0.1312668E+00
        -11   -1    0    0    0    0  0.00000000000E+00  0.00000000000E+00  0.45593999997E+02  0.45594000000E+02  0.51100000000E-03 0.  1.
         11   -1    0    0    0    0 -0.00000000000E+00 -0.00000000000E+00 -0.45593999997E+02  0.45594000000E+02  0.51100000000E-03 0. -1.
    9900012    2    1    2    0    0 -0.15543589954E+02  0.29986413614E+02 -0.27254998659E+02  0.47787272564E+02  0.20000006929E+02 0.  0.
        -12    1    1    2    0    0  0.15543589954E+02 -0.29986413614E+02  0.27254998659E+02  0.43400727436E+02  0.00000000000E+00 0.  1.
         11    1    3    3    0    0 -0.38180753353E+01  0.63188754869E+01 -0.16159320370E+02  0.17765965264E+02  0.51100000000E-03 0. -1.
        -11    1    3    3    0    0  0.11511215242E+01  0.50924905858E+01 -0.29482293807E+01  0.59958817427E+01  0.51100000000E-03 0.  1.
         12    1    3    3    0    0 -0.12876636143E+02  0.18575047541E+02 -0.81474489082E+01  0.24025425557E+02  0.00000000000E+00 0. -1.
</event>
<event>
 7    1  0.2811980E-010  0.4778727E+02  0.7816164E-02  0.1312668E+00
        -11   -1    0    0    0    0  0.00000000000E+00  0.00000000000E+00  0.45593999997E+02  0.45594000000E+02  0.51100000000E-03 0.  1.
         11   -1    0    0    0    0 -0.00000000000E+00 -0.00000000000E+00 -0.45593999997E+02  0.45594000000E+02  0.51100000000E-03 0. -1.
    9900012    2    1    2    0    0 -0.34238402248E+02  0.23711082045E+02 -0.12212273215E+02  0.47787271696E+02  0.20000002971E+02 0.  0.
        -12    1    1    2    0    0  0.34238402248E+02 -0.23711082045E+02  0.12212273215E+02  0.43400728304E+02  0.00000000000E+00 0.  1.
         11    1    3    3    0    0 -0.16056259188E+01  0.62476485829E+01 -0.77945032513E+01  0.10117580175E+02  0.51100000000E-03 0. -1.
        -11    1    3    3    0    0 -0.10830878013E+02  0.38725949119E+01  0.49514900672E+00  0.11513039680E+02  0.51100000000E-03 0.  1.
         12    1    3    3    0    0 -0.21801898316E+02  0.13590838550E+02 -0.49129189708E+01  0.26156651840E+02  0.00000000000E+00 0. -1.
</event>
<event>
 7    1  0.2811980E-010  0.4778727E+02  0.7816164E-02  0.1312668E+00
        -11   -1    0    0    0    0  0.00000000000E+00  0.00000000000E+00  0.45593999997E+02  0.45594000000E+02  0.51100000000E-03 0.  1.
         11   -1    0    0    0    0 -0.00000000000E+00 -0.00000000000E+00 -0.45593999997E+02  0.45594000000E+02  0.51100000000E-03 0. -1.
    9900012    2    1    2    0    0  0.41096294106E+02 -0.10707922319E+02 -0.89475397177E+01  0.47787268939E+02  0.19999990402E+02 0.  0.
        -12    1    1    2    0    0 -0.41096294106E+02  0.10707922319E+02  0.89475397177E+01  0.43400731061E+02  0.00000000000E+00 0.  1.
         11    1    3    3    0    0  0.77278296070E+01 -0.61366857006E+01 -0.88162735269E-01  0.98684362870E+01  0.51100000000E-03 0. -1.
        -11    1    3    3    0    0  0.18924061718E+01 -0.56830208708E+00  0.33761635693E+01  0.39118600549E+01  0.51100000000E-03 0.  1.
        -12    1    3    3    0    0  0.31476058327E+02 -0.40029345309E+01 -0.12235540552E+02  0.34006972598E+02  0.00000000000E+00 0.  1.
</event>
<event>
 7    1  0.2811980E-010  0.4778727E+02  0.7816164E-02  0.1312668E+00
        -11   -1    0    0    0    0  0.00000000000E+00  0.00000000000E+00  0.45593999997E+02  0.45594000000E+02  0.51100000000E-03 0. -1.
         11   -1    0    0    0    0 -0.00000000000E+00 -0.00000000000E+00 -0.45593999997E+02  0.45594000000E+02  0.51100000000E-03 0.  1.
    9900012    2    1    2    0    0  0.24606511357E+02  0.10028587201E+02  0.34315740505E+02  0.47787274098E+02  0.20000013922E+02 0.  0.
        -12    1    1    2    0    0 -0.24606511357E+02 -0.10028587201E+02 -0.34315740505E+02  0.43400725902E+02  0.00000000000E+00 0.  1.
         11    1    3    3    0    0  0.63682528713E+01  0.12629908282E+00  0.21826269309E+01  0.67330867120E+01  0.51100000000E-03 0. -1.
        -11    1    3    3    0    0  0.20142690857E+02  0.77487359298E+01  0.23274252167E+02  0.31740537451E+02  0.51100000000E-03 0.  1.
        -12    1    3    3    0    0 -0.19044323709E+01  0.21535521887E+01  0.88588614070E+01  0.93136499351E+01  0.00000000000E+00 0.  1.
</event>
<event>
 7    1  0.2811980E-010  0.4778727E+02  0.7816164E-02  0.1312668E+00
        -11   -1    0    0    0    0  0.00000000000E+00  0.00000000000E+00  0.45593999997E+02  0.45594000000E+02  0.51100000000E-03 0.  1.
         11   -1    0    0    0    0 -0.00000000000E+00 -0.00000000000E+00 -0.45593999997E+02  0.45594000000E+02  0.51100000000E-03 0. -1.
    9900012    2    1    2    0    0  0.26067273374E+02 -0.11969952913E+02 -0.32570557995E+02  0.47787265421E+02  0.19999974360E+02 0.  0.
        -12    1    1    2    0    0 -0.26067273374E+02  0.11969952913E+02  0.32570557995E+02  0.43400734579E+02  0.00000000000E+00 0.  1.
         11    1    3    3    0    0  0.15138640165E+02 -0.65232927661E+01 -0.26976130092E+02  0.31613974277E+02  0.51100000000E-03 0. -1.
        -11    1    3    3    0    0  0.19532482614E+01  0.70761645582E+00 -0.48370288125E+01  0.52642898679E+01  0.51100000000E-03 0.  1.
         12    1    3    3    0    0  0.89753849476E+01 -0.61542766024E+01 -0.75739909021E+00  0.10909001276E+02  0.00000000000E+00 0. -1.
</event>
<event>
 7    1  0.2811980E-010  0.4778727E+02  0.7816164E-02  0.1312668E+00
        -11   -1    0    0    0    0  0.00000000000E+00  0.00000000000E+00  0.45593999997E+02  0.45594000000E+02  0.51100000000E-03 0.  1.
         11   -1    0    0    0    0 -0.00000000000E+00 -0.00000000000E+00 -0.45593999997E+02  0.45594000000E+02  0.51100000000E-03 0. -1.
    9900012    2    1    2    0    0  0.34561691522E+02  0.11019199674E+02 -0.23826252661E+02  0.47787267308E+02  0.19999982966E+02 0.  0.
        -12    1    1    2    0    0 -0.34561691522E+02 -0.11019199674E+02  0.23826252661E+02  0.43400732692E+02  0.00000000000E+00 0.  1.
         11    1    3    3    0    0  0.22449759802E+02 -0.18882722399E+01 -0.15787417767E+02  0.27509995406E+02  0.51100000000E-03 0. -1.
        -11    1    3    3    0    0  0.18197205809E+01  0.56171499385E+01 -0.35504895752E+01  0.68898282205E+01  0.51100000000E-03 0.  1.
        -12    1    3    3    0    0  0.10292211139E+02  0.72903219757E+01 -0.44883453183E+01  0.13387443682E+02  0.00000000000E+00 0.  1.
</event>
<event>
 7    1  0.2811980E-010  0.4778726E+02  0.7816164E-02  0.1312668E+00
        -11   -1    0    0    0    0  0.00000000000E+00  0.00000000000E+00  0.45593999997E+02  0.45594000000E+02  0.51100000000E-03 0.  1.
         11   -1    0    0    0    0 -0.00000000000E+00 -0.00000000000E+00 -0.45593999997E+02  0.45594000000E+02  0.51100000000E-03 0. -1.
    9900012    2    1    2    0    0  0.67850559423E+01 -0.13562219448E+02 -0.40665142843E+02  0.47787255502E+02  0.19999929138E+02 0.  0.
        -12    1    1    2    0    0 -0.67850559423E+01  0.13562219448E+02  0.40665142843E+02  0.43400744498E+02  0.00000000000E+00 0.  1.
         11    1    3    3    0    0  0.10710884100E+01 -0.11497185380E+02 -0.39065023178E+02  0.40735838499E+02  0.51100000000E-03 0. -1.
        -11    1    3    3    0    0  0.38194037864E+01 -0.20122963675E+01  0.35097125007E+00  0.43313234737E+01  0.51100000000E-03 0.  1.
        -12    1    3    3    0    0  0.18945637459E+01 -0.52737700494E-01 -0.19510909152E+01  0.27200935299E+01  0.00000000000E+00 0.  1.
</event>
<event>
 7    1  0.2811980E-010  0.4778727E+02  0.7816164E-02  0.1312668E+00
        -11   -1    0    0    0    0  0.00000000000E+00  0.00000000000E+00  0.45593999997E+02  0.45594000000E+02  0.51100000000E-03 0.  1.
         11   -1    0    0    0    0 -0.00000000000E+00 -0.00000000000E+00 -0.45593999997E+02  0.45594000000E+02  0.51100000000E-03 0. -1.
    9900012    2    1    2    0    0 -0.33293387648E+01  0.92766254862E+01 -0.42266808400E+02  0.47787269945E+02  0.19999994987E+02 0.  0.
        -12    1    1    2    0    0  0.33293387648E+01 -0.92766254862E+01  0.42266808400E+02  0.43400730055E+02  0.00000000000E+00 0.  1.
         11    1    3    3    0    0  0.63838066309E+00 -0.48542033959E+01 -0.22996844543E+02  0.23512245314E+02  0.51100000000E-03 0. -1.
        -11    1    3    3    0    0 -0.27483016522E+01  0.78141280993E+01 -0.98856246038E+01  0.12897260717E+02  0.51100000000E-03 0.  1.
         12    1    3    3    0    0 -0.12194177757E+01  0.63167007828E+01 -0.93843392526E+01  0.11377763915E+02  0.00000000000E+00 0. -1.
</event>
<event>
 7    1  0.2811980E-010  0.4778727E+02  0.7816164E-02  0.1312668E+00
        -11   -1    0    0    0    0  0.00000000000E+00  0.00000000000E+00  0.45593999997E+02  0.45594000000E+02  0.51100000000E-03 0. -1.
         11   -1    0    0    0    0 -0.00000000000E+00 -0.00000000000E+00 -0.45593999997E+02  0.45594000000E+02  0.51100000000E-03 0.  1.
    9900012    2    1    2    0    0  0.39842407594E+02 -0.32757061523E+01 -0.16896018325E+02  0.47787272714E+02  0.20000007613E+02 0.  0.
        -12    1    1    2    0    0 -0.39842407594E+02  0.32757061523E+01  0.16896018325E+02  0.43400727286E+02  0.00000000000E+00 0.  1.
         11    1    3    3    0    0  0.16079459606E+02  0.32576776249E+01  0.13831154042E+01  0.16464340047E+02  0.51100000000E-03 0. -1.
        -11    1    3    3    0    0  0.11936356056E+02 -0.30946284030E+01 -0.13014676835E+02  0.17928612167E+02  0.51100000000E-03 0.  1.
         12    1    3    3    0    0  0.11826591933E+02 -0.34387553742E+01 -0.52644568942E+01  0.13394320500E+02  0.00000000000E+00 0. -1.
</event>
<event>
 7    1  0.2811980E-010  0.4778727E+02  0.7816164E-02  0.1312668E+00
        -11   -1    0    0    0    0  0.00000000000E+00  0.00000000000E+00  0.45593999997E+02  0.45594000000E+02  0.51100000000E-03 0.  1.
         11   -1    0    0    0    0 -0.00000000000E+00 -0.00000000000E+00 -0.45593999997E+02  0.45594000000E+02  0.51100000000E-03 0. -1.
    9900012    2    1    2    0    0  0.34011903618E+02  0.89711300610E+01 -0.25423071149E+02  0.47787270641E+02  0.19999998160E+02 0.  0.
        -12    1    1    2    0    0 -0.34011903618E+02 -0.89711300610E+01  0.25423071149E+02  0.43400729359E+02  0.00000000000E+00 0.  1.
         11    1    3    3    0    0  0.19994015916E+02  0.92996082738E+01 -0.16412084805E+02  0.27488177721E+02  0.51100000000E-03 0. -1.
        -11    1    3    3    0    0  0.63562348411E+01 -0.33283325187E+01 -0.96741052444E+01  0.12044410789E+02  0.51100000000E-03 0.  1.
        -12    1    3    3    0    0  0.76616528607E+01  0.29998543059E+01  0.66311890064E+00  0.82546821314E+01  0.00000000000E+00 0.  1.
</event>
<event>
 7    1  0.2811980E-010  0.4778727E+02  0.7816164E-02  0.1312668E+00
        -11   -1    0    0    0    0  0.00000000000E+00  0.00000000000E+00  0.45593999997E+02  0.45594000000E+02  0.51100000000E-03 0.  1.
         11   -1    0    0    0    0 -0.00000000000E+00 -0.00000000000E+00 -0.45593999997E+02  0.45594000000E+02  0.51100000000E-03 0. -1.
    9900012    2    1    2    0    0  0.30935634091E+02  0.17917286389E+02 -0.24608549828E+02  0.47787270365E+02  0.19999996904E+02 0.  0.
        -12    1    1    2    0    0 -0.30935634091E+02 -0.17917286389E+02  0.24608549828E+02  0.43400729635E+02  0.00000000000E+00 0.  1.
         11    1    3    3    0    0  0.19136565205E+02  0.94443997098E+01 -0.16338220411E+02  0.26876425733E+02  0.51100000000E-03 0. -1.
        -11    1    3    3    0    0 -0.69887168216E+00 -0.21270952589E+01  0.54249569447E+00  0.23037486209E+01  0.51100000000E-03 0.  1.
        -12    1    3    3    0    0  0.12497940568E+02  0.10599981938E+02 -0.88128251119E+01  0.18607096012E+02  0.00000000000E+00 0.  1.
</event>
<event>
 7    1  0.2811980E-010  0.4778727E+02  0.7816164E-02  0.1312668E+00
        -11   -1    0    0    0    0  0.00000000000E+00  0.00000000000E+00  0.45593999997E+02  0.45594000000E+02  0.51100000000E-03 0. -1.
         11   -1    0    0    0    0 -0.00000000000E+00 -0.00000000000E+00 -0.45593999997E+02  0.45594000000E+02  0.51100000000E-03 0.  1.
    9900012    2    1    2    0    0  0.29420073227E+02  0.31420867718E+02  0.55508215297E+01  0.47787271245E+02  0.20000000913E+02 0.  0.
        -12    1    1    2    0    0 -0.29420073227E+02 -0.31420867718E+02 -0.55508215297E+01  0.43400728755E+02  0.00000000000E+00 0.  1.
         11    1    3    3    0    0  0.23315703862E+02  0.24138026844E+02  0.17871966596E+01  0.33607446476E+02  0.51100000000E-03 0. -1.
        -11    1    3    3    0    0 -0.12629465826E+01  0.85244175841E+00 -0.22369761537E+01  0.27066129379E+01  0.51100000000E-03 0.  1.
        -12    1    3    3    0    0  0.73673159476E+01  0.64303991159E+01  0.60006010237E+01  0.11473211831E+02  0.00000000000E+00 0.  1.
</event>
<event>
 7    1  0.2811980E-010  0.4778727E+02  0.7816164E-02  0.1312668E+00
        -11   -1    0    0    0    0  0.00000000000E+00  0.00000000000E+00  0.45593999997E+02  0.45594000000E+02  0.51100000000E-03 0. -1.
         11   -1    0    0    0    0 -0.00000000000E+00 -0.00000000000E+00 -0.45593999997E+02  0.45594000000E+02  0.51100000000E-03 0.  1.
    9900012    2    1    2    0    0 -0.24967734291E+02  0.28687239107E+02  0.20911193228E+02  0.47787269068E+02  0.19999990989E+02 0.  0.
        -12    1    1    2    0    0  0.24967734291E+02 -0.28687239107E+02 -0.20911193228E+02  0.43400730932E+02  0.00000000000E+00 0.  1.
         11    1    3    3    0    0 -0.58411825506E+01  0.14689657924E+02  0.90608225948E+01  0.18220976095E+02  0.51100000000E-03 0.  1.
        -11    1    3    3    0    0 -0.15130653914E+02  0.64676193761E+01  0.20578199722E+01  0.16583166512E+02  0.51100000000E-03 0. -1.
         12    1    3    3    0    0 -0.39958978270E+01  0.75299618068E+01  0.97925506613E+01  0.12983126461E+02  0.00000000000E+00 0. -1.
</event>
<event>
 7    1  0.2811980E-010  0.4778727E+02  0.7816164E-02  0.1312668E+00
        -11   -1    0    0    0    0  0.00000000000E+00  0.00000000000E+00  0.45593999997E+02  0.45594000000E+02  0.51100000000E-03 0. -1.
         11   -1    0    0    0    0 -0.00000000000E+00 -0.00000000000E+00 -0.45593999997E+02  0.45594000000E+02  0.51100000000E-03 0.  1.
    9900012    2    1    2    0    0 -0.17143552152E+02 -0.37955812168E+02  0.12209754513E+02  0.47787272321E+02  0.20000005822E+02 0.  0.
        -12    1    1    2    0    0  0.17143552152E+02  0.37955812168E+02 -0.12209754513E+02  0.43400727679E+02  0.00000000000E+00 0.  1.
         11    1    3    3    0    0 -0.69962602389E+01 -0.53426986265E+01 -0.34506452560E+01  0.94551064980E+01  0.51100000000E-03 0. -1.
        -11    1    3    3    0    0 -0.41905898703E+00 -0.20695525803E+01 -0.84817425448E+00  0.22755346942E+01  0.51100000000E-03 0.  1.
         12    1    3    3    0    0 -0.97282329263E+01 -0.30543560962E+02  0.16508574024E+02  0.36056631129E+02  0.00000000000E+00 0. -1.
</event>
<event>
 7    1  0.2811980E-010  0.4778728E+02  0.7816164E-02  0.1312668E+00
        -11   -1    0    0    0    0  0.00000000000E+00  0.00000000000E+00  0.45593999997E+02  0.45594000000E+02  0.51100000000E-03 0.  1.
         11   -1    0    0    0    0 -0.00000000000E+00 -0.00000000000E+00 -0.45593999997E+02  0.45594000000E+02  0.51100000000E-03 0. -1.
    9900012    2    1    2    0    0 -0.42373582472E+02  0.93433194167E+01  0.89674908820E+00  0.47787282630E+02  0.20000052825E+02 0.  0.
        -12    1    1    2    0    0  0.42373582472E+02 -0.93433194167E+01 -0.89674908820E+00  0.43400717370E+02  0.00000000000E+00 0.  1.
         11    1    3    3    0    0 -0.35389724442E+02  0.65580205153E+01  0.35507921056E+01  0.36166951129E+02  0.51100000000E-03 0. -1.
        -11    1    3    3    0    0 -0.73368371673E+01  0.49337813942E+01 -0.10241709760E+01  0.89005789090E+01  0.51100000000E-03 0.  1.
         12    1    3    3    0    0  0.35297913647E+00 -0.21484824928E+01 -0.16298720414E+01  0.27197525924E+01  0.00000000000E+00 0. -1.
</event>
<event>
 7    1  0.2811980E-010  0.4778727E+02  0.7816164E-02  0.1312668E+00
        -11   -1    0    0    0    0  0.00000000000E+00  0.00000000000E+00  0.45593999997E+02  0.45594000000E+02  0.51100000000E-03 0.  1.
         11   -1    0    0    0    0 -0.00000000000E+00 -0.00000000000E+00 -0.45593999997E+02  0.45594000000E+02  0.51100000000E-03 0. -1.
    9900012    2    1    2    0    0 -0.79116462724E+01  0.25748049572E+02 -0.34030385739E+02  0.47787270086E+02  0.19999995631E+02 0.  0.
        -12    1    1    2    0    0  0.79116462724E+01 -0.25748049572E+02  0.34030385739E+02  0.43400729914E+02  0.00000000000E+00 0.  1.
         11    1    3    3    0    0  0.19038135274E+01  0.53471585344E+01 -0.79004377771E+01  0.97279765455E+01  0.51100000000E-03 0. -1.
        -11    1    3    3    0    0 -0.63073513662E+01  0.20609202678E+02 -0.14667558742E+02  0.26070274184E+02  0.51100000000E-03 0.  1.
        -12    1    3    3    0    0 -0.35081084336E+01 -0.20831164083E+00 -0.11462389220E+02  0.11989019357E+02  0.00000000000E+00 0.  1.
</event>
<event>
 7    1  0.2811980E-010  0.4778727E+02  0.7816164E-02  0.1312668E+00
        -11   -1    0    0    0    0  0.00000000000E+00  0.00000000000E+00  0.45593999997E+02  0.45594000000E+02  0.51100000000E-03 0.  1.
         11   -1    0    0    0    0 -0.00000000000E+00 -0.00000000000E+00 -0.45593999997E+02  0.45594000000E+02  0.51100000000E-03 0. -1.
    9900012    2    1    2    0    0 -0.22459669210E+01  0.16693394919E+02 -0.39998868218E+02  0.47787271204E+02  0.20000000726E+02 0.  0.
        -12    1    1    2    0    0  0.22459669210E+01 -0.16693394919E+02  0.39998868218E+02  0.43400728796E+02  0.00000000000E+00 0.  1.
         11    1    3    3    0    0 -0.48763866111E+01 -0.21887490446E+01 -0.80733603524E+01  0.96824024085E+01  0.51100000000E-03 0. -1.
        -11    1    3    3    0    0  0.55027396577E+01  0.13039477690E+02 -0.23832531459E+02  0.27718183169E+02  0.51100000000E-03 0.  1.
         12    1    3    3    0    0 -0.28723199676E+01  0.58426662738E+01 -0.80929764066E+01  0.10386685626E+02  0.00000000000E+00 0. -1.
</event>
<event>
 7    1  0.2811980E-010  0.4778727E+02  0.7816164E-02  0.1312668E+00
        -11   -1    0    0    0    0  0.00000000000E+00  0.00000000000E+00  0.45593999997E+02  0.45594000000E+02  0.51100000000E-03 0.  1.
         11   -1    0    0    0    0 -0.00000000000E+00 -0.00000000000E+00 -0.45593999997E+02  0.45594000000E+02  0.51100000000E-03 0. -1.
    9900012    2    1    2    0    0  0.33229421836E+02  0.18283725917E+02 -0.21098203681E+02  0.47787270657E+02  0.19999998234E+02 0.  0.
        -12    1    1    2    0    0 -0.33229421836E+02 -0.18283725917E+02  0.21098203681E+02  0.43400729343E+02  0.00000000000E+00 0.  1.
         11    1    3    3    0    0  0.53046835620E+01  0.81817225411E+01 -0.70501539537E+00  0.97763642732E+01  0.51100000000E-03 0. -1.
        -11    1    3    3    0    0  0.21694752869E+02  0.92157310343E+01 -0.21155109137E+02  0.31672237739E+02  0.51100000000E-03 0.  1.
        -12    1    3    3    0    0  0.62299854050E+01  0.88627234135E+00  0.76192085099E+00  0.63386686451E+01  0.00000000000E+00 0.  1.
</event>
<event>
 7    1  0.2811980E-010  0.4778725E+02  0.7816164E-02  0.1312668E+00
        -11   -1    0    0    0    0  0.00000000000E+00  0.00000000000E+00  0.45593999997E+02  0.45594000000E+02  0.51100000000E-03 0.  1.
         11   -1    0    0    0    0 -0.00000000000E+00 -0.00000000000E+00 -0.45593999997E+02  0.45594000000E+02  0.51100000000E-03 0. -1.
    9900012    2    1    2    0    0 -0.47887055221E+01  0.23812138767E+02 -0.35967700080E+02  0.47787249980E+02  0.19999903959E+02 0.  0.
        -12    1    1    2    0    0  0.47887055221E+01 -0.23812138767E+02  0.35967700080E+02  0.43400750020E+02  0.00000000000E+00 0.  1.
         11    1    3    3    0    0 -0.63652071553E+01  0.17436538690E+02 -0.24833537571E+02  0.31004085733E+02  0.51100000000E-03 0. -1.
        -11    1    3    3    0    0 -0.23785009490E+01 -0.10950271312E+01  0.22032480355E+00  0.26277165872E+01  0.51100000000E-03 0.  1.
         12    1    3    3    0    0  0.39550025822E+01  0.74706272078E+01 -0.11354487313E+02  0.14155447660E+02  0.00000000000E+00 0. -1.
</event>
<event>
 7    1  0.2811980E-010  0.4778727E+02  0.7816164E-02  0.1312668E+00
        -11   -1    0    0    0    0  0.00000000000E+00  0.00000000000E+00  0.45593999997E+02  0.45594000000E+02  0.51100000000E-03 0.  1.
         11   -1    0    0    0    0 -0.00000000000E+00 -0.00000000000E+00 -0.45593999997E+02  0.45594000000E+02  0.51100000000E-03 0. -1.
    9900012    2    1    2    0    0  0.31555752661E+02 -0.10878624946E+01 -0.29777082278E+02  0.47787267290E+02  0.19999982881E+02 0.  0.
        -12    1    1    2    0    0 -0.31555752661E+02  0.10878624946E+01  0.29777082278E+02  0.43400732710E+02  0.00000000000E+00 0.  1.
         11    1    3    3    0    0  0.10921355064E+02 -0.71574855631E+01 -0.18526250400E+02  0.22665558678E+02  0.51100000000E-03 0.  1.
        -11    1    3    3    0    0  0.17444498746E+02  0.36770578781E+01 -0.11347920406E+02  0.21133068612E+02  0.51100000000E-03 0. -1.
        -12    1    3    3    0    0  0.31898988509E+01  0.23925651904E+01  0.97088528356E-01  0.39886400003E+01  0.00000000000E+00 0.  1.
</event>
<event>
 7    1  0.2811980E-010  0.4778728E+02  0.7816164E-02  0.1312668E+00
        -11   -1    0    0    0    0  0.00000000000E+00  0.00000000000E+00  0.45593999997E+02  0.45594000000E+02  0.51100000000E-03 0.  1.
         11   -1    0    0    0    0 -0.00000000000E+00 -0.00000000000E+00 -0.45593999997E+02  0.45594000000E+02  0.51100000000E-03 0. -1.
    9900012    2    1    2    0    0 -0.34800274926E+02 -0.14801954841E+02 -0.21294729670E+02  0.47787279802E+02  0.20000039928E+02 0.  0.
        -12    1    1    2    0    0  0.34800274926E+02  0.14801954841E+02  0.21294729670E+02  0.43400720198E+02  0.00000000000E+00 0.  1.
         11    1    3    3    0    0 -0.23813970973E+02 -0.53606659127E+01 -0.21531720751E+02  0.32549300320E+02  0.51100000000E-03 0. -1.
        -11    1    3    3    0    0 -0.62595236530E+01 -0.37954012561E+01  0.21513453899E+01  0.76298751173E+01  0.51100000000E-03 0.  1.
         12    1    3    3    0    0 -0.47267802992E+01 -0.56458876721E+01 -0.19143543085E+01  0.76081043645E+01  0.00000000000E+00 0. -1.
</event>
<event>
 7    1  0.2811980E-010  0.4778727E+02  0.7816164E-02  0.1312668E+00
        -11   -1    0    0    0    0  0.00000000000E+00  0.00000000000E+00  0.45593999997E+02  0.45594000000E+02  0.51100000000E-03 0.  1.
         11   -1    0    0    0    0 -0.00000000000E+00 -0.00000000000E+00 -0.45593999997E+02  0.45594000000E+02  0.51100000000E-03 0. -1.
    9900012    2    1    2    0    0  0.31941837754E+02  0.80254673957E+01 -0.28265423150E+02  0.47787271067E+02  0.20000000104E+02 0.  0.
        -12    1    1    2    0    0 -0.31941837754E+02 -0.80254673957E+01  0.28265423150E+02  0.43400728933E+02  0.00000000000E+00 0.  1.
         11    1    3    3    0    0  0.11587352856E+02  0.96276942791E+01 -0.60299660806E+01  0.16227129584E+02  0.51100000000E-03 0. -1.
        -11    1    3    3    0    0  0.73772242694E+01 -0.42108880652E+01 -0.51012967082E+01  0.99084935577E+01  0.51100000000E-03 0.  1.
         12    1    3    3    0    0  0.12977260629E+02  0.26086611817E+01 -0.17134160362E+02  0.21651647925E+02  0.00000000000E+00 0. -1.
</event>
<event>
 7    1  0.2811980E-010  0.4778728E+02  0.7816164E-02  0.1312668E+00
        -11   -1    0    0    0    0  0.00000000000E+00  0.00000000000E+00  0.45593999997E+02  0.45594000000E+02  0.51100000000E-03 0.  1.
         11   -1    0    0    0    0 -0.00000000000E+00 -0.00000000000E+00 -0.45593999997E+02  0.45594000000E+02  0.51100000000E-03 0. -1.
    9900012    2    1    2    0    0  0.14863076628E+02  0.25763575603E+02 -0.31606169343E+02  0.47787276328E+02  0.20000024091E+02 0.  0.
        -12    1    1    2    0    0 -0.14863076628E+02 -0.25763575603E+02  0.31606169343E+02  0.43400723672E+02  0.00000000000E+00 0.  1.
         11    1    3    3    0    0  0.13234424617E+02  0.14697610502E+02 -0.27780617081E+02  0.34101795189E+02  0.51100000000E-03 0. -1.
        -11    1    3    3    0    0  0.16907588546E+01  0.83789976502E+01  0.53342760869E+00  0.85645088826E+01  0.51100000000E-03 0.  1.
         12    1    3    3    0    0 -0.62106844209E-01  0.26869674501E+01 -0.43589798712E+01  0.51209722569E+01  0.00000000000E+00 0. -1.
</event>
<event>
 7    1  0.2811980E-010  0.4778727E+02  0.7816164E-02  0.1312668E+00
        -11   -1    0    0    0    0  0.00000000000E+00  0.00000000000E+00  0.45593999997E+02  0.45594000000E+02  0.51100000000E-03 0. -1.
         11   -1    0    0    0    0 -0.00000000000E+00 -0.00000000000E+00 -0.45593999997E+02  0.45594000000E+02  0.51100000000E-03 0.  1.
    9900012    2    1    2    0    0  0.21692100501E+02 -0.32601585050E+02 -0.18713978782E+02  0.47787267589E+02  0.19999984247E+02 0.  0.
        -12    1    1    2    0    0 -0.21692100501E+02  0.32601585050E+02  0.18713978782E+02  0.43400732411E+02  0.00000000000E+00 0.  1.
         11    1    3    3    0    0  0.13287484083E+02 -0.27260850342E+02 -0.17081209124E+02  0.34806305464E+02  0.51100000000E-03 0. -1.
        -11    1    3    3    0    0  0.80241145042E+01 -0.25449759646E+01  0.17272294823E+01  0.85934066692E+01  0.51100000000E-03 0.  1.
        -12    1    3    3    0    0  0.38050191364E+00 -0.27957587434E+01 -0.33599991406E+01  0.43875554563E+01  0.00000000000E+00 0.  1.
</event>
<event>
 7    1  0.2811980E-010  0.4778727E+02  0.7816164E-02  0.1312668E+00
        -11   -1    0    0    0    0  0.00000000000E+00  0.00000000000E+00  0.45593999997E+02  0.45594000000E+02  0.51100000000E-03 0.  1.
         11   -1    0    0    0    0 -0.00000000000E+00 -0.00000000000E+00 -0.45593999997E+02  0.45594000000E+02  0.51100000000E-03 0. -1.
    9900012    2    1    2    0    0 -0.85206634449E+01  0.27137402288E+02 -0.32780829224E+02  0.47787273357E+02  0.20000010545E+02 0.  0.
        -12    1    1    2    0    0  0.85206634449E+01 -0.27137402288E+02  0.32780829224E+02  0.43400726643E+02  0.00000000000E+00 0.  1.
         11    1    3    3    0    0  0.10918241764E+01  0.63602005177E+01 -0.11130648684E+02  0.12866062764E+02  0.51100000000E-03 0. -1.
        -11    1    3    3    0    0 -0.25300890206E+01  0.20074947876E+02 -0.16915441087E+02  0.26373036042E+02  0.51100000000E-03 0.  1.
        -12    1    3    3    0    0 -0.70823986007E+01  0.70225389508E+00 -0.47347394538E+01  0.85481745518E+01  0.00000000000E+00 0.  1.
</event>
<event>
 7    1  0.2811980E-010  0.4778727E+02  0.7816164E-02  0.1312668E+00
        -11   -1    0    0    0    0  0.00000000000E+00  0.00000000000E+00  0.45593999997E+02  0.45594000000E+02  0.51100000000E-03 0.  1.
         11   -1    0    0    0    0 -0.00000000000E+00 -0.00000000000E+00 -0.45593999997E+02  0.45594000000E+02  0.51100000000E-03 0. -1.
    9900012    2    1    2    0    0 -0.13850179498E+02 -0.11529777041E+02 -0.39482400524E+02  0.47787272104E+02  0.20000004831E+02 0.  0.
        -12    1    1    2    0    0  0.13850179498E+02  0.11529777041E+02  0.39482400524E+02  0.43400727896E+02  0.00000000000E+00 0.  1.
         11    1    3    3    0    0 -0.88337112451E+01 -0.81492444079E+01 -0.21714977270E+02  0.24819042626E+02  0.51100000000E-03 0. -1.
        -11    1    3    3    0    0  0.31201491890E+01  0.68100641702E+00 -0.21617767464E+00  0.32009113936E+01  0.51100000000E-03 0.  1.
        -12    1    3    3    0    0 -0.81366174416E+01 -0.40615390503E+01 -0.17551245580E+02  0.19767318085E+02  0.00000000000E+00 0.  1.
</event>
<event>
 7    1  0.2811980E-010  0.4778727E+02  0.7816164E-02  0.1312668E+00
        -11   -1    0    0    0    0  0.00000000000E+00  0.00000000000E+00  0.45593999997E+02  0.45594000000E+02  0.51100000000E-03 0.  1.
         11   -1    0    0    0    0 -0.00000000000E+00 -0.00000000000E+00 -0.45593999997E+02  0.45594000000E+02  0.51100000000E-03 0. -1.
    9900012    2    1    2    0    0 -0.22275373907E+02 -0.28751900858E+02 -0.23680353314E+02  0.47787271680E+02  0.20000002897E+02 0.  0.
        -12    1    1    2    0    0  0.22275373907E+02  0.28751900858E+02  0.23680353314E+02  0.43400728320E+02  0.00000000000E+00 0.  1.
         11    1    3    3    0    0 -0.14777445518E+02 -0.42008387399E+01 -0.66236570638E+01  0.16729996274E+02  0.51100000000E-03 0. -1.
        -11    1    3    3    0    0 -0.11037210761E+01 -0.22485691503E+01 -0.30861708785E+01  0.39747596644E+01  0.51100000000E-03 0.  1.
         12    1    3    3    0    0 -0.63942073127E+01 -0.22302492968E+02 -0.13970525372E+02  0.27082515742E+02  0.00000000000E+00 0. -1.
</event>
<event>
 7    1  0.2811980E-010  0.4778727E+02  0.7816164E-02  0.1312668E+00
        -11   -1    0    0    0    0  0.00000000000E+00  0.00000000000E+00  0.45593999997E+02  0.45594000000E+02  0.51100000000E-03 0. -1.
         11   -1    0    0    0    0 -0.00000000000E+00 -0.00000000000E+00 -0.45593999997E+02  0.45594000000E+02  0.51100000000E-03 0.  1.
    9900012    2    1    2    0    0 -0.13937948841E+01 -0.41037723033E+02  0.14056538879E+02  0.47787266582E+02  0.19999979656E+02 0.  0.
        -12    1    1    2    0    0  0.13937948841E+01  0.41037723033E+02 -0.14056538879E+02  0.43400733418E+02  0.00000000000E+00 0.  1.
         11    1    3    3    0    0  0.17790809051E+01 -0.21887833485E+02  0.15321749388E+02  0.26776825579E+02  0.51100000000E-03 0. -1.
        -11    1    3    3    0    0 -0.11758566107E+01 -0.10795233691E+02 -0.46034790988E+01  0.11794563548E+02  0.51100000000E-03 0.  1.
         12    1    3    3    0    0 -0.19970191784E+01 -0.83546558575E+01  0.33382685895E+01  0.92158774554E+01  0.00000000000E+00 0. -1.
</event>
<event>
 7    1  0.2811980E-010  0.4778729E+02  0.7816164E-02  0.1312668E+00
        -11   -1    0    0    0    0  0.00000000000E+00  0.00000000000E+00  0.45593999997E+02  0.45594000000E+02  0.51100000000E-03 0. -1.
         11   -1    0    0    0    0 -0.00000000000E+00 -0.00000000000E+00 -0.45593999997E+02  0.45594000000E+02  0.51100000000E-03 0.  1.
    9900012    2    1    2    0    0 -0.16034371959E+02 -0.24256623537E+01  0.40257127070E+02  0.47787294915E+02  0.20000108835E+02 0.  0.
        -12    1    1    2    0    0  0.16034371959E+02  0.24256623537E+01 -0.40257127070E+02  0.43400705085E+02  0.00000000000E+00 0.  1.
         11    1    3    3    0    0 -0.12608069870E+02  0.26533087567E+01  0.11899069590E+02  0.17538281859E+02  0.51100000000E-03 0. -1.
        -11    1    3    3    0    0 -0.23734377782E+00 -0.63802421041E+01  0.12675310001E+02  0.14192508772E+02  0.51100000000E-03 0.  1.
        -12    1    3    3    0    0 -0.31889583113E+01  0.13012709938E+01  0.15682747479E+02  0.16056504284E+02  0.00000000000E+00 0.  1.
</event>
<event>
 7    1  0.2811980E-010  0.4778726E+02  0.7816164E-02  0.1312668E+00
        -11   -1    0    0    0    0  0.00000000000E+00  0.00000000000E+00  0.45593999997E+02  0.45594000000E+02  0.51100000000E-03 0. -1.
         11   -1    0    0    0    0 -0.00000000000E+00 -0.00000000000E+00 -0.45593999997E+02  0.45594000000E+02  0.51100000000E-03 0.  1.
    9900012    2    1    2    0    0  0.20986696801E+02 -0.11248854677E+02  0.36285612616E+02  0.47787264326E+02  0.19999969366E+02 0.  0.
        -12    1    1    2    0    0 -0.20986696801E+02  0.11248854677E+02 -0.36285612616E+02  0.43400735674E+02  0.00000000000E+00 0.  1.
         11    1    3    3    0    0  0.26714955862E+01 -0.21817641711E+01  0.20458790988E+01  0.40103123460E+01  0.51100000000E-03 0. -1.
        -11    1    3    3    0    0  0.17455459164E+02 -0.36332359014E+00  0.28131468931E+02  0.33108980703E+02  0.51100000000E-03 0.  1.
        -12    1    3    3    0    0  0.85974205055E+00 -0.87037669155E+01  0.61082645860E+01  0.10667971277E+02  0.00000000000E+00 0.  1.
</event>
<event>
 7    1  0.2811980E-010  0.4778727E+02  0.7816164E-02  0.1312668E+00
        -11   -1    0    0    0    0  0.00000000000E+00  0.00000000000E+00  0.45593999997E+02  0.45594000000E+02  0.51100000000E-03 0. -1.
         11   -1    0    0    0    0 -0.00000000000E+00 -0.00000000000E+00 -0.45593999997E+02  0.45594000000E+02  0.51100000000E-03 0.  1.
    9900012    2    1    2    0    0 -0.10388005095E+02 -0.35387111372E+02  0.22879360828E+02  0.47787268981E+02  0.19999990590E+02 0.  0.
        -12    1    1    2    0    0  0.10388005095E+02  0.35387111372E+02 -0.22879360828E+02  0.43400731019E+02  0.00000000000E+00 0.  1.
         11    1    3    3    0    0 -0.15692700502E+01 -0.85113489834E+01 -0.38812161125E+00  0.86635044095E+01  0.51100000000E-03 0. -1.
        -11    1    3    3    0    0 -0.69610412283E+01 -0.13248371909E+02  0.20014077507E+02  0.24990773336E+02  0.51100000000E-03 0.  1.
        -12    1    3    3    0    0 -0.18576938170E+01 -0.13627390479E+02  0.32534049329E+01  0.14132991235E+02  0.00000000000E+00 0.  1.
</event>
<event>
 7    1  0.2811980E-010  0.4778727E+02  0.7816164E-02  0.1312668E+00
        -11   -1    0    0    0    0  0.00000000000E+00  0.00000000000E+00  0.45593999997E+02  0.45594000000E+02  0.51100000000E-03 0. -1.
         11   -1    0    0    0    0 -0.00000000000E+00 -0.00000000000E+00 -0.45593999997E+02  0.45594000000E+02  0.51100000000E-03 0.  1.
    9900012    2    1    2    0    0 -0.23472996782E+02  0.36184616101E+02 -0.48285968973E+01  0.47787269956E+02  0.19999995038E+02 0.  0.
        -12    1    1    2    0    0  0.23472996782E+02 -0.36184616101E+02  0.48285968973E+01  0.43400730044E+02  0.00000000000E+00 0.  1.
         11    1    3    3    0    0  0.26209466443E+01  0.44399598167E+01 -0.31337813199E+01  0.60335056234E+01  0.51100000000E-03 0. -1.
        -11    1    3    3    0    0  0.12425531471E+00 -0.61812755932E-01  0.45754440865E+00  0.47812900669E+00  0.51100000000E-03 0.  1.
         12    1    3    3    0    0 -0.26218198741E+02  0.31806469041E+02 -0.21523599861E+01  0.41275635326E+02  0.00000000000E+00 0. -1.
</event>
<event>
 7    1  0.2811980E-010  0.4778728E+02  0.7816164E-02  0.1312668E+00
        -11   -1    0    0    0    0  0.00000000000E+00  0.00000000000E+00  0.45593999997E+02  0.45594000000E+02  0.51100000000E-03 0.  1.
         11   -1    0    0    0    0 -0.00000000000E+00 -0.00000000000E+00 -0.45593999997E+02  0.45594000000E+02  0.51100000000E-03 0. -1.
    9900012    2    1    2    0    0 -0.20536885663E+02 -0.28460068332E+02 -0.25532007251E+02  0.47787279310E+02  0.20000037684E+02 0.  0.
        -12    1    1    2    0    0  0.20536885663E+02  0.28460068332E+02  0.25532007251E+02  0.43400720690E+02  0.00000000000E+00 0.  1.
         11    1    3    3    0    0 -0.78809783434E+01  0.89171746673E+00 -0.23899880860E+01  0.82835392800E+01  0.51100000000E-03 0.  1.
        -11    1    3    3    0    0 -0.70006019069E+01 -0.17623601033E+02 -0.12850297495E+02  0.22906983355E+02  0.51100000000E-03 0. -1.
        -12    1    3    3    0    0 -0.56553054126E+01 -0.11728184766E+02 -0.10291721670E+02  0.16596756675E+02  0.00000000000E+00 0.  1.
</event>
<event>
 7    1  0.2811980E-010  0.4778727E+02  0.7816164E-02  0.1312668E+00
        -11   -1    0    0    0    0  0.00000000000E+00  0.00000000000E+00  0.45593999997E+02  0.45594000000E+02  0.51100000000E-03 0.  1.
         11   -1    0    0    0    0 -0.00000000000E+00 -0.00000000000E+00 -0.45593999997E+02  0.45594000000E+02  0.51100000000E-03 0. -1.
    9900012    2    1    2    0    0  0.19497019227E+02  0.29868592306E+02 -0.24725633047E+02  0.47787268500E+02  0.19999988400E+02 0.  0.
        -12    1    1    2    0    0 -0.19497019227E+02 -0.29868592306E+02  0.24725633047E+02  0.43400731500E+02  0.00000000000E+00 0.  1.
         11    1    3    3    0    0 -0.55119179615E+00  0.12306347255E+02 -0.49986184123E+01  0.13294216090E+02  0.51100000000E-03 0. -1.
        -11    1    3    3    0    0  0.17094308637E+02  0.12933751875E+02 -0.10775829295E+02  0.23991994969E+02  0.51100000000E-03 0.  1.
        -12    1    3    3    0    0  0.29539023867E+01  0.46284931769E+01 -0.89511853403E+01  0.10501057442E+02  0.00000000000E+00 0.  1.
</event>
<event>
 7    1  0.2811980E-010  0.4778727E+02  0.7816164E-02  0.1312668E+00
        -11   -1    0    0    0    0  0.00000000000E+00  0.00000000000E+00  0.45593999997E+02  0.45594000000E+02  0.51100000000E-03 0.  1.
         11   -1    0    0    0    0 -0.00000000000E+00 -0.00000000000E+00 -0.45593999997E+02  0.45594000000E+02  0.51100000000E-03 0. -1.
    9900012    2    1    2    0    0  0.42409743756E+02  0.32856581672E+01 -0.86163288389E+01  0.47787273765E+02  0.20000012406E+02 0.  0.
        -12    1    1    2    0    0 -0.42409743756E+02 -0.32856581672E+01  0.86163288389E+01  0.43400726235E+02  0.00000000000E+00 0.  1.
         11    1    3    3    0    0  0.12695780527E+02 -0.21172721442E+01  0.37293084046E+01  0.13400500959E+02  0.51100000000E-03 0.  1.
        -11    1    3    3    0    0  0.27447678503E+02  0.78057455174E+01 -0.12324540509E+02  0.31083742009E+02  0.51100000000E-03 0. -1.
         12    1    3    3    0    0  0.22662847263E+01 -0.24028152059E+01 -0.21096734250E-01  0.33030307972E+01  0.00000000000E+00 0. -1.
</event>
<event>
 7    1  0.2811980E-010  0.4778727E+02  0.7816164E-02  0.1312668E+00
        -11   -1    0    0    0    0  0.00000000000E+00  0.00000000000E+00  0.45593999997E+02  0.45594000000E+02  0.51100000000E-03 0.  1.
         11   -1    0    0    0    0 -0.00000000000E+00 -0.00000000000E+00 -0.45593999997E+02  0.45594000000E+02  0.51100000000E-03 0. -1.
    9900012    2    1    2    0    0  0.94974618642E+01  0.40104009207E+02 -0.13604780483E+02  0.47787269726E+02  0.19999993988E+02 0.  0.
        -12    1    1    2    0    0 -0.94974618642E+01 -0.40104009207E+02  0.13604780483E+02  0.43400730274E+02  0.00000000000E+00 0.  1.
         11    1    3    3    0    0 -0.26274869383E+01  0.26391742415E+01 -0.26877230358E+01  0.45926880655E+01  0.51100000000E-03 0.  1.
        -11    1    3    3    0    0  0.77830266635E+01  0.35199016531E+02 -0.12326207772E+02  0.38098315804E+02  0.51100000000E-03 0. -1.
        -12    1    3    3    0    0  0.43419221390E+01  0.22658184343E+01  0.14091503248E+01  0.50962658561E+01  0.00000000000E+00 0.  1.
</event>
<event>
 7    1  0.2811980E-010  0.4778727E+02  0.7816164E-02  0.1312668E+00
        -11   -1    0    0    0    0  0.00000000000E+00  0.00000000000E+00  0.45593999997E+02  0.45594000000E+02  0.51100000000E-03 0. -1.
         11   -1    0    0    0    0 -0.00000000000E+00 -0.00000000000E+00 -0.45593999997E+02  0.45594000000E+02  0.51100000000E-03 0.  1.
    9900012    2    1    2    0    0  0.28605411366E+02  0.95734680867E+00  0.32625711061E+02  0.47787273110E+02  0.20000009420E+02 0.  0.
        -12    1    1    2    0    0 -0.28605411366E+02 -0.95734680867E+00 -0.32625711061E+02  0.43400726890E+02  0.00000000000E+00 0.  1.
         11    1    3    3    0    0  0.86233352024E+01  0.66660108479E+01  0.16267385713E+02  0.19581252484E+02  0.51100000000E-03 0. -1.
        -11    1    3    3    0    0  0.57017675851E+01 -0.65262758695E+01  0.58110888194E+01  0.10434135510E+02  0.51100000000E-03 0.  1.
        -12    1    3    3    0    0  0.14280308578E+02  0.81761183027E+00  0.10547236528E+02  0.17771885116E+02  0.00000000000E+00 0.  1.
</event>
<event>
 7    1  0.2811980E-010  0.4778727E+02  0.7816164E-02  0.1312668E+00
        -11   -1    0    0    0    0  0.00000000000E+00  0.00000000000E+00  0.45593999997E+02  0.45594000000E+02  0.51100000000E-03 0. -1.
         11   -1    0    0    0    0 -0.00000000000E+00 -0.00000000000E+00 -0.45593999997E+02  0.45594000000E+02  0.51100000000E-03 0.  1.
    9900012    2    1    2    0    0  0.22408168991E+02  0.35716284914E+02 -0.10288061972E+02  0.47787271150E+02  0.20000000482E+02 0.  0.
        -12    1    1    2    0    0 -0.22408168991E+02 -0.35716284914E+02  0.10288061972E+02  0.43400728850E+02  0.00000000000E+00 0.  1.
         11    1    3    3    0    0  0.76843462125E+01  0.75846814176E+01  0.30885901468E+01  0.11230136165E+02  0.51100000000E-03 0. -1.
        -11    1    3    3    0    0  0.11492758977E+02  0.18775934937E+02 -0.14843880609E+02  0.26551083471E+02  0.51100000000E-03 0.  1.
        -12    1    3    3    0    0  0.32310638009E+01  0.93556685589E+01  0.14672284904E+01  0.10006051515E+02  0.00000000000E+00 0.  1.
</event>
<event>
 7    1  0.2811980E-010  0.4778726E+02  0.7816164E-02  0.1312668E+00
        -11   -1    0    0    0    0  0.00000000000E+00  0.00000000000E+00  0.45593999997E+02  0.45594000000E+02  0.51100000000E-03 0.  1.
         11   -1    0    0    0    0 -0.00000000000E+00 -0.00000000000E+00 -0.45593999997E+02  0.45594000000E+02  0.51100000000E-03 0. -1.
    9900012    2    1    2    0    0  0.24876884166E+02  0.34470422237E+02 -0.87495736143E+01  0.47787257916E+02  0.19999940142E+02 0.  0.
        -12    1    1    2    0    0 -0.24876884166E+02 -0.34470422237E+02  0.87495736143E+01  0.43400742084E+02  0.00000000000E+00 0.  1.
         11    1    3    3    0    0  0.12417516814E+02  0.51542347323E+01  0.23336393273E+01  0.13645758765E+02  0.51100000000E-03 0. -1.
        -11    1    3    3    0    0  0.87102649625E+01  0.18883582779E+02 -0.97760600757E+01  0.22978898258E+02  0.51100000000E-03 0.  1.
         12    1    3    3    0    0  0.37491023903E+01  0.10432604725E+02 -0.13071528658E+01  0.11162600893E+02  0.00000000000E+00 0. -1.
</event>
<event>
 7    1  0.2811980E-010  0.4778727E+02  0.7816164E-02  0.1312668E+00
        -11   -1    0    0    0    0  0.00000000000E+00  0.00000000000E+00  0.45593999997E+02  0.45594000000E+02  0.51100000000E-03 0.  1.
         11   -1    0    0    0    0 -0.00000000000E+00 -0.00000000000E+00 -0.45593999997E+02  0.45594000000E+02  0.51100000000E-03 0. -1.
    9900012    2    1    2    0    0 -0.22941801568E+02  0.36174887508E+02  0.69767151055E+01  0.47787270754E+02  0.19999998678E+02 0.  0.
        -12    1    1    2    0    0  0.22941801568E+02 -0.36174887508E+02 -0.69767151055E+01  0.43400729246E+02  0.00000000000E+00 0.  1.
         11    1    3    3    0    0 -0.18224359988E+01  0.44887473095E+01 -0.14345236428E+01  0.50525225107E+01  0.51100000000E-03 0.  1.
        -11    1    3    3    0    0 -0.91574895790E+00  0.10939179590E+02 -0.33519958664E+01  0.11477810018E+02  0.51100000000E-03 0. -1.
        -12    1    3    3    0    0 -0.20203616611E+02  0.20746960608E+02  0.11763234615E+02  0.31256938226E+02  0.00000000000E+00 0.  1.
</event>
<event>
 7    1  0.2811980E-010  0.4778727E+02  0.7816164E-02  0.1312668E+00
        -11   -1    0    0    0    0  0.00000000000E+00  0.00000000000E+00  0.45593999997E+02  0.45594000000E+02  0.51100000000E-03 0.  1.
         11   -1    0    0    0    0 -0.00000000000E+00 -0.00000000000E+00 -0.45593999997E+02  0.45594000000E+02  0.51100000000E-03 0. -1.
    9900012    2    1    2    0    0 -0.14033259919E+02  0.20512067248E+02 -0.35580138001E+02  0.47787268360E+02  0.19999987760E+02 0.  0.
        -12    1    1    2    0    0  0.14033259919E+02 -0.20512067248E+02  0.35580138001E+02  0.43400731640E+02  0.00000000000E+00 0.  1.
         11    1    3    3    0    0 -0.18250978682E+02  0.17298036156E+02 -0.29786346200E+02  0.38981363469E+02  0.51100000000E-03 0. -1.
        -11    1    3    3    0    0  0.26806825176E+01 -0.29594262580E+00 -0.16483290621E+01  0.31607957473E+01  0.51100000000E-03 0.  1.
         12    1    3    3    0    0  0.15370362456E+01  0.35099737181E+01 -0.41454627385E+01  0.56451091432E+01  0.00000000000E+00 0. -1.
</event>
<event>
 7    1  0.2811980E-010  0.4778727E+02  0.7816164E-02  0.1312668E+00
        -11   -1    0    0    0    0  0.00000000000E+00  0.00000000000E+00  0.45593999997E+02  0.45594000000E+02  0.51100000000E-03 0. -1.
         11   -1    0    0    0    0 -0.00000000000E+00 -0.00000000000E+00 -0.45593999997E+02  0.45594000000E+02  0.51100000000E-03 0.  1.
    9900012    2    1    2    0    0  0.10578182646E+01 -0.43381982233E+02 -0.71255996201E+00  0.47787273006E+02  0.20000008942E+02 0.  0.
        -12    1    1    2    0    0 -0.10578182646E+01  0.43381982233E+02  0.71255996201E+00  0.43400726994E+02  0.00000000000E+00 0.  1.
         11    1    3    3    0    0  0.67934404751E+01 -0.16586662322E+02 -0.38708688975E+01  0.18337170631E+02  0.51100000000E-03 0. -1.
        -11    1    3    3    0    0  0.29622531682E+01 -0.88845186155E+01  0.78712638597E+00  0.93983606587E+01  0.51100000000E-03 0.  1.
         12    1    3    3    0    0 -0.86978753787E+01 -0.17910801296E+02  0.23711825496E+01  0.20051741716E+02  0.00000000000E+00 0. -1.
</event>
<event>
 7    1  0.2811980E-010  0.4778727E+02  0.7816164E-02  0.1312668E+00
        -11   -1    0    0    0    0  0.00000000000E+00  0.00000000000E+00  0.45593999997E+02  0.45594000000E+02  0.51100000000E-03 0. -1.
         11   -1    0    0    0    0 -0.00000000000E+00 -0.00000000000E+00 -0.45593999997E+02  0.45594000000E+02  0.51100000000E-03 0.  1.
    9900012    2    1    2    0    0 -0.32968861135E+02  0.25288058603E+02  0.12537607683E+02  0.47787270526E+02  0.19999997636E+02 0.  0.
        -12    1    1    2    0    0  0.32968861135E+02 -0.25288058603E+02 -0.12537607683E+02  0.43400729474E+02  0.00000000000E+00 0.  1.
         11    1    3    3    0    0 -0.24679919596E+02  0.22967524955E+02  0.10975791006E+02  0.35455234060E+02  0.51100000000E-03 0. -1.
        -11    1    3    3    0    0  0.15449035515E+01  0.11825446880E+01  0.14593336110E+01  0.24320349035E+01  0.51100000000E-03 0.  1.
         12    1    3    3    0    0 -0.98338450910E+01  0.11379889601E+01  0.10248306576E+00  0.99000015620E+01  0.00000000000E+00 0. -1.
</event>
<event>
 7    1  0.2811980E-010  0.4778725E+02  0.7816164E-02  0.1312668E+00
        -11   -1    0    0    0    0  0.00000000000E+00  0.00000000000E+00  0.45593999997E+02  0.45594000000E+02  0.51100000000E-03 0. -1.
         11   -1    0    0    0    0 -0.00000000000E+00 -0.00000000000E+00 -0.45593999997E+02  0.45594000000E+02  0.51100000000E-03 0.  1.
    9900012    2    1    2    0    0  0.25344864527E+02 -0.34754873854E+01  0.35059721237E+02  0.47787248582E+02  0.19999897584E+02 0.  0.
        -12    1    1    2    0    0 -0.25344864527E+02  0.34754873854E+01 -0.35059721237E+02  0.43400751418E+02  0.00000000000E+00 0.  1.
         11    1    3    3    0    0  0.19571568378E+02  0.24784375092E+01  0.13773262809E+02  0.24060168535E+02  0.51100000000E-03 0. -1.
        -11    1    3    3    0    0 -0.77669416194E+00 -0.33388090371E+01  0.68289335839E+01  0.76410230835E+01  0.51100000000E-03 0.  1.
         12    1    3    3    0    0  0.65499903111E+01 -0.26151158575E+01  0.14457524844E+02  0.16086056964E+02  0.00000000000E+00 0. -1.
</event>
<event>
 7    1  0.2811980E-010  0.4778728E+02  0.7816164E-02  0.1312668E+00
        -11   -1    0    0    0    0  0.00000000000E+00  0.00000000000E+00  0.45593999997E+02  0.45594000000E+02  0.51100000000E-03 0.  1.
         11   -1    0    0    0    0 -0.00000000000E+00 -0.00000000000E+00 -0.45593999997E+02  0.45594000000E+02  0.51100000000E-03 0. -1.
    9900012    2    1    2    0    0  0.36773768392E+02 -0.23041699616E+02  0.62682364270E+00  0.47787275688E+02  0.20000021173E+02 0.  0.
        -12    1    1    2    0    0 -0.36773768392E+02  0.23041699616E+02 -0.62682364270E+00  0.43400724312E+02  0.00000000000E+00 0.  1.
         11    1    3    3    0    0  0.22052571370E+02 -0.24109683935E+02 -0.33405877682E+00  0.32675745730E+02  0.51100000000E-03 0. -1.
        -11    1    3    3    0    0  0.10133696690E+02  0.14310776429E+01  0.19148559872E+01  0.10411842562E+02  0.51100000000E-03 0.  1.
         12    1    3    3    0    0  0.45875003316E+01 -0.36309332346E+00 -0.95397356769E+00  0.46996873962E+01  0.00000000000E+00 0. -1.
</event>
<event>
 7    1  0.2811980E-010  0.4778727E+02  0.7816164E-02  0.1312668E+00
        -11   -1    0    0    0    0  0.00000000000E+00  0.00000000000E+00  0.45593999997E+02  0.45594000000E+02  0.51100000000E-03 0. -1.
         11   -1    0    0    0    0 -0.00000000000E+00 -0.00000000000E+00 -0.45593999997E+02  0.45594000000E+02  0.51100000000E-03 0.  1.
    9900012    2    1    2    0    0 -0.11384862345E+02  0.28898901796E+02 -0.30312735059E+02  0.47787268182E+02  0.19999986948E+02 0.  0.
        -12    1    1    2    0    0  0.11384862345E+02 -0.28898901796E+02  0.30312735059E+02  0.43400731818E+02  0.00000000000E+00 0.  1.
         11    1    3    3    0    0 -0.16996319947E+01  0.19725190630E+02 -0.24235665442E+02  0.31294398444E+02  0.51100000000E-03 0. -1.
        -11    1    3    3    0    0 -0.75450392190E+01  0.27536647639E+01 -0.54289562363E+01  0.96945269367E+01  0.51100000000E-03 0.  1.
         12    1    3    3    0    0 -0.21401911309E+01  0.64200464021E+01 -0.64811338014E+00  0.67983428006E+01  0.00000000000E+00 0. -1.
</event>
<event>
 7    1  0.2811980E-010  0.4778728E+02  0.7816164E-02  0.1312668E+00
        -11   -1    0    0    0    0  0.00000000000E+00  0.00000000000E+00  0.45593999997E+02  0.45594000000E+02  0.51100000000E-03 0. -1.
         11   -1    0    0    0    0 -0.00000000000E+00 -0.00000000000E+00 -0.45593999997E+02  0.45594000000E+02  0.51100000000E-03 0.  1.
    9900012    2    1    2    0    0  0.31243504413E+02  0.94954999165E+01  0.28588489610E+02  0.47787276217E+02  0.20000023585E+02 0.  0.
        -12    1    1    2    0    0 -0.31243504413E+02 -0.94954999165E+01 -0.28588489610E+02  0.43400723783E+02  0.00000000000E+00 0.  1.
         11    1    3    3    0    0  0.10967591615E+02  0.68742349951E+01  0.20495675156E+01  0.13105109685E+02  0.51100000000E-03 0. -1.
        -11    1    3    3    0    0  0.18002660612E+02 -0.22367265516E+00  0.24801415777E+02  0.30647284437E+02  0.51100000000E-03 0.  1.
         12    1    3    3    0    0  0.22732521859E+01  0.28449375766E+01  0.17375063179E+01  0.40348820950E+01  0.00000000000E+00 0. -1.
</event>
<event>
 7    1  0.2811980E-010  0.4778727E+02  0.7816164E-02  0.1312668E+00
        -11   -1    0    0    0    0  0.00000000000E+00  0.00000000000E+00  0.45593999997E+02  0.45594000000E+02  0.51100000000E-03 0.  1.
         11   -1    0    0    0    0 -0.00000000000E+00 -0.00000000000E+00 -0.45593999997E+02  0.45594000000E+02  0.51100000000E-03 0. -1.
    9900012    2    1    2    0    0 -0.85533892960E+01 -0.42004925619E+02  0.67859508053E+01  0.47787269902E+02  0.19999994789E+02 0.  0.
        -12    1    1    2    0    0  0.85533892960E+01  0.42004925619E+02 -0.67859508053E+01  0.43400730098E+02  0.00000000000E+00 0.  1.
         11    1    3    3    0    0 -0.10007637990E+02 -0.25675387168E+02  0.21432448635E+01  0.27640040216E+02  0.51100000000E-03 0. -1.
        -11    1    3    3    0    0  0.57142373463E+01 -0.12320151632E+02  0.44598158933E+01  0.14294355626E+02  0.51100000000E-03 0.  1.
        -12    1    3    3    0    0 -0.42599886522E+01 -0.40093868192E+01  0.18289004847E+00  0.58528740592E+01  0.00000000000E+00 0.  1.
</event>
<event>
 7    1  0.2811980E-010  0.4778728E+02  0.7816164E-02  0.1312668E+00
        -11   -1    0    0    0    0  0.00000000000E+00  0.00000000000E+00  0.45593999997E+02  0.45594000000E+02  0.51100000000E-03 0. -1.
         11   -1    0    0    0    0 -0.00000000000E+00 -0.00000000000E+00 -0.45593999997E+02  0.45594000000E+02  0.51100000000E-03 0.  1.
    9900012    2    1    2    0    0  0.37503572722E+02 -0.21588133529E+02  0.33252281805E+01  0.47787278593E+02  0.20000034416E+02 0.  0.
        -12    1    1    2    0    0 -0.37503572722E+02  0.21588133529E+02 -0.33252281805E+01  0.43400721407E+02  0.00000000000E+00 0.  1.
         11    1    3    3    0    0  0.24849315914E+02 -0.16934954668E+02 -0.68279522443E+01  0.30836700911E+02  0.51100000000E-03 0. -1.
        -11    1    3    3    0    0  0.59165433406E+01 -0.17299929024E+01  0.54595967934E+01  0.82344130301E+01  0.51100000000E-03 0.  1.
         12    1    3    3    0    0  0.67377134679E+01 -0.29231859592E+01  0.46935836314E+01  0.87161646516E+01  0.00000000000E+00 0. -1.
</event>
<event>
 7    1  0.2811980E-010  0.4778727E+02  0.7816164E-02  0.1312668E+00
        -11   -1    0    0    0    0  0.00000000000E+00  0.00000000000E+00  0.45593999997E+02  0.45594000000E+02  0.51100000000E-03 0. -1.
         11   -1    0    0    0    0 -0.00000000000E+00 -0.00000000000E+00 -0.45593999997E+02  0.45594000000E+02  0.51100000000E-03 0.  1.
    9900012    2    1    2    0    0  0.75008193446E+01 -0.26737632975E+02  0.33353561979E+02  0.47787269538E+02  0.19999993131E+02 0.  0.
        -12    1    1    2    0    0 -0.75008193446E+01  0.26737632975E+02 -0.33353561979E+02  0.43400730462E+02  0.00000000000E+00 0.  1.
         11    1    3    3    0    0  0.55762280194E+01 -0.11063647242E+02  0.47341930131E+01  0.13263151698E+02  0.51100000000E-03 0. -1.
        -11    1    3    3    0    0  0.69690393182E+00 -0.37132853848E+01  0.33824321535E+00  0.37932271449E+01  0.51100000000E-03 0.  1.
         12    1    3    3    0    0  0.12276873934E+01 -0.11960700348E+02  0.28281125751E+02  0.30730890695E+02  0.00000000000E+00 0. -1.
</event>
<event>
 7    1  0.2811980E-010  0.4778727E+02  0.7816164E-02  0.1312668E+00
        -11   -1    0    0    0    0  0.00000000000E+00  0.00000000000E+00  0.45593999997E+02  0.45594000000E+02  0.51100000000E-03 0.  1.
         11   -1    0    0    0    0 -0.00000000000E+00 -0.00000000000E+00 -0.45593999997E+02  0.45594000000E+02  0.51100000000E-03 0. -1.
    9900012    2    1    2    0    0 -0.22919515217E+02 -0.40926909569E+01 -0.36627433519E+02  0.47787272088E+02  0.20000004760E+02 0.  0.
        -12    1    1    2    0    0  0.22919515217E+02  0.40926909569E+01  0.36627433519E+02  0.43400727912E+02  0.00000000000E+00 0.  1.
         11    1    3    3    0    0 -0.16956381458E+02 -0.37920006907E+01 -0.28702440083E+02  0.33551873396E+02  0.51100000000E-03 0. -1.
        -11    1    3    3    0    0  0.26108702464E+01  0.48026467433E+00 -0.18982819837E+00  0.26614531006E+01  0.51100000000E-03 0.  1.
        -12    1    3    3    0    0 -0.85740040058E+01 -0.78095494045E+00 -0.77351652376E+01  0.11573945592E+02  0.00000000000E+00 0.  1.
</event>
<event>
 7    1  0.2811980E-010  0.4778727E+02  0.7816164E-02  0.1312668E+00
        -11   -1    0    0    0    0  0.00000000000E+00  0.00000000000E+00  0.45593999997E+02  0.45594000000E+02  0.51100000000E-03 0. -1.
         11   -1    0    0    0    0 -0.00000000000E+00 -0.00000000000E+00 -0.45593999997E+02  0.45594000000E+02  0.51100000000E-03 0.  1.
    9900012    2    1    2    0    0 -0.92918383661E+01 -0.13938653757E+02  0.40037470279E+02  0.47787270108E+02  0.19999995733E+02 0.  0.
        -12    1    1    2    0    0  0.92918383661E+01  0.13938653757E+02 -0.40037470279E+02  0.43400729892E+02  0.00000000000E+00 0.  1.
         11    1    3    3    0    0 -0.96299683977E+01 -0.15515591776E+02  0.27000822734E+02  0.32596231501E+02  0.51100000000E-03 0. -1.
        -11    1    3    3    0    0 -0.14799850638E+01  0.36324149025E+01  0.11255838373E+02  0.11919676655E+02  0.51100000000E-03 0.  1.
         12    1    3    3    0    0  0.18181150954E+01 -0.20554768834E+01  0.17808091721E+01  0.32713619527E+01  0.00000000000E+00 0. -1.
</event>
<event>
 7    1  0.2811980E-010  0.4778727E+02  0.7816164E-02  0.1312668E+00
        -11   -1    0    0    0    0  0.00000000000E+00  0.00000000000E+00  0.45593999997E+02  0.45594000000E+02  0.51100000000E-03 0. -1.
         11   -1    0    0    0    0 -0.00000000000E+00 -0.00000000000E+00 -0.45593999997E+02  0.45594000000E+02  0.51100000000E-03 0.  1.
    9900012    2    1    2    0    0 -0.12003947646E+02  0.41677738601E+02  0.15794514152E+01  0.47787270505E+02  0.19999997539E+02 0.  0.
        -12    1    1    2    0    0  0.12003947646E+02 -0.41677738601E+02 -0.15794514152E+01  0.43400729495E+02  0.00000000000E+00 0.  1.
         11    1    3    3    0    0 -0.31633817274E+01  0.65218350797E+01 -0.15003650881E+01  0.74021897043E+01  0.51100000000E-03 0. -1.
        -11    1    3    3    0    0 -0.97056189244E+01  0.66913272481E+01  0.76714093869E+00  0.11813610986E+02  0.51100000000E-03 0.  1.
        -12    1    3    3    0    0  0.86505300547E+00  0.28464576273E+02  0.23126755647E+01  0.28571469814E+02  0.00000000000E+00 0.  1.
</event>
<event>
 7    1  0.2811980E-010  0.4778727E+02  0.7816164E-02  0.1312668E+00
        -11   -1    0    0    0    0  0.00000000000E+00  0.00000000000E+00  0.45593999997E+02  0.45594000000E+02  0.51100000000E-03 0.  1.
         11   -1    0    0    0    0 -0.00000000000E+00 -0.00000000000E+00 -0.45593999997E+02  0.45594000000E+02  0.51100000000E-03 0. -1.
    9900012    2    1    2    0    0  0.49441892559E+01  0.23023088197E+02 -0.36457037807E+02  0.47787271859E+02  0.20000003712E+02 0.  0.
        -12    1    1    2    0    0 -0.49441892559E+01 -0.23023088197E+02  0.36457037807E+02  0.43400728141E+02  0.00000000000E+00 0.  1.
         11    1    3    3    0    0  0.38640343510E+01  0.12321070057E+02 -0.23896472283E+02  0.27162122831E+02  0.51100000000E-03 0. -1.
        -11    1    3    3    0    0 -0.50138587734E+00 -0.27522509614E+01 -0.24893203579E+01  0.37447281955E+01  0.51100000000E-03 0.  1.
         12    1    3    3    0    0  0.15815407823E+01  0.13454269101E+02 -0.10071245166E+02  0.16880420832E+02  0.00000000000E+00 0. -1.
</event>
<event>
 7    1  0.2811980E-010  0.4778726E+02  0.7816164E-02  0.1312668E+00
        -11   -1    0    0    0    0  0.00000000000E+00  0.00000000000E+00  0.45593999997E+02  0.45594000000E+02  0.51100000000E-03 0. -1.
         11   -1    0    0    0    0 -0.00000000000E+00 -0.00000000000E+00 -0.45593999997E+02  0.45594000000E+02  0.51100000000E-03 0.  1.
    9900012    2    1    2    0    0  0.36143880341E+02 -0.12578481212E+02  0.20470125689E+02  0.47787258976E+02  0.19999944974E+02 0.  0.
        -12    1    1    2    0    0 -0.36143880341E+02  0.12578481212E+02 -0.20470125689E+02  0.43400741024E+02  0.00000000000E+00 0.  1.
         11    1    3    3    0    0  0.59686542428E+01 -0.56443745295E+01 -0.77813829666E+00  0.82516238868E+01  0.51100000000E-03 0.  1.
        -11    1    3    3    0    0  0.14890702721E+02 -0.46941732836E+01  0.17856889923E+02  0.23719966449E+02  0.51100000000E-03 0. -1.
        -12    1    3    3    0    0  0.15284523377E+02 -0.22399333986E+01  0.33913740623E+01  0.15815668640E+02  0.00000000000E+00 0.  1.
</event>
<event>
 7    1  0.2811980E-010  0.4778727E+02  0.7816164E-02  0.1312668E+00
        -11   -1    0    0    0    0  0.00000000000E+00  0.00000000000E+00  0.45593999997E+02  0.45594000000E+02  0.51100000000E-03 0. -1.
         11   -1    0    0    0    0 -0.00000000000E+00 -0.00000000000E+00 -0.45593999997E+02  0.45594000000E+02  0.51100000000E-03 0.  1.
    9900012    2    1    2    0    0 -0.40011248714E+02 -0.70124197270E+01  0.15282323182E+02  0.47787268947E+02  0.19999990439E+02 0.  0.
        -12    1    1    2    0    0  0.40011248714E+02  0.70124197270E+01 -0.15282323182E+02  0.43400731053E+02  0.00000000000E+00 0.  1.
         11    1    3    3    0    0 -0.70620045409E+01 -0.55711093214E+01  0.60338570200E+00  0.90151673181E+01  0.51100000000E-03 0. -1.
        -11    1    3    3    0    0 -0.14891324625E+02  0.49277310085E+01  0.11290557858E+02  0.19326426959E+02  0.51100000000E-03 0.  1.
        -12    1    3    3    0    0 -0.18057919548E+02 -0.63690414142E+01  0.33883796214E+01  0.19445674671E+02  0.00000000000E+00 0.  1.
</event>
<event>
 7    1  0.2811980E-010  0.4778727E+02  0.7816164E-02  0.1312668E+00
        -11   -1    0    0    0    0  0.00000000000E+00  0.00000000000E+00  0.45593999997E+02  0.45594000000E+02  0.51100000000E-03 0. -1.
         11   -1    0    0    0    0 -0.00000000000E+00 -0.00000000000E+00 -0.45593999997E+02  0.45594000000E+02  0.51100000000E-03 0.  1.
    9900012    2    1    2    0    0 -0.10916770014E+02 -0.25404152013E+02  0.33452603923E+02  0.47787268252E+02  0.19999987267E+02 0.  0.
        -12    1    1    2    0    0  0.10916770014E+02  0.25404152013E+02 -0.33452603923E+02  0.43400731748E+02  0.00000000000E+00 0.  1.
         11    1    3    3    0    0 -0.57565106106E+01 -0.18399722129E+02  0.27154740188E+02  0.33302659109E+02  0.51100000000E-03 0. -1.
        -11    1    3    3    0    0 -0.48072585550E+01  0.10866609287E+01  0.20316428492E+01  0.53308666947E+01  0.51100000000E-03 0.  1.
        -12    1    3    3    0    0 -0.35300084799E+00 -0.80910908133E+01  0.42662208863E+01  0.91537424477E+01  0.00000000000E+00 0.  1.
</event>
<event>
 7    1  0.2811980E-010  0.4778728E+02  0.7816164E-02  0.1312668E+00
        -11   -1    0    0    0    0  0.00000000000E+00  0.00000000000E+00  0.45593999997E+02  0.45594000000E+02  0.51100000000E-03 0. -1.
         11   -1    0    0    0    0 -0.00000000000E+00 -0.00000000000E+00 -0.45593999997E+02  0.45594000000E+02  0.51100000000E-03 0.  1.
    9900012    2    1    2    0    0  0.14322773268E+02 -0.40704550185E+02  0.46497338477E+01  0.47787282671E+02  0.20000053008E+02 0.  0.
        -12    1    1    2    0    0 -0.14322773268E+02  0.40704550185E+02 -0.46497338477E+01  0.43400717329E+02  0.00000000000E+00 0.  1.
         11    1    3    3    0    0  0.12003672141E+02 -0.28622119051E+02 -0.20402339915E+01  0.31104282645E+02  0.51100000000E-03 0. -1.
        -11    1    3    3    0    0  0.34702805983E+01 -0.54038402904E+01 -0.92568131511E+00  0.64885455591E+01  0.51100000000E-03 0.  1.
         12    1    3    3    0    0 -0.11511794716E+01 -0.66785908436E+01  0.76156491543E+01  0.10194454467E+02  0.00000000000E+00 0. -1.
</event>
<event>
 7    1  0.2811980E-010  0.4778727E+02  0.7816164E-02  0.1312668E+00
        -11   -1    0    0    0    0  0.00000000000E+00  0.00000000000E+00  0.45593999997E+02  0.45594000000E+02  0.51100000000E-03 0. -1.
         11   -1    0    0    0    0 -0.00000000000E+00 -0.00000000000E+00 -0.45593999997E+02  0.45594000000E+02  0.51100000000E-03 0.  1.
    9900012    2    1    2    0    0  0.35075506734E+00  0.34849090022E+02 -0.25865831273E+02  0.47787270376E+02  0.19999996952E+02 0.  0.
        -12    1    1    2    0    0 -0.35075506734E+00 -0.34849090022E+02  0.25865831273E+02  0.43400729624E+02  0.00000000000E+00 0.  1.
         11    1    3    3    0    0 -0.25869027004E+01  0.16687757137E+01 -0.34315303614E+01  0.46100193976E+01  0.51100000000E-03 0. -1.
        -11    1    3    3    0    0 -0.84346243051E+00 -0.51238745994E+00  0.14149242609E+01  0.17251031001E+01  0.51100000000E-03 0.  1.
        -12    1    3    3    0    0  0.37811201983E+01  0.33692701768E+02 -0.23849225173E+02  0.41452147878E+02  0.00000000000E+00 0.  1.
</event>
<event>
 7    1  0.2811980E-010  0.4778728E+02  0.7816164E-02  0.1312668E+00
        -11   -1    0    0    0    0  0.00000000000E+00  0.00000000000E+00  0.45593999997E+02  0.45594000000E+02  0.51100000000E-03 0.  1.
         11   -1    0    0    0    0 -0.00000000000E+00 -0.00000000000E+00 -0.45593999997E+02  0.45594000000E+02  0.51100000000E-03 0. -1.
    9900012    2    1    2    0    0  0.25926898901E+02  0.18684698710E+02 -0.29364951676E+02  0.47787280658E+02  0.20000043831E+02 0.  0.
        -12    1    1    2    0    0 -0.25926898901E+02 -0.18684698710E+02  0.29364951676E+02  0.43400719342E+02  0.00000000000E+00 0.  1.
         11    1    3    3    0    0  0.11172395847E+02  0.55326397431E+01 -0.16202187584E+02  0.20443664404E+02  0.51100000000E-03 0. -1.
        -11    1    3    3    0    0  0.84621586560E+01  0.15104893904E+02 -0.10417053895E+02  0.20205963503E+02  0.51100000000E-03 0.  1.
        -12    1    3    3    0    0  0.62923443972E+01 -0.19528349370E+01 -0.27457101970E+01  0.71376527507E+01  0.00000000000E+00 0.  1.
</event>
<event>
 7    1  0.2811980E-010  0.4778727E+02  0.7816164E-02  0.1312668E+00
        -11   -1    0    0    0    0  0.00000000000E+00  0.00000000000E+00  0.45593999997E+02  0.45594000000E+02  0.51100000000E-03 0.  1.
         11   -1    0    0    0    0 -0.00000000000E+00 -0.00000000000E+00 -0.45593999997E+02  0.45594000000E+02  0.51100000000E-03 0. -1.
    9900012    2    1    2    0    0  0.30411629877E+02  0.29009287268E+02 -0.10826690406E+02  0.47787271841E+02  0.20000003632E+02 0.  0.
        -12    1    1    2    0    0 -0.30411629877E+02 -0.29009287268E+02  0.10826690406E+02  0.43400728159E+02  0.00000000000E+00 0.  1.
         11    1    3    3    0    0  0.16912899073E+01 -0.23119396079E+01  0.12959464765E+01  0.31440425939E+01  0.51100000000E-03 0.  1.
        -11    1    3    3    0    0  0.18522345541E+02  0.22706756158E+02 -0.10793456197E+02  0.31227756187E+02  0.51100000000E-03 0. -1.
         12    1    3    3    0    0  0.10197994428E+02  0.86144707188E+01 -0.13291806852E+01  0.13415473060E+02  0.00000000000E+00 0. -1.
</event>
<event>
 7    1  0.2811980E-010  0.4778727E+02  0.7816164E-02  0.1312668E+00
        -11   -1    0    0    0    0  0.00000000000E+00  0.00000000000E+00  0.45593999997E+02  0.45594000000E+02  0.51100000000E-03 0.  1.
         11   -1    0    0    0    0 -0.00000000000E+00 -0.00000000000E+00 -0.45593999997E+02  0.45594000000E+02  0.51100000000E-03 0. -1.
    9900012    2    1    2    0    0 -0.27066119388E+02  0.24828124164E+02 -0.23121696394E+02  0.47787269449E+02  0.19999992725E+02 0.  0.
        -12    1    1    2    0    0  0.27066119388E+02 -0.24828124164E+02  0.23121696394E+02  0.43400730551E+02  0.00000000000E+00 0.  1.
         11    1    3    3    0    0 -0.19468984969E+02  0.69767239859E+01 -0.10042944356E+02  0.22990797831E+02  0.51100000000E-03 0. -1.
        -11    1    3    3    0    0 -0.88457856973E+01  0.16975925480E+02 -0.13221945695E+02  0.23264776352E+02  0.51100000000E-03 0.  1.
        -12    1    3    3    0    0  0.12486512783E+01  0.87547469849E+00  0.14319365772E+00  0.15316952654E+01  0.00000000000E+00 0.  1.
</event>
<event>
 7    1  0.2811980E-010  0.4778727E+02  0.7816164E-02  0.1312668E+00
        -11   -1    0    0    0    0  0.00000000000E+00  0.00000000000E+00  0.45593999997E+02  0.45594000000E+02  0.51100000000E-03 0. -1.
         11   -1    0    0    0    0 -0.00000000000E+00 -0.00000000000E+00 -0.45593999997E+02  0.45594000000E+02  0.51100000000E-03 0.  1.
    9900012    2    1    2    0    0  0.28265790719E+02  0.32928758153E+02 -0.60427387827E+00  0.47787272064E+02  0.20000004648E+02 0.  0.
        -12    1    1    2    0    0 -0.28265790719E+02 -0.32928758153E+02  0.60427387827E+00  0.43400727936E+02  0.00000000000E+00 0.  1.
         11    1    3    3    0    0  0.15994592365E+02  0.15063080927E+02 -0.41401811306E+01  0.22357649519E+02  0.51100000000E-03 0. -1.
        -11    1    3    3    0    0 -0.15062343490E+01 -0.99951545165E+00  0.47799468816E+00  0.18698267928E+01  0.51100000000E-03 0.  1.
        -12    1    3    3    0    0  0.13777432703E+02  0.18865192677E+02  0.30579125642E+01  0.23559795752E+02  0.00000000000E+00 0.  1.
</event>
<event>
 7    1  0.2811980E-010  0.4778727E+02  0.7816164E-02  0.1312668E+00
        -11   -1    0    0    0    0  0.00000000000E+00  0.00000000000E+00  0.45593999997E+02  0.45594000000E+02  0.51100000000E-03 0.  1.
         11   -1    0    0    0    0 -0.00000000000E+00 -0.00000000000E+00 -0.45593999997E+02  0.45594000000E+02  0.51100000000E-03 0. -1.
    9900012    2    1    2    0    0 -0.70468505970E+01 -0.31567040729E+02 -0.28939368480E+02  0.47787271760E+02  0.20000003261E+02 0.  0.
        -12    1    1    2    0    0  0.70468505970E+01  0.31567040729E+02  0.28939368480E+02  0.43400728240E+02  0.00000000000E+00 0.  1.
         11    1    3    3    0    0 -0.73278022268E+01 -0.25804421451E+02 -0.17139069653E+02  0.31832570753E+02  0.51100000000E-03 0. -1.
        -11    1    3    3    0    0 -0.21580137899E+01  0.17803569283E+01 -0.34286521546E+01  0.44251949299E+01  0.51100000000E-03 0.  1.
        -12    1    3    3    0    0  0.24389654197E+01 -0.75429762068E+01 -0.83716466723E+01  0.11529506077E+02  0.00000000000E+00 0.  1.
</event>
<event>
 7    1  0.2811980E-010  0.4778727E+02  0.7816164E-02  0.1312668E+00
        -11   -1    0    0    0    0  0.00000000000E+00  0.00000000000E+00  0.45593999997E+02  0.45594000000E+02  0.51100000000E-03 0.  1.
         11   -1    0    0    0    0 -0.00000000000E+00 -0.00000000000E+00 -0.45593999997E+02  0.45594000000E+02  0.51100000000E-03 0. -1.
    9900012    2    1    2    0    0  0.87272341682E+01  0.16721140170E+02 -0.39087876005E+02  0.47787271949E+02  0.20000004124E+02 0.  0.
        -12    1    1    2    0    0 -0.87272341682E+01 -0.16721140170E+02  0.39087876005E+02  0.43400728051E+02  0.00000000000E+00 0.  1.
         11    1    3    3    0    0  0.13242278998E+00  0.96626834703E+01 -0.20105276421E+02  0.22307109357E+02  0.51100000000E-03 0. -1.
        -11    1    3    3    0    0  0.12591991096E+01  0.27706362391E+01  0.14353103046E+01  0.33648363257E+01  0.51100000000E-03 0.  1.
        -12    1    3    3    0    0  0.73356122686E+01  0.42878204603E+01 -0.20417909888E+02  0.22115326266E+02  0.00000000000E+00 0.  1.
</event>
<event>
 7    1  0.2811980E-010  0.4778727E+02  0.7816164E-02  0.1312668E+00
        -11   -1    0    0    0    0  0.00000000000E+00  0.00000000000E+00  0.45593999997E+02  0.45594000000E+02  0.51100000000E-03 0.  1.
         11   -1    0    0    0    0 -0.00000000000E+00 -0.00000000000E+00 -0.45593999997E+02  0.45594000000E+02  0.51100000000E-03 0. -1.
    9900012    2    1    2    0    0  0.29797828344E+02 -0.23764138240E+01 -0.31465310495E+02  0.47787266352E+02  0.19999978603E+02 0.  0.
        -12    1    1    2    0    0 -0.29797828344E+02  0.23764138240E+01  0.31465310495E+02  0.43400733648E+02  0.00000000000E+00 0.  1.
         11    1    3    3    0    0  0.23961749793E+02  0.32538823393E+01 -0.18047441532E+02  0.30173885224E+02  0.51100000000E-03 0. -1.
        -11    1    3    3    0    0  0.64531694450E+00 -0.51097916415E+01 -0.29950667458E+01  0.59579215882E+01  0.51100000000E-03 0.  1.
         12    1    3    3    0    0  0.51907616068E+01 -0.52050452178E+00 -0.10422802217E+02  0.11655459539E+02  0.00000000000E+00 0. -1.
</event>
<event>
 7    1  0.2811980E-010  0.4778727E+02  0.7816164E-02  0.1312668E+00
        -11   -1    0    0    0    0  0.00000000000E+00  0.00000000000E+00  0.45593999997E+02  0.45594000000E+02  0.51100000000E-03 0. -1.
         11   -1    0    0    0    0 -0.00000000000E+00 -0.00000000000E+00 -0.45593999997E+02  0.45594000000E+02  0.51100000000E-03 0.  1.
    9900012    2    1    2    0    0 -0.62311905594E+01 -0.13224795251E+02  0.40864414900E+02  0.47787270164E+02  0.19999995984E+02 0.  0.
        -12    1    1    2    0    0  0.62311905594E+01  0.13224795251E+02 -0.40864414900E+02  0.43400729836E+02  0.00000000000E+00 0.  1.
         11    1    3    3    0    0 -0.57262426690E+00 -0.13180275080E+02  0.15982559539E+02  0.20724134709E+02  0.51100000000E-03 0. -1.
        -11    1    3    3    0    0 -0.42028924737E+01  0.62250216527E-01  0.25217533248E+02  0.25565448629E+02  0.51100000000E-03 0.  1.
        -12    1    3    3    0    0 -0.14556738188E+01 -0.10677038736E+00 -0.33567788786E+00  0.14976868253E+01  0.00000000000E+00 0.  1.
</event>
<event>
 7    1  0.2811980E-010  0.4778727E+02  0.7816164E-02  0.1312668E+00
        -11   -1    0    0    0    0  0.00000000000E+00  0.00000000000E+00  0.45593999997E+02  0.45594000000E+02  0.51100000000E-03 0.  1.
         11   -1    0    0    0    0 -0.00000000000E+00 -0.00000000000E+00 -0.45593999997E+02  0.45594000000E+02  0.51100000000E-03 0. -1.
    9900012    2    1    2    0    0  0.29741289601E+02  0.12017030969E+02 -0.29234737936E+02  0.47787271405E+02  0.20000001642E+02 0.  0.
        -12    1    1    2    0    0 -0.29741289601E+02 -0.12017030969E+02  0.29234737936E+02  0.43400728595E+02  0.00000000000E+00 0.  1.
         11    1    3    3    0    0  0.18197808527E+02  0.11847691248E+02 -0.12431746415E+02  0.25021517586E+02  0.51100000000E-03 0. -1.
        -11    1    3    3    0    0  0.59627585948E+01  0.48671639311E+01 -0.61386417465E+01  0.98451357302E+01  0.51100000000E-03 0.  1.
         12    1    3    3    0    0  0.55807224793E+01 -0.46978242101E+01 -0.10664349774E+02  0.12920618089E+02  0.00000000000E+00 0. -1.
</event>
<event>
 7    1  0.2811980E-010  0.4778728E+02  0.7816164E-02  0.1312668E+00
        -11   -1    0    0    0    0  0.00000000000E+00  0.00000000000E+00  0.45593999997E+02  0.45594000000E+02  0.51100000000E-03 0.  1.
         11   -1    0    0    0    0 -0.00000000000E+00 -0.00000000000E+00 -0.45593999997E+02  0.45594000000E+02  0.51100000000E-03 0. -1.
    9900012    2    1    2    0    0 -0.36963398710E+02  0.14139261269E+02 -0.17816039327E+02  0.47787276380E+02  0.20000024328E+02 0.  0.
        -12    1    1    2    0    0  0.36963398710E+02 -0.14139261269E+02  0.17816039327E+02  0.43400723620E+02  0.00000000000E+00 0.  1.
         11    1    3    3    0    0 -0.63994806783E+01  0.68961944281E+01 -0.11878701890E+02  0.15153033010E+02  0.51100000000E-03 0. -1.
        -11    1    3    3    0    0 -0.10714756199E+02  0.47677520407E+01  0.14006551413E+00  0.11728472984E+02  0.51100000000E-03 0.  1.
         12    1    3    3    0    0 -0.19849161832E+02  0.24753147999E+01 -0.60774029513E+01  0.20905770386E+02  0.00000000000E+00 0. -1.
</event>
<event>
 7    1  0.2811980E-010  0.4778727E+02  0.7816164E-02  0.1312668E+00
        -11   -1    0    0    0    0  0.00000000000E+00  0.00000000000E+00  0.45593999997E+02  0.45594000000E+02  0.51100000000E-03 0.  1.
         11   -1    0    0    0    0 -0.00000000000E+00 -0.00000000000E+00 -0.45593999997E+02  0.45594000000E+02  0.51100000000E-03 0. -1.
    9900012    2    1    2    0    0  0.39113578916E+02  0.51286410726E+01 -0.18095533038E+02  0.47787270388E+02  0.19999997008E+02 0.  0.
        -12    1    1    2    0    0 -0.39113578916E+02 -0.51286410726E+01  0.18095533038E+02  0.43400729612E+02  0.00000000000E+00 0.  1.
         11    1    3    3    0    0  0.46379385244E+01  0.37832429415E+01 -0.77720742283E+01  0.98096146194E+01  0.51100000000E-03 0. -1.
        -11    1    3    3    0    0  0.23387122476E+02  0.42966086898E+01 -0.21211462101E+01  0.23872947146E+02  0.51100000000E-03 0.  1.
        -12    1    3    3    0    0  0.11088517916E+02 -0.29512105587E+01 -0.82023126001E+01  0.14104708622E+02  0.00000000000E+00 0.  1.
</event>
<event>
 7    1  0.2811980E-010  0.4778727E+02  0.7816164E-02  0.1312668E+00
        -11   -1    0    0    0    0  0.00000000000E+00  0.00000000000E+00  0.45593999997E+02  0.45594000000E+02  0.51100000000E-03 0.  1.
         11   -1    0    0    0    0 -0.00000000000E+00 -0.00000000000E+00 -0.45593999997E+02  0.45594000000E+02  0.51100000000E-03 0. -1.
    9900012    2    1    2    0    0  0.97769390759E+01  0.32360952999E+02 -0.27217704975E+02  0.47787270965E+02  0.19999999637E+02 0.  0.
        -12    1    1    2    0    0 -0.97769390759E+01 -0.32360952999E+02  0.27217704975E+02  0.43400729035E+02  0.00000000000E+00 0.  1.
         11    1    3    3    0    0  0.71331115884E-01  0.92123890980E+01 -0.48669452945E+01  0.10419230191E+02  0.51100000000E-03 0.  1.
        -11    1    3    3    0    0  0.78412474188E+01  0.14249050827E+02 -0.37901628591E+01  0.16699878602E+02  0.51100000000E-03 0. -1.
        -12    1    3    3    0    0  0.18643605412E+01  0.88995130733E+01 -0.18560596822E+02  0.20668162171E+02  0.00000000000E+00 0.  1.
</event>
<event>
 7    1  0.2811980E-010  0.4778727E+02  0.7816164E-02  0.1312668E+00
        -11   -1    0    0    0    0  0.00000000000E+00  0.00000000000E+00  0.45593999997E+02  0.45594000000E+02  0.51100000000E-03 0. -1.
         11   -1    0    0    0    0 -0.00000000000E+00 -0.00000000000E+00 -0.45593999997E+02  0.45594000000E+02  0.51100000000E-03 0.  1.
    9900012    2    1    2    0    0  0.26885757752E+02  0.24230828234E+02  0.23950918923E+02  0.47787268162E+02  0.19999986858E+02 0.  0.
        -12    1    1    2    0    0 -0.26885757752E+02 -0.24230828234E+02 -0.23950918923E+02  0.43400731838E+02  0.00000000000E+00 0.  1.
         11    1    3    3    0    0  0.25856765576E+02  0.21360331838E+02  0.18798621662E+02  0.38447682361E+02  0.51100000000E-03 0. -1.
        -11    1    3    3    0    0  0.40691151721E+01  0.14684426212E+01  0.20981847931E+01  0.48079519239E+01  0.51100000000E-03 0.  1.
         12    1    3    3    0    0 -0.30401229969E+01  0.14020537752E+01  0.30541124680E+01  0.45316338767E+01  0.00000000000E+00 0. -1.
</event>
<event>
 7    1  0.2811980E-010  0.4778727E+02  0.7816164E-02  0.1312668E+00
        -11   -1    0    0    0    0  0.00000000000E+00  0.00000000000E+00  0.45593999997E+02  0.45594000000E+02  0.51100000000E-03 0.  1.
         11   -1    0    0    0    0 -0.00000000000E+00 -0.00000000000E+00 -0.45593999997E+02  0.45594000000E+02  0.51100000000E-03 0. -1.
    9900012    2    1    2    0    0 -0.27864091397E+02  0.15100074639E+01 -0.33240572393E+02  0.47787269995E+02  0.19999995217E+02 0.  0.
        -12    1    1    2    0    0  0.27864091397E+02 -0.15100074639E+01  0.33240572393E+02  0.43400730005E+02  0.00000000000E+00 0.  1.
         11    1    3    3    0    0  0.19543894451E-01 -0.30674605032E+01 -0.20838313971E+01  0.37083755817E+01  0.51100000000E-03 0.  1.
        -11    1    3    3    0    0 -0.17895130121E+02  0.85109862342E+01 -0.15809772586E+02  0.25349979847E+02  0.51100000000E-03 0. -1.
        -12    1    3    3    0    0 -0.99885051701E+01 -0.39335182671E+01 -0.15346968410E+02  0.18728914567E+02  0.00000000000E+00 0.  1.
</event>
<event>
 7    1  0.2811980E-010  0.4778727E+02  0.7816164E-02  0.1312668E+00
        -11   -1    0    0    0    0  0.00000000000E+00  0.00000000000E+00  0.45593999997E+02  0.45594000000E+02  0.51100000000E-03 0. -1.
         11   -1    0    0    0    0 -0.00000000000E+00 -0.00000000000E+00 -0.45593999997E+02  0.45594000000E+02  0.51100000000E-03 0.  1.
    9900012    2    1    2    0    0 -0.26809465311E+02 -0.29818231535E+02 -0.16605698400E+02  0.47787267501E+02  0.19999983842E+02 0.  0.
        -12    1    1    2    0    0  0.26809465311E+02  0.29818231535E+02  0.16605698400E+02  0.43400732499E+02  0.00000000000E+00 0.  1.
         11    1    3    3    0    0 -0.12069582755E+02 -0.14088831209E+02  0.91469974992E+00  0.18574355133E+02  0.51100000000E-03 0. -1.
        -11    1    3    3    0    0 -0.13804406643E+02 -0.16934303471E+02 -0.16270111648E+02  0.27240572867E+02  0.51100000000E-03 0.  1.
        -12    1    3    3    0    0 -0.93547591268E+00  0.12049031444E+01 -0.12502865011E+01  0.19723395005E+01  0.00000000000E+00 0.  1.
</event>
<event>
 7    1  0.2811980E-010  0.4778726E+02  0.7816164E-02  0.1312668E+00
        -11   -1    0    0    0    0  0.00000000000E+00  0.00000000000E+00  0.45593999997E+02  0.45594000000E+02  0.51100000000E-03 0. -1.
         11   -1    0    0    0    0 -0.00000000000E+00 -0.00000000000E+00 -0.45593999997E+02  0.45594000000E+02  0.51100000000E-03 0.  1.
    9900012    2    1    2    0    0 -0.87999585942E+01  0.37090427124E+02 -0.20748128010E+02  0.47787264160E+02  0.19999968611E+02 0.  0.
        -12    1    1    2    0    0  0.87999585942E+01 -0.37090427124E+02  0.20748128010E+02  0.43400735840E+02  0.00000000000E+00 0.  1.
         11    1    3    3    0    0  0.45265534268E+01  0.14951198888E+02 -0.96814596092E+01  0.18378212496E+02  0.51100000000E-03 0.  1.
        -11    1    3    3    0    0 -0.11440288447E+02  0.13752736107E+02 -0.41208075757E+01  0.18357532664E+02  0.51100000000E-03 0. -1.
         12    1    3    3    0    0 -0.18862235742E+01  0.83864921290E+01 -0.69458608253E+01  0.11051519000E+02  0.00000000000E+00 0. -1.
</event>
<event>
 7    1  0.2811980E-010  0.4778726E+02  0.7816164E-02  0.1312668E+00
        -11   -1    0    0    0    0  0.00000000000E+00  0.00000000000E+00  0.45593999997E+02  0.45594000000E+02  0.51100000000E-03 0.  1.
         11   -1    0    0    0    0 -0.00000000000E+00 -0.00000000000E+00 -0.45593999997E+02  0.45594000000E+02  0.51100000000E-03 0. -1.
    9900012    2    1    2    0    0 -0.22827215542E+02  0.34817346081E+02 -0.12259497829E+02  0.47787255254E+02  0.19999928004E+02 0.  0.
        -12    1    1    2    0    0  0.22827215542E+02 -0.34817346081E+02  0.12259497829E+02  0.43400744746E+02  0.00000000000E+00 0.  1.
         11    1    3    3    0    0 -0.21156213697E+02  0.28957891323E+02 -0.65404486407E+01  0.36454386794E+02  0.51100000000E-03 0. -1.
        -11    1    3    3    0    0 -0.88600078993E-01  0.74286990702E+01 -0.51282654755E+01  0.90273211363E+01  0.51100000000E-03 0.  1.
         12    1    3    3    0    0 -0.15824017664E+01 -0.15692443127E+01 -0.59078371295E+00  0.23055473231E+01  0.00000000000E+00 0. -1.
</event>
<event>
 7    1  0.2811980E-010  0.4778724E+02  0.7816164E-02  0.1312668E+00
        -11   -1    0    0    0    0  0.00000000000E+00  0.00000000000E+00  0.45593999997E+02  0.45594000000E+02  0.51100000000E-03 0.  1.
         11   -1    0    0    0    0 -0.00000000000E+00 -0.00000000000E+00 -0.45593999997E+02  0.45594000000E+02  0.51100000000E-03 0. -1.
    9900012    2    1    2    0    0  0.35087451328E+01  0.13272697614E+02 -0.41172196373E+02  0.47787244839E+02  0.19999880520E+02 0.  0.
        -12    1    1    2    0    0 -0.35087451328E+01 -0.13272697614E+02  0.41172196373E+02  0.43400755161E+02  0.00000000000E+00 0.  1.
         11    1    3    3    0    0 -0.59913700404E+01  0.78968111989E+01 -0.27080529423E+02  0.28837670089E+02  0.51100000000E-03 0. -1.
        -11    1    3    3    0    0  0.84213787896E+01  0.14028487741E+01 -0.99333175471E+01  0.13098030507E+02  0.51100000000E-03 0.  1.
         12    1    3    3    0    0  0.10787363836E+01  0.39730376406E+01 -0.41583494034E+01  0.58515442440E+01  0.00000000000E+00 0. -1.
</event>
<event>
 7    1  0.2811980E-010  0.4778727E+02  0.7816164E-02  0.1312668E+00
        -11   -1    0    0    0    0  0.00000000000E+00  0.00000000000E+00  0.45593999997E+02  0.45594000000E+02  0.51100000000E-03 0. -1.
         11   -1    0    0    0    0 -0.00000000000E+00 -0.00000000000E+00 -0.45593999997E+02  0.45594000000E+02  0.51100000000E-03 0.  1.
    9900012    2    1    2    0    0  0.24820036986E+02  0.13517810036E+02  0.32937184605E+02  0.47787267819E+02  0.19999985292E+02 0.  0.
        -12    1    1    2    0    0 -0.24820036986E+02 -0.13517810036E+02 -0.32937184605E+02  0.43400732181E+02  0.00000000000E+00 0.  1.
         11    1    3    3    0    0  0.20781313033E+02  0.70965677792E+01  0.25234039747E+02  0.33451173490E+02  0.51100000000E-03 0. -1.
        -11    1    3    3    0    0  0.20869302626E+01 -0.14983377259E+01 -0.66152258322E+00  0.26529052473E+01  0.51100000000E-03 0.  1.
         12    1    3    3    0    0  0.19517936908E+01  0.79195799828E+01  0.83646674411E+01  0.11683189082E+02  0.00000000000E+00 0. -1.
</event>
<event>
 7    1  0.2811980E-010  0.4778728E+02  0.7816164E-02  0.1312668E+00
        -11   -1    0    0    0    0  0.00000000000E+00  0.00000000000E+00  0.45593999997E+02  0.45594000000E+02  0.51100000000E-03 0. -1.
         11   -1    0    0    0    0 -0.00000000000E+00 -0.00000000000E+00 -0.45593999997E+02  0.45594000000E+02  0.51100000000E-03 0.  1.
    9900012    2    1    2    0    0  0.20498909275E+02  0.37860782858E+02 -0.54752825668E+01  0.47787275591E+02  0.20000020727E+02 0.  0.
        -12    1    1    2    0    0 -0.20498909275E+02 -0.37860782858E+02  0.54752825668E+01  0.43400724409E+02  0.00000000000E+00 0.  1.
         11    1    3    3    0    0 -0.31307894627E+01  0.67825239012E+01 -0.79885295097E+00  0.75128316518E+01  0.51100000000E-03 0.  1.
        -11    1    3    3    0    0  0.68351968234E+01  0.75315960236E+01 -0.50373338272E+01  0.11349871657E+02  0.51100000000E-03 0. -1.
         12    1    3    3    0    0  0.16794501915E+02  0.23546662933E+02  0.36090421139E+00  0.28924572282E+02  0.00000000000E+00 0. -1.
</event>
<event>
 7    1  0.2811980E-010  0.4778727E+02  0.7816164E-02  0.1312668E+00
        -11   -1    0    0    0    0  0.00000000000E+00  0.00000000000E+00  0.45593999997E+02  0.45594000000E+02  0.51100000000E-03 0.  1.
         11   -1    0    0    0    0 -0.00000000000E+00 -0.00000000000E+00 -0.45593999997E+02  0.45594000000E+02  0.51100000000E-03 0. -1.
    9900012    2    1    2    0    0  0.76756907444E+01  0.53018464932E+01 -0.42386291369E+02  0.47787268431E+02  0.19999988086E+02 0.  0.
        -12    1    1    2    0    0 -0.76756907444E+01 -0.53018464932E+01  0.42386291369E+02  0.43400731569E+02  0.00000000000E+00 0.  1.
         11    1    3    3    0    0 -0.23181651928E+01  0.32266240781E+01 -0.21838659128E+02  0.22197117506E+02  0.51100000000E-03 0. -1.
        -11    1    3    3    0    0 -0.38062376951E+00  0.43962231894E+01 -0.80716490613E+01  0.91990853684E+01  0.51100000000E-03 0.  1.
         12    1    3    3    0    0  0.10374479707E+02 -0.23210007744E+01 -0.12475983180E+02  0.16391065557E+02  0.00000000000E+00 0. -1.
</event>
<event>
 7    1  0.2811980E-010  0.4778727E+02  0.7816164E-02  0.1312668E+00
        -11   -1    0    0    0    0  0.00000000000E+00  0.00000000000E+00  0.45593999997E+02  0.45594000000E+02  0.51100000000E-03 0.  1.
         11   -1    0    0    0    0 -0.00000000000E+00 -0.00000000000E+00 -0.45593999997E+02  0.45594000000E+02  0.51100000000E-03 0. -1.
    9900012    2    1    2    0    0  0.16538014466E+02 -0.13524300641E+02 -0.37778443523E+02  0.47787269299E+02  0.19999992042E+02 0.  0.
        -12    1    1    2    0    0 -0.16538014466E+02  0.13524300641E+02  0.37778443523E+02  0.43400730701E+02  0.00000000000E+00 0.  1.
         11    1    3    3    0    0  0.17293577343E+02 -0.13962508106E+02 -0.23619626667E+02  0.32433103676E+02  0.51100000000E-03 0. -1.
        -11    1    3    3    0    0 -0.26234123439E+01 -0.79359149078E+00 -0.34100136207E+01  0.43749597639E+01  0.51100000000E-03 0.  1.
         12    1    3    3    0    0  0.18678494672E+01  0.12317989550E+01 -0.10748803236E+02  0.10979205860E+02  0.00000000000E+00 0. -1.
</event>
<event>
 7    1  0.2811980E-010  0.4778727E+02  0.7816164E-02  0.1312668E+00
        -11   -1    0    0    0    0  0.00000000000E+00  0.00000000000E+00  0.45593999997E+02  0.45594000000E+02  0.51100000000E-03 0. -1.
         11   -1    0    0    0    0 -0.00000000000E+00 -0.00000000000E+00 -0.45593999997E+02  0.45594000000E+02  0.51100000000E-03 0.  1.
    9900012    2    1    2    0    0 -0.30857493543E+02  0.24779094446E+02  0.17816704456E+02  0.47787269741E+02  0.19999994057E+02 0.  0.
        -12    1    1    2    0    0  0.30857493543E+02 -0.24779094446E+02 -0.17816704456E+02  0.43400730259E+02  0.00000000000E+00 0.  1.
         11    1    3    3    0    0 -0.22205423776E+02  0.17828103696E+02  0.16906074462E+02  0.33117027047E+02  0.51100000000E-03 0. -1.
        -11    1    3    3    0    0 -0.18482040767E+01  0.73314458735E+01  0.18697663637E+01  0.77885803212E+01  0.51100000000E-03 0.  1.
         12    1    3    3    0    0 -0.68038656910E+01 -0.38045512336E+00 -0.95913636932E+00  0.68816623731E+01  0.00000000000E+00 0. -1.
</event>
<event>
 7    1  0.2811980E-010  0.4778727E+02  0.7816164E-02  0.1312668E+00
        -11   -1    0    0    0    0  0.00000000000E+00  0.00000000000E+00  0.45593999997E+02  0.45594000000E+02  0.51100000000E-03 0. -1.
         11   -1    0    0    0    0 -0.00000000000E+00 -0.00000000000E+00 -0.45593999997E+02  0.45594000000E+02  0.51100000000E-03 0.  1.
    9900012    2    1    2    0    0 -0.17907822726E+00 -0.37902403569E+02  0.21142353466E+02  0.47787269875E+02  0.19999994668E+02 0.  0.
        -12    1    1    2    0    0  0.17907822726E+00  0.37902403569E+02 -0.21142353466E+02  0.43400730125E+02  0.00000000000E+00 0.  1.
         11    1    3    3    0    0  0.61779551009E+01 -0.24497584119E+02  0.14918336255E+02  0.29340339360E+02  0.51100000000E-03 0. -1.
        -11    1    3    3    0    0 -0.36907385279E+01 -0.10935244363E+02  0.83420868757E+01  0.14240489243E+02  0.51100000000E-03 0.  1.
         12    1    3    3    0    0 -0.26662948003E+01 -0.24695750861E+01 -0.21180696647E+01  0.42064412717E+01  0.00000000000E+00 0. -1.
</event>
<event>
 7    1  0.2811980E-010  0.4778727E+02  0.7816164E-02  0.1312668E+00
        -11   -1    0    0    0    0  0.00000000000E+00  0.00000000000E+00  0.45593999997E+02  0.45594000000E+02  0.51100000000E-03 0. -1.
         11   -1    0    0    0    0 -0.00000000000E+00 -0.00000000000E+00 -0.45593999997E+02  0.45594000000E+02  0.51100000000E-03 0.  1.
    9900012    2    1    2    0    0  0.36279065468E+02  0.61121150522E+01  0.23023786191E+02  0.47787271064E+02  0.20000000090E+02 0.  0.
        -12    1    1    2    0    0 -0.36279065468E+02 -0.61121150522E+01 -0.23023786191E+02  0.43400728936E+02  0.00000000000E+00 0.  1.
         11    1    3    3    0    0  0.63507047667E+01  0.94065656883E+00  0.11584740713E+02  0.13244716059E+02  0.51100000000E-03 0.  1.
        -11    1    3    3    0    0  0.30038667910E+02  0.39674715280E+01  0.86614310244E+01  0.31513216081E+02  0.51100000000E-03 0. -1.
         12    1    3    3    0    0 -0.11030720914E+00  0.12039869554E+01  0.27776144528E+01  0.30293389242E+01  0.00000000000E+00 0. -1.
</event>
<event>
 7    1  0.2811980E-010  0.4778728E+02  0.7816164E-02  0.1312668E+00
        -11   -1    0    0    0    0  0.00000000000E+00  0.00000000000E+00  0.45593999997E+02  0.45594000000E+02  0.51100000000E-03 0. -1.
         11   -1    0    0    0    0 -0.00000000000E+00 -0.00000000000E+00 -0.45593999997E+02  0.45594000000E+02  0.51100000000E-03 0.  1.
    9900012    2    1    2    0    0  0.79849869096E+01 -0.34553251858E+02  0.25018704198E+02  0.47787276622E+02  0.20000025433E+02 0.  0.
        -12    1    1    2    0    0 -0.79849869096E+01  0.34553251858E+02 -0.25018704198E+02  0.43400723378E+02  0.00000000000E+00 0.  1.
         11    1    3    3    0    0  0.83317358594E+01 -0.26588097867E+02  0.24769231808E+02  0.37280821010E+02  0.51100000000E-03 0. -1.
        -11    1    3    3    0    0 -0.27961439983E+01 -0.79494573807E+00 -0.21728840177E+00  0.29150599473E+01  0.51100000000E-03 0.  1.
        -12    1    3    3    0    0  0.24493950486E+01 -0.71702082535E+01  0.46676079241E+00  0.75913956648E+01  0.00000000000E+00 0.  1.
</event>
<event>
 7    1  0.2811980E-010  0.4778727E+02  0.7816164E-02  0.1312668E+00
        -11   -1    0    0    0    0  0.00000000000E+00  0.00000000000E+00  0.45593999997E+02  0.45594000000E+02  0.51100000000E-03 0.  1.
         11   -1    0    0    0    0 -0.00000000000E+00 -0.00000000000E+00 -0.45593999997E+02  0.45594000000E+02  0.51100000000E-03 0. -1.
    9900012    2    1    2    0    0 -0.43301145538E+02 -0.12575532638E+01 -0.26557301410E+01  0.47787267890E+02  0.19999985617E+02 0.  0.
        -12    1    1    2    0    0  0.43301145538E+02  0.12575532638E+01  0.26557301410E+01  0.43400732110E+02  0.00000000000E+00 0.  1.
         11    1    3    3    0    0 -0.26460116702E+02 -0.89607183829E+00  0.24958276302E+01  0.26592665839E+02  0.51100000000E-03 0. -1.
        -11    1    3    3    0    0  0.11410043099E+00  0.88018032044E+00 -0.40634853843E+01  0.41592847984E+01  0.51100000000E-03 0.  1.
        -12    1    3    3    0    0 -0.16955129267E+02 -0.12416617460E+01 -0.10880723869E+01  0.17035317252E+02  0.00000000000E+00 0.  1.
</event>
<event>
 7    1  0.2811980E-010  0.4778727E+02  0.7816164E-02  0.1312668E+00
        -11   -1    0    0    0    0  0.00000000000E+00  0.00000000000E+00  0.45593999997E+02  0.45594000000E+02  0.51100000000E-03 0.  1.
         11   -1    0    0    0    0 -0.00000000000E+00 -0.00000000000E+00 -0.45593999997E+02  0.45594000000E+02  0.51100000000E-03 0. -1.
    9900012    2    1    2    0    0 -0.19671661900E+02 -0.29538995952E+02 -0.24981931533E+02  0.47787268821E+02  0.19999989862E+02 0.  0.
        -12    1    1    2    0    0  0.19671661900E+02  0.29538995952E+02  0.24981931533E+02  0.43400731179E+02  0.00000000000E+00 0.  1.
         11    1    3    3    0    0  0.13672444225E+01 -0.78447263791E+01 -0.37589127211E+01  0.88055956289E+01  0.51100000000E-03 0. -1.
        -11    1    3    3    0    0 -0.12198246739E+02 -0.51746824921E+01 -0.12855109778E+02  0.18461538670E+02  0.51100000000E-03 0.  1.
        -12    1    3    3    0    0 -0.88406595828E+01 -0.16519587081E+02 -0.83679090339E+01  0.20520134522E+02  0.00000000000E+00 0.  1.
</event>
<event>
 7    1  0.2811980E-010  0.4778727E+02  0.7816164E-02  0.1312668E+00
        -11   -1    0    0    0    0  0.00000000000E+00  0.00000000000E+00  0.45593999997E+02  0.45594000000E+02  0.51100000000E-03 0.  1.
         11   -1    0    0    0    0 -0.00000000000E+00 -0.00000000000E+00 -0.45593999997E+02  0.45594000000E+02  0.51100000000E-03 0. -1.
    9900012    2    1    2    0    0  0.21431103583E+02 -0.11544689476E+02 -0.35931201279E+02  0.47787270960E+02  0.19999999614E+02 0.  0.
        -12    1    1    2    0    0 -0.21431103583E+02  0.11544689476E+02  0.35931201279E+02  0.43400729040E+02  0.00000000000E+00 0.  1.
         11    1    3    3    0    0  0.16972332591E+00 -0.65594502172E+01 -0.85006661092E+01  0.10738552869E+02  0.51100000000E-03 0. -1.
        -11    1    3    3    0    0  0.19894978375E+02 -0.65016373827E+01 -0.18649781975E+02  0.28033833508E+02  0.51100000000E-03 0.  1.
        -12    1    3    3    0    0  0.13664018820E+01  0.15163981236E+01 -0.87807531946E+01  0.90148845826E+01  0.00000000000E+00 0.  1.
</event>
<event>
 7    1  0.2811980E-010  0.4778727E+02  0.7816164E-02  0.1312668E+00
        -11   -1    0    0    0    0  0.00000000000E+00  0.00000000000E+00  0.45593999997E+02  0.45594000000E+02  0.51100000000E-03 0.  1.
         11   -1    0    0    0    0 -0.00000000000E+00 -0.00000000000E+00 -0.45593999997E+02  0.45594000000E+02  0.51100000000E-03 0. -1.
    9900012    2    1    2    0    0  0.18257306631E+02 -0.11054665849E+02 -0.37790052818E+02  0.47787274494E+02  0.20000015727E+02 0.  0.
        -12    1    1    2    0    0 -0.18257306631E+02  0.11054665849E+02  0.37790052818E+02  0.43400725506E+02  0.00000000000E+00 0.  1.
         11    1    3    3    0    0  0.86294441516E+00  0.75310066503E+00 -0.15776047077E+02  0.15817569197E+02  0.51100000000E-03 0. -1.
        -11    1    3    3    0    0 -0.36416287068E+00 -0.22624482686E+01 -0.25446434949E+00  0.23056537317E+01  0.51100000000E-03 0.  1.
         12    1    3    3    0    0  0.17758525086E+02 -0.95453182456E+01 -0.21759541392E+02  0.29664051565E+02  0.00000000000E+00 0. -1.
</event>
<event>
 7    1  0.2811980E-010  0.4778727E+02  0.7816164E-02  0.1312668E+00
        -11   -1    0    0    0    0  0.00000000000E+00  0.00000000000E+00  0.45593999997E+02  0.45594000000E+02  0.51100000000E-03 0. -1.
         11   -1    0    0    0    0 -0.00000000000E+00 -0.00000000000E+00 -0.45593999997E+02  0.45594000000E+02  0.51100000000E-03 0.  1.
    9900012    2    1    2    0    0  0.14519128091E+02  0.39249275357E+02  0.11502719951E+02  0.47787271172E+02  0.20000000581E+02 0.  0.
        -12    1    1    2    0    0 -0.14519128091E+02 -0.39249275357E+02 -0.11502719951E+02  0.43400728828E+02  0.00000000000E+00 0.  1.
         11    1    3    3    0    0  0.10936995212E+01  0.77243989976E+01 -0.43398759929E+01  0.89273200016E+01  0.51100000000E-03 0.  1.
        -11    1    3    3    0    0  0.41888912189E+01  0.20574744140E+02  0.11223086762E+02  0.23808078100E+02  0.51100000000E-03 0. -1.
        -12    1    3    3    0    0  0.92365373510E+01  0.10950132219E+02  0.46195091820E+01  0.15051873070E+02  0.00000000000E+00 0.  1.
</event>
<event>
 7    1  0.2811980E-010  0.4778727E+02  0.7816164E-02  0.1312668E+00
        -11   -1    0    0    0    0  0.00000000000E+00  0.00000000000E+00  0.45593999997E+02  0.45594000000E+02  0.51100000000E-03 0.  1.
         11   -1    0    0    0    0 -0.00000000000E+00 -0.00000000000E+00 -0.45593999997E+02  0.45594000000E+02  0.51100000000E-03 0. -1.
    9900012    2    1    2    0    0 -0.20091476277E+02  0.20795214368E+02 -0.32365332952E+02  0.47787272624E+02  0.20000007203E+02 0.  0.
        -12    1    1    2    0    0  0.20091476277E+02 -0.20795214368E+02  0.32365332952E+02  0.43400727376E+02  0.00000000000E+00 0.  1.
         11    1    3    3    0    0 -0.99721092270E+01  0.77374733364E+01 -0.26018855935E+02  0.28918719206E+02  0.51100000000E-03 0. -1.
        -11    1    3    3    0    0 -0.12306787961E+01  0.78731580447E+00  0.12468272705E+01  0.19206808634E+01  0.51100000000E-03 0.  1.
         12    1    3    3    0    0 -0.88886882539E+01  0.12270425228E+02 -0.75933042879E+01  0.16947872555E+02  0.00000000000E+00 0. -1.
</event>
<event>
 7    1  0.2811980E-010  0.4778727E+02  0.7816164E-02  0.1312668E+00
        -11   -1    0    0    0    0  0.00000000000E+00  0.00000000000E+00  0.45593999997E+02  0.45594000000E+02  0.51100000000E-03 0. -1.
         11   -1    0    0    0    0 -0.00000000000E+00 -0.00000000000E+00 -0.45593999997E+02  0.45594000000E+02  0.51100000000E-03 0.  1.
    9900012    2    1    2    0    0 -0.74734531935E+01  0.14188383513E+02  0.40329400446E+02  0.47787271093E+02  0.20000000222E+02 0.  0.
        -12    1    1    2    0    0  0.74734531935E+01 -0.14188383513E+02 -0.40329400446E+02  0.43400728907E+02  0.00000000000E+00 0.  1.
         11    1    3    3    0    0 -0.36223894899E+00 -0.30460146183E+00  0.51253080556E+01  0.51471139518E+01  0.51100000000E-03 0. -1.
        -11    1    3    3    0    0 -0.16586802600E+01  0.72606397060E+01  0.32271587829E+02  0.33119835301E+02  0.51100000000E-03 0.  1.
        -12    1    3    3    0    0 -0.54525339844E+01  0.72323452686E+01  0.29325045615E+01  0.95203218401E+01  0.00000000000E+00 0.  1.
</event>
<event>
 7    1  0.2811980E-010  0.4778727E+02  0.7816164E-02  0.1312668E+00
        -11   -1    0    0    0    0  0.00000000000E+00  0.00000000000E+00  0.45593999997E+02  0.45594000000E+02  0.51100000000E-03 0. -1.
         11   -1    0    0    0    0 -0.00000000000E+00 -0.00000000000E+00 -0.45593999997E+02  0.45594000000E+02  0.51100000000E-03 0.  1.
    9900012    2    1    2    0    0  0.11493202561E+02 -0.15180954608E+02  0.39000873752E+02  0.47787271419E+02  0.20000001707E+02 0.  0.
        -12    1    1    2    0    0 -0.11493202561E+02  0.15180954608E+02 -0.39000873752E+02  0.43400728581E+02  0.00000000000E+00 0.  1.
         11    1    3    3    0    0  0.37134513866E-01 -0.32819181162E+01  0.42701151313E+01  0.53857449800E+01  0.51100000000E-03 0. -1.
        -11    1    3    3    0    0  0.14690284141E+02 -0.14037080600E+02  0.30645353391E+02  0.36769304653E+02  0.51100000000E-03 0.  1.
        -12    1    3    3    0    0 -0.32342160939E+01  0.21380441084E+01  0.40854052303E+01  0.56322217861E+01  0.00000000000E+00 0.  1.
</event>
<event>
 7    1  0.2811980E-010  0.4778727E+02  0.7816164E-02  0.1312668E+00
        -11   -1    0    0    0    0  0.00000000000E+00  0.00000000000E+00  0.45593999997E+02  0.45594000000E+02  0.51100000000E-03 0. -1.
         11   -1    0    0    0    0 -0.00000000000E+00 -0.00000000000E+00 -0.45593999997E+02  0.45594000000E+02  0.51100000000E-03 0.  1.
    9900012    2    1    2    0    0 -0.37614983389E+02 -0.70092094035E+01  0.20484316092E+02  0.47787271923E+02  0.20000004008E+02 0.  0.
        -12    1    1    2    0    0  0.37614983389E+02  0.70092094035E+01 -0.20484316092E+02  0.43400728077E+02  0.00000000000E+00 0.  1.
         11    1    3    3    0    0 -0.26307109609E+02 -0.37726454061E+01  0.51464508122E+01  0.27069961684E+02  0.51100000000E-03 0. -1.
        -11    1    3    3    0    0 -0.62863120797E+01 -0.50108475222E+01  0.11959825790E+02  0.14410542864E+02  0.51100000000E-03 0.  1.
        -12    1    3    3    0    0 -0.50215617008E+01  0.17742835248E+01  0.33780394897E+01  0.63067673760E+01  0.00000000000E+00 0.  1.
</event>
<event>
 7    1  0.2811980E-010  0.4778727E+02  0.7816164E-02  0.1312668E+00
        -11   -1    0    0    0    0  0.00000000000E+00  0.00000000000E+00  0.45593999997E+02  0.45594000000E+02  0.51100000000E-03 0.  1.
         11   -1    0    0    0    0 -0.00000000000E+00 -0.00000000000E+00 -0.45593999997E+02  0.45594000000E+02  0.51100000000E-03 0. -1.
    9900012    2    1    2    0    0 -0.77395044228E+01  0.17686513952E+02 -0.38870439348E+02  0.47787265448E+02  0.19999974485E+02 0.  0.
        -12    1    1    2    0    0  0.77395044228E+01 -0.17686513952E+02  0.38870439348E+02  0.43400734552E+02  0.00000000000E+00 0.  1.
         11    1    3    3    0    0 -0.10627352308E+02  0.12487537914E+02 -0.12703701721E+02  0.20742788094E+02  0.51100000000E-03 0. -1.
        -11    1    3    3    0    0  0.23332756923E+01  0.42988903312E+01 -0.13961093028E+02  0.14793131931E+02  0.51100000000E-03 0.  1.
         12    1    3    3    0    0  0.55457219299E+00  0.90008570682E+00 -0.12205644599E+02  0.12251345423E+02  0.00000000000E+00 0. -1.
</event>
<event>
 7    1  0.2811980E-010  0.4778727E+02  0.7816164E-02  0.1312668E+00
        -11   -1    0    0    0    0  0.00000000000E+00  0.00000000000E+00  0.45593999997E+02  0.45594000000E+02  0.51100000000E-03 0. -1.
         11   -1    0    0    0    0 -0.00000000000E+00 -0.00000000000E+00 -0.45593999997E+02  0.45594000000E+02  0.51100000000E-03 0.  1.
    9900012    2    1    2    0    0 -0.18871024521E+02 -0.38409256999E+02  0.72275291253E+01  0.47787265364E+02  0.19999974099E+02 0.  0.
        -12    1    1    2    0    0  0.18871024521E+02  0.38409256999E+02 -0.72275291253E+01  0.43400734636E+02  0.00000000000E+00 0.  1.
         11    1    3    3    0    0 -0.43728953898E+01 -0.12050363224E+02  0.32370447599E+01  0.13221646152E+02  0.51100000000E-03 0. -1.
        -11    1    3    3    0    0 -0.16781245693E+02 -0.26968883089E+02  0.46736213796E+01  0.32105663038E+02  0.51100000000E-03 0.  1.
        -12    1    3    3    0    0  0.22831165613E+01  0.60998931388E+00 -0.68313701422E+00  0.24599561736E+01  0.00000000000E+00 0.  1.
</event>
<event>
 7    1  0.2811980E-010  0.4778727E+02  0.7816164E-02  0.1312668E+00
        -11   -1    0    0    0    0  0.00000000000E+00  0.00000000000E+00  0.45593999997E+02  0.45594000000E+02  0.51100000000E-03 0. -1.
         11   -1    0    0    0    0 -0.00000000000E+00 -0.00000000000E+00 -0.45593999997E+02  0.45594000000E+02  0.51100000000E-03 0.  1.
    9900012    2    1    2    0    0 -0.27987199814E+02  0.28067733313E+02  0.17678861188E+02  0.47787272591E+02  0.20000007050E+02 0.  0.
        -12    1    1    2    0    0  0.27987199814E+02 -0.28067733313E+02 -0.17678861188E+02  0.43400727409E+02  0.00000000000E+00 0.  1.
         11    1    3    3    0    0 -0.64305387592E+01  0.15840267553E+01 -0.19716741655E+01  0.69100266839E+01  0.51100000000E-03 0. -1.
        -11    1    3    3    0    0 -0.20398176141E+02  0.22134544985E+02  0.20333973418E+02  0.36324842007E+02  0.51100000000E-03 0.  1.
        -12    1    3    3    0    0 -0.11584849139E+01  0.43491615726E+01 -0.68343806515E+00  0.45524039000E+01  0.00000000000E+00 0.  1.
</event>
<event>
 7    1  0.2811980E-010  0.4778727E+02  0.7816164E-02  0.1312668E+00
        -11   -1    0    0    0    0  0.00000000000E+00  0.00000000000E+00  0.45593999997E+02  0.45594000000E+02  0.51100000000E-03 0.  1.
         11   -1    0    0    0    0 -0.00000000000E+00 -0.00000000000E+00 -0.45593999997E+02  0.45594000000E+02  0.51100000000E-03 0. -1.
    9900012    2    1    2    0    0 -0.27672412822E+02  0.16958744298E+02 -0.28814262708E+02  0.47787272184E+02  0.20000005196E+02 0.  0.
        -12    1    1    2    0    0  0.27672412822E+02 -0.16958744298E+02  0.28814262708E+02  0.43400727816E+02  0.00000000000E+00 0.  1.
         11    1    3    3    0    0 -0.28170923317E+00 -0.48616051895E+00 -0.81743591393E+01  0.81936475236E+01  0.51100000000E-03 0. -1.
        -11    1    3    3    0    0  0.34692665624E+00  0.19331613102E+01 -0.16996542171E+01  0.25973631773E+01  0.51100000000E-03 0.  1.
         12    1    3    3    0    0 -0.27737630245E+02  0.15511743507E+02 -0.18940249352E+02  0.36996261483E+02  0.00000000000E+00 0. -1.
</event>
<event>
 7    1  0.2811980E-010  0.4778727E+02  0.7816164E-02  0.1312668E+00
        -11   -1    0    0    0    0  0.00000000000E+00  0.00000000000E+00  0.45593999997E+02  0.45594000000E+02  0.51100000000E-03 0.  1.
         11   -1    0    0    0    0 -0.00000000000E+00 -0.00000000000E+00 -0.45593999997E+02  0.45594000000E+02  0.51100000000E-03 0. -1.
    9900012    2    1    2    0    0 -0.25173959155E+01 -0.38926868708E+02 -0.19025902390E+02  0.47787270152E+02  0.19999995930E+02 0.  0.
        -12    1    1    2    0    0  0.25173959155E+01  0.38926868708E+02  0.19025902390E+02  0.43400729848E+02  0.00000000000E+00 0.  1.
         11    1    3    3    0    0  0.10225301578E+01 -0.27586073509E+02 -0.82181537797E+01  0.28802344894E+02  0.51100000000E-03 0. -1.
        -11    1    3    3    0    0 -0.19632005679E+01 -0.43441704016E+01 -0.10808200162E+02  0.11812838945E+02  0.51100000000E-03 0.  1.
        -12    1    3    3    0    0 -0.15767255054E+01 -0.69966247975E+01  0.45155152877E-03  0.71720863129E+01  0.00000000000E+00 0.  1.
</event>
<event>
 7    1  0.2811980E-010  0.4778727E+02  0.7816164E-02  0.1312668E+00
        -11   -1    0    0    0    0  0.00000000000E+00  0.00000000000E+00  0.45593999997E+02  0.45594000000E+02  0.51100000000E-03 0. -1.
         11   -1    0    0    0    0 -0.00000000000E+00 -0.00000000000E+00 -0.45593999997E+02  0.45594000000E+02  0.51100000000E-03 0.  1.
    9900012    2    1    2    0    0 -0.41068507539E+01 -0.26317983176E+01  0.43125753127E+02  0.47787272261E+02  0.20000005547E+02 0.  0.
        -12    1    1    2    0    0  0.41068507539E+01  0.26317983176E+01 -0.43125753127E+02  0.43400727739E+02  0.00000000000E+00 0.  1.
         11    1    3    3    0    0 -0.21278616636E+01 -0.94258155418E+01  0.17999617182E+02  0.20429390907E+02  0.51100000000E-03 0. -1.
        -11    1    3    3    0    0  0.14156980506E+01  0.40177161980E+01  0.20675182725E+02  0.21109462934E+02  0.51100000000E-03 0.  1.
         12    1    3    3    0    0 -0.33946871410E+01  0.27763010263E+01  0.44509532206E+01  0.62484184195E+01  0.00000000000E+00 0. -1.
</event>
<event>
 7    1  0.2811980E-010  0.4778727E+02  0.7816164E-02  0.1312668E+00
        -11   -1    0    0    0    0  0.00000000000E+00  0.00000000000E+00  0.45593999997E+02  0.45594000000E+02  0.51100000000E-03 0.  1.
         11   -1    0    0    0    0 -0.00000000000E+00 -0.00000000000E+00 -0.45593999997E+02  0.45594000000E+02  0.51100000000E-03 0. -1.
    9900012    2    1    2    0    0  0.33367121427E+02 -0.20859163398E+02 -0.18307219887E+02  0.47787265099E+02  0.19999972891E+02 0.  0.
        -12    1    1    2    0    0 -0.33367121427E+02  0.20859163398E+02  0.18307219887E+02  0.43400734901E+02  0.00000000000E+00 0.  1.
         11    1    3    3    0    0  0.15911542945E+02 -0.16835963412E+02 -0.59520634221E+01  0.23917648759E+02  0.51100000000E-03 0. -1.
        -11    1    3    3    0    0  0.25953496608E+01  0.18870500206E+01  0.62903904107E+00  0.32699370052E+01  0.51100000000E-03 0.  1.
         12    1    3    3    0    0  0.14860228821E+02 -0.59102500068E+01 -0.12984195506E+02  0.20599679335E+02  0.00000000000E+00 0. -1.
</event>
<event>
 7    1  0.2811980E-010  0.4778727E+02  0.7816164E-02  0.1312668E+00
        -11   -1    0    0    0    0  0.00000000000E+00  0.00000000000E+00  0.45593999997E+02  0.45594000000E+02  0.51100000000E-03 0. -1.
         11   -1    0    0    0    0 -0.00000000000E+00 -0.00000000000E+00 -0.45593999997E+02  0.45594000000E+02  0.51100000000E-03 0.  1.
    9900012    2    1    2    0    0 -0.42625538056E+02 -0.20092559112E+01 -0.79151348423E+01  0.47787274620E+02  0.20000016304E+02 0.  0.
        -12    1    1    2    0    0  0.42625538056E+02  0.20092559112E+01  0.79151348423E+01  0.43400725380E+02  0.00000000000E+00 0.  1.
         11    1    3    3    0    0 -0.13592488124E+02 -0.47134233898E+01 -0.96112566294E+00  0.14418594115E+02  0.51100000000E-03 0. -1.
        -11    1    3    3    0    0 -0.35416406031E+01  0.31719659647E+01 -0.62635547162E+01  0.78636317428E+01  0.51100000000E-03 0.  1.
        -12    1    3    3    0    0 -0.25491409329E+02 -0.46779848613E+00 -0.69045446320E+00  0.25505048762E+02  0.00000000000E+00 0.  1.
</event>
<event>
 7    1  0.2811980E-010  0.4778727E+02  0.7816164E-02  0.1312668E+00
        -11   -1    0    0    0    0  0.00000000000E+00  0.00000000000E+00  0.45593999997E+02  0.45594000000E+02  0.51100000000E-03 0.  1.
         11   -1    0    0    0    0 -0.00000000000E+00 -0.00000000000E+00 -0.45593999997E+02  0.45594000000E+02  0.51100000000E-03 0. -1.
    9900012    2    1    2    0    0  0.67475007486E+01  0.36815698416E+02 -0.21970403871E+02  0.47787273480E+02  0.20000011106E+02 0.  0.
        -12    1    1    2    0    0 -0.67475007486E+01 -0.36815698416E+02  0.21970403871E+02  0.43400726520E+02  0.00000000000E+00 0.  1.
         11    1    3    3    0    0  0.96678461105E+01  0.29084217813E+02 -0.10182818630E+02  0.32296265569E+02  0.51100000000E-03 0. -1.
        -11    1    3    3    0    0  0.15477223160E+01  0.75141076235E+00 -0.15178661989E+01  0.22943366275E+01  0.51100000000E-03 0.  1.
         12    1    3    3    0    0 -0.44680676779E+01  0.69800698401E+01 -0.10269719043E+02  0.13196671283E+02  0.00000000000E+00 0. -1.
</event>
<event>
 7    1  0.2811980E-010  0.4778727E+02  0.7816164E-02  0.1312668E+00
        -11   -1    0    0    0    0  0.00000000000E+00  0.00000000000E+00  0.45593999997E+02  0.45594000000E+02  0.51100000000E-03 0. -1.
         11   -1    0    0    0    0 -0.00000000000E+00 -0.00000000000E+00 -0.45593999997E+02  0.45594000000E+02  0.51100000000E-03 0.  1.
    9900012    2    1    2    0    0  0.14332697766E+02 -0.35368117167E+02  0.20671078091E+02  0.47787269515E+02  0.19999993027E+02 0.  0.
        -12    1    1    2    0    0 -0.14332697766E+02  0.35368117167E+02 -0.20671078091E+02  0.43400730485E+02  0.00000000000E+00 0.  1.
         11    1    3    3    0    0  0.11525500676E+02 -0.10982728244E+02  0.19094216831E+01  0.16034443456E+02  0.51100000000E-03 0. -1.
        -11    1    3    3    0    0 -0.67093527232E+00 -0.20000661236E+02  0.14317816953E+02  0.24606431813E+02  0.51100000000E-03 0.  1.
         12    1    3    3    0    0  0.34781323619E+01 -0.43847276875E+01  0.44438394547E+01  0.71463942460E+01  0.00000000000E+00 0. -1.
</event>
<event>
 7    1  0.2811980E-010  0.4778727E+02  0.7816164E-02  0.1312668E+00
        -11   -1    0    0    0    0  0.00000000000E+00  0.00000000000E+00  0.45593999997E+02  0.45594000000E+02  0.51100000000E-03 0.  1.
         11   -1    0    0    0    0 -0.00000000000E+00 -0.00000000000E+00 -0.45593999997E+02  0.45594000000E+02  0.51100000000E-03 0. -1.
    9900012    2    1    2    0    0  0.37124711845E+02  0.21871842686E+02 -0.51963219442E+01  0.47787268511E+02  0.19999988450E+02 0.  0.
        -12    1    1    2    0    0 -0.37124711845E+02 -0.21871842686E+02  0.51963219442E+01  0.43400731489E+02  0.00000000000E+00 0.  1.
         11    1    3    3    0    0  0.17444862751E+01  0.13820919685E+00 -0.26376708460E+00  0.17697196055E+01  0.51100000000E-03 0. -1.
        -11    1    3    3    0    0  0.75108170773E-01  0.76843440294E+01  0.11756103306E+00  0.76856102723E+01  0.51100000000E-03 0.  1.
        -12    1    3    3    0    0  0.35305117399E+02  0.14049289460E+02 -0.50501158926E+01  0.38331938633E+02  0.00000000000E+00 0.  1.
</event>
<event>
 7    1  0.2811980E-010  0.4778727E+02  0.7816164E-02  0.1312668E+00
        -11   -1    0    0    0    0  0.00000000000E+00  0.00000000000E+00  0.45593999997E+02  0.45594000000E+02  0.51100000000E-03 0.  1.
         11   -1    0    0    0    0 -0.00000000000E+00 -0.00000000000E+00 -0.45593999997E+02  0.45594000000E+02  0.51100000000E-03 0. -1.
    9900012    2    1    2    0    0  0.16471541223E+02 -0.77466543063E+01 -0.39399250901E+02  0.47787270804E+02  0.19999998904E+02 0.  0.
        -12    1    1    2    0    0 -0.16471541223E+02  0.77466543063E+01  0.39399250901E+02  0.43400729196E+02  0.00000000000E+00 0.  1.
         11    1    3    3    0    0  0.11169728673E+02  0.97371134623E+00 -0.21713390827E+02  0.24437313557E+02  0.51100000000E-03 0. -1.
        -11    1    3    3    0    0  0.22408349806E+01 -0.91633965277E+01 -0.58124516534E+01  0.11080332658E+02  0.51100000000E-03 0.  1.
         12    1    3    3    0    0  0.30609775687E+01  0.44303087516E+00 -0.11873408421E+02  0.12269624589E+02  0.00000000000E+00 0. -1.
</event>
<event>
 7    1  0.2811980E-010  0.4778727E+02  0.7816164E-02  0.1312668E+00
        -11   -1    0    0    0    0  0.00000000000E+00  0.00000000000E+00  0.45593999997E+02  0.45594000000E+02  0.51100000000E-03 0.  1.
         11   -1    0    0    0    0 -0.00000000000E+00 -0.00000000000E+00 -0.45593999997E+02  0.45594000000E+02  0.51100000000E-03 0. -1.
    9900012    2    1    2    0    0 -0.24267971115E+02  0.19207463492E+02 -0.30426339330E+02  0.47787271886E+02  0.20000003837E+02 0.  0.
        -12    1    1    2    0    0  0.24267971115E+02 -0.19207463492E+02  0.30426339330E+02  0.43400728114E+02  0.00000000000E+00 0.  1.
         11    1    3    3    0    0 -0.14432400402E+02  0.19713615823E+01 -0.97342425854E+01  0.17519586948E+02  0.51100000000E-03 0.  1.
        -11    1    3    3    0    0 -0.57791833175E+01  0.12149277281E+02 -0.71313693961E+01  0.15226960563E+02  0.51100000000E-03 0. -1.
         12    1    3    3    0    0 -0.40563873950E+01  0.50868246287E+01 -0.13560727348E+02  0.15040724375E+02  0.00000000000E+00 0. -1.
</event>
<event>
 7    1  0.2811980E-010  0.4778727E+02  0.7816164E-02  0.1312668E+00
        -11   -1    0    0    0    0  0.00000000000E+00  0.00000000000E+00  0.45593999997E+02  0.45594000000E+02  0.51100000000E-03 0. -1.
         11   -1    0    0    0    0 -0.00000000000E+00 -0.00000000000E+00 -0.45593999997E+02  0.45594000000E+02  0.51100000000E-03 0.  1.
    9900012    2    1    2    0    0  0.27169686485E+02  0.32540973307E+02  0.93014238893E+01  0.47787270815E+02  0.19999998952E+02 0.  0.
        -12    1    1    2    0    0 -0.27169686485E+02 -0.32540973307E+02 -0.93014238893E+01  0.43400729185E+02  0.00000000000E+00 0.  1.
         11    1    3    3    0    0 -0.17215165481E+01  0.87657176382E+01  0.39206360712E+01  0.97556554060E+01  0.51100000000E-03 0. -1.
        -11    1    3    3    0    0  0.20546657491E+02  0.15238596130E+02  0.51369655510E+01  0.26091538119E+02  0.51100000000E-03 0.  1.
         12    1    3    3    0    0  0.83445455416E+01  0.85366595392E+01  0.24382226709E+00  0.11940077290E+02  0.00000000000E+00 0. -1.
</event>
<event>
 7    1  0.2811980E-010  0.4778727E+02  0.7816164E-02  0.1312668E+00
        -11   -1    0    0    0    0  0.00000000000E+00  0.00000000000E+00  0.45593999997E+02  0.45594000000E+02  0.51100000000E-03 0. -1.
         11   -1    0    0    0    0 -0.00000000000E+00 -0.00000000000E+00 -0.45593999997E+02  0.45594000000E+02  0.51100000000E-03 0.  1.
    9900012    2    1    2    0    0 -0.25515186855E+02  0.30893149115E+02  0.16679696448E+02  0.47787266180E+02  0.19999977823E+02 0.  0.
        -12    1    1    2    0    0  0.25515186855E+02 -0.30893149115E+02 -0.16679696448E+02  0.43400733820E+02  0.00000000000E+00 0.  1.
         11    1    3    3    0    0 -0.23425754640E+01  0.41280364143E+01  0.23958819060E+01  0.53168218713E+01  0.51100000000E-03 0. -1.
        -11    1    3    3    0    0 -0.40795408760E+01  0.14460569555E+02  0.12747554738E+02  0.19704082766E+02  0.51100000000E-03 0.  1.
        -12    1    3    3    0    0 -0.19093070515E+02  0.12304543146E+02  0.15362598039E+01  0.22766361543E+02  0.00000000000E+00 0.  1.
</event>
<event>
 7    1 -0.2811980E-010  0.4778727E+02  0.7816164E-02  0.1312668E+00
        -11   -1    0    0    0    0  0.00000000000E+00  0.00000000000E+00  0.45593999997E+02  0.45594000000E+02  0.51100000000E-03 0. -1.
         11   -1    0    0    0    0 -0.00000000000E+00 -0.00000000000E+00 -0.45593999997E+02  0.45594000000E+02  0.51100000000E-03 0.  1.
    9900012    2    1    2    0    0 -0.60061041799E+01 -0.21781923601E+02  0.37055334744E+02  0.47787270557E+02  0.19999997778E+02 0.  0.
        -12    1    1    2    0    0  0.60061041799E+01  0.21781923601E+02 -0.37055334744E+02  0.43400729443E+02  0.00000000000E+00 0.  1.
         11    1    3    3    0    0 -0.36262724155E+01 -0.23523689455E+02  0.33526596726E+02  0.41116255976E+02  0.51100000000E-03 0. -1.
        -11    1    3    3    0    0  0.13738207480E+01 -0.18079307296E+00  0.47756709629E+00  0.14656534977E+01  0.51100000000E-03 0.  1.
         12    1    3    3    0    0 -0.37536525124E+01  0.19225589269E+01  0.30511709217E+01  0.52053610830E+01  0.00000000000E+00 0. -1.
</event>
<event>
 7    1  0.2811980E-010  0.4778728E+02  0.7816164E-02  0.1312668E+00
        -11   -1    0    0    0    0  0.00000000000E+00  0.00000000000E+00  0.45593999997E+02  0.45594000000E+02  0.51100000000E-03 0. -1.
         11   -1    0    0    0    0 -0.00000000000E+00 -0.00000000000E+00 -0.45593999997E+02  0.45594000000E+02  0.51100000000E-03 0.  1.
    9900012    2    1    2    0    0  0.13596322101E+02 -0.36889564472E+02  0.18382673553E+02  0.47787278479E+02  0.20000033897E+02 0.  0.
        -12    1    1    2    0    0 -0.13596322101E+02  0.36889564472E+02 -0.18382673553E+02  0.43400721521E+02  0.00000000000E+00 0.  1.
         11    1    3    3    0    0  0.75321562476E+01 -0.32212997040E+02  0.11459014244E+02  0.35010277973E+02  0.51100000000E-03 0. -1.
        -11    1    3    3    0    0  0.48891344969E+01 -0.33699389181E+00  0.48587557683E+00  0.49247615526E+01  0.51100000000E-03 0.  1.
         12    1    3    3    0    0  0.11750313560E+01 -0.43395735401E+01  0.64377837324E+01  0.78522389535E+01  0.00000000000E+00 0. -1.
</event>
<event>
 7    1  0.2811980E-010  0.4778728E+02  0.7816164E-02  0.1312668E+00
        -11   -1    0    0    0    0  0.00000000000E+00  0.00000000000E+00  0.45593999997E+02  0.45594000000E+02  0.51100000000E-03 0.  1.
         11   -1    0    0    0    0 -0.00000000000E+00 -0.00000000000E+00 -0.45593999997E+02  0.45594000000E+02  0.51100000000E-03 0. -1.
    9900012    2    1    2    0    0  0.42990053210E+01  0.16198087629E+02 -0.40034526261E+02  0.47787276705E+02  0.20000025808E+02 0.  0.
        -12    1    1    2    0    0 -0.42990053210E+01 -0.16198087629E+02  0.40034526261E+02  0.43400723295E+02  0.00000000000E+00 0.  1.
         11    1    3    3    0    0  0.42745773613E+01  0.29541256450E+01 -0.65873238355E+01  0.83899764910E+01  0.51100000000E-03 0. -1.
        -11    1    3    3    0    0  0.47715312521E+01  0.67021910931E+01 -0.45720905973E+01  0.94122732977E+01  0.51100000000E-03 0.  1.
        -12    1    3    3    0    0 -0.47471032924E+01  0.65417708908E+01 -0.28875111828E+02  0.29985026916E+02  0.00000000000E+00 0.  1.
</event>
<event>
 7    1  0.2811980E-010  0.4778730E+02  0.7816164E-02  0.1312668E+00
        -11   -1    0    0    0    0  0.00000000000E+00  0.00000000000E+00  0.45593999997E+02  0.45594000000E+02  0.51100000000E-03 0. -1.
         11   -1    0    0    0    0 -0.00000000000E+00 -0.00000000000E+00 -0.45593999997E+02  0.45594000000E+02  0.51100000000E-03 0.  1.
    9900012    2    1    2    0    0 -0.14325242668E+02  0.39996916906E+02  0.88687369302E+01  0.47787303759E+02  0.20000149158E+02 0.  0.
        -12    1    1    2    0    0  0.14325242668E+02 -0.39996916906E+02 -0.88687369302E+01  0.43400696241E+02  0.00000000000E+00 0.  1.
         11    1    3    3    0    0  0.35916636904E+00  0.22226497281E+02  0.53485522027E+01  0.22863796552E+02  0.51100000000E-03 0. -1.
        -11    1    3    3    0    0 -0.29728342059E+01  0.54710217291E+01 -0.27670478447E+01  0.68136903373E+01  0.51100000000E-03 0.  1.
         12    1    3    3    0    0 -0.11711574831E+02  0.12299397896E+02  0.62872325723E+01  0.18109816869E+02  0.00000000000E+00 0. -1.
</event>
<event>
 7    1  0.2811980E-010  0.4778727E+02  0.7816164E-02  0.1312668E+00
        -11   -1    0    0    0    0  0.00000000000E+00  0.00000000000E+00  0.45593999997E+02  0.45594000000E+02  0.51100000000E-03 0. -1.
         11   -1    0    0    0    0 -0.00000000000E+00 -0.00000000000E+00 -0.45593999997E+02  0.45594000000E+02  0.51100000000E-03 0.  1.
    9900012    2    1    2    0    0  0.34602255406E+02 -0.34459572469E+01  0.25969840056E+02  0.47787270824E+02  0.19999998995E+02 0.  0.
        -12    1    1    2    0    0 -0.34602255406E+02  0.34459572469E+01 -0.25969840056E+02  0.43400729176E+02  0.00000000000E+00 0.  1.
         11    1    3    3    0    0  0.16964306071E+02 -0.18350840643E+01  0.13218086213E+02  0.21584091767E+02  0.51100000000E-03 0. -1.
        -11    1    3    3    0    0 -0.16757357248E+01  0.26202354473E+01  0.14842784587E+01  0.34462743394E+01  0.51100000000E-03 0.  1.
        -12    1    3    3    0    0  0.19313685059E+02 -0.42311086299E+01  0.11267475384E+02  0.22756904718E+02  0.00000000000E+00 0.  1.
</event>
<event>
 7    1  0.2811980E-010  0.4778728E+02  0.7816164E-02  0.1312668E+00
        -11   -1    0    0    0    0  0.00000000000E+00  0.00000000000E+00  0.45593999997E+02  0.45594000000E+02  0.51100000000E-03 0. -1.
         11   -1    0    0    0    0 -0.00000000000E+00 -0.00000000000E+00 -0.45593999997E+02  0.45594000000E+02  0.51100000000E-03 0.  1.
    9900012    2    1    2    0    0 -0.31726593953E+02 -0.20983125012E+02  0.20898672195E+02  0.47787276519E+02  0.20000024960E+02 0.  0.
        -12    1    1    2    0    0  0.31726593953E+02  0.20983125012E+02 -0.20898672195E+02  0.43400723481E+02  0.00000000000E+00 0.  1.
         11    1    3    3    0    0 -0.85425940450E+01 -0.88226294618E+01  0.12691976415E+02  0.17660718253E+02  0.51100000000E-03 0. -1.
        -11    1    3    3    0    0 -0.19879253719E+02 -0.41429227688E+01  0.54077265706E+01  0.21014091568E+02  0.51100000000E-03 0.  1.
        -12    1    3    3    0    0 -0.33047461893E+01 -0.80175727817E+01  0.27989692098E+01  0.91124666980E+01  0.00000000000E+00 0.  1.
</event>
<event>
 7    1  0.2966015E-010  0.4778727E+02  0.7816164E-02  0.1312668E+00
        -11   -1    0    0    0    0  0.00000000000E+00  0.00000000000E+00  0.45593999997E+02  0.45594000000E+02  0.51100000000E-03 0. -1.
         11   -1    0    0    0    0 -0.00000000000E+00 -0.00000000000E+00 -0.45593999997E+02  0.45594000000E+02  0.51100000000E-03 0.  1.
    9900012    2    1    2    0    0 -0.33904051009E+02  0.19551722339E+02  0.18758164493E+02  0.47787271246E+02  0.20000000920E+02 0.  0.
        -12    1    1    2    0    0  0.33904051009E+02 -0.19551722339E+02 -0.18758164493E+02  0.43400728754E+02  0.00000000000E+00 0.  1.
         11    1    3    3    0    0 -0.65210557681E+01  0.11038492707E+01  0.24127299033E+01  0.70401645855E+01  0.51100000000E-03 0. -1.
        -11    1    3    3    0    0 -0.28422215370E+02  0.12935832063E+02  0.16097619683E+02  0.35132484077E+02  0.51100000000E-03 0.  1.
        -12    1    3    3    0    0  0.10392201299E+01  0.55120410060E+01  0.24781490634E+00  0.56146225837E+01  0.00000000000E+00 0.  1.
</event>
<event>
 7    1  0.2811980E-010  0.4778727E+02  0.7816164E-02  0.1312668E+00
        -11   -1    0    0    0    0  0.00000000000E+00  0.00000000000E+00  0.45593999997E+02  0.45594000000E+02  0.51100000000E-03 0. -1.
         11   -1    0    0    0    0 -0.00000000000E+00 -0.00000000000E+00 -0.45593999997E+02  0.45594000000E+02  0.51100000000E-03 0.  1.
    9900012    2    1    2    0    0 -0.16992619247E+01 -0.18354012756E+02  0.39292060861E+02  0.47787270489E+02  0.19999997468E+02 0.  0.
        -12    1    1    2    0    0  0.16992619247E+01  0.18354012756E+02 -0.39292060861E+02  0.43400729511E+02  0.00000000000E+00 0.  1.
         11    1    3    3    0    0 -0.19789474132E+01 -0.13383812159E+02  0.11333258085E+02  0.17648948973E+02  0.51100000000E-03 0.  1.
        -11    1    3    3    0    0  0.45444067041E+01 -0.51800877150E+01  0.19078147585E+02  0.20284493008E+02  0.51100000000E-03 0. -1.
         12    1    3    3    0    0 -0.42647212156E+01  0.20988711821E+00  0.88806551907E+01  0.98538285080E+01  0.00000000000E+00 0. -1.
</event>
<event>
 7    1  0.2811980E-010  0.4778727E+02  0.7816164E-02  0.1312668E+00
        -11   -1    0    0    0    0  0.00000000000E+00  0.00000000000E+00  0.45593999997E+02  0.45594000000E+02  0.51100000000E-03 0.  1.
         11   -1    0    0    0    0 -0.00000000000E+00 -0.00000000000E+00 -0.45593999997E+02  0.45594000000E+02  0.51100000000E-03 0. -1.
    9900012    2    1    2    0    0 -0.10597055471E+02  0.42058550194E+02 -0.15505023561E+01  0.47787270898E+02  0.19999999330E+02 0.  0.
        -12    1    1    2    0    0  0.10597055471E+02 -0.42058550194E+02  0.15505023561E+01  0.43400729102E+02  0.00000000000E+00 0.  1.
         11    1    3    3    0    0 -0.82789205964E+01  0.12104314745E+02 -0.76313339605E+01  0.16531552255E+02  0.51100000000E-03 0.  1.
        -11    1    3    3    0    0 -0.39286737193E+01  0.27057913985E+02  0.52901863668E+01  0.27848720948E+02  0.51100000000E-03 0. -1.
        -12    1    3    3    0    0  0.16105388450E+01  0.28963214644E+01  0.79064523754E+00  0.34069976942E+01  0.00000000000E+00 0.  1.
</event>
<event>
 7    1  0.2811980E-010  0.4778727E+02  0.7816164E-02  0.1312668E+00
        -11   -1    0    0    0    0  0.00000000000E+00  0.00000000000E+00  0.45593999997E+02  0.45594000000E+02  0.51100000000E-03 0.  1.
         11   -1    0    0    0    0 -0.00000000000E+00 -0.00000000000E+00 -0.45593999997E+02  0.45594000000E+02  0.51100000000E-03 0. -1.
    9900012    2    1    2    0    0 -0.41385336772E+02 -0.75101628410E+00  0.13050408060E+02  0.47787271023E+02  0.19999999900E+02 0.  0.
        -12    1    1    2    0    0  0.41385336772E+02  0.75101628410E+00 -0.13050408060E+02  0.43400728977E+02  0.00000000000E+00 0.  1.
         11    1    3    3    0    0 -0.11793132751E+02 -0.26294935746E+01  0.12938219040E+02  0.17702816971E+02  0.51100000000E-03 0. -1.
        -11    1    3    3    0    0 -0.49307408608E+00  0.71697627793E+00 -0.39989669910E+00  0.95765059836E+00  0.51100000000E-03 0.  1.
         12    1    3    3    0    0 -0.29099129936E+02  0.11615010125E+01  0.51208571988E+00  0.29126803453E+02  0.00000000000E+00 0. -1.
</event>
<event>
 7    1  0.2811980E-010  0.4778728E+02  0.7816164E-02  0.1312668E+00
        -11   -1    0    0    0    0  0.00000000000E+00  0.00000000000E+00  0.45593999997E+02  0.45594000000E+02  0.51100000000E-03 0. -1.
         11   -1    0    0    0    0 -0.00000000000E+00 -0.00000000000E+00 -0.45593999997E+02  0.45594000000E+02  0.51100000000E-03 0.  1.
    9900012    2    1    2    0    0 -0.36517593035E+02 -0.16535675089E+02  0.16633090374E+02  0.47787275961E+02  0.20000022416E+02 0.  0.
        -12    1    1    2    0    0  0.36517593035E+02  0.16535675089E+02 -0.16633090374E+02  0.43400724039E+02  0.00000000000E+00 0.  1.
         11    1    3    3    0    0 -0.10174318600E+02  0.35688074524E-01  0.12654782951E+02  0.16237658834E+02  0.51100000000E-03 0. -1.
        -11    1    3    3    0    0 -0.21986789702E+02 -0.14338845269E+02  0.44799508089E+01  0.26628769491E+02  0.51100000000E-03 0.  1.
         12    1    3    3    0    0 -0.43564847328E+01 -0.22325178945E+01 -0.50164338551E+00  0.49208476366E+01  0.00000000000E+00 0. -1.
</event>
<event>
 7    1  0.2811980E-010  0.4778727E+02  0.7816164E-02  0.1312668E+00
        -11   -1    0    0    0    0  0.00000000000E+00  0.00000000000E+00  0.45593999997E+02  0.45594000000E+02  0.51100000000E-03 0.  1.
         11   -1    0    0    0    0 -0.00000000000E+00 -0.00000000000E+00 -0.45593999997E+02  0.45594000000E+02  0.51100000000E-03 0. -1.
    9900012    2    1    2    0    0 -0.16368654123E+02  0.27855089350E+02 -0.28979037935E+02  0.47787268668E+02  0.19999989167E+02 0.  0.
        -12    1    1    2    0    0  0.16368654123E+02 -0.27855089350E+02  0.28979037935E+02  0.43400731332E+02  0.00000000000E+00 0.  1.
         11    1    3    3    0    0 -0.10774888456E+02  0.69990288654E+01 -0.78104661361E+01  0.15036223190E+02  0.51100000000E-03 0. -1.
        -11    1    3    3    0    0  0.61877608348E+00  0.17689070598E+02 -0.12720081840E+02  0.21796481018E+02  0.51100000000E-03 0.  1.
        -12    1    3    3    0    0 -0.62125417508E+01  0.31669898861E+01 -0.84484899587E+01  0.10954564461E+02  0.00000000000E+00 0.  1.
</event>
<event>
 7    1  0.2811980E-010  0.4778727E+02  0.7816164E-02  0.1312668E+00
        -11   -1    0    0    0    0  0.00000000000E+00  0.00000000000E+00  0.45593999997E+02  0.45594000000E+02  0.51100000000E-03 0. -1.
         11   -1    0    0    0    0 -0.00000000000E+00 -0.00000000000E+00 -0.45593999997E+02  0.45594000000E+02  0.51100000000E-03 0.  1.
    9900012    2    1    2    0    0 -0.35736079331E+02  0.24560457514E+02  0.18275596602E+01  0.47787269435E+02  0.19999992664E+02 0.  0.
        -12    1    1    2    0    0  0.35736079331E+02 -0.24560457514E+02 -0.18275596602E+01  0.43400730565E+02  0.00000000000E+00 0.  1.
         11    1    3    3    0    0 -0.22381405568E+02  0.18733329950E+02  0.74209092653E+01  0.30115359217E+02  0.51100000000E-03 0. -1.
        -11    1    3    3    0    0 -0.61734158392E+00 -0.46442477744E+00  0.15787997110E+01  0.17576716968E+01  0.51100000000E-03 0.  1.
         12    1    3    3    0    0 -0.12737332179E+02  0.62915523422E+01 -0.71721493161E+01  0.15914238521E+02  0.00000000000E+00 0. -1.
</event>
<event>
 7    1  0.2811980E-010  0.4778727E+02  0.7816164E-02  0.1312668E+00
        -11   -1    0    0    0    0  0.00000000000E+00  0.00000000000E+00  0.45593999997E+02  0.45594000000E+02  0.51100000000E-03 0. -1.
         11   -1    0    0    0    0 -0.00000000000E+00 -0.00000000000E+00 -0.45593999997E+02  0.45594000000E+02  0.51100000000E-03 0.  1.
    9900012    2    1    2    0    0 -0.23572236107E+02  0.15778548338E+02 -0.32848296894E+02  0.47787268306E+02  0.19999987513E+02 0.  0.
        -12    1    1    2    0    0  0.23572236107E+02 -0.15778548338E+02  0.32848296894E+02  0.43400731694E+02  0.00000000000E+00 0.  1.
         11    1    3    3    0    0 -0.20000359528E+02  0.17438487832E+02 -0.17202452371E+02  0.31623402836E+02  0.51100000000E-03 0. -1.
        -11    1    3    3    0    0 -0.31731498383E+01 -0.16165626312E+01 -0.12664815560E+02  0.13155976135E+02  0.51100000000E-03 0.  1.
         12    1    3    3    0    0 -0.39872674094E+00 -0.43376862533E-01 -0.29810289642E+01  0.30078893350E+01  0.00000000000E+00 0. -1.
</event>
<event>
 7    1  0.2811980E-010  0.4778727E+02  0.7816164E-02  0.1312668E+00
        -11   -1    0    0    0    0  0.00000000000E+00  0.00000000000E+00  0.45593999997E+02  0.45594000000E+02  0.51100000000E-03 0. -1.
         11   -1    0    0    0    0 -0.00000000000E+00 -0.00000000000E+00 -0.45593999997E+02  0.45594000000E+02  0.51100000000E-03 0.  1.
    9900012    2    1    2    0    0 -0.31697863841E+02  0.27790261798E+02  0.10323293935E+02  0.47787267051E+02  0.19999981791E+02 0.  0.
        -12    1    1    2    0    0  0.31697863841E+02 -0.27790261798E+02 -0.10323293935E+02  0.43400732949E+02  0.00000000000E+00 0.  1.
         11    1    3    3    0    0 -0.44644337965E+01 -0.19827999018E+01 -0.97860851629E+00  0.49820015519E+01  0.51100000000E-03 0. -1.
        -11    1    3    3    0    0  0.11470917910E-01 -0.38833571960E+00  0.69996781931E+00  0.80055694505E+00  0.51100000000E-03 0.  1.
         12    1    3    3    0    0 -0.27244900962E+02  0.30161397420E+02  0.10601934632E+02  0.42004708554E+02  0.00000000000E+00 0. -1.
</event>
<event>
 7    1  0.2811980E-010  0.4778727E+02  0.7816164E-02  0.1312668E+00
        -11   -1    0    0    0    0  0.00000000000E+00  0.00000000000E+00  0.45593999997E+02  0.45594000000E+02  0.51100000000E-03 0. -1.
         11   -1    0    0    0    0 -0.00000000000E+00 -0.00000000000E+00 -0.45593999997E+02  0.45594000000E+02  0.51100000000E-03 0.  1.
    9900012    2    1    2    0    0 -0.25116128060E+02  0.34367465714E+02  0.84664492563E+01  0.47787270152E+02  0.19999995930E+02 0.  0.
        -12    1    1    2    0    0  0.25116128060E+02 -0.34367465714E+02 -0.84664492563E+01  0.43400729848E+02  0.00000000000E+00 0.  1.
         11    1    3    3    0    0  0.69793519609E+00  0.10573696134E+02  0.37492123298E+01  0.11240407325E+02  0.51100000000E-03 0. -1.
        -11    1    3    3    0    0 -0.12349659279E+02  0.55844621893E+01  0.92707200034E+00  0.13585277510E+02  0.51100000000E-03 0.  1.
        -12    1    3    3    0    0 -0.13464403977E+02  0.18209307391E+02  0.37901649261E+01  0.22961585317E+02  0.00000000000E+00 0.  1.
</event>
<event>
 7    1  0.2811980E-010  0.4778728E+02  0.7816164E-02  0.1312668E+00
        -11   -1    0    0    0    0  0.00000000000E+00  0.00000000000E+00  0.45593999997E+02  0.45594000000E+02  0.51100000000E-03 0.  1.
         11   -1    0    0    0    0 -0.00000000000E+00 -0.00000000000E+00 -0.45593999997E+02  0.45594000000E+02  0.51100000000E-03 0. -1.
    9900012    2    1    2    0    0 -0.19531796392E+02 -0.10234311322E+02 -0.37381684849E+02  0.47787279261E+02  0.20000037460E+02 0.  0.
        -12    1    1    2    0    0  0.19531796392E+02  0.10234311322E+02  0.37381684849E+02  0.43400720739E+02  0.00000000000E+00 0.  1.
         11    1    3    3    0    0 -0.56799456911E+01  0.46424968025E+01 -0.12683663153E+02  0.14652299166E+02  0.51100000000E-03 0. -1.
        -11    1    3    3    0    0 -0.10910297528E+02 -0.11717325061E+02 -0.23865899537E+02  0.28738675330E+02  0.51100000000E-03 0.  1.
        -12    1    3    3    0    0 -0.29415531725E+01 -0.31594830632E+01 -0.83212215941E+00  0.43963047644E+01  0.00000000000E+00 0.  1.
</event>
<event>
 7    1  0.2811980E-010  0.4778727E+02  0.7816164E-02  0.1312668E+00
        -11   -1    0    0    0    0  0.00000000000E+00  0.00000000000E+00  0.45593999997E+02  0.45594000000E+02  0.51100000000E-03 0.  1.
         11   -1    0    0    0    0 -0.00000000000E+00 -0.00000000000E+00 -0.45593999997E+02  0.45594000000E+02  0.51100000000E-03 0. -1.
    9900012    2    1    2    0    0 -0.40226053212E+02  0.11483204406E+02 -0.11559586597E+02  0.47787269791E+02  0.19999994283E+02 0.  0.
        -12    1    1    2    0    0  0.40226053212E+02 -0.11483204406E+02  0.11559586597E+02  0.43400730209E+02  0.00000000000E+00 0.  1.
         11    1    3    3    0    0 -0.30051301861E+02  0.92305017355E+01 -0.13279434660E+02  0.34126621441E+02  0.51100000000E-03 0. -1.
        -11    1    3    3    0    0 -0.82698074103E+01  0.35787887546E+01  0.44726490833E+01  0.10059922149E+02  0.51100000000E-03 0.  1.
        -12    1    3    3    0    0 -0.19049439406E+01 -0.13260860838E+01 -0.27528010200E+01  0.36007262010E+01  0.00000000000E+00 0.  1.
</event>
<event>
 7    1  0.2811980E-010  0.4778728E+02  0.7816164E-02  0.1312668E+00
        -11   -1    0    0    0    0  0.00000000000E+00  0.00000000000E+00  0.45593999997E+02  0.45594000000E+02  0.51100000000E-03 0.  1.
         11   -1    0    0    0    0 -0.00000000000E+00 -0.00000000000E+00 -0.45593999997E+02  0.45594000000E+02  0.51100000000E-03 0. -1.
    9900012    2    1    2    0    0 -0.18758516633E+02 -0.67879326486E+01 -0.38544318910E+02  0.47787280005E+02  0.20000040853E+02 0.  0.
        -12    1    1    2    0    0  0.18758516633E+02  0.67879326486E+01  0.38544318910E+02  0.43400719995E+02  0.00000000000E+00 0.  1.
         11    1    3    3    0    0 -0.11399348105E+02 -0.94105818143E+01 -0.24030122171E+02  0.28212602842E+02  0.51100000000E-03 0. -1.
        -11    1    3    3    0    0 -0.52551164231E+01  0.58748884330E+01 -0.13396072687E+02  0.15543015358E+02  0.51100000000E-03 0.  1.
         12    1    3    3    0    0 -0.21040521053E+01 -0.32522392673E+01 -0.11181240515E+01  0.40316618048E+01  0.00000000000E+00 0. -1.
</event>
<event>
 7    1  0.2811980E-010  0.4778727E+02  0.7816164E-02  0.1312668E+00
        -11   -1    0    0    0    0  0.00000000000E+00  0.00000000000E+00  0.45593999997E+02  0.45594000000E+02  0.51100000000E-03 0.  1.
         11   -1    0    0    0    0 -0.00000000000E+00 -0.00000000000E+00 -0.45593999997E+02  0.45594000000E+02  0.51100000000E-03 0. -1.
    9900012    2    1    2    0    0 -0.18537155920E+02  0.32907911267E+02 -0.21379107451E+02  0.47787274097E+02  0.20000013916E+02 0.  0.
        -12    1    1    2    0    0  0.18537155920E+02 -0.32907911267E+02  0.21379107451E+02  0.43400725903E+02  0.00000000000E+00 0.  1.
         11    1    3    3    0    0 -0.76445998787E+01  0.15448924266E+02 -0.62039012118E+01  0.18319322007E+02  0.51100000000E-03 0. -1.
        -11    1    3    3    0    0 -0.75719406558E+00  0.35788290434E+00  0.26428179619E+01  0.27723473930E+01  0.51100000000E-03 0.  1.
        -12    1    3    3    0    0 -0.10135361976E+02  0.17101104097E+02 -0.17818024201E+02  0.26695604697E+02  0.00000000000E+00 0.  1.
</event>
<event>
 7    1  0.2811980E-010  0.4778727E+02  0.7816164E-02  0.1312668E+00
        -11   -1    0    0    0    0  0.00000000000E+00  0.00000000000E+00  0.45593999997E+02  0.45594000000E+02  0.51100000000E-03 0.  1.
         11   -1    0    0    0    0 -0.00000000000E+00 -0.00000000000E+00 -0.45593999997E+02  0.45594000000E+02  0.51100000000E-03 0. -1.
    9900012    2    1    2    0    0 -0.17913485364E+01  0.37327367193E+01 -0.43202787056E+02  0.47787273481E+02  0.20000011108E+02 0.  0.
        -12    1    1    2    0    0  0.17913485364E+01 -0.37327367193E+01  0.43202787056E+02  0.43400726519E+02  0.00000000000E+00 0.  1.
         11    1    3    3    0    0 -0.50653126624E+01  0.21067383684E+01 -0.86610317456E+01  0.10252278287E+02  0.51100000000E-03 0. -1.
        -11    1    3    3    0    0  0.24969553241E+01  0.71368141188E+01 -0.27711452028E+02  0.28724440385E+02  0.51100000000E-03 0.  1.
        -12    1    3    3    0    0  0.77700880187E+00 -0.55108157680E+01 -0.68303032823E+01  0.88105548086E+01  0.00000000000E+00 0.  1.
</event>
<event>
 7    1  0.2811980E-010  0.4778727E+02  0.7816164E-02  0.1312668E+00
        -11   -1    0    0    0    0  0.00000000000E+00  0.00000000000E+00  0.45593999997E+02  0.45594000000E+02  0.51100000000E-03 0.  1.
         11   -1    0    0    0    0 -0.00000000000E+00 -0.00000000000E+00 -0.45593999997E+02  0.45594000000E+02  0.51100000000E-03 0. -1.
    9900012    2    1    2    0    0 -0.25953160617E+02  0.34279782747E+02  0.59121427871E+01  0.47787268629E+02  0.19999988988E+02 0.  0.
        -12    1    1    2    0    0  0.25953160617E+02 -0.34279782747E+02 -0.59121427871E+01  0.43400731371E+02  0.00000000000E+00 0.  1.
         11    1    3    3    0    0 -0.86940857144E+01  0.91937344864E+01  0.10964480788E+02  0.16743109611E+02  0.51100000000E-03 0. -1.
        -11    1    3    3    0    0 -0.78891435374E+01  0.87004502881E+01 -0.23272040637E+01  0.11972982084E+02  0.51100000000E-03 0.  1.
        -12    1    3    3    0    0 -0.93699313656E+01  0.16385597972E+02 -0.27251339374E+01  0.19071176935E+02  0.00000000000E+00 0.  1.
</event>
<event>
 7    1  0.2811980E-010  0.4778727E+02  0.7816164E-02  0.1312668E+00
        -11   -1    0    0    0    0  0.00000000000E+00  0.00000000000E+00  0.45593999997E+02  0.45594000000E+02  0.51100000000E-03 0.  1.
         11   -1    0    0    0    0 -0.00000000000E+00 -0.00000000000E+00 -0.45593999997E+02  0.45594000000E+02  0.51100000000E-03 0. -1.
    9900012    2    1    2    0    0 -0.98056589317E+01  0.26201281868E+02 -0.33180801344E+02  0.47787266176E+02  0.19999977802E+02 0.  0.
        -12    1    1    2    0    0  0.98056589317E+01 -0.26201281868E+02  0.33180801344E+02  0.43400733824E+02  0.00000000000E+00 0.  1.
         11    1    3    3    0    0 -0.96517563211E+01  0.40415598407E+01 -0.85698415744E+01  0.13525264910E+02  0.51100000000E-03 0. -1.
        -11    1    3    3    0    0  0.15001579739E+01  0.34742210397E+01 -0.66317516444E+00  0.38419379666E+01  0.51100000000E-03 0.  1.
         12    1    3    3    0    0 -0.16540605845E+01  0.18685500988E+02 -0.23947784606E+02  0.30420063299E+02  0.00000000000E+00 0. -1.
</event>
<event>
 7    1  0.2811980E-010  0.4778726E+02  0.7816164E-02  0.1312668E+00
        -11   -1    0    0    0    0  0.00000000000E+00  0.00000000000E+00  0.45593999997E+02  0.45594000000E+02  0.51100000000E-03 0.  1.
         11   -1    0    0    0    0 -0.00000000000E+00 -0.00000000000E+00 -0.45593999997E+02  0.45594000000E+02  0.51100000000E-03 0. -1.
    9900012    2    1    2    0    0 -0.70227114484E+01 -0.25988333549E+00 -0.42828004669E+02  0.47787262686E+02  0.19999961892E+02 0.  0.
        -12    1    1    2    0    0  0.70227114484E+01  0.25988333549E+00  0.42828004669E+02  0.43400737314E+02  0.00000000000E+00 0.  1.
         11    1    3    3    0    0 -0.82678133489E+01  0.24572423499E+01 -0.37562084619E+02  0.38539654626E+02  0.51100000000E-03 0. -1.
        -11    1    3    3    0    0  0.40335990163E+01 -0.13353168161E+01 -0.18724286573E+01  0.46431650155E+01  0.51100000000E-03 0.  1.
        -12    1    3    3    0    0 -0.27884971158E+01 -0.13818088693E+01 -0.33934913929E+01  0.46044430445E+01  0.00000000000E+00 0.  1.
</event>
<event>
 7    1  0.2811980E-010  0.4778725E+02  0.7816164E-02  0.1312668E+00
        -11   -1    0    0    0    0  0.00000000000E+00  0.00000000000E+00  0.45593999997E+02  0.45594000000E+02  0.51100000000E-03 0. -1.
         11   -1    0    0    0    0 -0.00000000000E+00 -0.00000000000E+00 -0.45593999997E+02  0.45594000000E+02  0.51100000000E-03 0.  1.
    9900012    2    1    2    0    0 -0.29171302517E+02 -0.32095055933E+02  0.16023436636E+01  0.47787251031E+02  0.19999908750E+02 0.  0.
        -12    1    1    2    0    0  0.29171302517E+02  0.32095055933E+02 -0.16023436636E+01  0.43400748969E+02  0.00000000000E+00 0.  1.
         11    1    3    3    0    0 -0.28420325844E+02 -0.30823072038E+02  0.59154192550E+01  0.42341101499E+02  0.51100000000E-03 0. -1.
        -11    1    3    3    0    0  0.96963840564E+00  0.26967496511E+00 -0.11325283044E+01  0.15151052260E+01  0.51100000000E-03 0.  1.
         12    1    3    3    0    0 -0.17206150793E+01 -0.15416588596E+01 -0.31805472870E+01  0.39310443060E+01  0.00000000000E+00 0. -1.
</event>
<event>
 7    1  0.2811980E-010  0.4778727E+02  0.7816164E-02  0.1312668E+00
        -11   -1    0    0    0    0  0.00000000000E+00  0.00000000000E+00  0.45593999997E+02  0.45594000000E+02  0.51100000000E-03 0.  1.
         11   -1    0    0    0    0 -0.00000000000E+00 -0.00000000000E+00 -0.45593999997E+02  0.45594000000E+02  0.51100000000E-03 0. -1.
    9900012    2    1    2    0    0 -0.22489412851E+02 -0.28564006812E+02 -0.23705429762E+02  0.47787267567E+02  0.19999984144E+02 0.  0.
        -12    1    1    2    0    0  0.22489412851E+02  0.28564006812E+02  0.23705429762E+02  0.43400732433E+02  0.00000000000E+00 0.  1.
         11    1    3    3    0    0 -0.16527780686E+02 -0.11448069147E+02 -0.99386810575E+01  0.22427732900E+02  0.51100000000E-03 0. -1.
        -11    1    3    3    0    0  0.19387495706E+01 -0.34402710571E+01 -0.72871621551E+01  0.82883621651E+01  0.51100000000E-03 0.  1.
         12    1    3    3    0    0 -0.79003817355E+01 -0.13675666607E+02 -0.64795865498E+01  0.17071172502E+02  0.00000000000E+00 0. -1.
</event>
<event>
 7    1  0.2811980E-010  0.4778727E+02  0.7816164E-02  0.1312668E+00
        -11   -1    0    0    0    0  0.00000000000E+00  0.00000000000E+00  0.45593999997E+02  0.45594000000E+02  0.51100000000E-03 0.  1.
         11   -1    0    0    0    0 -0.00000000000E+00 -0.00000000000E+00 -0.45593999997E+02  0.45594000000E+02  0.51100000000E-03 0. -1.
    9900012    2    1    2    0    0 -0.28129998811E+02 -0.15698405429E+02 -0.29084122682E+02  0.47787274680E+02  0.20000016576E+02 0.  0.
        -12    1    1    2    0    0  0.28129998811E+02  0.15698405429E+02  0.29084122682E+02  0.43400725320E+02  0.00000000000E+00 0.  1.
         11    1    3    3    0    0 -0.67778139505E+01 -0.94608617517E+01 -0.14548094498E+02  0.18630451439E+02  0.51100000000E-03 0. -1.
        -11    1    3    3    0    0 -0.75186182331E+01  0.31519284776E+01 -0.24036575545E+01  0.84995201725E+01  0.51100000000E-03 0.  1.
        -12    1    3    3    0    0 -0.13833566627E+02 -0.93894721548E+01 -0.12132370629E+02  0.20657303069E+02  0.00000000000E+00 0.  1.
</event>
<event>
 7    1  0.2811980E-010  0.4778727E+02  0.7816164E-02  0.1312668E+00
        -11   -1    0    0    0    0  0.00000000000E+00  0.00000000000E+00  0.45593999997E+02  0.45594000000E+02  0.51100000000E-03 0.  1.
         11   -1    0    0    0    0 -0.00000000000E+00 -0.00000000000E+00 -0.45593999997E+02  0.45594000000E+02  0.51100000000E-03 0. -1.
    9900012    2    1    2    0    0  0.33096425927E+02 -0.24718207221E+02 -0.13313904578E+02  0.47787271521E+02  0.20000002174E+02 0.  0.
        -12    1    1    2    0    0 -0.33096425927E+02  0.24718207221E+02  0.13313904578E+02  0.43400728479E+02  0.00000000000E+00 0.  1.
         11    1    3    3    0    0 -0.18982328349E+00 -0.27396567560E+01 -0.52845510197E+01  0.59555211158E+01  0.51100000000E-03 0. -1.
        -11    1    3    3    0    0  0.86365954237E+01 -0.76545367036E+01  0.17906031670E+01  0.11678568946E+02  0.51100000000E-03 0.  1.
         12    1    3    3    0    0  0.24649653787E+02 -0.14324013762E+02 -0.98199567253E+01  0.30153181460E+02  0.00000000000E+00 0. -1.
</event>
<event>
 7    1  0.2811980E-010  0.4778727E+02  0.7816164E-02  0.1312668E+00
        -11   -1    0    0    0    0  0.00000000000E+00  0.00000000000E+00  0.45593999997E+02  0.45594000000E+02  0.51100000000E-03 0.  1.
         11   -1    0    0    0    0 -0.00000000000E+00 -0.00000000000E+00 -0.45593999997E+02  0.45594000000E+02  0.51100000000E-03 0. -1.
    9900012    2    1    2    0    0 -0.67096148785E+00  0.14811524506E+02 -0.40789604427E+02  0.47787271010E+02  0.19999999844E+02 0.  0.
        -12    1    1    2    0    0  0.67096148785E+00 -0.14811524506E+02  0.40789604427E+02  0.43400728990E+02  0.00000000000E+00 0.  1.
         11    1    3    3    0    0  0.43610230118E+00 -0.14161873050E+01 -0.98320383666E+01  0.99430755003E+01  0.51100000000E-03 0. -1.
        -11    1    3    3    0    0 -0.51534173112E+01  0.13484532932E+02 -0.29333045891E+02  0.32692780853E+02  0.51100000000E-03 0.  1.
        -12    1    3    3    0    0  0.40463535222E+01  0.27431788790E+01 -0.16245201693E+01  0.51514146570E+01  0.00000000000E+00 0.  1.
</event>
<event>
 7    1  0.2811980E-010  0.4778724E+02  0.7816164E-02  0.1312668E+00
        -11   -1    0    0    0    0  0.00000000000E+00  0.00000000000E+00  0.45593999997E+02  0.45594000000E+02  0.51100000000E-03 0. -1.
         11   -1    0    0    0    0 -0.00000000000E+00 -0.00000000000E+00 -0.45593999997E+02  0.45594000000E+02  0.51100000000E-03 0.  1.
    9900012    2    1    2    0    0  0.18016938068E+02 -0.45376788344E+01  0.39222764981E+02  0.47787241028E+02  0.19999863144E+02 0.  0.
        -12    1    1    2    0    0 -0.18016938068E+02  0.45376788344E+01 -0.39222764981E+02  0.43400758972E+02  0.00000000000E+00 0.  1.
         11    1    3    3    0    0  0.44530062786E+01 -0.56655233646E+01  0.12839253236E+02  0.14723241621E+02  0.51100000000E-03 0. -1.
        -11    1    3    3    0    0  0.13195707755E+02  0.57922818616E+01  0.15222546147E+02  0.20961945134E+02  0.51100000000E-03 0.  1.
        -12    1    3    3    0    0  0.36822403436E+00 -0.46644373314E+01  0.11160965599E+02  0.12102054274E+02  0.00000000000E+00 0.  1.
</event>
<event>
 7    1  0.2811980E-010  0.4778727E+02  0.7816164E-02  0.1312668E+00
        -11   -1    0    0    0    0  0.00000000000E+00  0.00000000000E+00  0.45593999997E+02  0.45594000000E+02  0.51100000000E-03 0. -1.
         11   -1    0    0    0    0 -0.00000000000E+00 -0.00000000000E+00 -0.45593999997E+02  0.45594000000E+02  0.51100000000E-03 0.  1.
    9900012    2    1    2    0    0 -0.17378971567E+02 -0.28310164025E+02  0.27930788940E+02  0.47787274077E+02  0.20000013825E+02 0.  0.
        -12    1    1    2    0    0  0.17378971567E+02  0.28310164025E+02 -0.27930788940E+02  0.43400725923E+02  0.00000000000E+00 0.  1.
         11    1    3    3    0    0 -0.76359057391E+01 -0.22939186041E+02  0.21762193713E+02  0.32528547280E+02  0.51100000000E-03 0. -1.
        -11    1    3    3    0    0 -0.88755468259E+01 -0.65293088560E+01  0.24768278455E+01  0.11293444206E+02  0.51100000000E-03 0.  1.
         12    1    3    3    0    0 -0.86751900196E+00  0.11583308718E+01  0.36917673812E+01  0.39652825907E+01  0.00000000000E+00 0. -1.
</event>
<event>
 7    1  0.2811980E-010  0.4778728E+02  0.7816164E-02  0.1312668E+00
        -11   -1    0    0    0    0  0.00000000000E+00  0.00000000000E+00  0.45593999997E+02  0.45594000000E+02  0.51100000000E-03 0.  1.
         11   -1    0    0    0    0 -0.00000000000E+00 -0.00000000000E+00 -0.45593999997E+02  0.45594000000E+02  0.51100000000E-03 0. -1.
    9900012    2    1    2    0    0 -0.10449441591E+02  0.92123319107E+01 -0.41104316566E+02  0.47787277320E+02  0.20000028612E+02 0.  0.
        -12    1    1    2    0    0  0.10449441591E+02 -0.92123319107E+01  0.41104316566E+02  0.43400722680E+02  0.00000000000E+00 0.  1.
         11    1    3    3    0    0  0.53983218530E+01  0.11606738400E+01 -0.88637587084E+01  0.10442952710E+02  0.51100000000E-03 0. -1.
        -11    1    3    3    0    0 -0.72069069457E+01  0.63773534795E+01 -0.12889824407E+02  0.16085947863E+02  0.51100000000E-03 0.  1.
         12    1    3    3    0    0 -0.86408564979E+01  0.16743045912E+01 -0.19350733450E+02  0.21258376748E+02  0.00000000000E+00 0. -1.
</event>
<event>
 7    1  0.2811980E-010  0.4778727E+02  0.7816164E-02  0.1312668E+00
        -11   -1    0    0    0    0  0.00000000000E+00  0.00000000000E+00  0.45593999997E+02  0.45594000000E+02  0.51100000000E-03 0.  1.
         11   -1    0    0    0    0 -0.00000000000E+00 -0.00000000000E+00 -0.45593999997E+02  0.45594000000E+02  0.51100000000E-03 0. -1.
    9900012    2    1    2    0    0 -0.45007193068E+01  0.61125925773E+01 -0.42731760689E+02  0.47787266897E+02  0.19999981090E+02 0.  0.
        -12    1    1    2    0    0  0.45007193068E+01 -0.61125925773E+01  0.42731760689E+02  0.43400733103E+02  0.00000000000E+00 0.  1.
         11    1    3    3    0    0  0.27746982285E+01 -0.61533796714E+00 -0.75585769108E+01  0.80752508475E+01  0.51100000000E-03 0. -1.
        -11    1    3    3    0    0  0.10972826491E+01  0.22295097084E+01 -0.27179347863E+02  0.27292704030E+02  0.51100000000E-03 0.  1.
        -12    1    3    3    0    0 -0.83727001844E+01  0.44984208361E+01 -0.79938359150E+01  0.12419312019E+02  0.00000000000E+00 0.  1.
</event>
<event>
 7    1  0.2811980E-010  0.4778727E+02  0.7816164E-02  0.1312668E+00
        -11   -1    0    0    0    0  0.00000000000E+00  0.00000000000E+00  0.45593999997E+02  0.45594000000E+02  0.51100000000E-03 0.  1.
         11   -1    0    0    0    0 -0.00000000000E+00 -0.00000000000E+00 -0.45593999997E+02  0.45594000000E+02  0.51100000000E-03 0. -1.
    9900012    2    1    2    0    0  0.26152982783E+01  0.14747486148E+02 -0.40734442548E+02  0.47787274863E+02  0.20000017409E+02 0.  0.
        -12    1    1    2    0    0 -0.26152982783E+01 -0.14747486148E+02  0.40734442548E+02  0.43400725137E+02  0.00000000000E+00 0.  1.
         11    1    3    3    0    0  0.10617790881E+01  0.70966286170E+01 -0.10982808133E+02  0.13119130585E+02  0.51100000000E-03 0. -1.
        -11    1    3    3    0    0  0.49178559451E+01  0.48799947777E+01 -0.29763576943E+01  0.75404483628E+01  0.51100000000E-03 0.  1.
        -12    1    3    3    0    0 -0.33643367549E+01  0.27708627533E+01 -0.26775276720E+02  0.27127695915E+02  0.00000000000E+00 0.  1.
</event>
<event>
 7    1  0.2811980E-010  0.4778727E+02  0.7816164E-02  0.1312668E+00
        -11   -1    0    0    0    0  0.00000000000E+00  0.00000000000E+00  0.45593999997E+02  0.45594000000E+02  0.51100000000E-03 0. -1.
         11   -1    0    0    0    0 -0.00000000000E+00 -0.00000000000E+00 -0.45593999997E+02  0.45594000000E+02  0.51100000000E-03 0.  1.
    9900012    2    1    2    0    0  0.13509745979E+02 -0.13511654209E+02  0.38968517489E+02  0.47787269693E+02  0.19999993840E+02 0.  0.
        -12    1    1    2    0    0 -0.13509745979E+02  0.13511654209E+02 -0.38968517489E+02  0.43400730307E+02  0.00000000000E+00 0.  1.
         11    1    3    3    0    0  0.81795600409E+01  0.21814098364E+01  0.78777610914E+01  0.11563860576E+02  0.51100000000E-03 0. -1.
        -11    1    3    3    0    0 -0.26402656780E+00 -0.78880270770E+01  0.81074672453E+01  0.11314667763E+02  0.51100000000E-03 0.  1.
         12    1    3    3    0    0  0.55942125057E+01 -0.78050369683E+01  0.22983289152E+02  0.24908741355E+02  0.00000000000E+00 0. -1.
</event>
<event>
 7    1  0.2811980E-010  0.4778727E+02  0.7816164E-02  0.1312668E+00
        -11   -1    0    0    0    0  0.00000000000E+00  0.00000000000E+00  0.45593999997E+02  0.45594000000E+02  0.51100000000E-03 0.  1.
         11   -1    0    0    0    0 -0.00000000000E+00 -0.00000000000E+00 -0.45593999997E+02  0.45594000000E+02  0.51100000000E-03 0. -1.
    9900012    2    1    2    0    0 -0.35374814049E+02 -0.25136510835E+02  0.63388018474E+00  0.47787269015E+02  0.19999990748E+02 0.  0.
        -12    1    1    2    0    0  0.35374814049E+02  0.25136510835E+02 -0.63388018474E+00  0.43400730985E+02  0.00000000000E+00 0.  1.
         11    1    3    3    0    0 -0.36467251183E+01 -0.18268923707E+01  0.11072546451E+00  0.40802451166E+01  0.51100000000E-03 0. -1.
        -11    1    3    3    0    0 -0.26529893856E+02 -0.18192869270E+02  0.81178029612E+01  0.33177017429E+02  0.51100000000E-03 0.  1.
        -12    1    3    3    0    0 -0.51981950740E+01 -0.51167491943E+01 -0.75946482410E+01  0.10530006470E+02  0.00000000000E+00 0.  1.
</event>
<event>
 7    1  0.2811980E-010  0.4778728E+02  0.7816164E-02  0.1312668E+00
        -11   -1    0    0    0    0  0.00000000000E+00  0.00000000000E+00  0.45593999997E+02  0.45594000000E+02  0.51100000000E-03 0.  1.
         11   -1    0    0    0    0 -0.00000000000E+00 -0.00000000000E+00 -0.45593999997E+02  0.45594000000E+02  0.51100000000E-03 0. -1.
    9900012    2    1    2    0    0 -0.34855341495E+02  0.25090049169E+02 -0.62623791127E+01  0.47787276617E+02  0.20000025406E+02 0.  0.
        -12    1    1    2    0    0  0.34855341495E+02 -0.25090049169E+02  0.62623791127E+01  0.43400723383E+02  0.00000000000E+00 0.  1.
         11    1    3    3    0    0 -0.15769154810E+02  0.63246624222E+01  0.13642721915E+01  0.17044906484E+02  0.51100000000E-03 0. -1.
        -11    1    3    3    0    0  0.18641635386E+01  0.16766397643E+01 -0.17979178622E+01  0.30852448036E+01  0.51100000000E-03 0.  1.
        -12    1    3    3    0    0 -0.20950350224E+02  0.17088746982E+02 -0.58287334419E+01  0.27657125329E+02  0.00000000000E+00 0.  1.
</event>
<event>
 7    1  0.2811980E-010  0.4778727E+02  0.7816164E-02  0.1312668E+00
        -11   -1    0    0    0    0  0.00000000000E+00  0.00000000000E+00  0.45593999997E+02  0.45594000000E+02  0.51100000000E-03 0.  1.
         11   -1    0    0    0    0 -0.00000000000E+00 -0.00000000000E+00 -0.45593999997E+02  0.45594000000E+02  0.51100000000E-03 0. -1.
    9900012    2    1    2    0    0  0.39273362687E+02 -0.10828597211E+02 -0.14965547588E+02  0.47787272484E+02  0.20000006562E+02 0.  0.
        -12    1    1    2    0    0 -0.39273362687E+02  0.10828597211E+02  0.14965547588E+02  0.43400727516E+02  0.00000000000E+00 0.  1.
         11    1    3    3    0    0  0.27967349768E+02 -0.13931161951E+02 -0.82159058340E+01  0.32307135981E+02  0.51100000000E-03 0. -1.
        -11    1    3    3    0    0  0.11898634977E+02  0.42072306118E+01 -0.57127812051E+01  0.13853309103E+02  0.51100000000E-03 0.  1.
        -12    1    3    3    0    0 -0.59262205793E+00 -0.11046658714E+01 -0.10368605487E+01  0.16268273997E+01  0.00000000000E+00 0.  1.
</event>
<event>
 7    1  0.2811980E-010  0.4778726E+02  0.7816164E-02  0.1312668E+00
        -11   -1    0    0    0    0  0.00000000000E+00  0.00000000000E+00  0.45593999997E+02  0.45594000000E+02  0.51100000000E-03 0.  1.
         11   -1    0    0    0    0 -0.00000000000E+00 -0.00000000000E+00 -0.45593999997E+02  0.45594000000E+02  0.51100000000E-03 0. -1.
    9900012    2    1    2    0    0  0.34765104425E+02 -0.11238970833E+02 -0.23424294293E+02  0.47787256755E+02  0.19999934850E+02 0.  0.
        -12    1    1    2    0    0 -0.34765104425E+02  0.11238970833E+02  0.23424294293E+02  0.43400743245E+02  0.00000000000E+00 0.  1.
         11    1    3    3    0    0  0.19369508716E+02  0.21613649933E+01 -0.10080055277E+02  0.21942125722E+02  0.51100000000E-03 0. -1.
        -11    1    3    3    0    0  0.29902186041E+01  0.95266715014E+00 -0.23280003779E+01  0.39075015061E+01  0.51100000000E-03 0.  1.
         12    1    3    3    0    0  0.12405377105E+02 -0.14353002977E+02 -0.11016238638E+02  0.21937629527E+02  0.00000000000E+00 0. -1.
</event>
<event>
 7    1  0.2811980E-010  0.4778727E+02  0.7816164E-02  0.1312668E+00
        -11   -1    0    0    0    0  0.00000000000E+00  0.00000000000E+00  0.45593999997E+02  0.45594000000E+02  0.51100000000E-03 0. -1.
         11   -1    0    0    0    0 -0.00000000000E+00 -0.00000000000E+00 -0.45593999997E+02  0.45594000000E+02  0.51100000000E-03 0.  1.
    9900012    2    1    2    0    0 -0.29428501720E+02 -0.31893814847E+02  0.60926040240E+00  0.47787270315E+02  0.19999996673E+02 0.  0.
        -12    1    1    2    0    0  0.29428501720E+02  0.31893814847E+02 -0.60926040240E+00  0.43400729685E+02  0.00000000000E+00 0.  1.
         11    1    3    3    0    0 -0.16994942339E+02 -0.60028068062E+01  0.46429416139E+01  0.18612325533E+02  0.51100000000E-03 0. -1.
        -11    1    3    3    0    0 -0.57448467410E+01 -0.15369643599E+02 -0.28166837759E+01  0.16648210600E+02  0.51100000000E-03 0.  1.
         12    1    3    3    0    0 -0.66887126398E+01 -0.10521364442E+02 -0.12169974357E+01  0.12526734182E+02  0.00000000000E+00 0. -1.
</event>
<event>
 7    1  0.2811980E-010  0.4778727E+02  0.7816164E-02  0.1312668E+00
        -11   -1    0    0    0    0  0.00000000000E+00  0.00000000000E+00  0.45593999997E+02  0.45594000000E+02  0.51100000000E-03 0.  1.
         11   -1    0    0    0    0 -0.00000000000E+00 -0.00000000000E+00 -0.45593999997E+02  0.45594000000E+02  0.51100000000E-03 0. -1.
    9900012    2    1    2    0    0 -0.15277869234E+02  0.11044961523E+02 -0.39092439147E+02  0.47787271183E+02  0.20000000630E+02 0.  0.
        -12    1    1    2    0    0  0.15277869234E+02 -0.11044961523E+02  0.39092439147E+02  0.43400728817E+02  0.00000000000E+00 0.  1.
         11    1    3    3    0    0 -0.43330652607E+00  0.55749981219E+01 -0.15359894914E+02  0.16346092213E+02  0.51100000000E-03 0. -1.
        -11    1    3    3    0    0 -0.12518930203E+02  0.67628856559E+01 -0.98491258142E+01  0.17305071956E+02  0.51100000000E-03 0.  1.
        -12    1    3    3    0    0 -0.23256325053E+01 -0.12929222549E+01 -0.13883418419E+02  0.14136107014E+02  0.00000000000E+00 0.  1.
</event>
<event>
 7    1  0.2811980E-010  0.4778727E+02  0.7816164E-02  0.1312668E+00
        -11   -1    0    0    0    0  0.00000000000E+00  0.00000000000E+00  0.45593999997E+02  0.45594000000E+02  0.51100000000E-03 0. -1.
         11   -1    0    0    0    0 -0.00000000000E+00 -0.00000000000E+00 -0.45593999997E+02  0.45594000000E+02  0.51100000000E-03 0.  1.
    9900012    2    1    2    0    0  0.34132446821E+02  0.15389340531E+02  0.21949196957E+02  0.47787274487E+02  0.20000015695E+02 0.  0.
        -12    1    1    2    0    0 -0.34132446821E+02 -0.15389340531E+02 -0.21949196957E+02  0.43400725513E+02  0.00000000000E+00 0.  1.
         11    1    3    3    0    0  0.12955645385E+02  0.80003137844E+01 -0.11370836251E+01  0.15269142983E+02  0.51100000000E-03 0. -1.
        -11    1    3    3    0    0  0.18250182069E+02  0.78898971294E+01  0.19332523677E+02  0.27732040932E+02  0.51100000000E-03 0.  1.
        -12    1    3    3    0    0  0.29266193672E+01 -0.50087038265E+00  0.37537569051E+01  0.47860905720E+01  0.00000000000E+00 0.  1.
</event>
<event>
 7    1  0.2811980E-010  0.4778729E+02  0.7816164E-02  0.1312668E+00
        -11   -1    0    0    0    0  0.00000000000E+00  0.00000000000E+00  0.45593999997E+02  0.45594000000E+02  0.51100000000E-03 0.  1.
         11   -1    0    0    0    0 -0.00000000000E+00 -0.00000000000E+00 -0.45593999997E+02  0.45594000000E+02  0.51100000000E-03 0. -1.
    9900012    2    1    2    0    0  0.10609962460E+01  0.36576889530E+02 -0.23337244283E+02  0.47787291118E+02  0.20000091523E+02 0.  0.
        -12    1    1    2    0    0 -0.10609962460E+01 -0.36576889530E+02  0.23337244283E+02  0.43400708882E+02  0.00000000000E+00 0.  1.
         11    1    3    3    0    0  0.39485335095E+01  0.15911392035E+02 -0.15417036321E+02  0.22504406736E+02  0.51100000000E-03 0. -1.
        -11    1    3    3    0    0 -0.20689050236E+01  0.48955734835E-01  0.15450235403E+01  0.25826077252E+01  0.51100000000E-03 0.  1.
        -12    1    3    3    0    0 -0.81863223979E+00  0.20616541760E+02 -0.94652315030E+01  0.22700276657E+02  0.00000000000E+00 0.  1.
</event>
<event>
 7    1  0.2811980E-010  0.4778727E+02  0.7816164E-02  0.1312668E+00
        -11   -1    0    0    0    0  0.00000000000E+00  0.00000000000E+00  0.45593999997E+02  0.45594000000E+02  0.51100000000E-03 0. -1.
         11   -1    0    0    0    0 -0.00000000000E+00 -0.00000000000E+00 -0.45593999997E+02  0.45594000000E+02  0.51100000000E-03 0.  1.
    9900012    2    1    2    0    0 -0.81482807596E+00 -0.39509790657E+02  0.17942568720E+02  0.47787271033E+02  0.19999999950E+02 0.  0.
        -12    1    1    2    0    0  0.81482807596E+00  0.39509790657E+02 -0.17942568720E+02  0.43400728967E+02  0.00000000000E+00 0.  1.
         11    1    3    3    0    0  0.24278765758E+01 -0.29535370864E+02  0.78128415370E+01  0.30647564502E+02  0.51100000000E-03 0. -1.
        -11    1    3    3    0    0 -0.35518013231E+01 -0.62257110984E+01  0.96395776428E+00  0.72321494836E+01  0.51100000000E-03 0.  1.
         12    1    3    3    0    0  0.30909667139E+00 -0.37487086944E+01  0.91657694183E+01  0.99075570479E+01  0.00000000000E+00 0. -1.
</event>
<event>
 7    1  0.2811980E-010  0.4778727E+02  0.7816164E-02  0.1312668E+00
        -11   -1    0    0    0    0  0.00000000000E+00  0.00000000000E+00  0.45593999997E+02  0.45594000000E+02  0.51100000000E-03 0.  1.
         11   -1    0    0    0    0 -0.00000000000E+00 -0.00000000000E+00 -0.45593999997E+02  0.45594000000E+02  0.51100000000E-03 0. -1.
    9900012    2    1    2    0    0  0.46956801773E+01 -0.25556490363E+02 -0.34762622308E+02  0.47787268189E+02  0.19999986981E+02 0.  0.
        -12    1    1    2    0    0 -0.46956801773E+01  0.25556490363E+02  0.34762622308E+02  0.43400731811E+02  0.00000000000E+00 0.  1.
         11    1    3    3    0    0  0.38562472308E+01 -0.23997004875E+00 -0.98343230798E+01  0.10566084375E+02  0.51100000000E-03 0. -1.
        -11    1    3    3    0    0 -0.34979777226E+01 -0.10748568487E+02 -0.55489936892E+01  0.12592017467E+02  0.51100000000E-03 0.  1.
         12    1    3    3    0    0  0.43374106692E+01 -0.14567951828E+02 -0.19379305539E+02  0.24629166347E+02  0.00000000000E+00 0. -1.
</event>
<event>
 7    1  0.2811980E-010  0.4778727E+02  0.7816164E-02  0.1312668E+00
        -11   -1    0    0    0    0  0.00000000000E+00  0.00000000000E+00  0.45593999997E+02  0.45594000000E+02  0.51100000000E-03 0. -1.
         11   -1    0    0    0    0 -0.00000000000E+00 -0.00000000000E+00 -0.45593999997E+02  0.45594000000E+02  0.51100000000E-03 0.  1.
    9900012    2    1    2    0    0  0.58530395052E+01  0.41020512018E+02  0.12910565673E+02  0.47787272084E+02  0.20000004739E+02 0.  0.
        -12    1    1    2    0    0 -0.58530395052E+01 -0.41020512018E+02 -0.12910565673E+02  0.43400727916E+02  0.00000000000E+00 0.  1.
         11    1    3    3    0    0  0.26878363797E+01  0.21909345049E+02  0.31816684267E+00  0.22075893986E+02  0.51100000000E-03 0. -1.
        -11    1    3    3    0    0 -0.61619072676E+00  0.13817173575E+02  0.13273839249E+02  0.19169997008E+02  0.51100000000E-03 0.  1.
        -12    1    3    3    0    0  0.37813938523E+01  0.52939933939E+01 -0.68144041855E+00  0.65413810900E+01  0.00000000000E+00 0.  1.
</event>
<event>
 7    1  0.2811980E-010  0.4778727E+02  0.7816164E-02  0.1312668E+00
        -11   -1    0    0    0    0  0.00000000000E+00  0.00000000000E+00  0.45593999997E+02  0.45594000000E+02  0.51100000000E-03 0.  1.
         11   -1    0    0    0    0 -0.00000000000E+00 -0.00000000000E+00 -0.45593999997E+02  0.45594000000E+02  0.51100000000E-03 0. -1.
    9900012    2    1    2    0    0 -0.34074763559E+01  0.41805012470E+02  0.11151378808E+02  0.47787271756E+02  0.20000003246E+02 0.  0.
        -12    1    1    2    0    0  0.34074763559E+01 -0.41805012470E+02 -0.11151378808E+02  0.43400728244E+02  0.00000000000E+00 0.  1.
         11    1    3    3    0    0 -0.88193765018E+01  0.20606198480E+02  0.10142933537E+02  0.24602355958E+02  0.51100000000E-03 0.  1.
        -11    1    3    3    0    0  0.25813274238E+01  0.17524586950E+02 -0.17312486643E+01  0.17798079144E+02  0.51100000000E-03 0. -1.
         12    1    3    3    0    0  0.28305727220E+01  0.36742270404E+01  0.27396939360E+01  0.53868366545E+01  0.00000000000E+00 0. -1.
</event>
<event>
 7    1  0.2811980E-010  0.4778727E+02  0.7816164E-02  0.1312668E+00
        -11   -1    0    0    0    0  0.00000000000E+00  0.00000000000E+00  0.45593999997E+02  0.45594000000E+02  0.51100000000E-03 0. -1.
         11   -1    0    0    0    0 -0.00000000000E+00 -0.00000000000E+00 -0.45593999997E+02  0.45594000000E+02  0.51100000000E-03 0.  1.
    9900012    2    1    2    0    0  0.13219123924E+02 -0.37861109281E+02 -0.16595616622E+02  0.47787270463E+02  0.19999997348E+02 0.  0.
        -12    1    1    2    0    0 -0.13219123924E+02  0.37861109281E+02  0.16595616622E+02  0.43400729537E+02  0.00000000000E+00 0.  1.
         11    1    3    3    0    0  0.91578523581E+01 -0.46037129777E+01 -0.10496863611E+01  0.10303507884E+02  0.51100000000E-03 0. -1.
        -11    1    3    3    0    0  0.30892975214E+00 -0.21759923044E+02 -0.77808856897E+01  0.23111293145E+02  0.51100000000E-03 0.  1.
         12    1    3    3    0    0  0.37523418137E+01 -0.11497473259E+02 -0.77650445711E+01  0.14372469434E+02  0.00000000000E+00 0. -1.
</event>
<event>
 7    1  0.2811980E-010  0.4778726E+02  0.7816164E-02  0.1312668E+00
        -11   -1    0    0    0    0  0.00000000000E+00  0.00000000000E+00  0.45593999997E+02  0.45594000000E+02  0.51100000000E-03 0. -1.
         11   -1    0    0    0    0 -0.00000000000E+00 -0.00000000000E+00 -0.45593999997E+02  0.45594000000E+02  0.51100000000E-03 0.  1.
    9900012    2    1    2    0    0  0.34159145111E+02 -0.26639579284E+02  0.26663955910E+01  0.47787262166E+02  0.19999959518E+02 0.  0.
        -12    1    1    2    0    0 -0.34159145111E+02  0.26639579284E+02 -0.26663955910E+01  0.43400737834E+02  0.00000000000E+00 0.  1.
         11    1    3    3    0    0  0.21821939249E+02 -0.85402327763E+01  0.44693071675E+01  0.23855970223E+02  0.51100000000E-03 0. -1.
        -11    1    3    3    0    0  0.13300356149E+02 -0.17313984057E+02 -0.11241631864E+00  0.21833143504E+02  0.51100000000E-03 0.  1.
         12    1    3    3    0    0 -0.96315028634E+00 -0.78536245097E+00 -0.16904952578E+01  0.20981484386E+01  0.00000000000E+00 0. -1.
</event>
<event>
 7    1  0.2811980E-010  0.4778727E+02  0.7816164E-02  0.1312668E+00
        -11   -1    0    0    0    0  0.00000000000E+00  0.00000000000E+00  0.45593999997E+02  0.45594000000E+02  0.51100000000E-03 0. -1.
         11   -1    0    0    0    0 -0.00000000000E+00 -0.00000000000E+00 -0.45593999997E+02  0.45594000000E+02  0.51100000000E-03 0.  1.
    9900012    2    1    2    0    0  0.28514143834E+02 -0.25509813405E+02  0.20489422425E+02  0.47787269478E+02  0.19999992856E+02 0.  0.
        -12    1    1    2    0    0 -0.28514143834E+02  0.25509813405E+02 -0.20489422425E+02  0.43400730522E+02  0.00000000000E+00 0.  1.
         11    1    3    3    0    0  0.19658339599E+02 -0.20819329170E+02  0.98265861522E+01  0.30273033851E+02  0.51100000000E-03 0. -1.
        -11    1    3    3    0    0  0.67489581114E-01  0.31211653431E+00 -0.15932086703E+01  0.16248955975E+01  0.51100000000E-03 0.  1.
         12    1    3    3    0    0  0.87883146541E+01 -0.50026007698E+01  0.12256044943E+02  0.15889340029E+02  0.00000000000E+00 0. -1.
</event>
<event>
 7    1  0.2811980E-010  0.4778727E+02  0.7816164E-02  0.1312668E+00
        -11   -1    0    0    0    0  0.00000000000E+00  0.00000000000E+00  0.45593999997E+02  0.45594000000E+02  0.51100000000E-03 0. -1.
         11   -1    0    0    0    0 -0.00000000000E+00 -0.00000000000E+00 -0.45593999997E+02  0.45594000000E+02  0.51100000000E-03 0.  1.
    9900012    2    1    2    0    0 -0.37415332746E+01  0.32529235069E+01  0.43116615693E+02  0.47787272686E+02  0.20000007485E+02 0.  0.
        -12    1    1    2    0    0  0.37415332746E+01 -0.32529235069E+01 -0.43116615693E+02  0.43400727314E+02  0.00000000000E+00 0.  1.
         11    1    3    3    0    0  0.33755586847E+01  0.66945082748E+01  0.19442980462E+02  0.20838433890E+02  0.51100000000E-03 0. -1.
        -11    1    3    3    0    0 -0.76909616362E+01  0.13525939085E+01  0.12012623096E+02  0.14327718418E+02  0.51100000000E-03 0.  1.
        -12    1    3    3    0    0  0.57386967689E+00 -0.47941786763E+01  0.11661012135E+02  0.12621120378E+02  0.00000000000E+00 0.  1.
</event>
<event>
 7    1  0.2811980E-010  0.4778726E+02  0.7816164E-02  0.1312668E+00
        -11   -1    0    0    0    0  0.00000000000E+00  0.00000000000E+00  0.45593999997E+02  0.45594000000E+02  0.51100000000E-03 0.  1.
         11   -1    0    0    0    0 -0.00000000000E+00 -0.00000000000E+00 -0.45593999997E+02  0.45594000000E+02  0.51100000000E-03 0. -1.
    9900012    2    1    2    0    0  0.18868755292E+02  0.36935481896E+02 -0.12781424595E+02  0.47787256183E+02  0.19999932243E+02 0.  0.
        -12    1    1    2    0    0 -0.18868755292E+02 -0.36935481896E+02  0.12781424595E+02  0.43400743817E+02  0.00000000000E+00 0.  1.
         11    1    3    3    0    0  0.19040318683E+01  0.85475420302E+01 -0.96588813277E+01  0.13037630186E+02  0.51100000000E-03 0.  1.
        -11    1    3    3    0    0  0.10910805088E+02  0.86481638782E+01 -0.20701499114E+01  0.14075579101E+02  0.51100000000E-03 0. -1.
        -12    1    3    3    0    0  0.60539183359E+01  0.19739775988E+02 -0.10523933555E+01  0.20674046896E+02  0.00000000000E+00 0.  1.
</event>
<event>
 7    1  0.2811980E-010  0.4778727E+02  0.7816164E-02  0.1312668E+00
        -11   -1    0    0    0    0  0.00000000000E+00  0.00000000000E+00  0.45593999997E+02  0.45594000000E+02  0.51100000000E-03 0.  1.
         11   -1    0    0    0    0 -0.00000000000E+00 -0.00000000000E+00 -0.45593999997E+02  0.45594000000E+02  0.51100000000E-03 0. -1.
    9900012    2    1    2    0    0  0.19442191611E+02  0.28672158620E+02  0.26144436805E+02  0.47787273388E+02  0.20000010685E+02 0.  0.
        -12    1    1    2    0    0 -0.19442191611E+02 -0.28672158620E+02 -0.26144436805E+02  0.43400726612E+02  0.00000000000E+00 0.  1.
         11    1    3    3    0    0  0.48606909211E+01  0.11148991107E+02  0.69263062935E+01  0.13996429475E+02  0.51100000000E-03 0. -1.
        -11    1    3    3    0    0  0.10638808017E+02  0.98782272130E+01  0.21477307942E+01  0.14675706345E+02  0.51100000000E-03 0.  1.
        -12    1    3    3    0    0  0.39426926728E+01  0.76449403004E+01  0.17070399718E+02  0.19115137568E+02  0.00000000000E+00 0.  1.
</event>
<event>
 7    1  0.2811980E-010  0.4778730E+02  0.7816164E-02  0.1312668E+00
        -11   -1    0    0    0    0  0.00000000000E+00  0.00000000000E+00  0.45593999997E+02  0.45594000000E+02  0.51100000000E-03 0.  1.
         11   -1    0    0    0    0 -0.00000000000E+00 -0.00000000000E+00 -0.45593999997E+02  0.45594000000E+02  0.51100000000E-03 0. -1.
    9900012    2    1    2    0    0  0.78512820978E+00  0.15978137325E+02 -0.40344802211E+02  0.47787304566E+02  0.20000152839E+02 0.  0.
        -12    1    1    2    0    0 -0.78512820978E+00 -0.15978137325E+02  0.40344802211E+02  0.43400695434E+02  0.00000000000E+00 0.  1.
         11    1    3    3    0    0 -0.14253115724E+01  0.60999198055E+01 -0.25557671116E+01  0.67655362317E+01  0.51100000000E-03 0.  1.
        -11    1    3    3    0    0 -0.35678464228E+01  0.11545129193E+01 -0.20283821715E+02  0.20627550795E+02  0.51100000000E-03 0. -1.
        -12    1    3    3    0    0  0.57782862050E+01  0.87237045999E+01 -0.17505213385E+02  0.20394217540E+02  0.00000000000E+00 0.  1.
</event>
<event>
 7    1  0.2811980E-010  0.4778732E+02  0.7816164E-02  0.1312668E+00
        -11   -1    0    0    0    0  0.00000000000E+00  0.00000000000E+00  0.45593999997E+02  0.45594000000E+02  0.51100000000E-03 0.  1.
         11   -1    0    0    0    0 -0.00000000000E+00 -0.00000000000E+00 -0.45593999997E+02  0.45594000000E+02  0.51100000000E-03 0. -1.
    9900012    2    1    2    0    0 -0.33960429739E+02 -0.26915201431E+02 -0.24248496218E+01  0.47787323141E+02  0.20000237528E+02 0.  0.
        -12    1    1    2    0    0  0.33960429739E+02  0.26915201431E+02  0.24248496218E+01  0.43400676859E+02  0.00000000000E+00 0.  1.
         11    1    3    3    0    0 -0.10076444322E+02 -0.23434308921E+01  0.45893067425E+01  0.11317602889E+02  0.51100000000E-03 0. -1.
        -11    1    3    3    0    0 -0.10261676024E+02 -0.13878130123E+02 -0.82043785822E+01  0.19110633655E+02  0.51100000000E-03 0.  1.
         12    1    3    3    0    0 -0.13622309393E+02 -0.10693640417E+02  0.11902222178E+01  0.17359086597E+02  0.00000000000E+00 0. -1.
</event>
<event>
 7    1  0.2811980E-010  0.4778727E+02  0.7816164E-02  0.1312668E+00
        -11   -1    0    0    0    0  0.00000000000E+00  0.00000000000E+00  0.45593999997E+02  0.45594000000E+02  0.51100000000E-03 0.  1.
         11   -1    0    0    0    0 -0.00000000000E+00 -0.00000000000E+00 -0.45593999997E+02  0.45594000000E+02  0.51100000000E-03 0. -1.
    9900012    2    1    2    0    0  0.28345217997E+02  0.32647261739E+02 -0.37852590164E+01  0.47787271110E+02  0.20000000298E+02 0.  0.
        -12    1    1    2    0    0 -0.28345217997E+02 -0.32647261739E+02  0.37852590164E+01  0.43400728890E+02  0.00000000000E+00 0.  1.
         11    1    3    3    0    0  0.16139251742E+02  0.54414387939E+01 -0.39609494769E+01  0.17486389678E+02  0.51100000000E-03 0. -1.
        -11    1    3    3    0    0  0.85606527074E+00  0.12150987578E+01 -0.11946204564E+01  0.19069428505E+01  0.51100000000E-03 0.  1.
         12    1    3    3    0    0  0.11349900984E+02  0.25990724188E+02  0.13703109169E+01  0.28393938581E+02  0.00000000000E+00 0. -1.
</event>
<event>
 7    1  0.2811980E-010  0.4778727E+02  0.7816164E-02  0.1312668E+00
        -11   -1    0    0    0    0  0.00000000000E+00  0.00000000000E+00  0.45593999997E+02  0.45594000000E+02  0.51100000000E-03 0.  1.
         11   -1    0    0    0    0 -0.00000000000E+00 -0.00000000000E+00 -0.45593999997E+02  0.45594000000E+02  0.51100000000E-03 0. -1.
    9900012    2    1    2    0    0  0.18932449197E+02 -0.51672247217E+00 -0.39050207738E+02  0.47787270063E+02  0.19999995526E+02 0.  0.
        -12    1    1    2    0    0 -0.18932449197E+02  0.51672247217E+00  0.39050207738E+02  0.43400729937E+02  0.00000000000E+00 0.  1.
         11    1    3    3    0    0  0.37538507553E+01 -0.37809757036E+00 -0.10174955930E+02  0.10851916038E+02  0.51100000000E-03 0. -1.
        -11    1    3    3    0    0  0.18294411630E+02  0.12861418948E+00 -0.28384921168E+02  0.33769894707E+02  0.51100000000E-03 0.  1.
        -12    1    3    3    0    0 -0.31158131890E+01 -0.26723909129E+00 -0.49033063985E+00  0.31654593185E+01  0.00000000000E+00 0.  1.
</event>
<event>
 7    1  0.2811980E-010  0.4778727E+02  0.7816164E-02  0.1312668E+00
        -11   -1    0    0    0    0  0.00000000000E+00  0.00000000000E+00  0.45593999997E+02  0.45594000000E+02  0.51100000000E-03 0. -1.
         11   -1    0    0    0    0 -0.00000000000E+00 -0.00000000000E+00 -0.45593999997E+02  0.45594000000E+02  0.51100000000E-03 0.  1.
    9900012    2    1    2    0    0 -0.32187641782E+02  0.28218520281E+02 -0.71619898581E+01  0.47787271100E+02  0.20000000252E+02 0.  0.
        -12    1    1    2    0    0  0.32187641782E+02 -0.28218520281E+02  0.71619898581E+01  0.43400728900E+02  0.00000000000E+00 0.  1.
         11    1    3    3    0    0 -0.15022145284E+02  0.90732036495E+01 -0.35308514751E+00  0.17553134842E+02  0.51100000000E-03 0. -1.
        -11    1    3    3    0    0 -0.70057519252E+01  0.16340808221E+02 -0.17440264126E+00  0.17780129075E+02  0.51100000000E-03 0.  1.
        -12    1    3    3    0    0 -0.10159744573E+02  0.28045084099E+01 -0.66345020693E+01  0.12454007183E+02  0.00000000000E+00 0.  1.
</event>
<event>
 7    1  0.2811980E-010  0.4778727E+02  0.7816164E-02  0.1312668E+00
        -11   -1    0    0    0    0  0.00000000000E+00  0.00000000000E+00  0.45593999997E+02  0.45594000000E+02  0.51100000000E-03 0.  1.
         11   -1    0    0    0    0 -0.00000000000E+00 -0.00000000000E+00 -0.45593999997E+02  0.45594000000E+02  0.51100000000E-03 0. -1.
    9900012    2    1    2    0    0  0.28284851408E+02  0.32328781364E+02  0.62000187399E+01  0.47787272403E+02  0.20000006192E+02 0.  0.
        -12    1    1    2    0    0 -0.28284851408E+02 -0.32328781364E+02 -0.62000187399E+01  0.43400727597E+02  0.00000000000E+00 0.  1.
         11    1    3    3    0    0  0.99024902280E+01  0.10647115123E+02 -0.14482902111E+01  0.14612252323E+02  0.51100000000E-03 0. -1.
        -11    1    3    3    0    0  0.26938864475E+01  0.31156534779E+01  0.78526502404E+01  0.88672677215E+01  0.51100000000E-03 0.  1.
        -12    1    3    3    0    0  0.15688474732E+02  0.18566012763E+02 -0.20434128935E+00  0.24307752358E+02  0.00000000000E+00 0.  1.
</event>
<event>
 7    1  0.2811980E-010  0.4778727E+02  0.7816164E-02  0.1312668E+00
        -11   -1    0    0    0    0  0.00000000000E+00  0.00000000000E+00  0.45593999997E+02  0.45594000000E+02  0.51100000000E-03 0.  1.
         11   -1    0    0    0    0 -0.00000000000E+00 -0.00000000000E+00 -0.45593999997E+02  0.45594000000E+02  0.51100000000E-03 0. -1.
    9900012    2    1    2    0    0  0.21917820736E+02 -0.22473576117E+02 -0.29969500745E+02  0.47787268852E+02  0.19999990002E+02 0.  0.
        -12    1    1    2    0    0 -0.21917820736E+02  0.22473576117E+02  0.29969500745E+02  0.43400731148E+02  0.00000000000E+00 0.  1.
         11    1    3    3    0    0  0.16460996914E+02 -0.13554282225E+02 -0.11426422013E+02  0.24191860332E+02  0.51100000000E-03 0. -1.
        -11    1    3    3    0    0 -0.28783938186E+01 -0.19203978098E+01 -0.27737841331E+01  0.44347443445E+01  0.51100000000E-03 0.  1.
        -12    1    3    3    0    0  0.83352176401E+01 -0.69988960822E+01 -0.15769294599E+02  0.19160664175E+02  0.00000000000E+00 0.  1.
</event>
<event>
 7    1  0.2811980E-010  0.4778727E+02  0.7816164E-02  0.1312668E+00
        -11   -1    0    0    0    0  0.00000000000E+00  0.00000000000E+00  0.45593999997E+02  0.45594000000E+02  0.51100000000E-03 0.  1.
         11   -1    0    0    0    0 -0.00000000000E+00 -0.00000000000E+00 -0.45593999997E+02  0.45594000000E+02  0.51100000000E-03 0. -1.
    9900012    2    1    2    0    0  0.22997506419E+02  0.12415658139E+01 -0.36785818998E+02  0.47787271129E+02  0.20000000385E+02 0.  0.
        -12    1    1    2    0    0 -0.22997506419E+02 -0.12415658139E+01  0.36785818998E+02  0.43400728871E+02  0.00000000000E+00 0.  1.
         11    1    3    3    0    0  0.12439643810E+02  0.78535516387E+01 -0.16597568685E+02  0.22178870530E+02  0.51100000000E-03 0. -1.
        -11    1    3    3    0    0  0.66968783508E+01 -0.33670903156E+01 -0.19002466614E+02  0.20427413310E+02  0.51100000000E-03 0.  1.
         12    1    3    3    0    0  0.38609842589E+01 -0.32448955092E+01 -0.11857836987E+01  0.51809872894E+01  0.00000000000E+00 0. -1.
</event>
<event>
 7    1  0.2811980E-010  0.4778727E+02  0.7816164E-02  0.1312668E+00
        -11   -1    0    0    0    0  0.00000000000E+00  0.00000000000E+00  0.45593999997E+02  0.45594000000E+02  0.51100000000E-03 0.  1.
         11   -1    0    0    0    0 -0.00000000000E+00 -0.00000000000E+00 -0.45593999997E+02  0.45594000000E+02  0.51100000000E-03 0. -1.
    9900012    2    1    2    0    0  0.21776184915E+01  0.11562338648E+02 -0.41775517413E+02  0.47787267836E+02  0.19999985370E+02 0.  0.
        -12    1    1    2    0    0 -0.21776184915E+01 -0.11562338648E+02  0.41775517413E+02  0.43400732164E+02  0.00000000000E+00 0.  1.
         11    1    3    3    0    0  0.54362195994E+01  0.19536451072E+01 -0.12775412164E+02  0.14020712142E+02  0.51100000000E-03 0. -1.
        -11    1    3    3    0    0 -0.78234177430E+01  0.41611586345E+01 -0.22312159429E+02  0.24007364808E+02  0.51100000000E-03 0.  1.
        -12    1    3    3    0    0  0.45648166351E+01  0.54475349064E+01 -0.66879458193E+01  0.97591908860E+01  0.00000000000E+00 0.  1.
</event>
<event>
 7    1  0.2811980E-010  0.4778727E+02  0.7816164E-02  0.1312668E+00
        -11   -1    0    0    0    0  0.00000000000E+00  0.00000000000E+00  0.45593999997E+02  0.45594000000E+02  0.51100000000E-03 0.  1.
         11   -1    0    0    0    0 -0.00000000000E+00 -0.00000000000E+00 -0.45593999997E+02  0.45594000000E+02  0.51100000000E-03 0. -1.
    9900012    2    1    2    0    0  0.30782301654E+01 -0.34681284919E+02 -0.25910545088E+02  0.47787269922E+02  0.19999994882E+02 0.  0.
        -12    1    1    2    0    0 -0.30782301654E+01  0.34681284919E+02  0.25910545088E+02  0.43400730078E+02  0.00000000000E+00 0.  1.
         11    1    3    3    0    0  0.86826885313E+01 -0.19521513235E+02 -0.10714970533E+02  0.23901655861E+02  0.51100000000E-03 0. -1.
        -11    1    3    3    0    0 -0.37017578074E+01 -0.11634647923E+02 -0.15655416093E+02  0.19853465604E+02  0.51100000000E-03 0.  1.
        -12    1    3    3    0    0 -0.19027005585E+01 -0.35251237601E+01  0.45984153813E+00  0.40321484571E+01  0.00000000000E+00 0.  1.
</event>
<event>
 7    1  0.2811980E-010  0.4778727E+02  0.7816164E-02  0.1312668E+00
        -11   -1    0    0    0    0  0.00000000000E+00  0.00000000000E+00  0.45593999997E+02  0.45594000000E+02  0.51100000000E-03 0. -1.
         11   -1    0    0    0    0 -0.00000000000E+00 -0.00000000000E+00 -0.45593999997E+02  0.45594000000E+02  0.51100000000E-03 0.  1.
    9900012    2    1    2    0    0 -0.27866268495E+02 -0.21864819668E+02  0.25080347398E+02  0.47787273226E+02  0.20000009945E+02 0.  0.
        -12    1    1    2    0    0  0.27866268495E+02  0.21864819668E+02 -0.25080347398E+02  0.43400726774E+02  0.00000000000E+00 0.  1.
         11    1    3    3    0    0 -0.20058218776E+02 -0.14434987932E+02  0.23832752856E+02  0.34332217028E+02  0.51100000000E-03 0. -1.
        -11    1    3    3    0    0 -0.69993961539E+01 -0.88824890125E+01 -0.10880063613E+00  0.11309376438E+02  0.51100000000E-03 0.  1.
         12    1    3    3    0    0 -0.80865356495E+00  0.14526572774E+01  0.13563951776E+01  0.21456797597E+01  0.00000000000E+00 0. -1.
</event>
<event>
 7    1  0.2811980E-010  0.4778727E+02  0.7816164E-02  0.1312668E+00
        -11   -1    0    0    0    0  0.00000000000E+00  0.00000000000E+00  0.45593999997E+02  0.45594000000E+02  0.51100000000E-03 0.  1.
         11   -1    0    0    0    0 -0.00000000000E+00 -0.00000000000E+00 -0.45593999997E+02  0.45594000000E+02  0.51100000000E-03 0. -1.
    9900012    2    1    2    0    0 -0.25458699128E+02 -0.21667396657E+02 -0.27676738530E+02  0.47787270803E+02  0.19999998899E+02 0.  0.
        -12    1    1    2    0    0  0.25458699128E+02  0.21667396657E+02  0.27676738530E+02  0.43400729197E+02  0.00000000000E+00 0.  1.
         11    1    3    3    0    0 -0.10793658329E+02 -0.29172729522E+01 -0.16171941205E+02  0.19660753398E+02  0.51100000000E-03 0. -1.
        -11    1    3    3    0    0 -0.14698933255E+02 -0.19754192361E+02 -0.11338970906E+02  0.27108283165E+02  0.51100000000E-03 0.  1.
         12    1    3    3    0    0  0.33892454781E-01  0.10040686569E+01 -0.16582641890E+00  0.10182342400E+01  0.00000000000E+00 0. -1.
</event>
<event>
 7    1  0.2811980E-010  0.4778727E+02  0.7816164E-02  0.1312668E+00
        -11   -1    0    0    0    0  0.00000000000E+00  0.00000000000E+00  0.45593999997E+02  0.45594000000E+02  0.51100000000E-03 0.  1.
         11   -1    0    0    0    0 -0.00000000000E+00 -0.00000000000E+00 -0.45593999997E+02  0.45594000000E+02  0.51100000000E-03 0. -1.
    9900012    2    1    2    0    0  0.18822296983E+02  0.94069352371E+01 -0.37958585204E+02  0.47787268613E+02  0.19999988913E+02 0.  0.
        -12    1    1    2    0    0 -0.18822296983E+02 -0.94069352371E+01  0.37958585204E+02  0.43400731387E+02  0.00000000000E+00 0.  1.
         11    1    3    3    0    0  0.10153132776E+01  0.13116144491E+01 -0.15709444921E+01  0.22845262907E+01  0.51100000000E-03 0. -1.
        -11    1    3    3    0    0 -0.15391865821E+00  0.72549482848E+01 -0.19612760945E+02  0.20912158131E+02  0.51100000000E-03 0.  1.
        -12    1    3    3    0    0  0.17960902363E+02  0.84037250325E+00 -0.16774879767E+02  0.24590584191E+02  0.00000000000E+00 0.  1.
</event>
<event>
 7    1  0.2811980E-010  0.4778727E+02  0.7816164E-02  0.1312668E+00
        -11   -1    0    0    0    0  0.00000000000E+00  0.00000000000E+00  0.45593999997E+02  0.45594000000E+02  0.51100000000E-03 0.  1.
         11   -1    0    0    0    0 -0.00000000000E+00 -0.00000000000E+00 -0.45593999997E+02  0.45594000000E+02  0.51100000000E-03 0. -1.
    9900012    2    1    2    0    0 -0.37479197731E+02  0.19972682340E+02 -0.89456749171E+01  0.47787269567E+02  0.19999993262E+02 0.  0.
        -12    1    1    2    0    0  0.37479197731E+02 -0.19972682340E+02  0.89456749171E+01  0.43400730433E+02  0.00000000000E+00 0.  1.
         11    1    3    3    0    0 -0.57712663862E+01  0.21682594334E+01 -0.89493608270E+00  0.62297492345E+01  0.51100000000E-03 0.  1.
        -11    1    3    3    0    0 -0.51755221110E+01  0.32087622757E+01 -0.94512103174E+01  0.11243111722E+02  0.51100000000E-03 0. -1.
        -12    1    3    3    0    0 -0.26532409234E+02  0.14595660631E+02  0.14004714830E+01  0.30314408610E+02  0.00000000000E+00 0.  1.
</event>
<event>
 7    1  0.2811980E-010  0.4778728E+02  0.7816164E-02  0.1312668E+00
        -11   -1    0    0    0    0  0.00000000000E+00  0.00000000000E+00  0.45593999997E+02  0.45594000000E+02  0.51100000000E-03 0. -1.
         11   -1    0    0    0    0 -0.00000000000E+00 -0.00000000000E+00 -0.45593999997E+02  0.45594000000E+02  0.51100000000E-03 0.  1.
    9900012    2    1    2    0    0  0.86185590969E+01  0.41463031691E+02  0.94952488005E+01  0.47787282175E+02  0.20000050749E+02 0.  0.
        -12    1    1    2    0    0 -0.86185590969E+01 -0.41463031691E+02 -0.94952488005E+01  0.43400717825E+02  0.00000000000E+00 0.  1.
         11    1    3    3    0    0 -0.25903561403E+01  0.15260802139E+02  0.95545153574E+01  0.18190403812E+02  0.51100000000E-03 0. -1.
        -11    1    3    3    0    0  0.85601566303E+01  0.25395814357E+02 -0.43153287435E+00  0.26803169388E+02  0.51100000000E-03 0.  1.
        -12    1    3    3    0    0  0.26487586069E+01  0.80641519494E+00  0.37226631748E+00  0.27937089747E+01  0.00000000000E+00 0.  1.
</event>
<event>
 7    1  0.2811980E-010  0.4778727E+02  0.7816164E-02  0.1312668E+00
        -11   -1    0    0    0    0  0.00000000000E+00  0.00000000000E+00  0.45593999997E+02  0.45594000000E+02  0.51100000000E-03 0.  1.
         11   -1    0    0    0    0 -0.00000000000E+00 -0.00000000000E+00 -0.45593999997E+02  0.45594000000E+02  0.51100000000E-03 0. -1.
    9900012    2    1    2    0    0 -0.24589235314E+02 -0.48066544254E+01 -0.35438523473E+02  0.47787269982E+02  0.19999995158E+02 0.  0.
        -12    1    1    2    0    0  0.24589235314E+02  0.48066544254E+01  0.35438523473E+02  0.43400730018E+02  0.00000000000E+00 0.  1.
         11    1    3    3    0    0 -0.48919708133E+01 -0.14023700730E+01 -0.28650054038E+01  0.58400579179E+01  0.51100000000E-03 0. -1.
        -11    1    3    3    0    0  0.15142189650E+01  0.94716384478E+00  0.96198528796E+00  0.20286434823E+01  0.51100000000E-03 0.  1.
        -12    1    3    3    0    0 -0.21211483465E+02 -0.43514481972E+01 -0.33535503358E+02  0.39918568582E+02  0.00000000000E+00 0.  1.
</event>
<event>
 7    1  0.2811980E-010  0.4778726E+02  0.7816164E-02  0.1312668E+00
        -11   -1    0    0    0    0  0.00000000000E+00  0.00000000000E+00  0.45593999997E+02  0.45594000000E+02  0.51100000000E-03 0.  1.
         11   -1    0    0    0    0 -0.00000000000E+00 -0.00000000000E+00 -0.45593999997E+02  0.45594000000E+02  0.51100000000E-03 0. -1.
    9900012    2    1    2    0    0  0.33773419004E+02  0.19809229077E+02  0.18723633041E+02  0.47787264729E+02  0.19999971205E+02 0.  0.
        -12    1    1    2    0    0 -0.33773419004E+02 -0.19809229077E+02 -0.18723633041E+02  0.43400735271E+02  0.00000000000E+00 0.  1.
         11    1    3    3    0    0  0.10258828485E+02  0.18089351593E+01  0.70218576994E+01  0.12562734340E+02  0.51100000000E-03 0. -1.
        -11    1    3    3    0    0  0.15703949420E+02  0.16197343890E+02  0.14402638728E+02  0.26765723959E+02  0.51100000000E-03 0.  1.
        -12    1    3    3    0    0  0.78106410986E+01  0.18029500273E+01 -0.27008633862E+01  0.84588064290E+01  0.00000000000E+00 0.  1.
</event>
<event>
 7    1  0.2811980E-010  0.4778727E+02  0.7816164E-02  0.1312668E+00
        -11   -1    0    0    0    0  0.00000000000E+00  0.00000000000E+00  0.45593999997E+02  0.45594000000E+02  0.51100000000E-03 0.  1.
         11   -1    0    0    0    0 -0.00000000000E+00 -0.00000000000E+00 -0.45593999997E+02  0.45594000000E+02  0.51100000000E-03 0. -1.
    9900012    2    1    2    0    0  0.29432470159E+02  0.31330691904E+02  0.59783660948E+01  0.47787269407E+02  0.19999992535E+02 0.  0.
        -12    1    1    2    0    0 -0.29432470159E+02 -0.31330691904E+02 -0.59783660948E+01  0.43400730593E+02  0.00000000000E+00 0.  1.
         11    1    3    3    0    0  0.23144907835E+02  0.20923540684E+02  0.89578836720E+01  0.32461130504E+02  0.51100000000E-03 0. -1.
        -11    1    3    3    0    0  0.36932757990E+01 -0.29877707287E+00 -0.21388298616E+01  0.42783346415E+01  0.51100000000E-03 0.  1.
         12    1    3    3    0    0  0.25942865250E+01  0.10705928292E+02 -0.84068771560E+00  0.11047804262E+02  0.00000000000E+00 0. -1.
</event>
<event>
 7    1  0.2811980E-010  0.4778727E+02  0.7816164E-02  0.1312668E+00
        -11   -1    0    0    0    0  0.00000000000E+00  0.00000000000E+00  0.45593999997E+02  0.45594000000E+02  0.51100000000E-03 0.  1.
         11   -1    0    0    0    0 -0.00000000000E+00 -0.00000000000E+00 -0.45593999997E+02  0.45594000000E+02  0.51100000000E-03 0. -1.
    9900012    2    1    2    0    0  0.39291235948E+02  0.63723166268E+01 -0.17297851732E+02  0.47787270558E+02  0.19999997782E+02 0.  0.
        -12    1    1    2    0    0 -0.39291235948E+02 -0.63723166268E+01  0.17297851732E+02  0.43400729442E+02  0.00000000000E+00 0.  1.
         11    1    3    3    0    0  0.38062802873E+01  0.61739092106E+01 -0.72210352099E+01  0.10234660440E+02  0.51100000000E-03 0. -1.
        -11    1    3    3    0    0  0.30373657044E+02  0.24574426057E+01 -0.74113602754E+01  0.31361223314E+02  0.51100000000E-03 0.  1.
         12    1    3    3    0    0  0.51112986173E+01 -0.22590351895E+01 -0.26654562470E+01  0.61913868032E+01  0.00000000000E+00 0. -1.
</event>
<event>
 7    1  0.2811980E-010  0.4778727E+02  0.7816164E-02  0.1312668E+00
        -11   -1    0    0    0    0  0.00000000000E+00  0.00000000000E+00  0.45593999997E+02  0.45594000000E+02  0.51100000000E-03 0.  1.
         11   -1    0    0    0    0 -0.00000000000E+00 -0.00000000000E+00 -0.45593999997E+02  0.45594000000E+02  0.51100000000E-03 0. -1.
    9900012    2    1    2    0    0  0.35961670184E+02  0.19321509878E+02 -0.14732982061E+02  0.47787271586E+02  0.20000002470E+02 0.  0.
        -12    1    1    2    0    0 -0.35961670184E+02 -0.19321509878E+02  0.14732982061E+02  0.43400728414E+02  0.00000000000E+00 0.  1.
         11    1    3    3    0    0  0.31986597873E+02  0.16681771666E+02 -0.15284702527E+02  0.39179664125E+02  0.51100000000E-03 0. -1.
        -11    1    3    3    0    0  0.41153280990E+01  0.93466299246E+00  0.33089588578E+01  0.53627165928E+01  0.51100000000E-03 0.  1.
         12    1    3    3    0    0 -0.14025578756E+00  0.17050752204E+01 -0.27572383923E+01  0.32448908680E+01  0.00000000000E+00 0. -1.
</event>
<event>
 7    1  0.2811980E-010  0.4778727E+02  0.7816164E-02  0.1312668E+00
        -11   -1    0    0    0    0  0.00000000000E+00  0.00000000000E+00  0.45593999997E+02  0.45594000000E+02  0.51100000000E-03 0.  1.
         11   -1    0    0    0    0 -0.00000000000E+00 -0.00000000000E+00 -0.45593999997E+02  0.45594000000E+02  0.51100000000E-03 0. -1.
    9900012    2    1    2    0    0 -0.41905442447E+02 -0.95824708271E+01 -0.59777357707E+01  0.47787272140E+02  0.20000004995E+02 0.  0.
        -12    1    1    2    0    0  0.41905442447E+02  0.95824708271E+01  0.59777357707E+01  0.43400727860E+02  0.00000000000E+00 0.  1.
         11    1    3    3    0    0 -0.25685395415E+02 -0.10870397298E+02 -0.10646011319E+01  0.27911260288E+02  0.51100000000E-03 0. -1.
        -11    1    3    3    0    0 -0.14577325472E+01  0.24761900785E+01 -0.41482218505E+01  0.50462110802E+01  0.51100000000E-03 0.  1.
        -12    1    3    3    0    0 -0.14762314485E+02 -0.11882636074E+01 -0.76491278833E+00  0.14829800771E+02  0.00000000000E+00 0.  1.
</event>
<event>
 7    1  0.1408380E-009  0.4778728E+02  0.7816164E-02  0.1312668E+00
        -11   -1    0    0    0    0  0.00000000000E+00  0.00000000000E+00  0.45593999997E+02  0.45594000000E+02  0.51100000000E-03 0.  1.
         11   -1    0    0    0    0 -0.00000000000E+00 -0.00000000000E+00 -0.45593999997E+02  0.45594000000E+02  0.51100000000E-03 0. -1.
    9900012    2    1    2    0    0  0.59473261450E+01 -0.16735666352E+02 -0.39600120767E+02  0.47787276720E+02  0.20000025876E+02 0.  0.
        -12    1    1    2    0    0 -0.59473261450E+01  0.16735666352E+02  0.39600120767E+02  0.43400723280E+02  0.00000000000E+00 0.  1.
         11    1    3    3    0    0  0.21567818718E+01 -0.16595187068E+01 -0.14484442858E+02  0.14737869437E+02  0.51100000000E-03 0. -1.
        -11    1    3    3    0    0 -0.39049616152E+01 -0.19425778179E+00 -0.17147364538E+01  0.42692836248E+01  0.51100000000E-03 0.  1.
        -12    1    3    3    0    0  0.76955058884E+01 -0.14881889863E+02 -0.23400941455E+02  0.28780123658E+02  0.00000000000E+00 0.  1.
</event>
<event>
 7    1  0.2811980E-010  0.4778727E+02  0.7816164E-02  0.1312668E+00
        -11   -1    0    0    0    0  0.00000000000E+00  0.00000000000E+00  0.45593999997E+02  0.45594000000E+02  0.51100000000E-03 0. -1.
         11   -1    0    0    0    0 -0.00000000000E+00 -0.00000000000E+00 -0.45593999997E+02  0.45594000000E+02  0.51100000000E-03 0.  1.
    9900012    2    1    2    0    0  0.20605973991E+02  0.27351583972E+02  0.26662859634E+02  0.47787269664E+02  0.19999993704E+02 0.  0.
        -12    1    1    2    0    0 -0.20605973991E+02 -0.27351583972E+02 -0.26662859634E+02  0.43400730336E+02  0.00000000000E+00 0.  1.
         11    1    3    3    0    0  0.92530756584E+01  0.44025283768E+01  0.10095491223E+02  0.14384735262E+02  0.51100000000E-03 0. -1.
        -11    1    3    3    0    0  0.10680028677E+02  0.19790518603E+02  0.73867515176E+01  0.23670482407E+02  0.51100000000E-03 0.  1.
        -12    1    3    3    0    0  0.67286965516E+00  0.31585369924E+01  0.91806168930E+01  0.97320519954E+01  0.00000000000E+00 0.  1.
</event>
<event>
 7    1  0.2811980E-010  0.4778727E+02  0.7816164E-02  0.1312668E+00
        -11   -1    0    0    0    0  0.00000000000E+00  0.00000000000E+00  0.45593999997E+02  0.45594000000E+02  0.51100000000E-03 0.  1.
         11   -1    0    0    0    0 -0.00000000000E+00 -0.00000000000E+00 -0.45593999997E+02  0.45594000000E+02  0.51100000000E-03 0. -1.
    9900012    2    1    2    0    0  0.14536616657E+02  0.49340701445E+01 -0.40595135378E+02  0.47787270877E+02  0.19999999239E+02 0.  0.
        -12    1    1    2    0    0 -0.14536616657E+02 -0.49340701445E+01  0.40595135378E+02  0.43400729123E+02  0.00000000000E+00 0.  1.
         11    1    3    3    0    0  0.65581470806E+01  0.11830552186E+01 -0.32713945953E+02  0.33385792979E+02  0.51100000000E-03 0. -1.
        -11    1    3    3    0    0  0.22985663036E+01  0.11444178436E+01  0.16150208359E+01  0.30333796028E+01  0.51100000000E-03 0.  1.
        -12    1    3    3    0    0  0.56799032727E+01  0.26065970822E+01 -0.94962102606E+01  0.11368098295E+02  0.00000000000E+00 0.  1.
</event>
<event>
 7    1  0.2811980E-010  0.4778728E+02  0.7816164E-02  0.1312668E+00
        -11   -1    0    0    0    0  0.00000000000E+00  0.00000000000E+00  0.45593999997E+02  0.45594000000E+02  0.51100000000E-03 0.  1.
         11   -1    0    0    0    0 -0.00000000000E+00 -0.00000000000E+00 -0.45593999997E+02  0.45594000000E+02  0.51100000000E-03 0. -1.
    9900012    2    1    2    0    0 -0.36227981447E+02  0.17626117121E+02  0.16139263419E+02  0.47787280327E+02  0.20000042321E+02 0.  0.
        -12    1    1    2    0    0  0.36227981447E+02 -0.17626117121E+02 -0.16139263419E+02  0.43400719673E+02  0.00000000000E+00 0.  1.
         11    1    3    3    0    0 -0.16907399036E+02  0.14665298516E+02  0.30553573547E+01  0.22589075492E+02  0.51100000000E-03 0. -1.
        -11    1    3    3    0    0  0.48770614733E+00 -0.52705624727E+00 -0.54588375055E+00  0.90201713075E+00  0.51100000000E-03 0.  1.
         12    1    3    3    0    0 -0.19808288557E+02  0.34878748520E+01  0.13629789815E+02  0.24296187704E+02  0.00000000000E+00 0. -1.
</event>
<event>
 7    1  0.2811980E-010  0.4778727E+02  0.7816164E-02  0.1312668E+00
        -11   -1    0    0    0    0  0.00000000000E+00  0.00000000000E+00  0.45593999997E+02  0.45594000000E+02  0.51100000000E-03 0. -1.
         11   -1    0    0    0    0 -0.00000000000E+00 -0.00000000000E+00 -0.45593999997E+02  0.45594000000E+02  0.51100000000E-03 0.  1.
    9900012    2    1    2    0    0 -0.12645036042E+01  0.41513641654E+02  0.12595312098E+02  0.47787270749E+02  0.19999998651E+02 0.  0.
        -12    1    1    2    0    0  0.12645036042E+01 -0.41513641654E+02 -0.12595312098E+02  0.43400729251E+02  0.00000000000E+00 0.  1.
         11    1    3    3    0    0 -0.18357660231E+01  0.92400983008E+01 -0.27207329216E+01  0.98057045331E+01  0.51100000000E-03 0.  1.
        -11    1    3    3    0    0  0.58918627909E+01  0.25333882749E+02  0.11285852150E+02  0.28352956129E+02  0.51100000000E-03 0. -1.
        -12    1    3    3    0    0 -0.53206003720E+01  0.69396606042E+01  0.40301928701E+01  0.96286100861E+01  0.00000000000E+00 0.  1.
</event>
<event>
 7    1  0.2811980E-010  0.4778727E+02  0.7816164E-02  0.1312668E+00
        -11   -1    0    0    0    0  0.00000000000E+00  0.00000000000E+00  0.45593999997E+02  0.45594000000E+02  0.51100000000E-03 0.  1.
         11   -1    0    0    0    0 -0.00000000000E+00 -0.00000000000E+00 -0.45593999997E+02  0.45594000000E+02  0.51100000000E-03 0. -1.
    9900012    2    1    2    0    0 -0.30306081938E+02 -0.28241649344E+02 -0.12945022828E+02  0.47787274475E+02  0.20000015640E+02 0.  0.
        -12    1    1    2    0    0  0.30306081938E+02  0.28241649344E+02  0.12945022828E+02  0.43400725525E+02  0.00000000000E+00 0.  1.
         11    1    3    3    0    0 -0.38465804399E+01 -0.27899181079E+01 -0.92571189900E+01  0.10405482996E+02  0.51100000000E-03 0. -1.
        -11    1    3    3    0    0 -0.75128179657E+00 -0.49747047811E+00  0.88548809535E+00  0.12633252323E+01  0.51100000000E-03 0.  1.
         12    1    3    3    0    0 -0.25708219702E+02 -0.24954260758E+02 -0.45733919331E+01  0.36118466246E+02  0.00000000000E+00 0. -1.
</event>
<event>
 7    1  0.2811980E-010  0.4778725E+02  0.7816164E-02  0.1312668E+00
        -11   -1    0    0    0    0  0.00000000000E+00  0.00000000000E+00  0.45593999997E+02  0.45594000000E+02  0.51100000000E-03 0. -1.
         11   -1    0    0    0    0 -0.00000000000E+00 -0.00000000000E+00 -0.45593999997E+02  0.45594000000E+02  0.51100000000E-03 0.  1.
    9900012    2    1    2    0    0  0.29423482701E+02  0.98534435479E+01  0.30344583969E+02  0.47787245856E+02  0.19999885156E+02 0.  0.
        -12    1    1    2    0    0 -0.29423482701E+02 -0.98534435479E+01 -0.30344583969E+02  0.43400754144E+02  0.00000000000E+00 0.  1.
         11    1    3    3    0    0  0.22277060731E+02  0.48759374446E+01  0.22937088707E+02  0.32344276764E+02  0.51100000000E-03 0. -1.
        -11    1    3    3    0    0  0.65091690691E+01 -0.13307286961E+01  0.59915617454E+01  0.89464480797E+01  0.51100000000E-03 0.  1.
         12    1    3    3    0    0  0.63725290085E+00  0.63082347994E+01  0.14159335172E+01  0.64965210127E+01  0.00000000000E+00 0. -1.
</event>
<event>
 7    1  0.2811980E-010  0.4778727E+02  0.7816164E-02  0.1312668E+00
        -11   -1    0    0    0    0  0.00000000000E+00  0.00000000000E+00  0.45593999997E+02  0.45594000000E+02  0.51100000000E-03 0. -1.
         11   -1    0    0    0    0 -0.00000000000E+00 -0.00000000000E+00 -0.45593999997E+02  0.45594000000E+02  0.51100000000E-03 0.  1.
    9900012    2    1    2    0    0 -0.19147993774E+02  0.10797627200E+02  0.37421766528E+02  0.47787273868E+02  0.20000012874E+02 0.  0.
        -12    1    1    2    0    0  0.19147993774E+02 -0.10797627200E+02 -0.37421766528E+02  0.43400726132E+02  0.00000000000E+00 0.  1.
         11    1    3    3    0    0 -0.15395308820E+02  0.28273176475E+01  0.16087153586E+02  0.22445618047E+02  0.51100000000E-03 0. -1.
        -11    1    3    3    0    0 -0.22633305839E+01  0.80238780474E+01  0.68767152808E+01  0.10807150298E+02  0.51100000000E-03 0.  1.
         12    1    3    3    0    0 -0.14893543697E+01 -0.53568494921E-01  0.14457897661E+02  0.14534505523E+02  0.00000000000E+00 0. -1.
</event>
<event>
 7    1  0.2811980E-010  0.4778727E+02  0.7816164E-02  0.1312668E+00
        -11   -1    0    0    0    0  0.00000000000E+00  0.00000000000E+00  0.45593999997E+02  0.45594000000E+02  0.51100000000E-03 0.  1.
         11   -1    0    0    0    0 -0.00000000000E+00 -0.00000000000E+00 -0.45593999997E+02  0.45594000000E+02  0.51100000000E-03 0. -1.
    9900012    2    1    2    0    0  0.90551536520E+01  0.19347222265E+02 -0.37779789763E+02  0.47787270380E+02  0.19999996969E+02 0.  0.
        -12    1    1    2    0    0 -0.90551536520E+01 -0.19347222265E+02  0.37779789763E+02  0.43400729620E+02  0.00000000000E+00 0.  1.
         11    1    3    3    0    0  0.10332389462E+02  0.21769953577E+02 -0.32233199284E+02  0.40245102647E+02  0.51100000000E-03 0. -1.
        -11    1    3    3    0    0  0.15161268810E+01 -0.29297606944E+00 -0.22205238314E+01  0.27046630185E+01  0.51100000000E-03 0.  1.
         12    1    3    3    0    0 -0.27933626909E+01 -0.21297552425E+01 -0.33260666482E+01  0.48375047146E+01  0.00000000000E+00 0. -1.
</event>
<event>
 7    1  0.2811980E-010  0.4778727E+02  0.7816164E-02  0.1312668E+00
        -11   -1    0    0    0    0  0.00000000000E+00  0.00000000000E+00  0.45593999997E+02  0.45594000000E+02  0.51100000000E-03 0. -1.
         11   -1    0    0    0    0 -0.00000000000E+00 -0.00000000000E+00 -0.45593999997E+02  0.45594000000E+02  0.51100000000E-03 0.  1.
    9900012    2    1    2    0    0 -0.16429533112E+02  0.11434243595E+02  0.38509118856E+02  0.47787265906E+02  0.19999976570E+02 0.  0.
        -12    1    1    2    0    0  0.16429533112E+02 -0.11434243595E+02 -0.38509118856E+02  0.43400734094E+02  0.00000000000E+00 0.  1.
         11    1    3    3    0    0 -0.63085758962E+00 -0.46806428291E+01  0.76603339984E+01  0.89992841837E+01  0.51100000000E-03 0. -1.
        -11    1    3    3    0    0 -0.60715758883E+01  0.68368793175E+01  0.74148431126E+01  0.11772291672E+02  0.51100000000E-03 0.  1.
         12    1    3    3    0    0 -0.97270996344E+01  0.92780071067E+01  0.23433941745E+02  0.27015690050E+02  0.00000000000E+00 0. -1.
</event>
<event>
 7    1  0.3140838E-010  0.4778729E+02  0.7816164E-02  0.1312668E+00
        -11   -1    0    0    0    0  0.00000000000E+00  0.00000000000E+00  0.45593999997E+02  0.45594000000E+02  0.51100000000E-03 0.  1.
         11   -1    0    0    0    0 -0.00000000000E+00 -0.00000000000E+00 -0.45593999997E+02  0.45594000000E+02  0.51100000000E-03 0. -1.
    9900012    2    1    2    0    0 -0.23526538354E+02  0.17926423045E+02 -0.31761094426E+02  0.47787288379E+02  0.20000079034E+02 0.  0.
        -12    1    1    2    0    0  0.23526538354E+02 -0.17926423045E+02  0.31761094426E+02  0.43400711621E+02  0.00000000000E+00 0.  1.
         11    1    3    3    0    0 -0.80716702693E+01  0.98896258057E+01 -0.18642590302E+02  0.22594307534E+02  0.51100000000E-03 0. -1.
        -11    1    3    3    0    0 -0.10024351892E+02 -0.14686996382E+01 -0.88174241202E+01  0.13430996905E+02  0.51100000000E-03 0.  1.
        -12    1    3    3    0    0 -0.54305161924E+01  0.95054968771E+01 -0.43010800037E+01  0.11761983940E+02  0.00000000000E+00 0.  1.
</event>
<event>
 7    1  0.2811980E-010  0.4778727E+02  0.7816164E-02  0.1312668E+00
        -11   -1    0    0    0    0  0.00000000000E+00  0.00000000000E+00  0.45593999997E+02  0.45594000000E+02  0.51100000000E-03 0. -1.
         11   -1    0    0    0    0 -0.00000000000E+00 -0.00000000000E+00 -0.45593999997E+02  0.45594000000E+02  0.51100000000E-03 0.  1.
    9900012    2    1    2    0    0 -0.91051648783E+01 -0.18048747821E+02  0.38405230338E+02  0.47787273708E+02  0.20000012146E+02 0.  0.
        -12    1    1    2    0    0  0.91051648783E+01  0.18048747821E+02 -0.38405230338E+02  0.43400726292E+02  0.00000000000E+00 0.  1.
         11    1    3    3    0    0 -0.12117074261E+01 -0.10888431187E+02  0.23575334349E+02  0.25996587440E+02  0.51100000000E-03 0. -1.
        -11    1    3    3    0    0 -0.69248045297E+01 -0.76487655301E+01  0.42556903739E+01  0.11160978126E+02  0.51100000000E-03 0.  1.
         12    1    3    3    0    0 -0.96865292252E+00  0.48844889617E+00  0.10574205614E+02  0.10629708142E+02  0.00000000000E+00 0. -1.
</event>
<event>
 7    1  0.2811980E-010  0.4778730E+02  0.7816164E-02  0.1312668E+00
        -11   -1    0    0    0    0  0.00000000000E+00  0.00000000000E+00  0.45593999997E+02  0.45594000000E+02  0.51100000000E-03 0.  1.
         11   -1    0    0    0    0 -0.00000000000E+00 -0.00000000000E+00 -0.45593999997E+02  0.45594000000E+02  0.51100000000E-03 0. -1.
    9900012    2    1    2    0    0  0.13098169363E+02  0.21979903826E+02 -0.35056276239E+02  0.47787300505E+02  0.20000134323E+02 0.  0.
        -12    1    1    2    0    0 -0.13098169363E+02 -0.21979903826E+02  0.35056276239E+02  0.43400699495E+02  0.00000000000E+00 0.  1.
         11    1    3    3    0    0  0.13257003602E+02  0.16307861584E+02 -0.34880027732E+02  0.40722362761E+02  0.51100000000E-03 0. -1.
        -11    1    3    3    0    0 -0.17417348969E+01  0.76404387124E+00 -0.15106218596E+00  0.19079369836E+01  0.51100000000E-03 0.  1.
         12    1    3    3    0    0  0.15829006578E+01  0.49079983704E+01 -0.25186321348E-01  0.51570007608E+01  0.00000000000E+00 0. -1.
</event>
<event>
 7    1  0.2811980E-010  0.4778727E+02  0.7816164E-02  0.1312668E+00
        -11   -1    0    0    0    0  0.00000000000E+00  0.00000000000E+00  0.45593999997E+02  0.45594000000E+02  0.51100000000E-03 0. -1.
         11   -1    0    0    0    0 -0.00000000000E+00 -0.00000000000E+00 -0.45593999997E+02  0.45594000000E+02  0.51100000000E-03 0.  1.
    9900012    2    1    2    0    0 -0.42272227351E+02 -0.46595622479E+01 -0.86585522790E+01  0.47787271284E+02  0.20000001091E+02 0.  0.
        -12    1    1    2    0    0  0.42272227351E+02  0.46595622479E+01  0.86585522790E+01  0.43400728716E+02  0.00000000000E+00 0.  1.
         11    1    3    3    0    0 -0.12374031717E+02  0.64877246661E+01 -0.54526214353E+01  0.14997943627E+02  0.51100000000E-03 0. -1.
        -11    1    3    3    0    0 -0.21819562343E+02 -0.50022148250E+01 -0.10346463750E+01  0.22409505737E+02  0.51100000000E-03 0.  1.
        -12    1    3    3    0    0 -0.80786332915E+01 -0.61450720891E+01 -0.21712844687E+01  0.10379821920E+02  0.00000000000E+00 0.  1.
</event>
<event>
 7    1  0.2811980E-010  0.4778727E+02  0.7816164E-02  0.1312668E+00
        -11   -1    0    0    0    0  0.00000000000E+00  0.00000000000E+00  0.45593999997E+02  0.45594000000E+02  0.51100000000E-03 0.  1.
         11   -1    0    0    0    0 -0.00000000000E+00 -0.00000000000E+00 -0.45593999997E+02  0.45594000000E+02  0.51100000000E-03 0. -1.
    9900012    2    1    2    0    0  0.17663609650E+02 -0.32941995108E+02 -0.22055512375E+02  0.47787265287E+02  0.19999973750E+02 0.  0.
        -12    1    1    2    0    0 -0.17663609650E+02  0.32941995108E+02  0.22055512375E+02  0.43400734713E+02  0.00000000000E+00 0.  1.
         11    1    3    3    0    0 -0.19847762845E+01 -0.10382920330E+02 -0.46464556095E+01  0.11547030851E+02  0.51100000000E-03 0. -1.
        -11    1    3    3    0    0  0.19339726709E+02 -0.22755906056E+02 -0.14302531121E+02  0.33112213552E+02  0.51100000000E-03 0.  1.
         12    1    3    3    0    0  0.30865922547E+00  0.19683127897E+00 -0.31065256444E+01  0.31280208837E+01  0.00000000000E+00 0. -1.
</event>
<event>
 7    1  0.2811980E-010  0.4778727E+02  0.7816164E-02  0.1312668E+00
        -11   -1    0    0    0    0  0.00000000000E+00  0.00000000000E+00  0.45593999997E+02  0.45594000000E+02  0.51100000000E-03 0.  1.
         11   -1    0    0    0    0 -0.00000000000E+00 -0.00000000000E+00 -0.45593999997E+02  0.45594000000E+02  0.51100000000E-03 0. -1.
    9900012    2    1    2    0    0 -0.28474498971E+02 -0.25630667108E+02 -0.20393507665E+02  0.47787270248E+02  0.19999996371E+02 0.  0.
        -12    1    1    2    0    0  0.28474498971E+02  0.25630667108E+02  0.20393507665E+02  0.43400729752E+02  0.00000000000E+00 0.  1.
         11    1    3    3    0    0 -0.15963832307E+02 -0.98733288769E+01 -0.11689053743E+02  0.22112452209E+02  0.51100000000E-03 0. -1.
        -11    1    3    3    0    0  0.23420528903E+01 -0.49873015664E+01 -0.36530037786E+00  0.55219410793E+01  0.51100000000E-03 0.  1.
        -12    1    3    3    0    0 -0.14852719555E+02 -0.10770036665E+02 -0.83391535440E+01  0.20152876960E+02  0.00000000000E+00 0.  1.
</event>
<event>
 7    1  0.2811980E-010  0.4778727E+02  0.7816164E-02  0.1312668E+00
        -11   -1    0    0    0    0  0.00000000000E+00  0.00000000000E+00  0.45593999997E+02  0.45594000000E+02  0.51100000000E-03 0.  1.
         11   -1    0    0    0    0 -0.00000000000E+00 -0.00000000000E+00 -0.45593999997E+02  0.45594000000E+02  0.51100000000E-03 0. -1.
    9900012    2    1    2    0    0  0.42483588297E+02 -0.71446441691E+01  0.52651829917E+01  0.47787269973E+02  0.19999995117E+02 0.  0.
        -12    1    1    2    0    0 -0.42483588297E+02  0.71446441691E+01 -0.52651829917E+01  0.43400730027E+02  0.00000000000E+00 0.  1.
         11    1    3    3    0    0  0.14099617012E+02 -0.71238857590E+01  0.25177475175E+01  0.15996499648E+02  0.51100000000E-03 0. -1.
        -11    1    3    3    0    0  0.11207622179E+02  0.66679586431E+01 -0.60695532849E+00  0.13055300166E+02  0.51100000000E-03 0.  1.
        -12    1    3    3    0    0  0.17176349106E+02 -0.66887170532E+01  0.33543908028E+01  0.18735470159E+02  0.00000000000E+00 0.  1.
</event>
<event>
 7    1  0.2811980E-010  0.4778727E+02  0.7816164E-02  0.1312668E+00
        -11   -1    0    0    0    0  0.00000000000E+00  0.00000000000E+00  0.45593999997E+02  0.45594000000E+02  0.51100000000E-03 0.  1.
         11   -1    0    0    0    0 -0.00000000000E+00 -0.00000000000E+00 -0.45593999997E+02  0.45594000000E+02  0.51100000000E-03 0. -1.
    9900012    2    1    2    0    0 -0.93532274896E+01  0.18447253249E+02 -0.38155462648E+02  0.47787270204E+02  0.19999996169E+02 0.  0.
        -12    1    1    2    0    0  0.93532274896E+01 -0.18447253249E+02  0.38155462648E+02  0.43400729796E+02  0.00000000000E+00 0.  1.
         11    1    3    3    0    0 -0.12096390237E+02  0.50511378717E+01 -0.10825384571E+02  0.17000752982E+02  0.51100000000E-03 0. -1.
        -11    1    3    3    0    0  0.11542844505E+01  0.10967315125E+02 -0.23689856490E+02  0.26130895018E+02  0.51100000000E-03 0.  1.
         12    1    3    3    0    0  0.15888782971E+01  0.24288002520E+01 -0.36402215872E+01  0.46556222045E+01  0.00000000000E+00 0. -1.
</event>
<event>
 7    1  0.2811980E-010  0.4778727E+02  0.7816164E-02  0.1312668E+00
        -11   -1    0    0    0    0  0.00000000000E+00  0.00000000000E+00  0.45593999997E+02  0.45594000000E+02  0.51100000000E-03 0.  1.
         11   -1    0    0    0    0 -0.00000000000E+00 -0.00000000000E+00 -0.45593999997E+02  0.45594000000E+02  0.51100000000E-03 0. -1.
    9900012    2    1    2    0    0  0.25448252171E+02  0.15071044352E+02  0.31762772689E+02  0.47787266765E+02  0.19999980489E+02 0.  0.
        -12    1    1    2    0    0 -0.25448252171E+02 -0.15071044352E+02 -0.31762772689E+02  0.43400733235E+02  0.00000000000E+00 0.  1.
         11    1    3    3    0    0  0.21716571333E+02  0.13965540039E+02  0.21509844816E+02  0.33605344862E+02  0.51100000000E-03 0. -1.
        -11    1    3    3    0    0  0.56922706856E+01  0.34132023768E+01  0.80713311715E+01  0.10449798236E+02  0.51100000000E-03 0.  1.
         12    1    3    3    0    0 -0.19605898473E+01 -0.23076980636E+01  0.21815967013E+01  0.37321236675E+01  0.00000000000E+00 0. -1.
</event>
<event>
 7    1  0.2811980E-010  0.4778727E+02  0.7816164E-02  0.1312668E+00
        -11   -1    0    0    0    0  0.00000000000E+00  0.00000000000E+00  0.45593999997E+02  0.45594000000E+02  0.51100000000E-03 0. -1.
         11   -1    0    0    0    0 -0.00000000000E+00 -0.00000000000E+00 -0.45593999997E+02  0.45594000000E+02  0.51100000000E-03 0.  1.
    9900012    2    1    2    0    0 -0.21107195932E+02  0.10552956231E+02  0.36424513054E+02  0.47787265484E+02  0.19999974647E+02 0.  0.
        -12    1    1    2    0    0  0.21107195932E+02 -0.10552956231E+02 -0.36424513054E+02  0.43400734516E+02  0.00000000000E+00 0.  1.
         11    1    3    3    0    0 -0.16833510175E+02  0.17868193776E+01  0.30395776323E+02  0.34791708881E+02  0.51100000000E-03 0. -1.
        -11    1    3    3    0    0 -0.33280677295E+01  0.77582354014E+01  0.72677642418E+01  0.11139418687E+02  0.51100000000E-03 0.  1.
         12    1    3    3    0    0 -0.94561802690E+00  0.10079014518E+01 -0.12390275108E+01  0.18561379157E+01  0.00000000000E+00 0. -1.
</event>
<event>
 7    1  0.2811980E-010  0.4778727E+02  0.7816164E-02  0.1312668E+00
        -11   -1    0    0    0    0  0.00000000000E+00  0.00000000000E+00  0.45593999997E+02  0.45594000000E+02  0.51100000000E-03 0.  1.
         11   -1    0    0    0    0 -0.00000000000E+00 -0.00000000000E+00 -0.45593999997E+02  0.45594000000E+02  0.51100000000E-03 0. -1.
    9900012    2    1    2    0    0  0.12489675482E+01 -0.40798696940E+02 -0.14748884218E+02  0.47787272153E+02  0.20000005057E+02 0.  0.
        -12    1    1    2    0    0 -0.12489675482E+01  0.40798696940E+02  0.14748884218E+02  0.43400727847E+02  0.00000000000E+00 0.  1.
         11    1    3    3    0    0 -0.28050269473E+01 -0.92671729802E-01  0.38652675282E+00  0.28330491377E+01  0.51100000000E-03 0.  1.
        -11    1    3    3    0    0  0.35006000462E+01 -0.31156654042E+02 -0.63977649396E+01  0.31998791981E+02  0.51100000000E-03 0. -1.
         12    1    3    3    0    0  0.55339444934E+00 -0.95493711681E+01 -0.87376460313E+01  0.12955431035E+02  0.00000000000E+00 0. -1.
</event>
<event>
 7    1  0.2811980E-010  0.4778727E+02  0.7816164E-02  0.1312668E+00
        -11   -1    0    0    0    0  0.00000000000E+00  0.00000000000E+00  0.45593999997E+02  0.45594000000E+02  0.51100000000E-03 0. -1.
         11   -1    0    0    0    0 -0.00000000000E+00 -0.00000000000E+00 -0.45593999997E+02  0.45594000000E+02  0.51100000000E-03 0.  1.
    9900012    2    1    2    0    0 -0.30783181984E+02  0.29059606279E+02  0.95686188927E+01  0.47787268697E+02  0.19999989295E+02 0.  0.
        -12    1    1    2    0    0  0.30783181984E+02 -0.29059606279E+02 -0.95686188927E+01  0.43400731303E+02  0.00000000000E+00 0.  1.
         11    1    3    3    0    0 -0.18175577095E+02  0.21200145247E+02  0.97672713518E+01  0.29583734571E+02  0.51100000000E-03 0. -1.
        -11    1    3    3    0    0  0.14915864769E+01  0.77582211811E+00 -0.16533013681E+01  0.23579940313E+01  0.51100000000E-03 0.  1.
         12    1    3    3    0    0 -0.14099191366E+02  0.70836389138E+01  0.14546489090E+01  0.15845540094E+02  0.00000000000E+00 0. -1.
</event>
<event>
 7    1  0.2811980E-010  0.4778727E+02  0.7816164E-02  0.1312668E+00
        -11   -1    0    0    0    0  0.00000000000E+00  0.00000000000E+00  0.45593999997E+02  0.45594000000E+02  0.51100000000E-03 0.  1.
         11   -1    0    0    0    0 -0.00000000000E+00 -0.00000000000E+00 -0.45593999997E+02  0.45594000000E+02  0.51100000000E-03 0. -1.
    9900012    2    1    2    0    0 -0.34730094943E+02 -0.12305769332E+02 -0.22934947630E+02  0.47787271016E+02  0.19999999869E+02 0.  0.
        -12    1    1    2    0    0  0.34730094943E+02  0.12305769332E+02  0.22934947630E+02  0.43400728984E+02  0.00000000000E+00 0.  1.
         11    1    3    3    0    0 -0.35372784306E+01  0.91419917781E+00  0.21738537823E+01  0.42513220720E+01  0.51100000000E-03 0. -1.
        -11    1    3    3    0    0 -0.12741396991E+02 -0.83662966551E+01 -0.16921167643E+02  0.22774196619E+02  0.51100000000E-03 0.  1.
         12    1    3    3    0    0 -0.18451419521E+02 -0.48536718549E+01 -0.81876337693E+01  0.20761752324E+02  0.00000000000E+00 0. -1.
</event>
<event>
 7    1  0.2811980E-010  0.4778727E+02  0.7816164E-02  0.1312668E+00
        -11   -1    0    0    0    0  0.00000000000E+00  0.00000000000E+00  0.45593999997E+02  0.45594000000E+02  0.51100000000E-03 0.  1.
         11   -1    0    0    0    0 -0.00000000000E+00 -0.00000000000E+00 -0.45593999997E+02  0.45594000000E+02  0.51100000000E-03 0. -1.
    9900012    2    1    2    0    0 -0.37180443005E+02  0.18864013600E+02 -0.12057650992E+02  0.47787270760E+02  0.19999998701E+02 0.  0.
        -12    1    1    2    0    0  0.37180443005E+02 -0.18864013600E+02  0.12057650992E+02  0.43400729240E+02  0.00000000000E+00 0.  1.
         11    1    3    3    0    0 -0.64964383843E+01  0.55470032734E+01 -0.78878431193E+01  0.11627167597E+02  0.51100000000E-03 0. -1.
        -11    1    3    3    0    0 -0.12383832270E+02  0.10521327978E+02  0.25841895332E+01  0.16454047524E+02  0.51100000000E-03 0.  1.
        -12    1    3    3    0    0 -0.18300172351E+02  0.27956823483E+01 -0.67539974059E+01  0.19706055639E+02  0.00000000000E+00 0.  1.
</event>
<event>
 7    1  0.2811980E-010  0.4778727E+02  0.7816164E-02  0.1312668E+00
        -11   -1    0    0    0    0  0.00000000000E+00  0.00000000000E+00  0.45593999997E+02  0.45594000000E+02  0.51100000000E-03 0.  1.
         11   -1    0    0    0    0 -0.00000000000E+00 -0.00000000000E+00 -0.45593999997E+02  0.45594000000E+02  0.51100000000E-03 0. -1.
    9900012    2    1    2    0    0  0.61719888028E+01  0.77315770584E+00 -0.42952671846E+02  0.47787271465E+02  0.20000001919E+02 0.  0.
        -12    1    1    2    0    0 -0.61719888028E+01 -0.77315770584E+00  0.42952671846E+02  0.43400728535E+02  0.00000000000E+00 0.  1.
         11    1    3    3    0    0  0.76530090678E+01  0.48529841306E+01 -0.13331508907E+02  0.16119836623E+02  0.51100000000E-03 0. -1.
        -11    1    3    3    0    0  0.34113876645E+00 -0.16089531200E+01 -0.28262199192E+02  0.28310016058E+02  0.51100000000E-03 0.  1.
         12    1    3    3    0    0 -0.18221590314E+01 -0.24708733048E+01 -0.13589637473E+01  0.33574187839E+01  0.00000000000E+00 0. -1.
</event>
<event>
 7    1  0.2811980E-010  0.4778727E+02  0.7816164E-02  0.1312668E+00
        -11   -1    0    0    0    0  0.00000000000E+00  0.00000000000E+00  0.45593999997E+02  0.45594000000E+02  0.51100000000E-03 0.  1.
         11   -1    0    0    0    0 -0.00000000000E+00 -0.00000000000E+00 -0.45593999997E+02  0.45594000000E+02  0.51100000000E-03 0. -1.
    9900012    2    1    2    0    0  0.34506214961E+02 -0.11197190476E+02 -0.23823673075E+02  0.47787270234E+02  0.19999996303E+02 0.  0.
        -12    1    1    2    0    0 -0.34506214961E+02  0.11197190476E+02  0.23823673075E+02  0.43400729766E+02  0.00000000000E+00 0.  1.
         11    1    3    3    0    0  0.44081381246E+01 -0.31344071910E+01 -0.76153433000E+01  0.93407517900E+01  0.51100000000E-03 0. -1.
        -11    1    3    3    0    0  0.11285205673E+02  0.44546167872E+01 -0.72853918159E+01  0.14151904888E+02  0.51100000000E-03 0.  1.
        -12    1    3    3    0    0  0.18812871163E+02 -0.12517400073E+02 -0.89229379588E+01  0.24294613555E+02  0.00000000000E+00 0.  1.
</event>
<event>
 7    1  0.2811980E-010  0.4778727E+02  0.7816164E-02  0.1312668E+00
        -11   -1    0    0    0    0  0.00000000000E+00  0.00000000000E+00  0.45593999997E+02  0.45594000000E+02  0.51100000000E-03 0. -1.
         11   -1    0    0    0    0 -0.00000000000E+00 -0.00000000000E+00 -0.45593999997E+02  0.45594000000E+02  0.51100000000E-03 0.  1.
    9900012    2    1    2    0    0 -0.97186295020E+01 -0.81072905670E+00  0.42290828771E+02  0.47787271444E+02  0.20000001824E+02 0.  0.
        -12    1    1    2    0    0  0.97186295020E+01  0.81072905670E+00 -0.42290828771E+02  0.43400728556E+02  0.00000000000E+00 0.  1.
         11    1    3    3    0    0 -0.52562749271E+01 -0.17105854367E+01  0.17364138339E+02  0.18222728368E+02  0.51100000000E-03 0. -1.
        -11    1    3    3    0    0  0.45720685618E+00  0.27243675232E+01 -0.11301223958E+01  0.29846931838E+01  0.51100000000E-03 0.  1.
        -12    1    3    3    0    0 -0.49195614311E+01 -0.18245111432E+01  0.26056812828E+02  0.26579849893E+02  0.00000000000E+00 0.  1.
</event>
<event>
 7    1  0.2811980E-010  0.4778727E+02  0.7816164E-02  0.1312668E+00
        -11   -1    0    0    0    0  0.00000000000E+00  0.00000000000E+00  0.45593999997E+02  0.45594000000E+02  0.51100000000E-03 0.  1.
         11   -1    0    0    0    0 -0.00000000000E+00 -0.00000000000E+00 -0.45593999997E+02  0.45594000000E+02  0.51100000000E-03 0. -1.
    9900012    2    1    2    0    0 -0.34618812587E+02 -0.63317579218E+01 -0.25398228104E+02  0.47787270350E+02  0.19999996834E+02 0.  0.
        -12    1    1    2    0    0  0.34618812587E+02  0.63317579218E+01  0.25398228104E+02  0.43400729650E+02  0.00000000000E+00 0.  1.
         11    1    3    3    0    0 -0.39980090529E+01  0.38460627747E+01 -0.92472328855E+01  0.10783672452E+02  0.51100000000E-03 0. -1.
        -11    1    3    3    0    0 -0.25903991366E+01  0.36406119097E-01 -0.40535828109E+01  0.48107200041E+01  0.51100000000E-03 0.  1.
         12    1    3    3    0    0 -0.28030404398E+02 -0.10214226816E+02 -0.12097412408E+02  0.32192877894E+02  0.00000000000E+00 0. -1.
</event>
<event>
 7    1  0.2811980E-010  0.4778727E+02  0.7816164E-02  0.1312668E+00
        -11   -1    0    0    0    0  0.00000000000E+00  0.00000000000E+00  0.45593999997E+02  0.45594000000E+02  0.51100000000E-03 0. -1.
         11   -1    0    0    0    0 -0.00000000000E+00 -0.00000000000E+00 -0.45593999997E+02  0.45594000000E+02  0.51100000000E-03 0.  1.
    9900012    2    1    2    0    0 -0.12062269019E+02 -0.28600291686E+02  0.30333946421E+02  0.47787270469E+02  0.19999997375E+02 0.  0.
        -12    1    1    2    0    0  0.12062269019E+02  0.28600291686E+02 -0.30333946421E+02  0.43400729531E+02  0.00000000000E+00 0.  1.
         11    1    3    3    0    0 -0.11261332825E+02 -0.12764150850E+02  0.20418012257E+02  0.26582633216E+02  0.51100000000E-03 0. -1.
        -11    1    3    3    0    0 -0.31448726600E+01 -0.44735414788E+00  0.17380755797E+01  0.36209469428E+01  0.51100000000E-03 0.  1.
         12    1    3    3    0    0  0.23439364665E+01 -0.15388786688E+02  0.81778585840E+01  0.17583690309E+02  0.00000000000E+00 0. -1.
</event>
<event>
 7    1  0.2811980E-010  0.4778729E+02  0.7816164E-02  0.1312668E+00
        -11   -1    0    0    0    0  0.00000000000E+00  0.00000000000E+00  0.45593999997E+02  0.45594000000E+02  0.51100000000E-03 0.  1.
         11   -1    0    0    0    0 -0.00000000000E+00 -0.00000000000E+00 -0.45593999997E+02  0.45594000000E+02  0.51100000000E-03 0. -1.
    9900012    2    1    2    0    0  0.14452694542E+02  0.29958323029E+02 -0.27879021950E+02  0.47787293057E+02  0.20000100363E+02 0.  0.
        -12    1    1    2    0    0 -0.14452694542E+02 -0.29958323029E+02  0.27879021950E+02  0.43400706943E+02  0.00000000000E+00 0.  1.
         11    1    3    3    0    0  0.17849632298E+02  0.19580090311E+02 -0.15207109307E+02  0.30549066818E+02  0.51100000000E-03 0. -1.
        -11    1    3    3    0    0 -0.33710731031E+01  0.99083101371E+01 -0.98330854759E+01  0.14360651583E+02  0.51100000000E-03 0.  1.
         12    1    3    3    0    0 -0.25864652419E-01  0.46992258141E+00 -0.28388271675E+01  0.28775746558E+01  0.00000000000E+00 0. -1.
</event>
<event>
 7    1  0.2811980E-010  0.4778727E+02  0.7816164E-02  0.1312668E+00
        -11   -1    0    0    0    0  0.00000000000E+00  0.00000000000E+00  0.45593999997E+02  0.45594000000E+02  0.51100000000E-03 0. -1.
         11   -1    0    0    0    0 -0.00000000000E+00 -0.00000000000E+00 -0.45593999997E+02  0.45594000000E+02  0.51100000000E-03 0.  1.
    9900012    2    1    2    0    0 -0.17723170986E+02 -0.13359741774E+01  0.39594540112E+02  0.47787271625E+02  0.20000002646E+02 0.  0.
        -12    1    1    2    0    0  0.17723170986E+02  0.13359741774E+01 -0.39594540112E+02  0.43400728375E+02  0.00000000000E+00 0.  1.
         11    1    3    3    0    0 -0.67708813813E+01 -0.60515182735E+01  0.23499059531E+02  0.25192687574E+02  0.51100000000E-03 0. -1.
        -11    1    3    3    0    0 -0.98998608807E+01  0.75515166846E+01  0.10737208635E+02  0.16441420232E+02  0.51100000000E-03 0.  1.
        -12    1    3    3    0    0 -0.10524287237E+01 -0.28359725885E+01  0.53582719456E+01  0.61531638190E+01  0.00000000000E+00 0.  1.
</event>
<event>
 7    1  0.2811980E-010  0.4778727E+02  0.7816164E-02  0.1312668E+00
        -11   -1    0    0    0    0  0.00000000000E+00  0.00000000000E+00  0.45593999997E+02  0.45594000000E+02  0.51100000000E-03 0.  1.
         11   -1    0    0    0    0 -0.00000000000E+00 -0.00000000000E+00 -0.45593999997E+02  0.45594000000E+02  0.51100000000E-03 0. -1.
    9900012    2    1    2    0    0 -0.47262613852E+01 -0.13775757435E+02 -0.40884155850E+02  0.47787271444E+02  0.20000001823E+02 0.  0.
        -12    1    1    2    0    0  0.47262613852E+01  0.13775757435E+02  0.40884155850E+02  0.43400728556E+02  0.00000000000E+00 0.  1.
         11    1    3    3    0    0 -0.34583161429E+00 -0.98926434969E-01 -0.23904164206E+02  0.23906870406E+02  0.51100000000E-03 0. -1.
        -11    1    3    3    0    0  0.25790420053E+01 -0.49409586564E+01 -0.48115970188E+01  0.73631512440E+01  0.51100000000E-03 0.  1.
         12    1    3    3    0    0 -0.69594717763E+01 -0.87358723439E+01 -0.12168394625E+02  0.16517249794E+02  0.00000000000E+00 0. -1.
</event>
<event>
 7    1  0.2811980E-010  0.4778727E+02  0.7816164E-02  0.1312668E+00
        -11   -1    0    0    0    0  0.00000000000E+00  0.00000000000E+00  0.45593999997E+02  0.45594000000E+02  0.51100000000E-03 0.  1.
         11   -1    0    0    0    0 -0.00000000000E+00 -0.00000000000E+00 -0.45593999997E+02  0.45594000000E+02  0.51100000000E-03 0. -1.
    9900012    2    1    2    0    0  0.19676847306E+02  0.16698854264E+02 -0.34894031473E+02  0.47787268599E+02  0.19999988852E+02 0.  0.
        -12    1    1    2    0    0 -0.19676847306E+02 -0.16698854264E+02  0.34894031473E+02  0.43400731401E+02  0.00000000000E+00 0.  1.
         11    1    3    3    0    0  0.13133038570E+02  0.17851226870E+02 -0.20461740188E+02  0.30163319025E+02  0.51100000000E-03 0. -1.
        -11    1    3    3    0    0  0.19769811054E+01  0.20189215176E+01 -0.85477579944E+00  0.29521416487E+01  0.51100000000E-03 0.  1.
         12    1    3    3    0    0  0.45668276311E+01 -0.31712941235E+01 -0.13577515486E+02  0.14671807925E+02  0.00000000000E+00 0. -1.
</event>
<event>
 7    1  0.2811980E-010  0.4778727E+02  0.7816164E-02  0.1312668E+00
        -11   -1    0    0    0    0  0.00000000000E+00  0.00000000000E+00  0.45593999997E+02  0.45594000000E+02  0.51100000000E-03 0.  1.
         11   -1    0    0    0    0 -0.00000000000E+00 -0.00000000000E+00 -0.45593999997E+02  0.45594000000E+02  0.51100000000E-03 0. -1.
    9900012    2    1    2    0    0  0.95241282114E+01 -0.32440750853E+01 -0.42218362425E+02  0.47787272273E+02  0.20000005601E+02 0.  0.
        -12    1    1    2    0    0 -0.95241282114E+01  0.32440750853E+01  0.42218362425E+02  0.43400727727E+02  0.00000000000E+00 0.  1.
         11    1    3    3    0    0  0.41649636615E+01 -0.20868671080E+01 -0.25386800088E+02  0.25810686849E+02  0.51100000000E-03 0. -1.
        -11    1    3    3    0    0 -0.11456189653E+01 -0.22570166938E+01  0.11816213577E+01  0.27933486112E+01  0.51100000000E-03 0.  1.
        -12    1    3    3    0    0  0.65047835152E+01  0.10998087165E+01 -0.18013183695E+02  0.19183236813E+02  0.00000000000E+00 0.  1.
</event>
<event>
 7    1  0.2811980E-010  0.4778727E+02  0.7816164E-02  0.1312668E+00
        -11   -1    0    0    0    0  0.00000000000E+00  0.00000000000E+00  0.45593999997E+02  0.45594000000E+02  0.51100000000E-03 0. -1.
         11   -1    0    0    0    0 -0.00000000000E+00 -0.00000000000E+00 -0.45593999997E+02  0.45594000000E+02  0.51100000000E-03 0.  1.
    9900012    2    1    2    0    0 -0.14781509791E+02 -0.40303216589E+01  0.40606485787E+02  0.47787271754E+02  0.20000003233E+02 0.  0.
        -12    1    1    2    0    0  0.14781509791E+02  0.40303216589E+01 -0.40606485787E+02  0.43400728246E+02  0.00000000000E+00 0.  1.
         11    1    3    3    0    0 -0.14759299477E+02 -0.32218281246E+01  0.21362914566E+02  0.26164694085E+02  0.51100000000E-03 0. -1.
        -11    1    3    3    0    0  0.89903333410E+00 -0.51955497688E+01  0.11949807441E+02  0.13061389531E+02  0.51100000000E-03 0.  1.
         12    1    3    3    0    0 -0.92124364798E+00  0.43870562346E+01  0.72937637794E+01  0.85611881380E+01  0.00000000000E+00 0. -1.
</event>
<event>
 7    1  0.2811980E-010  0.4778728E+02  0.7816164E-02  0.1312668E+00
        -11   -1    0    0    0    0  0.00000000000E+00  0.00000000000E+00  0.45593999997E+02  0.45594000000E+02  0.51100000000E-03 0.  1.
         11   -1    0    0    0    0 -0.00000000000E+00 -0.00000000000E+00 -0.45593999997E+02  0.45594000000E+02  0.51100000000E-03 0. -1.
    9900012    2    1    2    0    0  0.32069111180E+02 -0.17882624558E+02 -0.23138855315E+02  0.47787276754E+02  0.20000026033E+02 0.  0.
        -12    1    1    2    0    0 -0.32069111180E+02  0.17882624558E+02  0.23138855315E+02  0.43400723246E+02  0.00000000000E+00 0.  1.
         11    1    3    3    0    0  0.19191609815E+02 -0.44111530231E+01 -0.54246483386E+01  0.20425546949E+02  0.51100000000E-03 0. -1.
        -11    1    3    3    0    0  0.10319256195E+01  0.76519222340E+00  0.50664782305E+00  0.13809713613E+01  0.51100000000E-03 0.  1.
         12    1    3    3    0    0  0.11845575745E+02 -0.14236663759E+02 -0.18220854799E+02  0.25980758444E+02  0.00000000000E+00 0. -1.
</event>
<event>
 7    1  0.2811980E-010  0.4778727E+02  0.7816164E-02  0.1312668E+00
        -11   -1    0    0    0    0  0.00000000000E+00  0.00000000000E+00  0.45593999997E+02  0.45594000000E+02  0.51100000000E-03 0. -1.
         11   -1    0    0    0    0 -0.00000000000E+00 -0.00000000000E+00 -0.45593999997E+02  0.45594000000E+02  0.51100000000E-03 0.  1.
    9900012    2    1    2    0    0  0.38016859062E+02 -0.37023791574E+01  0.20606651689E+02  0.47787270995E+02  0.19999999774E+02 0.  0.
        -12    1    1    2    0    0 -0.38016859062E+02  0.37023791574E+01 -0.20606651689E+02  0.43400729005E+02  0.00000000000E+00 0.  1.
         11    1    3    3    0    0  0.18655810458E+02 -0.80007933762E+01  0.72316183906E+01  0.21548741571E+02  0.51100000000E-03 0. -1.
        -11    1    3    3    0    0  0.14909680518E+02  0.75045855384E+01  0.12072871580E+02  0.20600281689E+02  0.51100000000E-03 0.  1.
        -12    1    3    3    0    0  0.44513680867E+01 -0.32061713196E+01  0.13021617184E+01  0.56382477345E+01  0.00000000000E+00 0.  1.
</event>
<event>
 7    1  0.2811980E-010  0.4778727E+02  0.7816164E-02  0.1312668E+00
        -11   -1    0    0    0    0  0.00000000000E+00  0.00000000000E+00  0.45593999997E+02  0.45594000000E+02  0.51100000000E-03 0. -1.
         11   -1    0    0    0    0 -0.00000000000E+00 -0.00000000000E+00 -0.45593999997E+02  0.45594000000E+02  0.51100000000E-03 0.  1.
    9900012    2    1    2    0    0  0.24992361462E+02 -0.30762078435E+02 -0.17683316008E+02  0.47787271133E+02  0.20000000405E+02 0.  0.
        -12    1    1    2    0    0 -0.24992361462E+02  0.30762078435E+02  0.17683316008E+02  0.43400728867E+02  0.00000000000E+00 0.  1.
         11    1    3    3    0    0  0.32973081549E+01 -0.11539227719E+02 -0.34713911287E+01  0.12493061036E+02  0.51100000000E-03 0. -1.
        -11    1    3    3    0    0  0.21565054436E+02 -0.13327261886E+02 -0.76678903073E+01  0.26485166117E+02  0.51100000000E-03 0.  1.
        -12    1    3    3    0    0  0.12999887112E+00 -0.58955888301E+01 -0.65440345721E+01  0.88090439800E+01  0.00000000000E+00 0.  1.
</event>
<event>
 7    1  0.2811980E-010  0.4778727E+02  0.7816164E-02  0.1312668E+00
        -11   -1    0    0    0    0  0.00000000000E+00  0.00000000000E+00  0.45593999997E+02  0.45594000000E+02  0.51100000000E-03 0. -1.
         11   -1    0    0    0    0 -0.00000000000E+00 -0.00000000000E+00 -0.45593999997E+02  0.45594000000E+02  0.51100000000E-03 0.  1.
    9900012    2    1    2    0    0 -0.22192339079E+01 -0.31980564119E+02  0.29256489315E+02  0.47787266739E+02  0.19999980370E+02 0.  0.
        -12    1    1    2    0    0  0.22192339079E+01  0.31980564119E+02 -0.29256489315E+02  0.43400733261E+02  0.00000000000E+00 0.  1.
         11    1    3    3    0    0 -0.15029008676E+01 -0.13387786024E+02  0.15586111425E+02  0.20601417311E+02  0.51100000000E-03 0. -1.
        -11    1    3    3    0    0 -0.58683435547E+01 -0.11693252815E+02  0.29075990191E+01  0.13402378512E+02  0.51100000000E-03 0.  1.
        -12    1    3    3    0    0  0.51520105144E+01 -0.68995252806E+01  0.10762778871E+02  0.13783470915E+02  0.00000000000E+00 0.  1.
</event>
<event>
 7    1  0.2811980E-010  0.4778727E+02  0.7816164E-02  0.1312668E+00
        -11   -1    0    0    0    0  0.00000000000E+00  0.00000000000E+00  0.45593999997E+02  0.45594000000E+02  0.51100000000E-03 0. -1.
         11   -1    0    0    0    0 -0.00000000000E+00 -0.00000000000E+00 -0.45593999997E+02  0.45594000000E+02  0.51100000000E-03 0.  1.
    9900012    2    1    2    0    0  0.35907263508E+00 -0.42943026782E+02  0.62762147897E+01  0.47787270116E+02  0.19999995766E+02 0.  0.
        -12    1    1    2    0    0 -0.35907263508E+00  0.42943026782E+02 -0.62762147897E+01  0.43400729884E+02  0.00000000000E+00 0.  1.
         11    1    3    3    0    0  0.18251090328E+01 -0.34898468163E+02 -0.96402040635E+00  0.34959454211E+02  0.51100000000E-03 0. -1.
        -11    1    3    3    0    0 -0.38822732033E+01 -0.66546563128E+01  0.60544072244E+01  0.97985888253E+01  0.51100000000E-03 0.  1.
         12    1    3    3    0    0  0.24162368056E+01 -0.13899023064E+01  0.11858279716E+01  0.30292270797E+01  0.00000000000E+00 0. -1.
</event>
<event>
 7    1  0.2811980E-010  0.4778727E+02  0.7816164E-02  0.1312668E+00
        -11   -1    0    0    0    0  0.00000000000E+00  0.00000000000E+00  0.45593999997E+02  0.45594000000E+02  0.51100000000E-03 0.  1.
         11   -1    0    0    0    0 -0.00000000000E+00 -0.00000000000E+00 -0.45593999997E+02  0.45594000000E+02  0.51100000000E-03 0. -1.
    9900012    2    1    2    0    0 -0.36097547004E+02  0.57756642252E+01 -0.23392998750E+02  0.47787267432E+02  0.19999983529E+02 0.  0.
        -12    1    1    2    0    0  0.36097547004E+02 -0.57756642252E+01  0.23392998750E+02  0.43400732568E+02  0.00000000000E+00 0.  1.
         11    1    3    3    0    0 -0.56074584756E+01  0.55631867993E+01 -0.92191269967E+01  0.12140219963E+02  0.51100000000E-03 0. -1.
        -11    1    3    3    0    0 -0.26096622769E+02  0.11389575923E+01 -0.67641432479E+01  0.26983042425E+02  0.51100000000E-03 0.  1.
        -12    1    3    3    0    0 -0.43934657592E+01 -0.92648016645E+00 -0.74097285050E+01  0.86640050435E+01  0.00000000000E+00 0.  1.
</event>
<event>
 7    1  0.2811980E-010  0.4778727E+02  0.7816164E-02  0.1312668E+00
        -11   -1    0    0    0    0  0.00000000000E+00  0.00000000000E+00  0.45593999997E+02  0.45594000000E+02  0.51100000000E-03 0. -1.
         11   -1    0    0    0    0 -0.00000000000E+00 -0.00000000000E+00 -0.45593999997E+02  0.45594000000E+02  0.51100000000E-03 0.  1.
    9900012    2    1    2    0    0  0.22250277776E+02 -0.37260469753E+02 -0.45374459110E+00  0.47787270150E+02  0.19999995923E+02 0.  0.
        -12    1    1    2    0    0 -0.22250277776E+02  0.37260469753E+02  0.45374459110E+00  0.43400729850E+02  0.00000000000E+00 0.  1.
         11    1    3    3    0    0  0.66811556000E+01 -0.11573958275E+01  0.20486033410E+01  0.70833735722E+01  0.51100000000E-03 0. -1.
        -11    1    3    3    0    0  0.92367904678E-01 -0.11338167480E+02 -0.18846240650E+01  0.11494102042E+02  0.51100000000E-03 0.  1.
         12    1    3    3    0    0  0.15476754272E+02 -0.24764906446E+02 -0.61772386716E+00  0.29209794536E+02  0.00000000000E+00 0. -1.
</event>
<event>
 7    1  0.2811980E-010  0.4778727E+02  0.7816164E-02  0.1312668E+00
        -11   -1    0    0    0    0  0.00000000000E+00  0.00000000000E+00  0.45593999997E+02  0.45594000000E+02  0.51100000000E-03 0. -1.
         11   -1    0    0    0    0 -0.00000000000E+00 -0.00000000000E+00 -0.45593999997E+02  0.45594000000E+02  0.51100000000E-03 0.  1.
    9900012    2    1    2    0    0 -0.11842165877E+02 -0.35863687532E+02  0.21381823361E+02  0.47787270210E+02  0.19999996196E+02 0.  0.
        -12    1    1    2    0    0  0.11842165877E+02  0.35863687532E+02 -0.21381823361E+02  0.43400729790E+02  0.00000000000E+00 0.  1.
         11    1    3    3    0    0 -0.72449937537E+01 -0.12328501003E+02  0.85526822738E+01  0.16662240120E+02  0.51100000000E-03 0. -1.
        -11    1    3    3    0    0 -0.83156813084E+01 -0.55736199882E+01  0.42550915766E+01  0.10877573258E+02  0.51100000000E-03 0.  1.
        -12    1    3    3    0    0  0.37185091852E+01 -0.17961566541E+02  0.85740495105E+01  0.20247456832E+02  0.00000000000E+00 0.  1.
</event>
<event>
 7    1  0.2811980E-010  0.4778727E+02  0.7816164E-02  0.1312668E+00
        -11   -1    0    0    0    0  0.00000000000E+00  0.00000000000E+00  0.45593999997E+02  0.45594000000E+02  0.51100000000E-03 0. -1.
         11   -1    0    0    0    0 -0.00000000000E+00 -0.00000000000E+00 -0.45593999997E+02  0.45594000000E+02  0.51100000000E-03 0.  1.
    9900012    2    1    2    0    0  0.22690562078E+02 -0.28914597346E+02  0.23080464768E+02  0.47787269580E+02  0.19999993323E+02 0.  0.
        -12    1    1    2    0    0 -0.22690562078E+02  0.28914597346E+02 -0.23080464768E+02  0.43400730420E+02  0.00000000000E+00 0.  1.
         11    1    3    3    0    0  0.46312374486E+01 -0.39524441971E+01 -0.29323946161E+00  0.60955857043E+01  0.51100000000E-03 0. -1.
        -11    1    3    3    0    0  0.19456122645E+02 -0.20205712496E+02  0.14619527952E+02  0.31631347168E+02  0.51100000000E-03 0.  1.
        -12    1    3    3    0    0 -0.13967980156E+01 -0.47564406532E+01  0.87541762768E+01  0.10060336708E+02  0.00000000000E+00 0.  1.
</event>
<event>
 7    1  0.2811980E-010  0.4778728E+02  0.7816164E-02  0.1312668E+00
        -11   -1    0    0    0    0  0.00000000000E+00  0.00000000000E+00  0.45593999997E+02  0.45594000000E+02  0.51100000000E-03 0.  1.
         11   -1    0    0    0    0 -0.00000000000E+00 -0.00000000000E+00 -0.45593999997E+02  0.45594000000E+02  0.51100000000E-03 0. -1.
    9900012    2    1    2    0    0 -0.19822462438E+02  0.28228305172E+02 -0.26341137483E+02  0.47787277035E+02  0.20000027313E+02 0.  0.
        -12    1    1    2    0    0  0.19822462438E+02 -0.28228305172E+02  0.26341137483E+02  0.43400722965E+02  0.00000000000E+00 0.  1.
         11    1    3    3    0    0  0.25018376805E+01 -0.14958256220E+00 -0.10077735035E+01  0.27013282692E+01  0.51100000000E-03 0. -1.
        -11    1    3    3    0    0  0.34685839325E+00  0.39496737886E+01 -0.25104112562E+01  0.46928028638E+01  0.51100000000E-03 0.  1.
         12    1    3    3    0    0 -0.22671158511E+02  0.24428213946E+02 -0.22822952724E+02  0.40393145902E+02  0.00000000000E+00 0. -1.
</event>
<event>
 7    1  0.2811980E-010  0.4778727E+02  0.7816164E-02  0.1312668E+00
        -11   -1    0    0    0    0  0.00000000000E+00  0.00000000000E+00  0.45593999997E+02  0.45594000000E+02  0.51100000000E-03 0.  1.
         11   -1    0    0    0    0 -0.00000000000E+00 -0.00000000000E+00 -0.45593999997E+02  0.45594000000E+02  0.51100000000E-03 0. -1.
    9900012    2    1    2    0    0 -0.77976852816E+01  0.21391520612E+02 -0.36948914175E+02  0.47787270645E+02  0.19999998178E+02 0.  0.
        -12    1    1    2    0    0  0.77976852816E+01 -0.21391520612E+02  0.36948914175E+02  0.43400729355E+02  0.00000000000E+00 0.  1.
         11    1    3    3    0    0 -0.12196161689E+02  0.15533184012E+02 -0.25885570971E+02  0.32559007206E+02  0.51100000000E-03 0. -1.
        -11    1    3    3    0    0  0.31031243983E+01  0.72757171120E+01 -0.63652186673E+01  0.10152903499E+02  0.51100000000E-03 0.  1.
        -12    1    3    3    0    0  0.12953520088E+01 -0.14173805128E+01 -0.46981245370E+01  0.50753599390E+01  0.00000000000E+00 0.  1.
</event>
<event>
 7    1  0.2811980E-010  0.4778727E+02  0.7816164E-02  0.1312668E+00
        -11   -1    0    0    0    0  0.00000000000E+00  0.00000000000E+00  0.45593999997E+02  0.45594000000E+02  0.51100000000E-03 0.  1.
         11   -1    0    0    0    0 -0.00000000000E+00 -0.00000000000E+00 -0.45593999997E+02  0.45594000000E+02  0.51100000000E-03 0. -1.
    9900012    2    1    2    0    0 -0.42871294707E+01  0.92638556555E+01 -0.42183230176E+02  0.47787269490E+02  0.19999992913E+02 0.  0.
        -12    1    1    2    0    0  0.42871294707E+01 -0.92638556555E+01  0.42183230176E+02  0.43400730510E+02  0.00000000000E+00 0.  1.
         11    1    3    3    0    0 -0.57201829252E+00 -0.79403708289E+00 -0.52963791499E+01  0.53860312082E+01  0.51100000000E-03 0. -1.
        -11    1    3    3    0    0 -0.50446148710E+01 -0.42056043854E+01 -0.12396966325E+02  0.14029255924E+02  0.51100000000E-03 0.  1.
        -12    1    3    3    0    0  0.13295036927E+01  0.14263497124E+02 -0.24489884701E+02  0.28371982358E+02  0.00000000000E+00 0.  1.
</event>
<event>
 7    1  0.2811980E-010  0.4778729E+02  0.7816164E-02  0.1312668E+00
        -11   -1    0    0    0    0  0.00000000000E+00  0.00000000000E+00  0.45593999997E+02  0.45594000000E+02  0.51100000000E-03 0. -1.
         11   -1    0    0    0    0 -0.00000000000E+00 -0.00000000000E+00 -0.45593999997E+02  0.45594000000E+02  0.51100000000E-03 0.  1.
    9900012    2    1    2    0    0 -0.39830722050E+02 -0.14884411728E+02 -0.86942218563E+01  0.47787290038E+02  0.20000086599E+02 0.  0.
        -12    1    1    2    0    0  0.39830722050E+02  0.14884411728E+02  0.86942218563E+01  0.43400709962E+02  0.00000000000E+00 0.  1.
         11    1    3    3    0    0 -0.13066330287E+01  0.17526917543E+01  0.29675885023E+00  0.22061922703E+01  0.51100000000E-03 0. -1.
        -11    1    3    3    0    0 -0.10905781754E+02 -0.10342670524E+02  0.20691021386E+01  0.15171950869E+02  0.51100000000E-03 0.  1.
        -12    1    3    3    0    0 -0.27618307267E+02 -0.62944329575E+01 -0.11060082845E+02  0.30409146899E+02  0.00000000000E+00 0.  1.
</event>
<event>
 7    1  0.2811980E-010  0.4778726E+02  0.7816164E-02  0.1312668E+00
        -11   -1    0    0    0    0  0.00000000000E+00  0.00000000000E+00  0.45593999997E+02  0.45594000000E+02  0.51100000000E-03 0.  1.
         11   -1    0    0    0    0 -0.00000000000E+00 -0.00000000000E+00 -0.45593999997E+02  0.45594000000E+02  0.51100000000E-03 0. -1.
    9900012    2    1    2    0    0  0.11340756835E+01 -0.19106246334E+02 -0.38952398757E+02  0.47787261002E+02  0.19999954213E+02 0.  0.
        -12    1    1    2    0    0 -0.11340756835E+01  0.19106246334E+02  0.38952398757E+02  0.43400738998E+02  0.00000000000E+00 0.  1.
         11    1    3    3    0    0 -0.39034303548E+01 -0.21184123144E+02 -0.31740865867E+02  0.38359958396E+02  0.51100000000E-03 0. -1.
        -11    1    3    3    0    0  0.14835768600E+01  0.16834123517E+01 -0.41595420017E+01  0.47261683604E+01  0.51100000000E-03 0.  1.
         12    1    3    3    0    0  0.35539291783E+01  0.39446445759E+00 -0.30519908884E+01  0.47011342457E+01  0.00000000000E+00 0. -1.
</event>
<event>
 7    1  0.2811980E-010  0.4778727E+02  0.7816164E-02  0.1312668E+00
        -11   -1    0    0    0    0  0.00000000000E+00  0.00000000000E+00  0.45593999997E+02  0.45594000000E+02  0.51100000000E-03 0. -1.
         11   -1    0    0    0    0 -0.00000000000E+00 -0.00000000000E+00 -0.45593999997E+02  0.45594000000E+02  0.51100000000E-03 0.  1.
    9900012    2    1    2    0    0  0.40055600015E+01  0.24873016873E+02  0.35339948335E+02  0.47787269273E+02  0.19999991925E+02 0.  0.
        -12    1    1    2    0    0 -0.40055600015E+01 -0.24873016873E+02 -0.35339948335E+02  0.43400730727E+02  0.00000000000E+00 0.  1.
         11    1    3    3    0    0  0.23346884716E+01  0.12547940053E+02  0.12675317259E+02  0.17987919216E+02  0.51100000000E-03 0. -1.
        -11    1    3    3    0    0  0.19257249739E+01  0.12136519260E+01 -0.18172651718E+01  0.29126998881E+01  0.51100000000E-03 0.  1.
        -12    1    3    3    0    0 -0.25485344401E+00  0.11111424894E+02  0.24481896248E+02  0.26886650169E+02  0.00000000000E+00 0.  1.
</event>
<event>
 7    1  0.2811980E-010  0.4778728E+02  0.7816164E-02  0.1312668E+00
        -11   -1    0    0    0    0  0.00000000000E+00  0.00000000000E+00  0.45593999997E+02  0.45594000000E+02  0.51100000000E-03 0. -1.
         11   -1    0    0    0    0 -0.00000000000E+00 -0.00000000000E+00 -0.45593999997E+02  0.45594000000E+02  0.51100000000E-03 0.  1.
    9900012    2    1    2    0    0  0.40735926395E+02  0.14952429832E+02 -0.79483852533E+00  0.47787278515E+02  0.20000034060E+02 0.  0.
        -12    1    1    2    0    0 -0.40735926395E+02 -0.14952429832E+02  0.79483852533E+00  0.43400721485E+02  0.00000000000E+00 0.  1.
         11    1    3    3    0    0 -0.83086946141E-01  0.22751689949E+01 -0.30338923313E+01  0.37931254046E+01  0.51100000000E-03 0. -1.
        -11    1    3    3    0    0  0.83694840434E+01  0.18142828874E+01 -0.35824228438E+01  0.92829757751E+01  0.51100000000E-03 0.  1.
         12    1    3    3    0    0  0.32449529298E+02  0.10862977950E+02  0.58214766498E+01  0.34711177335E+02  0.00000000000E+00 0. -1.
</event>
<event>
 7    1  0.2811980E-010  0.4778727E+02  0.7816164E-02  0.1312668E+00
        -11   -1    0    0    0    0  0.00000000000E+00  0.00000000000E+00  0.45593999997E+02  0.45594000000E+02  0.51100000000E-03 0.  1.
         11   -1    0    0    0    0 -0.00000000000E+00 -0.00000000000E+00 -0.45593999997E+02  0.45594000000E+02  0.51100000000E-03 0. -1.
    9900012    2    1    2    0    0 -0.25700649295E+02 -0.34291877448E+02 -0.68678204683E+01  0.47787271998E+02  0.20000004348E+02 0.  0.
        -12    1    1    2    0    0  0.25700649295E+02  0.34291877448E+02  0.68678204683E+01  0.43400728002E+02  0.00000000000E+00 0.  1.
         11    1    3    3    0    0 -0.38247769699E+00 -0.98623881501E+01 -0.49667086787E+01  0.11049035459E+02  0.51100000000E-03 0. -1.
        -11    1    3    3    0    0 -0.10446812340E+02 -0.10491180981E+02  0.43286580177E+01  0.15425240580E+02  0.51100000000E-03 0.  1.
        -12    1    3    3    0    0 -0.14871359257E+02 -0.13938308317E+02 -0.62297698073E+01  0.21312995959E+02  0.00000000000E+00 0.  1.
</event>
<event>
 7    1  0.2811980E-010  0.4778727E+02  0.7816164E-02  0.1312668E+00
        -11   -1    0    0    0    0  0.00000000000E+00  0.00000000000E+00  0.45593999997E+02  0.45594000000E+02  0.51100000000E-03 0. -1.
         11   -1    0    0    0    0 -0.00000000000E+00 -0.00000000000E+00 -0.45593999997E+02  0.45594000000E+02  0.51100000000E-03 0.  1.
    9900012    2    1    2    0    0  0.39872790181E+02  0.16950094723E+02 -0.25452335160E+01  0.47787270495E+02  0.19999997495E+02 0.  0.
        -12    1    1    2    0    0 -0.39872790181E+02 -0.16950094723E+02  0.25452335160E+01  0.43400729505E+02  0.00000000000E+00 0.  1.
         11    1    3    3    0    0  0.20037050855E+02 -0.34204629281E+00 -0.33174301189E+01  0.20312699119E+02  0.51100000000E-03 0. -1.
        -11    1    3    3    0    0  0.17230799646E+02  0.17695356467E+02 -0.97325373230E-01  0.24698898142E+02  0.51100000000E-03 0.  1.
        -12    1    3    3    0    0  0.26049396802E+01 -0.40321545120E+00  0.86952197617E+00  0.27756732345E+01  0.00000000000E+00 0.  1.
</event>
<event>
 7    1  0.2811980E-010  0.4778729E+02  0.7816164E-02  0.1312668E+00
        -11   -1    0    0    0    0  0.00000000000E+00  0.00000000000E+00  0.45593999997E+02  0.45594000000E+02  0.51100000000E-03 0. -1.
         11   -1    0    0    0    0 -0.00000000000E+00 -0.00000000000E+00 -0.45593999997E+02  0.45594000000E+02  0.51100000000E-03 0.  1.
    9900012    2    1    2    0    0  0.34074687277E+01 -0.40908929566E+02  0.14087933577E+02  0.47787294547E+02  0.20000107158E+02 0.  0.
        -12    1    1    2    0    0 -0.34074687277E+01  0.40908929566E+02 -0.14087933577E+02  0.43400705453E+02  0.00000000000E+00 0.  1.
         11    1    3    3    0    0  0.73454037770E+01 -0.33082885656E+02  0.15021299225E+02  0.37068473271E+02  0.51100000000E-03 0. -1.
        -11    1    3    3    0    0 -0.40636689184E+01 -0.16660589016E+01  0.41575039881E+00  0.44115763620E+01  0.51100000000E-03 0.  1.
         12    1    3    3    0    0  0.12573386918E+00 -0.61599850077E+01 -0.13491160460E+01  0.63072449141E+01  0.00000000000E+00 0. -1.
</event>
<event>
 7    1  0.2811980E-010  0.4778727E+02  0.7816164E-02  0.1312668E+00
        -11   -1    0    0    0    0  0.00000000000E+00  0.00000000000E+00  0.45593999997E+02  0.45594000000E+02  0.51100000000E-03 0.  1.
         11   -1    0    0    0    0 -0.00000000000E+00 -0.00000000000E+00 -0.45593999997E+02  0.45594000000E+02  0.51100000000E-03 0. -1.
    9900012    2    1    2    0    0  0.55601182474E+01 -0.29386659477E+02 -0.31450480101E+02  0.47787269952E+02  0.19999995019E+02 0.  0.
        -12    1    1    2    0    0 -0.55601182474E+01  0.29386659477E+02  0.31450480101E+02  0.43400730048E+02  0.00000000000E+00 0.  1.
         11    1    3    3    0    0  0.10399280569E+01 -0.11557770380E+02 -0.17939558046E+02  0.21365655845E+02  0.51100000000E-03 0. -1.
        -11    1    3    3    0    0 -0.10588516147E+01 -0.13937005488E+02 -0.36567594166E+01  0.14447601129E+02  0.51100000000E-03 0.  1.
        -12    1    3    3    0    0  0.55790418052E+01 -0.38918836087E+01 -0.98541626386E+01  0.11974012978E+02  0.00000000000E+00 0.  1.
</event>
<event>
 7    1  0.2811980E-010  0.4778727E+02  0.7816164E-02  0.1312668E+00
        -11   -1    0    0    0    0  0.00000000000E+00  0.00000000000E+00  0.45593999997E+02  0.45594000000E+02  0.51100000000E-03 0.  1.
         11   -1    0    0    0    0 -0.00000000000E+00 -0.00000000000E+00 -0.45593999997E+02  0.45594000000E+02  0.51100000000E-03 0. -1.
    9900012    2    1    2    0    0 -0.27624496583E+02 -0.11250867020E+02 -0.31526629379E+02  0.47787272124E+02  0.20000004923E+02 0.  0.
        -12    1    1    2    0    0  0.27624496583E+02  0.11250867020E+02  0.31526629379E+02  0.43400727876E+02  0.00000000000E+00 0.  1.
         11    1    3    3    0    0 -0.13474623647E+02 -0.82469967484E+01 -0.26657643920E+02  0.30987229909E+02  0.51100000000E-03 0. -1.
        -11    1    3    3    0    0 -0.11679784563E+02  0.60338671505E+00 -0.32569173788E+01  0.12140385250E+02  0.51100000000E-03 0.  1.
         12    1    3    3    0    0 -0.24700883735E+01 -0.36072569863E+01 -0.16120680804E+01  0.46596569653E+01  0.00000000000E+00 0. -1.
</event>
<event>
 7    1  0.4637436E-010  0.4778728E+02  0.7816164E-02  0.1312668E+00
        -11   -1    0    0    0    0  0.00000000000E+00  0.00000000000E+00  0.45593999997E+02  0.45594000000E+02  0.51100000000E-03 0. -1.
         11   -1    0    0    0    0 -0.00000000000E+00 -0.00000000000E+00 -0.45593999997E+02  0.45594000000E+02  0.51100000000E-03 0.  1.
    9900012    2    1    2    0    0  0.40791333337E+02 -0.13068974920E+02 -0.69922588418E+01  0.47787278063E+02  0.20000032003E+02 0.  0.
        -12    1    1    2    0    0 -0.40791333337E+02  0.13068974920E+02  0.69922588418E+01  0.43400721937E+02  0.00000000000E+00 0.  1.
         11    1    3    3    0    0  0.15321979696E+02 -0.42158360446E+01 -0.13768392106E+01  0.15950925422E+02  0.51100000000E-03 0. -1.
        -11    1    3    3    0    0  0.11379022827E+02  0.36169252913E+01  0.77416038730E+00  0.11965100653E+02  0.51100000000E-03 0.  1.
        -12    1    3    3    0    0  0.14090330814E+02 -0.12470064167E+02 -0.63895800185E+01  0.19871251989E+02  0.00000000000E+00 0.  1.
</event>
<event>
 7    1  0.2811980E-010  0.4778727E+02  0.7816164E-02  0.1312668E+00
        -11   -1    0    0    0    0  0.00000000000E+00  0.00000000000E+00  0.45593999997E+02  0.45594000000E+02  0.51100000000E-03 0. -1.
         11   -1    0    0    0    0 -0.00000000000E+00 -0.00000000000E+00 -0.45593999997E+02  0.45594000000E+02  0.51100000000E-03 0.  1.
    9900012    2    1    2    0    0 -0.41281158403E+02 -0.52287386158E+01  0.12334881335E+02  0.47787273691E+02  0.20000012066E+02 0.  0.
        -12    1    1    2    0    0  0.41281158403E+02  0.52287386158E+01 -0.12334881335E+02  0.43400726309E+02  0.00000000000E+00 0.  1.
         11    1    3    3    0    0 -0.88255156943E+00  0.24739267168E+01  0.21689686288E+01  0.34064109920E+01  0.51100000000E-03 0. -1.
        -11    1    3    3    0    0 -0.40060515532E+02 -0.55604708317E+01  0.11216469874E+02  0.41971096451E+02  0.51100000000E-03 0.  1.
        -12    1    3    3    0    0 -0.33809130150E+00 -0.21421945008E+01 -0.10505571679E+01  0.24097662481E+01  0.00000000000E+00 0.  1.
</event>
<event>
 7    1  0.2811980E-010  0.4778726E+02  0.7816164E-02  0.1312668E+00
        -11   -1    0    0    0    0  0.00000000000E+00  0.00000000000E+00  0.45593999997E+02  0.45594000000E+02  0.51100000000E-03 0.  1.
         11   -1    0    0    0    0 -0.00000000000E+00 -0.00000000000E+00 -0.45593999997E+02  0.45594000000E+02  0.51100000000E-03 0. -1.
    9900012    2    1    2    0    0 -0.26535332493E+02  0.16208791283E+02 -0.30278305209E+02  0.47787256323E+02  0.19999932880E+02 0.  0.
        -12    1    1    2    0    0  0.26535332493E+02 -0.16208791283E+02  0.30278305209E+02  0.43400743677E+02  0.00000000000E+00 0.  1.
         11    1    3    3    0    0 -0.50191496429E+01  0.44931344648E+01 -0.18611900951E+02  0.19793508474E+02  0.51100000000E-03 0. -1.
        -11    1    3    3    0    0 -0.10950203463E+02  0.81359198884E+01 -0.32622457114E+01  0.14026489071E+02  0.51100000000E-03 0.  1.
        -12    1    3    3    0    0 -0.10565979387E+02  0.35797369299E+01 -0.84041585464E+01  0.13967258778E+02  0.00000000000E+00 0.  1.
</event>
<event>
 7    1  0.2811980E-010  0.4778727E+02  0.7816164E-02  0.1312668E+00
        -11   -1    0    0    0    0  0.00000000000E+00  0.00000000000E+00  0.45593999997E+02  0.45594000000E+02  0.51100000000E-03 0.  1.
         11   -1    0    0    0    0 -0.00000000000E+00 -0.00000000000E+00 -0.45593999997E+02  0.45594000000E+02  0.51100000000E-03 0. -1.
    9900012    2    1    2    0    0 -0.20199905323E+02  0.30085325019E+02 -0.23884306997E+02  0.47787273309E+02  0.20000010327E+02 0.  0.
        -12    1    1    2    0    0  0.20199905323E+02 -0.30085325019E+02  0.23884306997E+02  0.43400726691E+02  0.00000000000E+00 0.  1.
         11    1    3    3    0    0 -0.76267037585E+01  0.21189984340E+02 -0.13311351094E+02  0.26160545001E+02  0.51100000000E-03 0. -1.
        -11    1    3    3    0    0 -0.11422964611E+02  0.48491540836E+01 -0.26992062985E+01  0.12699768924E+02  0.51100000000E-03 0.  1.
        -12    1    3    3    0    0 -0.11502369537E+01  0.40461865955E+01 -0.78737496045E+01  0.89269593844E+01  0.00000000000E+00 0.  1.
</event>
<event>
 7    1  0.2811980E-010  0.4778727E+02  0.7816164E-02  0.1312668E+00
        -11   -1    0    0    0    0  0.00000000000E+00  0.00000000000E+00  0.45593999997E+02  0.45594000000E+02  0.51100000000E-03 0. -1.
         11   -1    0    0    0    0 -0.00000000000E+00 -0.00000000000E+00 -0.45593999997E+02  0.45594000000E+02  0.51100000000E-03 0.  1.
    9900012    2    1    2    0    0  0.10231078299E+01 -0.38257757842E+02  0.20467539319E+02  0.47787274769E+02  0.20000016984E+02 0.  0.
        -12    1    1    2    0    0 -0.10231078299E+01  0.38257757842E+02 -0.20467539319E+02  0.43400725231E+02  0.00000000000E+00 0.  1.
         11    1    3    3    0    0  0.34975995607E+01 -0.24576948666E+02  0.15979149133E+02  0.29522750815E+02  0.51100000000E-03 0. -1.
        -11    1    3    3    0    0 -0.34982601924E+00 -0.77040387228E+01  0.79184382690E+01  0.11053336861E+02  0.51100000000E-03 0.  1.
         12    1    3    3    0    0 -0.21246657116E+01 -0.59767704541E+01 -0.34300480828E+01  0.72111870935E+01  0.00000000000E+00 0. -1.
</event>
<event>
 7    1  0.2811980E-010  0.4778725E+02  0.7816164E-02  0.1312668E+00
        -11   -1    0    0    0    0  0.00000000000E+00  0.00000000000E+00  0.45593999997E+02  0.45594000000E+02  0.51100000000E-03 0.  1.
         11   -1    0    0    0    0 -0.00000000000E+00 -0.00000000000E+00 -0.45593999997E+02  0.45594000000E+02  0.51100000000E-03 0. -1.
    9900012    2    1    2    0    0 -0.31869343990E+02 -0.38626005163E+00 -0.29458795438E+02  0.47787252174E+02  0.19999913964E+02 0.  0.
        -12    1    1    2    0    0  0.31869343990E+02  0.38626005163E+00  0.29458795438E+02  0.43400747826E+02  0.00000000000E+00 0.  1.
         11    1    3    3    0    0 -0.86422877157E+01 -0.17694630876E+01 -0.49619857874E+01  0.10121335870E+02  0.51100000000E-03 0. -1.
        -11    1    3    3    0    0 -0.17288357728E+02 -0.38703116526E+01 -0.23850813485E+02  0.29710737610E+02  0.51100000000E-03 0.  1.
        -12    1    3    3    0    0 -0.59386985461E+01  0.52535146886E+01 -0.64599616595E+00  0.79551786939E+01  0.00000000000E+00 0.  1.
</event>
<event>
 7    1  0.2811980E-010  0.4778727E+02  0.7816164E-02  0.1312668E+00
        -11   -1    0    0    0    0  0.00000000000E+00  0.00000000000E+00  0.45593999997E+02  0.45594000000E+02  0.51100000000E-03 0. -1.
         11   -1    0    0    0    0 -0.00000000000E+00 -0.00000000000E+00 -0.45593999997E+02  0.45594000000E+02  0.51100000000E-03 0.  1.
    9900012    2    1    2    0    0  0.26892182804E+02  0.24945767408E+02  0.23197891872E+02  0.47787274259E+02  0.20000014655E+02 0.  0.
        -12    1    1    2    0    0 -0.26892182804E+02 -0.24945767408E+02 -0.23197891872E+02  0.43400725741E+02  0.00000000000E+00 0.  1.
         11    1    3    3    0    0  0.14595033004E+02  0.14683433455E+02  0.94572061256E+01  0.22760864535E+02  0.51100000000E-03 0. -1.
        -11    1    3    3    0    0  0.11346353637E+02  0.12360965075E+02  0.14906675878E+02  0.22444201577E+02  0.51100000000E-03 0.  1.
        -12    1    3    3    0    0  0.95079616315E+00 -0.20986311211E+01 -0.11659901319E+01  0.25822081469E+01  0.00000000000E+00 0.  1.
</event>
<event>
 7    1  0.2811980E-010  0.4778727E+02  0.7816164E-02  0.1312668E+00
        -11   -1    0    0    0    0  0.00000000000E+00  0.00000000000E+00  0.45593999997E+02  0.45594000000E+02  0.51100000000E-03 0.  1.
         11   -1    0    0    0    0 -0.00000000000E+00 -0.00000000000E+00 -0.45593999997E+02  0.45594000000E+02  0.51100000000E-03 0. -1.
    9900012    2    1    2    0    0 -0.38877983085E+02  0.18494118618E+02  0.54857336247E+01  0.47787271139E+02  0.20000000433E+02 0.  0.
        -12    1    1    2    0    0  0.38877983085E+02 -0.18494118618E+02 -0.54857336247E+01  0.43400728861E+02  0.00000000000E+00 0.  1.
         11    1    3    3    0    0 -0.19784354999E+02  0.21783664584E+01  0.35706048195E+01  0.20221651817E+02  0.51100000000E-03 0. -1.
        -11    1    3    3    0    0 -0.11720989202E+02  0.15428774186E+02  0.41406917271E+01  0.19813479982E+02  0.51100000000E-03 0.  1.
        -12    1    3    3    0    0 -0.73726388837E+01  0.88697797357E+00 -0.22255629219E+01  0.77521393405E+01  0.00000000000E+00 0.  1.
</event>
<event>
 7    1  0.2811980E-010  0.4778727E+02  0.7816164E-02  0.1312668E+00
        -11   -1    0    0    0    0  0.00000000000E+00  0.00000000000E+00  0.45593999997E+02  0.45594000000E+02  0.51100000000E-03 0. -1.
         11   -1    0    0    0    0 -0.00000000000E+00 -0.00000000000E+00 -0.45593999997E+02  0.45594000000E+02  0.51100000000E-03 0.  1.
    9900012    2    1    2    0    0 -0.10107691536E+02 -0.17334160449E+02  0.38483561182E+02  0.47787273878E+02  0.20000012921E+02 0.  0.
        -12    1    1    2    0    0  0.10107691536E+02  0.17334160449E+02 -0.38483561182E+02  0.43400726122E+02  0.00000000000E+00 0.  1.
         11    1    3    3    0    0  0.32594834394E+01  0.41869379189E+00  0.10949367637E+02  0.11431893487E+02  0.51100000000E-03 0. -1.
        -11    1    3    3    0    0 -0.94388318617E+01 -0.17380515479E+02  0.23436599765E+02  0.30666725844E+02  0.51100000000E-03 0.  1.
         12    1    3    3    0    0 -0.39283431136E+01 -0.37233876281E+00  0.40975937800E+01  0.56886545473E+01  0.00000000000E+00 0. -1.
</event>
<event>
 7    1  0.2811980E-010  0.4778727E+02  0.7816164E-02  0.1312668E+00
        -11   -1    0    0    0    0  0.00000000000E+00  0.00000000000E+00  0.45593999997E+02  0.45594000000E+02  0.51100000000E-03 0.  1.
         11   -1    0    0    0    0 -0.00000000000E+00 -0.00000000000E+00 -0.45593999997E+02  0.45594000000E+02  0.51100000000E-03 0. -1.
    9900012    2    1    2    0    0  0.18495544295E+02  0.22493852961E+02 -0.32180194400E+02  0.47787268538E+02  0.19999988572E+02 0.  0.
        -12    1    1    2    0    0 -0.18495544295E+02 -0.22493852961E+02  0.32180194400E+02  0.43400731462E+02  0.00000000000E+00 0.  1.
         11    1    3    3    0    0  0.63563608789E+01 -0.22538582862E+01 -0.96613505330E+01  0.11782397684E+02  0.51100000000E-03 0. -1.
        -11    1    3    3    0    0  0.54391652957E-01  0.31077622782E+01 -0.12702343479E+01  0.33577731295E+01  0.51100000000E-03 0.  1.
         12    1    3    3    0    0  0.12084791763E+02  0.21639948969E+02 -0.21248609519E+02  0.32647097725E+02  0.00000000000E+00 0. -1.
</event>
<event>
 7    1  0.2811980E-010  0.4778726E+02  0.7816164E-02  0.1312668E+00
        -11   -1    0    0    0    0  0.00000000000E+00  0.00000000000E+00  0.45593999997E+02  0.45594000000E+02  0.51100000000E-03 0. -1.
         11   -1    0    0    0    0 -0.00000000000E+00 -0.00000000000E+00 -0.45593999997E+02  0.45594000000E+02  0.51100000000E-03 0.  1.
    9900012    2    1    2    0    0 -0.21984430367E+02  0.17897715336E+02  0.32863058625E+02  0.47787262507E+02  0.19999961072E+02 0.  0.
        -12    1    1    2    0    0  0.21984430367E+02 -0.17897715336E+02 -0.32863058625E+02  0.43400737493E+02  0.00000000000E+00 0.  1.
         11    1    3    3    0    0 -0.29879581597E+01  0.96686205611E+01  0.59965127515E+01  0.11763004844E+02  0.51100000000E-03 0. -1.
        -11    1    3    3    0    0 -0.12681261108E+02 -0.52669006519E+00  0.10787220554E+02  0.16657007932E+02  0.51100000000E-03 0.  1.
        -12    1    3    3    0    0 -0.63152110991E+01  0.87557848399E+01  0.16079325320E+02  0.19367249731E+02  0.00000000000E+00 0.  1.
</event>
<event>
 7    1  0.2811980E-010  0.4778727E+02  0.7816164E-02  0.1312668E+00
        -11   -1    0    0    0    0  0.00000000000E+00  0.00000000000E+00  0.45593999997E+02  0.45594000000E+02  0.51100000000E-03 0. -1.
         11   -1    0    0    0    0 -0.00000000000E+00 -0.00000000000E+00 -0.45593999997E+02  0.45594000000E+02  0.51100000000E-03 0.  1.
    9900012    2    1    2    0    0 -0.81917261808E+01  0.33609034314E+02  0.26209764964E+02  0.47787270227E+02  0.19999996273E+02 0.  0.
        -12    1    1    2    0    0  0.81917261808E+01 -0.33609034314E+02 -0.26209764964E+02  0.43400729773E+02  0.00000000000E+00 0.  1.
         11    1    3    3    0    0 -0.27580337923E+01  0.30719042130E+02  0.17389738051E+02  0.35407192624E+02  0.51100000000E-03 0. -1.
        -11    1    3    3    0    0 -0.93738714578E+00  0.49913042942E+00  0.68308654746E+01  0.69129262429E+01  0.51100000000E-03 0.  1.
         12    1    3    3    0    0 -0.44963052427E+01  0.23908617547E+01  0.19891614392E+01  0.54671513604E+01  0.00000000000E+00 0. -1.
</event>
<event>
 7    1  0.2811980E-010  0.4778726E+02  0.7816164E-02  0.1312668E+00
        -11   -1    0    0    0    0  0.00000000000E+00  0.00000000000E+00  0.45593999997E+02  0.45594000000E+02  0.51100000000E-03 0.  1.
         11   -1    0    0    0    0 -0.00000000000E+00 -0.00000000000E+00 -0.45593999997E+02  0.45594000000E+02  0.51100000000E-03 0. -1.
    9900012    2    1    2    0    0  0.18436493171E+02  0.38918841846E+02 -0.53892549108E+01  0.47787255772E+02  0.19999930365E+02 0.  0.
        -12    1    1    2    0    0 -0.18436493171E+02 -0.38918841846E+02  0.53892549108E+01  0.43400744228E+02  0.00000000000E+00 0.  1.
         11    1    3    3    0    0  0.14527921464E+02  0.35037969585E+02 -0.29985640095E+01  0.38048800258E+02  0.51100000000E-03 0. -1.
        -11    1    3    3    0    0  0.41382379992E+01  0.20822716023E+01 -0.48342905570E+01  0.66956130574E+01  0.51100000000E-03 0.  1.
         12    1    3    3    0    0 -0.22966629243E+00  0.17986006587E+01  0.24435996557E+01  0.30428424561E+01  0.00000000000E+00 0. -1.
</event>
<event>
 7    1  0.2811980E-010  0.4778727E+02  0.7816164E-02  0.1312668E+00
        -11   -1    0    0    0    0  0.00000000000E+00  0.00000000000E+00  0.45593999997E+02  0.45594000000E+02  0.51100000000E-03 0.  1.
         11   -1    0    0    0    0 -0.00000000000E+00 -0.00000000000E+00 -0.45593999997E+02  0.45594000000E+02  0.51100000000E-03 0. -1.
    9900012    2    1    2    0    0 -0.18727389127E+02 -0.11035828250E+02 -0.37564858975E+02  0.47787271452E+02  0.20000001860E+02 0.  0.
        -12    1    1    2    0    0  0.18727389127E+02  0.11035828250E+02  0.37564858975E+02  0.43400728548E+02  0.00000000000E+00 0.  1.
         11    1    3    3    0    0  0.11705372526E+01  0.32293135442E+00 -0.23616891504E+01  0.26555635981E+01  0.51100000000E-03 0. -1.
        -11    1    3    3    0    0 -0.62364359178E+01  0.28447300683E+01 -0.32406837556E+01  0.75820613017E+01  0.51100000000E-03 0.  1.
        -12    1    3    3    0    0 -0.13661490462E+02 -0.14203489673E+02 -0.31962486069E+02  0.37549646552E+02  0.00000000000E+00 0.  1.
</event>
<event>
 7    1  0.2811980E-010  0.4778726E+02  0.7816164E-02  0.1312668E+00
        -11   -1    0    0    0    0  0.00000000000E+00  0.00000000000E+00  0.45593999997E+02  0.45594000000E+02  0.51100000000E-03 0. -1.
         11   -1    0    0    0    0 -0.00000000000E+00 -0.00000000000E+00 -0.45593999997E+02  0.45594000000E+02  0.51100000000E-03 0.  1.
    9900012    2    1    2    0    0 -0.25212557400E+02 -0.31729185804E+02  0.15530942953E+02  0.47787257248E+02  0.19999937098E+02 0.  0.
        -12    1    1    2    0    0  0.25212557400E+02  0.31729185804E+02 -0.15530942953E+02  0.43400742752E+02  0.00000000000E+00 0.  1.
         11    1    3    3    0    0 -0.11884377981E+02 -0.18941137578E+02  0.10567949231E+02  0.24732300418E+02  0.51100000000E-03 0. -1.
        -11    1    3    3    0    0 -0.31189814156E+01  0.25392101373E+01  0.16301911608E+01  0.43397185017E+01  0.51100000000E-03 0.  1.
        -12    1    3    3    0    0 -0.10209198003E+02 -0.15327258363E+02  0.33328025611E+01  0.18715238329E+02  0.00000000000E+00 0.  1.
</event>
<event>
 7    1  0.2811980E-010  0.4778727E+02  0.7816164E-02  0.1312668E+00
        -11   -1    0    0    0    0  0.00000000000E+00  0.00000000000E+00  0.45593999997E+02  0.45594000000E+02  0.51100000000E-03 0.  1.
         11   -1    0    0    0    0 -0.00000000000E+00 -0.00000000000E+00 -0.45593999997E+02  0.45594000000E+02  0.51100000000E-03 0. -1.
    9900012    2    1    2    0    0 -0.10180880952E+02 -0.35489038445E+02 -0.22814494984E+02  0.47787269959E+02  0.19999995051E+02 0.  0.
        -12    1    1    2    0    0  0.10180880952E+02  0.35489038445E+02  0.22814494984E+02  0.43400730041E+02  0.00000000000E+00 0.  1.
         11    1    3    3    0    0 -0.10338796750E+02 -0.26919360130E+02 -0.18704860908E+02  0.34371710604E+02  0.51100000000E-03 0. -1.
        -11    1    3    3    0    0  0.67079219668E+00  0.11607393700E+00  0.24348032197E+01  0.25281816212E+01  0.51100000000E-03 0.  1.
        -12    1    3    3    0    0 -0.51287639885E+00 -0.86857522524E+01 -0.65444372961E+01  0.10887377734E+02  0.00000000000E+00 0.  1.
</event>
<event>
 7    1  0.2811980E-010  0.4778728E+02  0.7816164E-02  0.1312668E+00
        -11   -1    0    0    0    0  0.00000000000E+00  0.00000000000E+00  0.45593999997E+02  0.45594000000E+02  0.51100000000E-03 0. -1.
         11   -1    0    0    0    0 -0.00000000000E+00 -0.00000000000E+00 -0.45593999997E+02  0.45594000000E+02  0.51100000000E-03 0.  1.
    9900012    2    1    2    0    0  0.22223560784E+00  0.37985406531E+02  0.20992428970E+02  0.47787279130E+02  0.20000036865E+02 0.  0.
        -12    1    1    2    0    0 -0.22223560784E+00 -0.37985406531E+02 -0.20992428970E+02  0.43400720870E+02  0.00000000000E+00 0.  1.
         11    1    3    3    0    0 -0.33322176986E+01  0.13732841470E+02  0.16256559525E+02  0.21539970693E+02  0.51100000000E-03 0. -1.
        -11    1    3    3    0    0  0.37100486639E+01  0.24048744383E+02  0.59139922135E+01  0.25041602817E+02  0.51100000000E-03 0.  1.
        -12    1    3    3    0    0 -0.15559535749E+00  0.20382067781E+00 -0.11781227680E+01  0.12057056194E+01  0.00000000000E+00 0.  1.
</event>
<event>
 7    1  0.2811980E-010  0.4778727E+02  0.7816164E-02  0.1312668E+00
        -11   -1    0    0    0    0  0.00000000000E+00  0.00000000000E+00  0.45593999997E+02  0.45594000000E+02  0.51100000000E-03 0. -1.
         11   -1    0    0    0    0 -0.00000000000E+00 -0.00000000000E+00 -0.45593999997E+02  0.45594000000E+02  0.51100000000E-03 0.  1.
    9900012    2    1    2    0    0  0.38466492602E+01 -0.19773751594E+02  0.38442489654E+02  0.47787274506E+02  0.20000015782E+02 0.  0.
        -12    1    1    2    0    0 -0.38466492602E+01  0.19773751594E+02 -0.38442489654E+02  0.43400725494E+02  0.00000000000E+00 0.  1.
         11    1    3    3    0    0  0.89889999753E+01 -0.28318019453E+01  0.13251342213E+02  0.16260974556E+02  0.51100000000E-03 0.  1.
        -11    1    3    3    0    0 -0.27592887131E+01 -0.14760216077E+02  0.16789193947E+02  0.22524535212E+02  0.51100000000E-03 0. -1.
        -12    1    3    3    0    0 -0.23830620020E+01 -0.21817335711E+01  0.84019534939E+01  0.90017647377E+01  0.00000000000E+00 0.  1.
</event>
<event>
 7    1  0.2811980E-010  0.4778727E+02  0.7816164E-02  0.1312668E+00
        -11   -1    0    0    0    0  0.00000000000E+00  0.00000000000E+00  0.45593999997E+02  0.45594000000E+02  0.51100000000E-03 0.  1.
         11   -1    0    0    0    0 -0.00000000000E+00 -0.00000000000E+00 -0.45593999997E+02  0.45594000000E+02  0.51100000000E-03 0. -1.
    9900012    2    1    2    0    0 -0.58386261728E+01  0.42930339025E+02 -0.25533720730E+01  0.47787271051E+02  0.20000000031E+02 0.  0.
        -12    1    1    2    0    0  0.58386261728E+01 -0.42930339025E+02  0.25533720730E+01  0.43400728949E+02  0.00000000000E+00 0.  1.
         11    1    3    3    0    0 -0.62505623485E+01  0.23013430801E+02  0.35573190337E+01  0.24111035770E+02  0.51100000000E-03 0. -1.
        -11    1    3    3    0    0 -0.34373435756E+01  0.66527378016E+01 -0.64166648975E+01  0.98614319336E+01  0.51100000000E-03 0.  1.
         12    1    3    3    0    0  0.38492797514E+01  0.13264170421E+02  0.30597379074E+00  0.13814803348E+02  0.00000000000E+00 0. -1.
</event>
<event>
 7    1  0.2811980E-010  0.4778727E+02  0.7816164E-02  0.1312668E+00
        -11   -1    0    0    0    0  0.00000000000E+00  0.00000000000E+00  0.45593999997E+02  0.45594000000E+02  0.51100000000E-03 0.  1.
         11   -1    0    0    0    0 -0.00000000000E+00 -0.00000000000E+00 -0.45593999997E+02  0.45594000000E+02  0.51100000000E-03 0. -1.
    9900012    2    1    2    0    0 -0.22170208566E+02  0.71295819042E+01 -0.36623416033E+02  0.47787266274E+02  0.19999978251E+02 0.  0.
        -12    1    1    2    0    0  0.22170208566E+02 -0.71295819042E+01  0.36623416033E+02  0.43400733726E+02  0.00000000000E+00 0.  1.
         11    1    3    3    0    0 -0.30045614766E+01  0.85812258881E+01 -0.14692890997E+02  0.17278480070E+02  0.51100000000E-03 0. -1.
        -11    1    3    3    0    0  0.14366621434E+00  0.13691616111E+01 -0.30939690167E+01  0.33864270309E+01  0.51100000000E-03 0.  1.
         12    1    3    3    0    0 -0.19309313304E+02 -0.28208055950E+01 -0.18836556019E+02  0.27122359173E+02  0.00000000000E+00 0. -1.
</event>
<event>
 7    1  0.2811980E-010  0.4778727E+02  0.7816164E-02  0.1312668E+00
        -11   -1    0    0    0    0  0.00000000000E+00  0.00000000000E+00  0.45593999997E+02  0.45594000000E+02  0.51100000000E-03 0. -1.
         11   -1    0    0    0    0 -0.00000000000E+00 -0.00000000000E+00 -0.45593999997E+02  0.45594000000E+02  0.51100000000E-03 0.  1.
    9900012    2    1    2    0    0 -0.24584249854E+02  0.44078381208E+01  0.35493787433E+02  0.47787270465E+02  0.19999997360E+02 0.  0.
        -12    1    1    2    0    0  0.24584249854E+02 -0.44078381208E+01 -0.35493787433E+02  0.43400729535E+02  0.00000000000E+00 0.  1.
         11    1    3    3    0    0 -0.19940453625E+01 -0.46263912548E+01  0.11820206808E+02  0.12849007830E+02  0.51100000000E-03 0. -1.
        -11    1    3    3    0    0 -0.56972895029E+01  0.37979351149E+01  0.23599916697E+01  0.72424429414E+01  0.51100000000E-03 0.  1.
         12    1    3    3    0    0 -0.16892914988E+02  0.52362942607E+01  0.21313588955E+02  0.27695819694E+02  0.00000000000E+00 0. -1.
</event>
<event>
 7    1  0.2811980E-010  0.4778727E+02  0.7816164E-02  0.1312668E+00
        -11   -1    0    0    0    0  0.00000000000E+00  0.00000000000E+00  0.45593999997E+02  0.45594000000E+02  0.51100000000E-03 0. -1.
         11   -1    0    0    0    0 -0.00000000000E+00 -0.00000000000E+00 -0.45593999997E+02  0.45594000000E+02  0.51100000000E-03 0.  1.
    9900012    2    1    2    0    0  0.36129722330E+02  0.23112539843E+02  0.66390428165E+01  0.47787271629E+02  0.20000002667E+02 0.  0.
        -12    1    1    2    0    0 -0.36129722330E+02 -0.23112539843E+02 -0.66390428165E+01  0.43400728371E+02  0.00000000000E+00 0.  1.
         11    1    3    3    0    0 -0.37482144998E+00 -0.14209492083E+01  0.31059577545E+01  0.34360677534E+01  0.51100000000E-03 0. -1.
        -11    1    3    3    0    0  0.13827667488E+02  0.10074542101E+02 -0.71530904463E+00  0.17123447491E+02  0.51100000000E-03 0.  1.
         12    1    3    3    0    0  0.22676876292E+02  0.14458946950E+02  0.42483941066E+01  0.27227756385E+02  0.00000000000E+00 0. -1.
</event>
<event>
 7    1  0.2811980E-010  0.4778727E+02  0.7816164E-02  0.1312668E+00
        -11   -1    0    0    0    0  0.00000000000E+00  0.00000000000E+00  0.45593999997E+02  0.45594000000E+02  0.51100000000E-03 0. -1.
         11   -1    0    0    0    0 -0.00000000000E+00 -0.00000000000E+00 -0.45593999997E+02  0.45594000000E+02  0.51100000000E-03 0.  1.
    9900012    2    1    2    0    0 -0.45700065546E+01 -0.41838712110E+02  0.10595307417E+02  0.47787270396E+02  0.19999997042E+02 0.  0.
        -12    1    1    2    0    0  0.45700065546E+01  0.41838712110E+02 -0.10595307417E+02  0.43400729604E+02  0.00000000000E+00 0.  1.
         11    1    3    3    0    0 -0.21895258659E+01 -0.13076452341E+02  0.66791220484E+01  0.14845817625E+02  0.51100000000E-03 0. -1.
        -11    1    3    3    0    0 -0.34650629988E+00 -0.14728627682E+02 -0.57121496094E+01  0.15801303536E+02  0.51100000000E-03 0.  1.
        -12    1    3    3    0    0 -0.20339743888E+01 -0.14033632087E+02  0.96283349777E+01  0.17140149235E+02  0.00000000000E+00 0.  1.
</event>
<event>
 7    1  0.2811980E-010  0.4778727E+02  0.7816164E-02  0.1312668E+00
        -11   -1    0    0    0    0  0.00000000000E+00  0.00000000000E+00  0.45593999997E+02  0.45594000000E+02  0.51100000000E-03 0.  1.
         11   -1    0    0    0    0 -0.00000000000E+00 -0.00000000000E+00 -0.45593999997E+02  0.45594000000E+02  0.51100000000E-03 0. -1.
    9900012    2    1    2    0    0 -0.27726090336E+02 -0.26353584432E+02 -0.20503070027E+02  0.47787269842E+02  0.19999994517E+02 0.  0.
        -12    1    1    2    0    0  0.27726090336E+02  0.26353584432E+02  0.20503070027E+02  0.43400730158E+02  0.00000000000E+00 0.  1.
         11    1    3    3    0    0 -0.82005456951E+00 -0.26348338084E+01 -0.33065978706E+01  0.43067886451E+01  0.51100000000E-03 0. -1.
        -11    1    3    3    0    0 -0.16833750433E+01  0.31121844247E-01  0.29554054729E+01  0.34013441279E+01  0.51100000000E-03 0.  1.
        -12    1    3    3    0    0 -0.25222660723E+02 -0.23749872467E+02 -0.20151877630E+02  0.40079137069E+02  0.00000000000E+00 0.  1.
</event>
<event>
 7    1  0.2811980E-010  0.4778727E+02  0.7816164E-02  0.1312668E+00
        -11   -1    0    0    0    0  0.00000000000E+00  0.00000000000E+00  0.45593999997E+02  0.45594000000E+02  0.51100000000E-03 0. -1.
         11   -1    0    0    0    0 -0.00000000000E+00 -0.00000000000E+00 -0.45593999997E+02  0.45594000000E+02  0.51100000000E-03 0.  1.
    9900012    2    1    2    0    0 -0.17866669488E+02 -0.37915276398E+02  0.11262216261E+02  0.47787267540E+02  0.19999984023E+02 0.  0.
        -12    1    1    2    0    0  0.17866669488E+02  0.37915276398E+02 -0.11262216261E+02  0.43400732460E+02  0.00000000000E+00 0.  1.
         11    1    3    3    0    0 -0.14372064510E+02 -0.25265635713E+02  0.32243795383E+01  0.29245601548E+02  0.51100000000E-03 0. -1.
        -11    1    3    3    0    0 -0.22160518130E+01 -0.10102222459E+02  0.10527001512E+02  0.14757491160E+02  0.51100000000E-03 0.  1.
        -12    1    3    3    0    0 -0.12785531649E+01 -0.25474182264E+01 -0.24891647886E+01  0.37841748322E+01  0.00000000000E+00 0.  1.
</event>
<event>
 7    1  0.2811980E-010  0.4778728E+02  0.7816164E-02  0.1312668E+00
        -11   -1    0    0    0    0  0.00000000000E+00  0.00000000000E+00  0.45593999997E+02  0.45594000000E+02  0.51100000000E-03 0.  1.
         11   -1    0    0    0    0 -0.00000000000E+00 -0.00000000000E+00 -0.45593999997E+02  0.45594000000E+02  0.51100000000E-03 0. -1.
    9900012    2    1    2    0    0 -0.75677022946E+01  0.29393252591E+02 -0.31022401762E+02  0.47787276193E+02  0.20000023474E+02 0.  0.
        -12    1    1    2    0    0  0.75677022946E+01 -0.29393252591E+02  0.31022401762E+02  0.43400723807E+02  0.00000000000E+00 0.  1.
         11    1    3    3    0    0 -0.29464064556E+00  0.11053792633E+02 -0.10792905387E+02  0.15451859165E+02  0.51100000000E-03 0.  1.
        -11    1    3    3    0    0 -0.42155744811E+01  0.18901894423E+02 -0.10308932645E+02  0.21939160730E+02  0.51100000000E-03 0. -1.
        -12    1    3    3    0    0 -0.30574871679E+01 -0.56243446524E+00 -0.99205637298E+01  0.10396256299E+02  0.00000000000E+00 0.  1.
</event>
<event>
 7    1  0.2811980E-010  0.4778727E+02  0.7816164E-02  0.1312668E+00
        -11   -1    0    0    0    0  0.00000000000E+00  0.00000000000E+00  0.45593999997E+02  0.45594000000E+02  0.51100000000E-03 0.  1.
         11   -1    0    0    0    0 -0.00000000000E+00 -0.00000000000E+00 -0.45593999997E+02  0.45594000000E+02  0.51100000000E-03 0. -1.
    9900012    2    1    2    0    0 -0.24666140843E+02 -0.27102769893E+02 -0.23251768095E+02  0.47787270058E+02  0.19999995502E+02 0.  0.
        -12    1    1    2    0    0  0.24666140843E+02  0.27102769893E+02  0.23251768095E+02  0.43400729942E+02  0.00000000000E+00 0.  1.
         11    1    3    3    0    0 -0.54615354187E+01 -0.49859744202E+01 -0.12924154338E+02  0.14890334975E+02  0.51100000000E-03 0. -1.
        -11    1    3    3    0    0 -0.34211010565E+01 -0.56353799649E+01  0.20915164447E+01  0.69163488263E+01  0.51100000000E-03 0.  1.
         12    1    3    3    0    0 -0.15783504368E+02 -0.16481415508E+02 -0.12419130202E+02  0.25980586257E+02  0.00000000000E+00 0. -1.
</event>
<event>
 7    1  0.2811980E-010  0.4778727E+02  0.7816164E-02  0.1312668E+00
        -11   -1    0    0    0    0  0.00000000000E+00  0.00000000000E+00  0.45593999997E+02  0.45594000000E+02  0.51100000000E-03 0. -1.
         11   -1    0    0    0    0 -0.00000000000E+00 -0.00000000000E+00 -0.45593999997E+02  0.45594000000E+02  0.51100000000E-03 0.  1.
    9900012    2    1    2    0    0  0.22649934948E+01 -0.32308439795E+02  0.28890443257E+02  0.47787272021E+02  0.20000004453E+02 0.  0.
        -12    1    1    2    0    0 -0.22649934948E+01  0.32308439795E+02 -0.28890443257E+02  0.43400727979E+02  0.00000000000E+00 0.  1.
         11    1    3    3    0    0  0.32741579094E+01  0.10769146500E+00  0.58958017596E+01  0.67447895532E+01  0.51100000000E-03 0. -1.
        -11    1    3    3    0    0 -0.44779392296E+01 -0.17589038734E+02  0.85855310549E+01  0.20078285960E+02  0.51100000000E-03 0.  1.
        -12    1    3    3    0    0  0.34687748151E+01 -0.14827092526E+02  0.14409110442E+02  0.20964196508E+02  0.00000000000E+00 0.  1.
</event>
<event>
 7    1  0.2811980E-010  0.4778726E+02  0.7816164E-02  0.1312668E+00
        -11   -1    0    0    0    0  0.00000000000E+00  0.00000000000E+00  0.45593999997E+02  0.45594000000E+02  0.51100000000E-03 0. -1.
         11   -1    0    0    0    0 -0.00000000000E+00 -0.00000000000E+00 -0.45593999997E+02  0.45594000000E+02  0.51100000000E-03 0.  1.
    9900012    2    1    2    0    0  0.24958355489E+02 -0.32810478389E+02  0.13571185085E+02  0.47787261925E+02  0.19999958423E+02 0.  0.
        -12    1    1    2    0    0 -0.24958355489E+02  0.32810478389E+02 -0.13571185085E+02  0.43400738075E+02  0.00000000000E+00 0.  1.
         11    1    3    3    0    0  0.20609282304E+02 -0.26310169843E+02  0.14726997314E+02  0.36521938672E+02  0.51100000000E-03 0. -1.
        -11    1    3    3    0    0  0.19232469266E+01  0.17517767880E+01 -0.15560572029E+00  0.26061109065E+01  0.51100000000E-03 0.  1.
         12    1    3    3    0    0  0.24258262581E+01 -0.82520853343E+01 -0.10002065094E+01  0.86592123465E+01  0.00000000000E+00 0. -1.
</event>
<event>
 7    1  0.2811980E-010  0.4778727E+02  0.7816164E-02  0.1312668E+00
        -11   -1    0    0    0    0  0.00000000000E+00  0.00000000000E+00  0.45593999997E+02  0.45594000000E+02  0.51100000000E-03 0.  1.
         11   -1    0    0    0    0 -0.00000000000E+00 -0.00000000000E+00 -0.45593999997E+02  0.45594000000E+02  0.51100000000E-03 0. -1.
    9900012    2    1    2    0    0 -0.13513407355E+02  0.83363181398E+01 -0.40392039057E+02  0.47787271922E+02  0.20000004003E+02 0.  0.
        -12    1    1    2    0    0  0.13513407355E+02 -0.83363181398E+01  0.40392039057E+02  0.43400728078E+02  0.00000000000E+00 0.  1.
         11    1    3    3    0    0 -0.11380143458E+02  0.79522303500E+01 -0.23017587772E+02  0.26880382805E+02  0.51100000000E-03 0. -1.
        -11    1    3    3    0    0  0.43114041173E+01 -0.20357753210E+00 -0.11029280533E+02  0.11843761168E+02  0.51100000000E-03 0.  1.
        -12    1    3    3    0    0 -0.64446680140E+01  0.58766532194E+00 -0.63451707529E+01  0.90631279493E+01  0.00000000000E+00 0.  1.
</event>
<event>
 7    1  0.2811980E-010  0.4778727E+02  0.7816164E-02  0.1312668E+00
        -11   -1    0    0    0    0  0.00000000000E+00  0.00000000000E+00  0.45593999997E+02  0.45594000000E+02  0.51100000000E-03 0.  1.
         11   -1    0    0    0    0 -0.00000000000E+00 -0.00000000000E+00 -0.45593999997E+02  0.45594000000E+02  0.51100000000E-03 0. -1.
    9900012    2    1    2    0    0  0.29727191202E+02 -0.47940849414E+01 -0.31255947657E+02  0.47787269464E+02  0.19999992793E+02 0.  0.
        -12    1    1    2    0    0 -0.29727191202E+02  0.47940849414E+01  0.31255947657E+02  0.43400730536E+02  0.00000000000E+00 0.  1.
         11    1    3    3    0    0  0.27952889405E+02 -0.75825875213E+01 -0.20973218702E+02  0.35759412224E+02  0.51100000000E-03 0. -1.
        -11    1    3    3    0    0 -0.18088082675E+01  0.17263269607E+01 -0.42773025975E+01  0.49545241846E+01  0.51100000000E-03 0.  1.
         12    1    3    3    0    0  0.35831100642E+01  0.10621756192E+01 -0.60054263573E+01  0.70733330553E+01  0.00000000000E+00 0. -1.
</event>
<event>
 7    1  0.2811980E-010  0.4778727E+02  0.7816164E-02  0.1312668E+00
        -11   -1    0    0    0    0  0.00000000000E+00  0.00000000000E+00  0.45593999997E+02  0.45594000000E+02  0.51100000000E-03 0.  1.
         11   -1    0    0    0    0 -0.00000000000E+00 -0.00000000000E+00 -0.45593999997E+02  0.45594000000E+02  0.51100000000E-03 0. -1.
    9900012    2    1    2    0    0 -0.20775680906E+02  0.20767199448E+01 -0.38048413386E+02  0.47787269084E+02  0.19999991063E+02 0.  0.
        -12    1    1    2    0    0  0.20775680906E+02 -0.20767199448E+01  0.38048413386E+02  0.43400730916E+02  0.00000000000E+00 0.  1.
         11    1    3    3    0    0 -0.73955447933E+01  0.25246365942E+01 -0.19255353427E+02  0.20780676326E+02  0.51100000000E-03 0. -1.
        -11    1    3    3    0    0 -0.14169082440E+02  0.33528696538E+01 -0.10825620776E+02  0.18143833596E+02  0.51100000000E-03 0.  1.
        -12    1    3    3    0    0  0.78894632710E+00 -0.38007863032E+01 -0.79674391834E+01  0.88627591624E+01  0.00000000000E+00 0.  1.
</event>
<event>
 7    1  0.2811980E-010  0.4778727E+02  0.7816164E-02  0.1312668E+00
        -11   -1    0    0    0    0  0.00000000000E+00  0.00000000000E+00  0.45593999997E+02  0.45594000000E+02  0.51100000000E-03 0.  1.
         11   -1    0    0    0    0 -0.00000000000E+00 -0.00000000000E+00 -0.45593999997E+02  0.45594000000E+02  0.51100000000E-03 0. -1.
    9900012    2    1    2    0    0  0.98760061233E+01 -0.28840993606E+02 -0.30891500396E+02  0.47787271828E+02  0.20000003575E+02 0.  0.
        -12    1    1    2    0    0 -0.98760061233E+01  0.28840993606E+02  0.30891500396E+02  0.43400728172E+02  0.00000000000E+00 0.  1.
         11    1    3    3    0    0  0.27225547411E+01 -0.19290075521E+01 -0.12571735455E+02  0.13006994544E+02  0.51100000000E-03 0. -1.
        -11    1    3    3    0    0  0.35467580230E+01 -0.14348154747E+01 -0.26327439913E+01  0.46443007121E+01  0.51100000000E-03 0.  1.
         12    1    3    3    0    0  0.36066933592E+01 -0.25477170579E+02 -0.15687020949E+02  0.30135976572E+02  0.00000000000E+00 0. -1.
</event>
<event>
 7    1  0.2811980E-010  0.4778727E+02  0.7816164E-02  0.1312668E+00
        -11   -1    0    0    0    0  0.00000000000E+00  0.00000000000E+00  0.45593999997E+02  0.45594000000E+02  0.51100000000E-03 0.  1.
         11   -1    0    0    0    0 -0.00000000000E+00 -0.00000000000E+00 -0.45593999997E+02  0.45594000000E+02  0.51100000000E-03 0. -1.
    9900012    2    1    2    0    0 -0.30158812587E+01  0.11615404198E+02 -0.41708632717E+02  0.47787271923E+02  0.20000004007E+02 0.  0.
        -12    1    1    2    0    0  0.30158812587E+01 -0.11615404198E+02  0.41708632717E+02  0.43400728077E+02  0.00000000000E+00 0.  1.
         11    1    3    3    0    0 -0.11499559778E+00  0.61383192679E+01 -0.38084663187E+02  0.38576336759E+02  0.51100000000E-03 0. -1.
        -11    1    3    3    0    0 -0.44844732653E+01  0.46177651376E+01 -0.36680103192E+01  0.74086810767E+01  0.51100000000E-03 0.  1.
         12    1    3    3    0    0  0.15835876044E+01  0.85931979197E+00  0.44040788718E-01  0.18022540877E+01  0.00000000000E+00 0. -1.
</event>
<event>
 7    1  0.2811980E-010  0.4778726E+02  0.7816164E-02  0.1312668E+00
        -11   -1    0    0    0    0  0.00000000000E+00  0.00000000000E+00  0.45593999997E+02  0.45594000000E+02  0.51100000000E-03 0.  1.
         11   -1    0    0    0    0 -0.00000000000E+00 -0.00000000000E+00 -0.45593999997E+02  0.45594000000E+02  0.51100000000E-03 0. -1.
    9900012    2    1    2    0    0  0.49835402114E+01 -0.13113876827E+02 -0.41070845660E+02  0.47787264964E+02  0.19999972275E+02 0.  0.
        -12    1    1    2    0    0 -0.49835402114E+01  0.13113876827E+02  0.41070845660E+02  0.43400735036E+02  0.00000000000E+00 0.  1.
         11    1    3    3    0    0  0.90884534951E+01 -0.76841108431E+01 -0.20492233316E+02  0.23697619562E+02  0.51100000000E-03 0. -1.
        -11    1    3    3    0    0  0.41844258773E+00 -0.75010700361E+01 -0.11481269225E+02  0.13720812263E+02  0.51100000000E-03 0.  1.
         12    1    3    3    0    0 -0.45233558714E+01  0.20713040524E+01 -0.90973431198E+01  0.10368833139E+02  0.00000000000E+00 0. -1.
</event>
<event>
 7    1  0.2811980E-010  0.4778727E+02  0.7816164E-02  0.1312668E+00
        -11   -1    0    0    0    0  0.00000000000E+00  0.00000000000E+00  0.45593999997E+02  0.45594000000E+02  0.51100000000E-03 0.  1.
         11   -1    0    0    0    0 -0.00000000000E+00 -0.00000000000E+00 -0.45593999997E+02  0.45594000000E+02  0.51100000000E-03 0. -1.
    9900012    2    1    2    0    0  0.33930605621E+02  0.43181449453E+01 -0.26714990339E+02  0.47787273250E+02  0.20000010057E+02 0.  0.
        -12    1    1    2    0    0 -0.33930605621E+02 -0.43181449453E+01  0.26714990339E+02  0.43400726750E+02  0.00000000000E+00 0.  1.
         11    1    3    3    0    0  0.11612019527E+01  0.34949913600E+01  0.94788440417E+00  0.38028725572E+01  0.51100000000E-03 0. -1.
        -11    1    3    3    0    0  0.51051828352E+01  0.35389616171E+01 -0.33656804222E+01  0.70650510312E+01  0.51100000000E-03 0.  1.
         12    1    3    3    0    0  0.27664220833E+02 -0.27158080318E+01 -0.24297194321E+02  0.36919349662E+02  0.00000000000E+00 0. -1.
</event>
<event>
 7    1  0.2811980E-010  0.4778727E+02  0.7816164E-02  0.1312668E+00
        -11   -1    0    0    0    0  0.00000000000E+00  0.00000000000E+00  0.45593999997E+02  0.45594000000E+02  0.51100000000E-03 0.  1.
         11   -1    0    0    0    0 -0.00000000000E+00 -0.00000000000E+00 -0.45593999997E+02  0.45594000000E+02  0.51100000000E-03 0. -1.
    9900012    2    1    2    0    0 -0.16728689923E+02 -0.39665496251E+02 -0.55157069221E+01  0.47787266340E+02  0.19999978551E+02 0.  0.
        -12    1    1    2    0    0  0.16728689923E+02  0.39665496251E+02  0.55157069221E+01  0.43400733660E+02  0.00000000000E+00 0.  1.
         11    1    3    3    0    0 -0.55610733616E+01 -0.26641087086E+02 -0.43877884508E+01  0.27566750730E+02  0.51100000000E-03 0. -1.
        -11    1    3    3    0    0 -0.99308286673E+01 -0.63818832620E+01 -0.45444176233E+01  0.12649170873E+02  0.51100000000E-03 0.  1.
         12    1    3    3    0    0 -0.12367878939E+01 -0.66425259034E+01  0.34164991521E+01  0.75713447371E+01  0.00000000000E+00 0. -1.
</event>
<event>
 7    1  0.2811980E-010  0.4778727E+02  0.7816164E-02  0.1312668E+00
        -11   -1    0    0    0    0  0.00000000000E+00  0.00000000000E+00  0.45593999997E+02  0.45594000000E+02  0.51100000000E-03 0.  1.
         11   -1    0    0    0    0 -0.00000000000E+00 -0.00000000000E+00 -0.45593999997E+02  0.45594000000E+02  0.51100000000E-03 0. -1.
    9900012    2    1    2    0    0  0.71701661867E+01  0.24970789119E+02 -0.34765956452E+02  0.47787270509E+02  0.19999997557E+02 0.  0.
        -12    1    1    2    0    0 -0.71701661867E+01 -0.24970789119E+02  0.34765956452E+02  0.43400729491E+02  0.00000000000E+00 0.  1.
         11    1    3    3    0    0  0.58760120848E+00  0.73256346667E+00 -0.69459064198E+01  0.70091041273E+01  0.51100000000E-03 0. -1.
        -11    1    3    3    0    0  0.71123467845E+01  0.17980059914E+01 -0.60546871466E+01  0.95119681997E+01  0.51100000000E-03 0.  1.
        -12    1    3    3    0    0 -0.52978180631E+00  0.22440219661E+02 -0.21765362885E+02  0.31266198182E+02  0.00000000000E+00 0.  1.
</event>
<event>
 7    1  0.2811980E-010  0.4778727E+02  0.7816164E-02  0.1312668E+00
        -11   -1    0    0    0    0  0.00000000000E+00  0.00000000000E+00  0.45593999997E+02  0.45594000000E+02  0.51100000000E-03 0. -1.
         11   -1    0    0    0    0 -0.00000000000E+00 -0.00000000000E+00 -0.45593999997E+02  0.45594000000E+02  0.51100000000E-03 0.  1.
    9900012    2    1    2    0    0  0.34555223332E+02 -0.78697341915E+01  0.25052494987E+02  0.47787266356E+02  0.19999978624E+02 0.  0.
        -12    1    1    2    0    0 -0.34555223332E+02  0.78697341915E+01 -0.25052494987E+02  0.43400733644E+02  0.00000000000E+00 0.  1.
         11    1    3    3    0    0  0.13253675048E+02 -0.66313324005E+01  0.17751486142E+02  0.23124656369E+02  0.51100000000E-03 0. -1.
        -11    1    3    3    0    0  0.72441320460E+01 -0.38555444417E+01  0.62683280779E+01  0.10326403498E+02  0.51100000000E-03 0.  1.
         12    1    3    3    0    0  0.14057416238E+02  0.26171426507E+01  0.10326807671E+01  0.14336206489E+02  0.00000000000E+00 0. -1.
</event>
<event>
 7    1  0.2811980E-010  0.4778727E+02  0.7816164E-02  0.1312668E+00
        -11   -1    0    0    0    0  0.00000000000E+00  0.00000000000E+00  0.45593999997E+02  0.45594000000E+02  0.51100000000E-03 0. -1.
         11   -1    0    0    0    0 -0.00000000000E+00 -0.00000000000E+00 -0.45593999997E+02  0.45594000000E+02  0.51100000000E-03 0.  1.
    9900012    2    1    2    0    0  0.26464367285E+02  0.13815446854E+02  0.31502283609E+02  0.47787272124E+02  0.20000004924E+02 0.  0.
        -12    1    1    2    0    0 -0.26464367285E+02 -0.13815446854E+02 -0.31502283609E+02  0.43400727876E+02  0.00000000000E+00 0.  1.
         11    1    3    3    0    0  0.60331211208E+01 -0.44726954629E+01  0.73250200964E+01  0.10490923450E+02  0.51100000000E-03 0.  1.
        -11    1    3    3    0    0  0.11516760383E+02  0.14413287166E+02  0.18023396118E+02  0.25791886797E+02  0.51100000000E-03 0. -1.
         12    1    3    3    0    0  0.89144857811E+01  0.38748551502E+01  0.61538673948E+01  0.11504461877E+02  0.00000000000E+00 0. -1.
</event>
<event>
 7    1  0.2811980E-010  0.4778727E+02  0.7816164E-02  0.1312668E+00
        -11   -1    0    0    0    0  0.00000000000E+00  0.00000000000E+00  0.45593999997E+02  0.45594000000E+02  0.51100000000E-03 0.  1.
         11   -1    0    0    0    0 -0.00000000000E+00 -0.00000000000E+00 -0.45593999997E+02  0.45594000000E+02  0.51100000000E-03 0. -1.
    9900012    2    1    2    0    0 -0.15827040401E+02 -0.28508040777E+02 -0.28642968226E+02  0.47787271601E+02  0.20000002538E+02 0.  0.
        -12    1    1    2    0    0  0.15827040401E+02  0.28508040777E+02  0.28642968226E+02  0.43400728399E+02  0.00000000000E+00 0.  1.
         11    1    3    3    0    0 -0.39852574656E+01 -0.13595731974E+02 -0.63715466826E+01  0.15534568303E+02  0.51100000000E-03 0. -1.
        -11    1    3    3    0    0 -0.22935820438E+01  0.25303759810E+01 -0.27208635338E+01  0.43665111734E+01  0.51100000000E-03 0.  1.
        -12    1    3    3    0    0 -0.95482008914E+01 -0.17442684784E+02 -0.19550558009E+02  0.27886192124E+02  0.00000000000E+00 0.  1.
</event>
<event>
 7    1  0.2811980E-010  0.4778727E+02  0.7816164E-02  0.1312668E+00
        -11   -1    0    0    0    0  0.00000000000E+00  0.00000000000E+00  0.45593999997E+02  0.45594000000E+02  0.51100000000E-03 0. -1.
         11   -1    0    0    0    0 -0.00000000000E+00 -0.00000000000E+00 -0.45593999997E+02  0.45594000000E+02  0.51100000000E-03 0.  1.
    9900012    2    1    2    0    0  0.20420518916E+02 -0.58388163537E+01  0.37848830532E+02  0.47787270261E+02  0.19999996428E+02 0.  0.
        -12    1    1    2    0    0 -0.20420518916E+02  0.58388163537E+01 -0.37848830532E+02  0.43400729739E+02  0.00000000000E+00 0.  1.
         11    1    3    3    0    0 -0.15156370794E+01 -0.15536365608E+01 -0.35161510306E+00  0.21987668729E+01  0.51100000000E-03 0. -1.
        -11    1    3    3    0    0  0.11982699656E+02  0.27469285631E+01  0.23251509631E+02  0.26301395551E+02  0.51100000000E-03 0.  1.
         12    1    3    3    0    0  0.99534563399E+01 -0.70321083561E+01  0.14948936004E+02  0.19287107837E+02  0.00000000000E+00 0. -1.
</event>
<event>
 7    1  0.2811980E-010  0.4778726E+02  0.7816164E-02  0.1312668E+00
        -11   -1    0    0    0    0  0.00000000000E+00  0.00000000000E+00  0.45593999997E+02  0.45594000000E+02  0.51100000000E-03 0. -1.
         11   -1    0    0    0    0 -0.00000000000E+00 -0.00000000000E+00 -0.45593999997E+02  0.45594000000E+02  0.51100000000E-03 0.  1.
    9900012    2    1    2    0    0  0.26946541120E+02 -0.29408859977E+02 -0.17106341930E+02  0.47787262014E+02  0.19999958826E+02 0.  0.
        -12    1    1    2    0    0 -0.26946541120E+02  0.29408859977E+02  0.17106341930E+02  0.43400737986E+02  0.00000000000E+00 0.  1.
         11    1    3    3    0    0  0.16644015074E+02 -0.25658559527E+02 -0.70436555451E+01  0.31384677767E+02  0.51100000000E-03 0. -1.
        -11    1    3    3    0    0  0.33444636837E+01 -0.35184535130E+01 -0.75997820303E+01  0.90178511644E+01  0.51100000000E-03 0.  1.
         12    1    3    3    0    0  0.69580623625E+01 -0.23184693658E+00 -0.24629043549E+01  0.73847330828E+01  0.00000000000E+00 0. -1.
</event>
<event>
 7    1  0.2811980E-010  0.4778727E+02  0.7816164E-02  0.1312668E+00
        -11   -1    0    0    0    0  0.00000000000E+00  0.00000000000E+00  0.45593999997E+02  0.45594000000E+02  0.51100000000E-03 0.  1.
         11   -1    0    0    0    0 -0.00000000000E+00 -0.00000000000E+00 -0.45593999997E+02  0.45594000000E+02  0.51100000000E-03 0. -1.
    9900012    2    1    2    0    0 -0.38286256644E+02 -0.20424549264E+02 -0.78969111840E+00  0.47787271060E+02  0.20000000073E+02 0.  0.
        -12    1    1    2    0    0  0.38286256644E+02  0.20424549264E+02  0.78969111840E+00  0.43400728940E+02  0.00000000000E+00 0.  1.
         11    1    3    3    0    0 -0.14210794763E+02 -0.15149866077E+02  0.36783604089E+01  0.21094915631E+02  0.51100000000E-03 0. -1.
        -11    1    3    3    0    0 -0.24827708446E+01 -0.35271439928E+01 -0.23858765651E+01  0.49292294589E+01  0.51100000000E-03 0.  1.
         12    1    3    3    0    0 -0.21592691036E+02 -0.17475391941E+01 -0.20821749622E+01  0.21763125970E+02  0.00000000000E+00 0. -1.
</event>
<event>
 7    1  0.2811980E-010  0.4778727E+02  0.7816164E-02  0.1312668E+00
        -11   -1    0    0    0    0  0.00000000000E+00  0.00000000000E+00  0.45593999997E+02  0.45594000000E+02  0.51100000000E-03 0. -1.
         11   -1    0    0    0    0 -0.00000000000E+00 -0.00000000000E+00 -0.45593999997E+02  0.45594000000E+02  0.51100000000E-03 0.  1.
    9900012    2    1    2    0    0  0.11196451381E+02 -0.55990573466E+01  0.41556147892E+02  0.47787269657E+02  0.19999993675E+02 0.  0.
        -12    1    1    2    0    0 -0.11196451381E+02  0.55990573466E+01 -0.41556147892E+02  0.43400730343E+02  0.00000000000E+00 0.  1.
         11    1    3    3    0    0  0.15827754765E+01 -0.10119351428E+02  0.22438526682E+02  0.24665642733E+02  0.51100000000E-03 0. -1.
        -11    1    3    3    0    0  0.83968107254E+01  0.62431368290E+01  0.17760320313E+02  0.20613397723E+02  0.51100000000E-03 0.  1.
         12    1    3    3    0    0  0.12168651791E+01 -0.17228427479E+01  0.13573008966E+01  0.25082292004E+01  0.00000000000E+00 0. -1.
</event>
<event>
 7    1  0.2811980E-010  0.4778727E+02  0.7816164E-02  0.1312668E+00
        -11   -1    0    0    0    0  0.00000000000E+00  0.00000000000E+00  0.45593999997E+02  0.45594000000E+02  0.51100000000E-03 0.  1.
         11   -1    0    0    0    0 -0.00000000000E+00 -0.00000000000E+00 -0.45593999997E+02  0.45594000000E+02  0.51100000000E-03 0. -1.
    9900012    2    1    2    0    0 -0.26967318996E+02 -0.16444038354E+02 -0.29765424843E+02  0.47787271812E+02  0.20000003499E+02 0.  0.
        -12    1    1    2    0    0  0.26967318996E+02  0.16444038354E+02  0.29765424843E+02  0.43400728188E+02  0.00000000000E+00 0.  1.
         11    1    3    3    0    0 -0.13009492465E+02  0.26346421187E-01 -0.55962985629E+01  0.14162137769E+02  0.51100000000E-03 0. -1.
        -11    1    3    3    0    0 -0.14095872442E+01  0.95012942797E+00 -0.31508468854E+01  0.35801562096E+01  0.51100000000E-03 0.  1.
         12    1    3    3    0    0 -0.12548239287E+02 -0.17420514203E+02 -0.21018279394E+02  0.30044977833E+02  0.00000000000E+00 0. -1.
</event>
<event>
 7    1  0.2811980E-010  0.4778728E+02  0.7816164E-02  0.1312668E+00
        -11   -1    0    0    0    0  0.00000000000E+00  0.00000000000E+00  0.45593999997E+02  0.45594000000E+02  0.51100000000E-03 0.  1.
         11   -1    0    0    0    0 -0.00000000000E+00 -0.00000000000E+00 -0.45593999997E+02  0.45594000000E+02  0.51100000000E-03 0. -1.
    9900012    2    1    2    0    0 -0.32154089659E+00 -0.16382321378E+02 -0.40188787515E+02  0.47787280142E+02  0.20000041478E+02 0.  0.
        -12    1    1    2    0    0  0.32154089659E+00  0.16382321378E+02  0.40188787515E+02  0.43400719858E+02  0.00000000000E+00 0.  1.
         11    1    3    3    0    0 -0.43034220314E+01  0.69452113346E+00 -0.19721072730E+02  0.20197091639E+02  0.51100000000E-03 0. -1.
        -11    1    3    3    0    0  0.46242505946E+01 -0.69948845833E+01 -0.98089272102E+01  0.12904540177E+02  0.51100000000E-03 0.  1.
         12    1    3    3    0    0 -0.64236945980E+00 -0.10081957928E+02 -0.10658787575E+02  0.14685648326E+02  0.00000000000E+00 0. -1.
</event>
<event>
 7    1  0.2811980E-010  0.4778728E+02  0.7816164E-02  0.1312668E+00
        -11   -1    0    0    0    0  0.00000000000E+00  0.00000000000E+00  0.45593999997E+02  0.45594000000E+02  0.51100000000E-03 0. -1.
         11   -1    0    0    0    0 -0.00000000000E+00 -0.00000000000E+00 -0.45593999997E+02  0.45594000000E+02  0.51100000000E-03 0.  1.
    9900012    2    1    2    0    0 -0.30587139110E+02  0.30784478005E+02 -0.60471537499E+00  0.47787275977E+02  0.20000022492E+02 0.  0.
        -12    1    1    2    0    0  0.30587139110E+02 -0.30784478005E+02  0.60471537499E+00  0.43400724023E+02  0.00000000000E+00 0.  1.
         11    1    3    3    0    0 -0.22156258060E+02  0.27531026788E+02 -0.39298920554E-01  0.35339195689E+02  0.51100000000E-03 0. -1.
        -11    1    3    3    0    0 -0.95962621285E+00 -0.97235201504E+00 -0.31916736567E+01  0.34717620744E+01  0.51100000000E-03 0.  1.
         12    1    3    3    0    0 -0.74712548370E+01  0.42258032319E+01  0.26262572023E+01  0.89763182144E+01  0.00000000000E+00 0. -1.
</event>
<event>
 7    1  0.2811980E-010  0.4778727E+02  0.7816164E-02  0.1312668E+00
        -11   -1    0    0    0    0  0.00000000000E+00  0.00000000000E+00  0.45593999997E+02  0.45594000000E+02  0.51100000000E-03 0.  1.
         11   -1    0    0    0    0 -0.00000000000E+00 -0.00000000000E+00 -0.45593999997E+02  0.45594000000E+02  0.51100000000E-03 0. -1.
    9900012    2    1    2    0    0 -0.11764452171E+02 -0.40498345350E+02 -0.10252057634E+02  0.47787274238E+02  0.20000014559E+02 0.  0.
        -12    1    1    2    0    0  0.11764452171E+02  0.40498345350E+02  0.10252057634E+02  0.43400725762E+02  0.00000000000E+00 0.  1.
         11    1    3    3    0    0  0.99184904055E+00 -0.24466408674E+02 -0.69062092851E+00  0.24496242067E+02  0.51100000000E-03 0. -1.
        -11    1    3    3    0    0 -0.97984561907E+01 -0.86271769708E+01 -0.43304897646E+01  0.13754674408E+02  0.51100000000E-03 0.  1.
         12    1    3    3    0    0 -0.29578450212E+01 -0.74047597057E+01 -0.52309469410E+01  0.95363577621E+01  0.00000000000E+00 0. -1.
</event>
<event>
 7    1  0.2811980E-010  0.4778728E+02  0.7816164E-02  0.1312668E+00
        -11   -1    0    0    0    0  0.00000000000E+00  0.00000000000E+00  0.45593999997E+02  0.45594000000E+02  0.51100000000E-03 0. -1.
         11   -1    0    0    0    0 -0.00000000000E+00 -0.00000000000E+00 -0.45593999997E+02  0.45594000000E+02  0.51100000000E-03 0.  1.
    9900012    2    1    2    0    0 -0.13756262228E+02 -0.23984355465E+02  0.33453525098E+02  0.47787281123E+02  0.20000045953E+02 0.  0.
        -12    1    1    2    0    0  0.13756262228E+02  0.23984355465E+02 -0.33453525098E+02  0.43400718877E+02  0.00000000000E+00 0.  1.
         11    1    3    3    0    0 -0.13917893276E+02 -0.18887188266E+02  0.32675851663E+02  0.40226172027E+02  0.51100000000E-03 0. -1.
        -11    1    3    3    0    0  0.14262131229E+01  0.29048863776E+00 -0.97993126776E+00  0.17546318905E+01  0.51100000000E-03 0.  1.
         12    1    3    3    0    0 -0.12645820749E+01 -0.53876558374E+01  0.17576047028E+01  0.58064772054E+01  0.00000000000E+00 0. -1.
</event>
<event>
 7    1  0.2811980E-010  0.4778729E+02  0.7816164E-02  0.1312668E+00
        -11   -1    0    0    0    0  0.00000000000E+00  0.00000000000E+00  0.45593999997E+02  0.45594000000E+02  0.51100000000E-03 0.  1.
         11   -1    0    0    0    0 -0.00000000000E+00 -0.00000000000E+00 -0.45593999997E+02  0.45594000000E+02  0.51100000000E-03 0. -1.
    9900012    2    1    2    0    0  0.15322340855E+02  0.24307158394E+02 -0.32527060795E+02  0.47787288457E+02  0.20000079393E+02 0.  0.
        -12    1    1    2    0    0 -0.15322340855E+02 -0.24307158394E+02  0.32527060795E+02  0.43400711543E+02  0.00000000000E+00 0.  1.
         11    1    3    3    0    0  0.10283951228E+02  0.19256038103E+02 -0.30303047441E+02  0.37347414111E+02  0.51100000000E-03 0. -1.
        -11    1    3    3    0    0  0.99747390178E+00 -0.17452881960E+01  0.50941880534E+00  0.20737629692E+01  0.51100000000E-03 0.  1.
         12    1    3    3    0    0  0.40409157253E+01  0.67964084865E+01 -0.27334321594E+01  0.83661113778E+01  0.00000000000E+00 0. -1.
</event>
<event>
 7    1  0.2811980E-010  0.4778727E+02  0.7816164E-02  0.1312668E+00
        -11   -1    0    0    0    0  0.00000000000E+00  0.00000000000E+00  0.45593999997E+02  0.45594000000E+02  0.51100000000E-03 0.  1.
         11   -1    0    0    0    0 -0.00000000000E+00 -0.00000000000E+00 -0.45593999997E+02  0.45594000000E+02  0.51100000000E-03 0. -1.
    9900012    2    1    2    0    0  0.19410260126E+02  0.11465005268E+02 -0.37086636955E+02  0.47787272073E+02  0.20000004689E+02 0.  0.
        -12    1    1    2    0    0 -0.19410260126E+02 -0.11465005268E+02  0.37086636955E+02  0.43400727927E+02  0.00000000000E+00 0.  1.
         11    1    3    3    0    0  0.70248601720E+00  0.83506232668E+01 -0.18391864025E+02  0.20211062766E+02  0.51100000000E-03 0. -1.
        -11    1    3    3    0    0  0.15451208084E+02  0.12101656967E+00 -0.12054581379E+02  0.19597637836E+02  0.51100000000E-03 0.  1.
        -12    1    3    3    0    0  0.32565660244E+01  0.29933654318E+01 -0.66401915511E+01  0.79785714708E+01  0.00000000000E+00 0.  1.
</event>
<event>
 7    1  0.2811980E-010  0.4778727E+02  0.7816164E-02  0.1312668E+00
        -11   -1    0    0    0    0  0.00000000000E+00  0.00000000000E+00  0.45593999997E+02  0.45594000000E+02  0.51100000000E-03 0.  1.
         11   -1    0    0    0    0 -0.00000000000E+00 -0.00000000000E+00 -0.45593999997E+02  0.45594000000E+02  0.51100000000E-03 0. -1.
    9900012    2    1    2    0    0 -0.89095281447E+01 -0.22397092546E+02 -0.36091745789E+02  0.47787267744E+02  0.19999984950E+02 0.  0.
        -12    1    1    2    0    0  0.89095281447E+01  0.22397092546E+02  0.36091745789E+02  0.43400732256E+02  0.00000000000E+00 0.  1.
         11    1    3    3    0    0 -0.30457859580E+01 -0.13032679297E+02 -0.74088196382E+01  0.15297651796E+02  0.51100000000E-03 0. -1.
        -11    1    3    3    0    0 -0.76746597480E+01 -0.69111424132E+01 -0.27208308379E+02  0.29102514269E+02  0.51100000000E-03 0.  1.
        -12    1    3    3    0    0  0.18109175614E+01 -0.24532708353E+01 -0.14746177722E+01  0.33871016783E+01  0.00000000000E+00 0.  1.
</event>
<event>
 7    1  0.2811980E-010  0.4778727E+02  0.7816164E-02  0.1312668E+00
        -11   -1    0    0    0    0  0.00000000000E+00  0.00000000000E+00  0.45593999997E+02  0.45594000000E+02  0.51100000000E-03 0.  1.
         11   -1    0    0    0    0 -0.00000000000E+00 -0.00000000000E+00 -0.45593999997E+02  0.45594000000E+02  0.51100000000E-03 0. -1.
    9900012    2    1    2    0    0  0.14376789597E+02  0.14009940915E+02 -0.38479250525E+02  0.47787271382E+02  0.20000001541E+02 0.  0.
        -12    1    1    2    0    0 -0.14376789597E+02 -0.14009940915E+02  0.38479250525E+02  0.43400728618E+02  0.00000000000E+00 0.  1.
         11    1    3    3    0    0 -0.18901889917E+01 -0.20381571114E+01 -0.45660974886E+01  0.53456660363E+01  0.51100000000E-03 0. -1.
        -11    1    3    3    0    0  0.10653802703E+02  0.12808606440E+02 -0.14888948354E+02  0.22343784243E+02  0.51100000000E-03 0.  1.
        -12    1    3    3    0    0  0.56131758862E+01  0.32394915860E+01 -0.19024204683E+02  0.20097821103E+02  0.00000000000E+00 0.  1.
</event>
<event>
 7    1  0.2811980E-010  0.4778727E+02  0.7816164E-02  0.1312668E+00
        -11   -1    0    0    0    0  0.00000000000E+00  0.00000000000E+00  0.45593999997E+02  0.45594000000E+02  0.51100000000E-03 0.  1.
         11   -1    0    0    0    0 -0.00000000000E+00 -0.00000000000E+00 -0.45593999997E+02  0.45594000000E+02  0.51100000000E-03 0. -1.
    9900012    2    1    2    0    0 -0.61049161246E+00 -0.13249334034E+02 -0.41324398082E+02  0.47787269255E+02  0.19999991841E+02 0.  0.
        -12    1    1    2    0    0  0.61049161246E+00  0.13249334034E+02  0.41324398082E+02  0.43400730745E+02  0.00000000000E+00 0.  1.
         11    1    3    3    0    0 -0.75259193629E+00 -0.62766920566E+00 -0.25519655189E+02  0.25538464411E+02  0.51100000000E-03 0. -1.
        -11    1    3    3    0    0  0.33927198439E+01 -0.11837752537E+02 -0.12548040051E+02  0.17581133139E+02  0.51100000000E-03 0.  1.
        -12    1    3    3    0    0 -0.32506195200E+01 -0.78391229189E+00 -0.32567028423E+01  0.46676717053E+01  0.00000000000E+00 0.  1.
</event>
<event>
 7    1  0.2811980E-010  0.4778727E+02  0.7816164E-02  0.1312668E+00
        -11   -1    0    0    0    0  0.00000000000E+00  0.00000000000E+00  0.45593999997E+02  0.45594000000E+02  0.51100000000E-03 0.  1.
         11   -1    0    0    0    0 -0.00000000000E+00 -0.00000000000E+00 -0.45593999997E+02  0.45594000000E+02  0.51100000000E-03 0. -1.
    9900012    2    1    2    0    0 -0.12467777605E+02 -0.34880907747E+02 -0.22616367019E+02  0.47787271194E+02  0.20000000683E+02 0.  0.
        -12    1    1    2    0    0  0.12467777605E+02  0.34880907747E+02  0.22616367019E+02  0.43400728806E+02  0.00000000000E+00 0.  1.
         11    1    3    3    0    0 -0.29029511240E+01 -0.95985464416E+01 -0.10855197764E+02  0.14778177755E+02  0.51100000000E-03 0. -1.
        -11    1    3    3    0    0  0.26003699996E+01 -0.74861435118E+01 -0.77455677145E+01  0.11081429885E+02  0.51100000000E-03 0.  1.
        -12    1    3    3    0    0 -0.12165196481E+02 -0.17796217794E+02 -0.40156015411E+01  0.21927663554E+02  0.00000000000E+00 0.  1.
</event>
<event>
 7    1  0.2811980E-010  0.4778727E+02  0.7816164E-02  0.1312668E+00
        -11   -1    0    0    0    0  0.00000000000E+00  0.00000000000E+00  0.45593999997E+02  0.45594000000E+02  0.51100000000E-03 0.  1.
         11   -1    0    0    0    0 -0.00000000000E+00 -0.00000000000E+00 -0.45593999997E+02  0.45594000000E+02  0.51100000000E-03 0. -1.
    9900012    2    1    2    0    0  0.43353008442E+02 -0.11232741569E+01  0.16964653514E+01  0.47787273272E+02  0.20000010158E+02 0.  0.
        -12    1    1    2    0    0 -0.43353008442E+02  0.11232741569E+01 -0.16964653514E+01  0.43400726728E+02  0.00000000000E+00 0.  1.
         11    1    3    3    0    0  0.66068480515E+01  0.19145650317E+01 -0.59326172797E+01  0.90836087809E+01  0.51100000000E-03 0.  1.
        -11    1    3    3    0    0  0.54473812604E+01 -0.36260932724E+01  0.23747312746E+01  0.69614555880E+01  0.51100000000E-03 0. -1.
         12    1    3    3    0    0  0.31298779130E+02  0.58825408383E+00  0.52543513564E+01  0.31742208904E+02  0.00000000000E+00 0. -1.
</event>
<event>
 7    1  0.2811980E-010  0.4778727E+02  0.7816164E-02  0.1312668E+00
        -11   -1    0    0    0    0  0.00000000000E+00  0.00000000000E+00  0.45593999997E+02  0.45594000000E+02  0.51100000000E-03 0. -1.
         11   -1    0    0    0    0 -0.00000000000E+00 -0.00000000000E+00 -0.45593999997E+02  0.45594000000E+02  0.51100000000E-03 0.  1.
    9900012    2    1    2    0    0  0.38522043163E+02  0.53766404810E+01  0.19255318829E+02  0.47787269874E+02  0.19999994663E+02 0.  0.
        -12    1    1    2    0    0 -0.38522043163E+02 -0.53766404810E+01 -0.19255318829E+02  0.43400730126E+02  0.00000000000E+00 0.  1.
         11    1    3    3    0    0  0.28201106759E+02  0.27624249456E+01  0.11746210311E+02  0.30674205302E+02  0.51100000000E-03 0. -1.
        -11    1    3    3    0    0 -0.26283802430E-01 -0.26970649908E+01  0.42511870430E+01  0.50346243096E+01  0.51100000000E-03 0.  1.
        -12    1    3    3    0    0  0.10347220206E+02  0.53112805262E+01  0.32579214747E+01  0.12078440262E+02  0.00000000000E+00 0.  1.
</event>
<event>
 7    1  0.2811980E-010  0.4778727E+02  0.7816164E-02  0.1312668E+00
        -11   -1    0    0    0    0  0.00000000000E+00  0.00000000000E+00  0.45593999997E+02  0.45594000000E+02  0.51100000000E-03 0.  1.
         11   -1    0    0    0    0 -0.00000000000E+00 -0.00000000000E+00 -0.45593999997E+02  0.45594000000E+02  0.51100000000E-03 0. -1.
    9900012    2    1    2    0    0  0.52942295657E+01 -0.85658952208E+01 -0.42216350393E+02  0.47787266502E+02  0.19999979290E+02 0.  0.
        -12    1    1    2    0    0 -0.52942295657E+01  0.85658952208E+01  0.42216350393E+02  0.43400733498E+02  0.00000000000E+00 0.  1.
         11    1    3    3    0    0  0.11559197232E+00 -0.50452590406E+01 -0.54623333395E+01  0.74367389402E+01  0.51100000000E-03 0. -1.
        -11    1    3    3    0    0  0.79484474299E+01  0.68245070666E+00 -0.33308586911E+02  0.34250627991E+02  0.51100000000E-03 0.  1.
        -12    1    3    3    0    0 -0.27698098366E+01 -0.42030868868E+01 -0.34454301425E+01  0.60998995709E+01  0.00000000000E+00 0.  1.
</event>
<event>
 7    1  0.2811980E-010  0.4778727E+02  0.7816164E-02  0.1312668E+00
        -11   -1    0    0    0    0  0.00000000000E+00  0.00000000000E+00  0.45593999997E+02  0.45594000000E+02  0.51100000000E-03 0.  1.
         11   -1    0    0    0    0 -0.00000000000E+00 -0.00000000000E+00 -0.45593999997E+02  0.45594000000E+02  0.51100000000E-03 0. -1.
    9900012    2    1    2    0    0 -0.10699538716E+02  0.35500287379E+02 -0.22558213553E+02  0.47787268077E+02  0.19999986471E+02 0.  0.
        -12    1    1    2    0    0  0.10699538716E+02 -0.35500287379E+02  0.22558213553E+02  0.43400731923E+02  0.00000000000E+00 0.  1.
         11    1    3    3    0    0 -0.49431470281E+01 -0.77161856818E+00 -0.14458078625E+01  0.52077306375E+01  0.51100000000E-03 0. -1.
        -11    1    3    3    0    0 -0.87416981868E+00  0.18862108076E+02 -0.10219620856E+02  0.21470536664E+02  0.51100000000E-03 0.  1.
         12    1    3    3    0    0 -0.48822218694E+01  0.17409797871E+02 -0.10892784834E+02  0.21109000776E+02  0.00000000000E+00 0. -1.
</event>
<event>
 7    1  0.2811980E-010  0.4778727E+02  0.7816164E-02  0.1312668E+00
        -11   -1    0    0    0    0  0.00000000000E+00  0.00000000000E+00  0.45593999997E+02  0.45594000000E+02  0.51100000000E-03 0. -1.
         11   -1    0    0    0    0 -0.00000000000E+00 -0.00000000000E+00 -0.45593999997E+02  0.45594000000E+02  0.51100000000E-03 0.  1.
    9900012    2    1    2    0    0 -0.11078371002E+02  0.38473293648E+02  0.16754064386E+02  0.47787270724E+02  0.19999998541E+02 0.  0.
        -12    1    1    2    0    0  0.11078371002E+02 -0.38473293648E+02 -0.16754064386E+02  0.43400729276E+02  0.00000000000E+00 0.  1.
         11    1    3    3    0    0 -0.19216432981E+01  0.54911417680E+01  0.40364626467E+00  0.58316619801E+01  0.51100000000E-03 0. -1.
        -11    1    3    3    0    0 -0.81853561311E+01  0.15746870566E+02  0.17142968848E+02  0.24674792173E+02  0.51100000000E-03 0.  1.
        -12    1    3    3    0    0 -0.97137157240E+00  0.17235281314E+02 -0.79255072632E+00  0.17280816571E+02  0.00000000000E+00 0.  1.
</event>
<event>
 7    1  0.2811980E-010  0.4778727E+02  0.7816164E-02  0.1312668E+00
        -11   -1    0    0    0    0  0.00000000000E+00  0.00000000000E+00  0.45593999997E+02  0.45594000000E+02  0.51100000000E-03 0. -1.
         11   -1    0    0    0    0 -0.00000000000E+00 -0.00000000000E+00 -0.45593999997E+02  0.45594000000E+02  0.51100000000E-03 0.  1.
    9900012    2    1    2    0    0  0.39133204249E+02 -0.75465005544E+01  0.17183300781E+02  0.47787272228E+02  0.20000005395E+02 0.  0.
        -12    1    1    2    0    0 -0.39133204249E+02  0.75465005544E+01 -0.17183300781E+02  0.43400727772E+02  0.00000000000E+00 0.  1.
         11    1    3    3    0    0  0.37484287882E+02 -0.36765110732E+01  0.11344582121E+02  0.39335583324E+02  0.51100000000E-03 0. -1.
        -11    1    3    3    0    0  0.11714920154E+01 -0.47001709110E+01  0.57060812082E+01  0.74848756269E+01  0.51100000000E-03 0.  1.
         12    1    3    3    0    0  0.47742435183E+00  0.83018142972E+00  0.13263745224E+00  0.96681327655E+00  0.00000000000E+00 0. -1.
</event>
<event>
 7    1  0.2811980E-010  0.4778727E+02  0.7816164E-02  0.1312668E+00
        -11   -1    0    0    0    0  0.00000000000E+00  0.00000000000E+00  0.45593999997E+02  0.45594000000E+02  0.51100000000E-03 0.  1.
         11   -1    0    0    0    0 -0.00000000000E+00 -0.00000000000E+00 -0.45593999997E+02  0.45594000000E+02  0.51100000000E-03 0. -1.
    9900012    2    1    2    0    0  0.42271716859E+02 -0.27326497726E+01 -0.94476214998E+01  0.47787274511E+02  0.20000015803E+02 0.  0.
        -12    1    1    2    0    0 -0.42271716859E+02  0.27326497726E+01  0.94476214998E+01  0.43400725489E+02  0.00000000000E+00 0.  1.
         11    1    3    3    0    0 -0.47043518354E+00  0.35516921786E+00 -0.11130155540E+01  0.12594674747E+01  0.51100000000E-03 0. -1.
        -11    1    3    3    0    0  0.39202377703E+02 -0.38918756071E+01 -0.22707266395E+01  0.39460477861E+02  0.51100000000E-03 0.  1.
        -12    1    3    3    0    0  0.35397743397E+01  0.80405661665E+00 -0.60638793063E+01  0.70673291744E+01  0.00000000000E+00 0.  1.
</event>
<event>
 7    1  0.2811980E-010  0.4778727E+02  0.7816164E-02  0.1312668E+00
        -11   -1    0    0    0    0  0.00000000000E+00  0.00000000000E+00  0.45593999997E+02  0.45594000000E+02  0.51100000000E-03 0. -1.
         11   -1    0    0    0    0 -0.00000000000E+00 -0.00000000000E+00 -0.45593999997E+02  0.45594000000E+02  0.51100000000E-03 0.  1.
    9900012    2    1    2    0    0 -0.23535839851E+02  0.15170662379E+02  0.33159294735E+02  0.47787267497E+02  0.19999983827E+02 0.  0.
        -12    1    1    2    0    0  0.23535839851E+02 -0.15170662379E+02 -0.33159294735E+02  0.43400732503E+02  0.00000000000E+00 0.  1.
         11    1    3    3    0    0 -0.11219452765E+02  0.43541703942E+01  0.10095425357E+02  0.15708358717E+02  0.51100000000E-03 0. -1.
        -11    1    3    3    0    0 -0.97418671918E+01  0.12755846198E+02  0.23862499870E+02  0.28758207332E+02  0.51100000000E-03 0.  1.
        -12    1    3    3    0    0 -0.25745198938E+01 -0.19393542139E+01 -0.79863049249E+00  0.33207014491E+01  0.00000000000E+00 0.  1.
</event>
<event>
 7    1  0.2813116E-010  0.4778728E+02  0.7816164E-02  0.1312668E+00
        -11   -1    0    0    0    0  0.00000000000E+00  0.00000000000E+00  0.45593999997E+02  0.45594000000E+02  0.51100000000E-03 0. -1.
         11   -1    0    0    0    0 -0.00000000000E+00 -0.00000000000E+00 -0.45593999997E+02  0.45594000000E+02  0.51100000000E-03 0.  1.
    9900012    2    1    2    0    0 -0.39670779810E+01 -0.23593470196E+02  0.36210947086E+02  0.47787283042E+02  0.20000054703E+02 0.  0.
        -12    1    1    2    0    0  0.39670779810E+01  0.23593470196E+02 -0.36210947086E+02  0.43400716958E+02  0.00000000000E+00 0.  1.
         11    1    3    3    0    0  0.15677285488E+01 -0.17881994803E+02  0.27532868159E+02  0.32867648839E+02  0.51100000000E-03 0. -1.
        -11    1    3    3    0    0 -0.39700906206E+01 -0.42465470319E+01 -0.16981938743E+00  0.58158077784E+01  0.51100000000E-03 0.  1.
        -12    1    3    3    0    0 -0.15647159092E+01 -0.14649283612E+01  0.88478983149E+01  0.91038264246E+01  0.00000000000E+00 0.  1.
</event>
<event>
 7    1  0.2811980E-010  0.4778727E+02  0.7816164E-02  0.1312668E+00
        -11   -1    0    0    0    0  0.00000000000E+00  0.00000000000E+00  0.45593999997E+02  0.45594000000E+02  0.51100000000E-03 0. -1.
         11   -1    0    0    0    0 -0.00000000000E+00 -0.00000000000E+00 -0.45593999997E+02  0.45594000000E+02  0.51100000000E-03 0.  1.
    9900012    2    1    2    0    0  0.18275336974E+02 -0.13794991298E+02  0.36869139863E+02  0.47787271888E+02  0.20000003847E+02 0.  0.
        -12    1    1    2    0    0 -0.18275336974E+02  0.13794991298E+02 -0.36869139863E+02  0.43400728112E+02  0.00000000000E+00 0.  1.
         11    1    3    3    0    0 -0.12123148928E+01  0.26512540538E+01  0.51855523811E+01  0.59488494027E+01  0.51100000000E-03 0.  1.
        -11    1    3    3    0    0  0.96715671172E+01 -0.40933910853E+01  0.18518777765E+02  0.21289438490E+02  0.51100000000E-03 0. -1.
         12    1    3    3    0    0  0.98160847499E+01 -0.12352854266E+02  0.13164809717E+02  0.20548983995E+02  0.00000000000E+00 0. -1.
</event>
<event>
 7    1  0.2811980E-010  0.4778728E+02  0.7816164E-02  0.1312668E+00
        -11   -1    0    0    0    0  0.00000000000E+00  0.00000000000E+00  0.45593999997E+02  0.45594000000E+02  0.51100000000E-03 0. -1.
         11   -1    0    0    0    0 -0.00000000000E+00 -0.00000000000E+00 -0.45593999997E+02  0.45594000000E+02  0.51100000000E-03 0.  1.
    9900012    2    1    2    0    0 -0.21840796287E+02 -0.29312236412E+02  0.23396463891E+02  0.47787284470E+02  0.20000061213E+02 0.  0.
        -12    1    1    2    0    0  0.21840796287E+02  0.29312236412E+02 -0.23396463891E+02  0.43400715530E+02  0.00000000000E+00 0.  1.
         11    1    3    3    0    0 -0.27790203298E+01 -0.10407307852E+02  0.61416778551E+01  0.12399807170E+02  0.51100000000E-03 0. -1.
        -11    1    3    3    0    0 -0.57339121425E+01  0.16425635296E+01  0.59079594575E+01  0.83952217731E+01  0.51100000000E-03 0.  1.
        -12    1    3    3    0    0 -0.13327863815E+02 -0.20547492089E+02  0.11346826578E+02  0.26992255527E+02  0.00000000000E+00 0.  1.
</event>
<event>
 7    1  0.2811980E-010  0.4778727E+02  0.7816164E-02  0.1312668E+00
        -11   -1    0    0    0    0  0.00000000000E+00  0.00000000000E+00  0.45593999997E+02  0.45594000000E+02  0.51100000000E-03 0. -1.
         11   -1    0    0    0    0 -0.00000000000E+00 -0.00000000000E+00 -0.45593999997E+02  0.45594000000E+02  0.51100000000E-03 0.  1.
    9900012    2    1    2    0    0 -0.36684669139E+02 -0.21536359721E+02  0.86048641142E+01  0.47787269289E+02  0.19999991995E+02 0.  0.
        -12    1    1    2    0    0  0.36684669139E+02  0.21536359721E+02 -0.86048641142E+01  0.43400730711E+02  0.00000000000E+00 0.  1.
         11    1    3    3    0    0 -0.56384292093E+01 -0.50961599401E+01  0.54441073218E+01  0.93488520619E+01  0.51100000000E-03 0. -1.
        -11    1    3    3    0    0 -0.25337083677E+02 -0.16473895815E+02 -0.25929373976E+01  0.30332826726E+02  0.51100000000E-03 0.  1.
        -12    1    3    3    0    0 -0.57091562525E+01  0.33696033957E-01  0.57536941900E+01  0.81055905010E+01  0.00000000000E+00 0.  1.
</event>
<event>
 7    1  0.2811980E-010  0.4778727E+02  0.7816164E-02  0.1312668E+00
        -11   -1    0    0    0    0  0.00000000000E+00  0.00000000000E+00  0.45593999997E+02  0.45594000000E+02  0.51100000000E-03 0.  1.
         11   -1    0    0    0    0 -0.00000000000E+00 -0.00000000000E+00 -0.45593999997E+02  0.45594000000E+02  0.51100000000E-03 0. -1.
    9900012    2    1    2    0    0 -0.11324091521E+02  0.33638260102E+02 -0.24977097310E+02  0.47787274413E+02  0.20000015356E+02 0.  0.
        -12    1    1    2    0    0  0.11324091521E+02 -0.33638260102E+02  0.24977097310E+02  0.43400725587E+02  0.00000000000E+00 0.  1.
         11    1    3    3    0    0 -0.11141326774E+02  0.23157926294E+02 -0.26643380654E+02  0.37017407331E+02  0.51100000000E-03 0. -1.
        -11    1    3    3    0    0 -0.85585215283E+00  0.62247005797E+01  0.14911327285E+01  0.64577749488E+01  0.51100000000E-03 0.  1.
         12    1    3    3    0    0  0.67308740526E+00  0.42556332281E+01  0.17515061553E+00  0.43120921332E+01  0.00000000000E+00 0. -1.
</event>
<event>
 7    1  0.2811980E-010  0.4778726E+02  0.7816164E-02  0.1312668E+00
        -11   -1    0    0    0    0  0.00000000000E+00  0.00000000000E+00  0.45593999997E+02  0.45594000000E+02  0.51100000000E-03 0. -1.
         11   -1    0    0    0    0 -0.00000000000E+00 -0.00000000000E+00 -0.45593999997E+02  0.45594000000E+02  0.51100000000E-03 0.  1.
    9900012    2    1    2    0    0 -0.36840471492E+02 -0.13688819304E+01  0.22902627196E+02  0.47787256804E+02  0.19999935073E+02 0.  0.
        -12    1    1    2    0    0  0.36840471492E+02  0.13688819304E+01 -0.22902627196E+02  0.43400743196E+02  0.00000000000E+00 0.  1.
         11    1    3    3    0    0 -0.19720961738E+02 -0.55631946225E+01  0.52178328878E+01  0.21144532309E+02  0.51100000000E-03 0. -1.
        -11    1    3    3    0    0  0.67140525909E+00  0.14798525305E+01  0.30126197538E+01  0.34229558245E+01  0.51100000000E-03 0.  1.
         12    1    3    3    0    0 -0.17790915013E+02  0.27144601616E+01  0.14672174554E+02  0.23219768671E+02  0.00000000000E+00 0. -1.
</event>
<event>
 7    1  0.2811980E-010  0.4778727E+02  0.7816164E-02  0.1312668E+00
        -11   -1    0    0    0    0  0.00000000000E+00  0.00000000000E+00  0.45593999997E+02  0.45594000000E+02  0.51100000000E-03 0. -1.
         11   -1    0    0    0    0 -0.00000000000E+00 -0.00000000000E+00 -0.45593999997E+02  0.45594000000E+02  0.51100000000E-03 0.  1.
    9900012    2    1    2    0    0  0.20945595293E+02 -0.30831657756E+02  0.22233181588E+02  0.47787269065E+02  0.19999990974E+02 0.  0.
        -12    1    1    2    0    0 -0.20945595293E+02  0.30831657756E+02 -0.22233181588E+02  0.43400730935E+02  0.00000000000E+00 0.  1.
         11    1    3    3    0    0  0.52677611704E+01 -0.10319379816E+01  0.21194066792E+01  0.57711427533E+01  0.51100000000E-03 0. -1.
        -11    1    3    3    0    0  0.31012991316E+01 -0.80074544400E+01  0.13501475490E+02  0.16000850714E+02  0.51100000000E-03 0.  1.
        -12    1    3    3    0    0  0.12576534991E+02 -0.21792265335E+02  0.66122994189E+01  0.26015275597E+02  0.00000000000E+00 0.  1.
</event>
<event>
 7    1  0.2811980E-010  0.4778727E+02  0.7816164E-02  0.1312668E+00
        -11   -1    0    0    0    0  0.00000000000E+00  0.00000000000E+00  0.45593999997E+02  0.45594000000E+02  0.51100000000E-03 0.  1.
         11   -1    0    0    0    0 -0.00000000000E+00 -0.00000000000E+00 -0.45593999997E+02  0.45594000000E+02  0.51100000000E-03 0. -1.
    9900012    2    1    2    0    0 -0.48911108311E+01  0.41218584562E+02 -0.12677873668E+02  0.47787272366E+02  0.20000006024E+02 0.  0.
        -12    1    1    2    0    0  0.48911108311E+01 -0.41218584562E+02  0.12677873668E+02  0.43400727634E+02  0.00000000000E+00 0.  1.
         11    1    3    3    0    0 -0.42342019393E+01  0.39817642529E+02 -0.92012596139E+01  0.41085718946E+02  0.51100000000E-03 0. -1.
        -11    1    3    3    0    0  0.10876412065E+01 -0.17786427967E+01 -0.10187960441E+01  0.23204480672E+01  0.51100000000E-03 0.  1.
        -12    1    3    3    0    0 -0.17445500983E+01  0.31795848300E+01 -0.24578180095E+01  0.43811053519E+01  0.00000000000E+00 0.  1.
</event>
<event>
 7    1  0.2811980E-010  0.4778728E+02  0.7816164E-02  0.1312668E+00
        -11   -1    0    0    0    0  0.00000000000E+00  0.00000000000E+00  0.45593999997E+02  0.45594000000E+02  0.51100000000E-03 0.  1.
         11   -1    0    0    0    0 -0.00000000000E+00 -0.00000000000E+00 -0.45593999997E+02  0.45594000000E+02  0.51100000000E-03 0. -1.
    9900012    2    1    2    0    0 -0.68443764283E+01 -0.20421435823E+02 -0.37679462838E+02  0.47787280542E+02  0.20000043301E+02 0.  0.
        -12    1    1    2    0    0  0.68443764283E+01  0.20421435823E+02  0.37679462838E+02  0.43400719458E+02  0.00000000000E+00 0.  1.
         11    1    3    3    0    0 -0.32183795505E+01 -0.72728464975E+01 -0.28222400263E+02  0.29321598524E+02  0.51100000000E-03 0. -1.
        -11    1    3    3    0    0 -0.68273582202E+00 -0.21506150817E+01  0.14638279477E+01  0.26896218980E+01  0.51100000000E-03 0.  1.
         12    1    3    3    0    0 -0.29432610558E+01 -0.10997974244E+02 -0.10920890523E+02  0.15776060120E+02  0.00000000000E+00 0. -1.
</event>
<event>
 7    1  0.2811980E-010  0.4778727E+02  0.7816164E-02  0.1312668E+00
        -11   -1    0    0    0    0  0.00000000000E+00  0.00000000000E+00  0.45593999997E+02  0.45594000000E+02  0.51100000000E-03 0. -1.
         11   -1    0    0    0    0 -0.00000000000E+00 -0.00000000000E+00 -0.45593999997E+02  0.45594000000E+02  0.51100000000E-03 0.  1.
    9900012    2    1    2    0    0  0.95189713516E+01  0.42101560196E+02 -0.45245123016E+01  0.47787269613E+02  0.19999993475E+02 0.  0.
        -12    1    1    2    0    0 -0.95189713516E+01 -0.42101560196E+02  0.45245123016E+01  0.43400730387E+02  0.00000000000E+00 0.  1.
         11    1    3    3    0    0 -0.40032253836E+01  0.59509803340E+01 -0.11666973113E+01  0.72664408953E+01  0.51100000000E-03 0. -1.
        -11    1    3    3    0    0  0.13261761358E+02  0.18685266738E+02 -0.20491268941E+01  0.23004617552E+02  0.51100000000E-03 0.  1.
         12    1    3    3    0    0  0.26043537698E+00  0.17465313124E+02 -0.13086880962E+01  0.17516211166E+02  0.00000000000E+00 0. -1.
</event>
<event>
 7    1  0.2811980E-010  0.4778730E+02  0.7816164E-02  0.1312668E+00
        -11   -1    0    0    0    0  0.00000000000E+00  0.00000000000E+00  0.45593999997E+02  0.45594000000E+02  0.51100000000E-03 0. -1.
         11   -1    0    0    0    0 -0.00000000000E+00 -0.00000000000E+00 -0.45593999997E+02  0.45594000000E+02  0.51100000000E-03 0.  1.
    9900012    2    1    2    0    0  0.71313740367E+01  0.39072678360E+02  0.17495434542E+02  0.47787298166E+02  0.20000123658E+02 0.  0.
        -12    1    1    2    0    0 -0.71313740367E+01 -0.39072678360E+02 -0.17495434542E+02  0.43400701834E+02  0.00000000000E+00 0.  1.
         11    1    3    3    0    0 -0.46837844951E+01  0.10047653158E+02  0.11009322628E+02  0.15623647338E+02  0.51100000000E-03 0. -1.
        -11    1    3    3    0    0  0.98899924565E+01  0.20841246539E+02  0.53392101987E+01  0.23678612162E+02  0.51100000000E-03 0.  1.
         12    1    3    3    0    0  0.19251660753E+01  0.81837786628E+01  0.11469017159E+01  0.84850386661E+01  0.00000000000E+00 0. -1.
</event>
<event>
 7    1  0.2811980E-010  0.4778728E+02  0.7816164E-02  0.1312668E+00
        -11   -1    0    0    0    0  0.00000000000E+00  0.00000000000E+00  0.45593999997E+02  0.45594000000E+02  0.51100000000E-03 0.  1.
         11   -1    0    0    0    0 -0.00000000000E+00 -0.00000000000E+00 -0.45593999997E+02  0.45594000000E+02  0.51100000000E-03 0. -1.
    9900012    2    1    2    0    0  0.15909601443E+02 -0.24449760231E+02 -0.32135905441E+02  0.47787278671E+02  0.20000034771E+02 0.  0.
        -12    1    1    2    0    0 -0.15909601443E+02  0.24449760231E+02  0.32135905441E+02  0.43400721329E+02  0.00000000000E+00 0.  1.
         11    1    3    3    0    0  0.57801065346E+01 -0.87103655157E+01 -0.23723362221E+02  0.25924467484E+02  0.51100000000E-03 0. -1.
        -11    1    3    3    0    0  0.11158556251E+02 -0.14759191690E+02 -0.86452184776E+01  0.20422705985E+02  0.51100000000E-03 0.  1.
         12    1    3    3    0    0 -0.10290613431E+01 -0.98020302467E+00  0.23267525773E+00  0.14401052021E+01  0.00000000000E+00 0. -1.
</event>
<event>
 7    1  0.2811980E-010  0.4778727E+02  0.7816164E-02  0.1312668E+00
        -11   -1    0    0    0    0  0.00000000000E+00  0.00000000000E+00  0.45593999997E+02  0.45594000000E+02  0.51100000000E-03 0. -1.
         11   -1    0    0    0    0 -0.00000000000E+00 -0.00000000000E+00 -0.45593999997E+02  0.45594000000E+02  0.51100000000E-03 0.  1.
    9900012    2    1    2    0    0 -0.26145930858E+02  0.34354171566E+02 -0.44502301252E+01  0.47787270138E+02  0.19999995867E+02 0.  0.
        -12    1    1    2    0    0  0.26145930858E+02 -0.34354171566E+02  0.44502301252E+01  0.43400729862E+02  0.00000000000E+00 0.  1.
         11    1    3    3    0    0 -0.12173233796E+02  0.16012714756E+02 -0.98556081828E+01  0.22399278288E+02  0.51100000000E-03 0. -1.
        -11    1    3    3    0    0 -0.63800304224E+01  0.66938726093E+01  0.67068813126E+01  0.11423439758E+02  0.51100000000E-03 0.  1.
        -12    1    3    3    0    0 -0.75926666393E+01  0.11647584201E+02 -0.13015032551E+01  0.13964552092E+02  0.00000000000E+00 0.  1.
</event>
<event>
 7    1  0.2811980E-010  0.4778726E+02  0.7816164E-02  0.1312668E+00
        -11   -1    0    0    0    0  0.00000000000E+00  0.00000000000E+00  0.45593999997E+02  0.45594000000E+02  0.51100000000E-03 0. -1.
         11   -1    0    0    0    0 -0.00000000000E+00 -0.00000000000E+00 -0.45593999997E+02  0.45594000000E+02  0.51100000000E-03 0.  1.
    9900012    2    1    2    0    0  0.55696079251E+01 -0.11815886298E+02  0.41388262385E+02  0.47787263086E+02  0.19999963715E+02 0.  0.
        -12    1    1    2    0    0 -0.55696079251E+01  0.11815886298E+02 -0.41388262385E+02  0.43400736914E+02  0.00000000000E+00 0.  1.
         11    1    3    3    0    0 -0.21919687617E+01  0.12050923890E+01  0.20111350365E+02  0.20266311665E+02  0.51100000000E-03 0. -1.
        -11    1    3    3    0    0  0.22405255852E+00 -0.87157951188E+01  0.95555731371E+01  0.12935387986E+02  0.51100000000E-03 0.  1.
         12    1    3    3    0    0  0.75375241283E+01 -0.43051835684E+01  0.11721338882E+02  0.14585563436E+02  0.00000000000E+00 0. -1.
</event>
<event>
 7    1  0.2811980E-010  0.4778728E+02  0.7816164E-02  0.1312668E+00
        -11   -1    0    0    0    0  0.00000000000E+00  0.00000000000E+00  0.45593999997E+02  0.45594000000E+02  0.51100000000E-03 0.  1.
         11   -1    0    0    0    0 -0.00000000000E+00 -0.00000000000E+00 -0.45593999997E+02  0.45594000000E+02  0.51100000000E-03 0. -1.
    9900012    2    1    2    0    0 -0.59706520879E+01 -0.42988070449E+02 -0.17107905696E-02  0.47787275465E+02  0.20000020154E+02 0.  0.
        -12    1    1    2    0    0  0.59706520879E+01  0.42988070449E+02  0.17107905696E-02  0.43400724535E+02  0.00000000000E+00 0.  1.
         11    1    3    3    0    0  0.23583466969E+00 -0.31858804079E+02  0.22656036414E+01  0.31940131112E+02  0.51100000000E-03 0. -1.
        -11    1    3    3    0    0 -0.68989158871E+01 -0.50866238424E+01 -0.40907211463E+01  0.94975145322E+01  0.51100000000E-03 0.  1.
        -12    1    3    3    0    0  0.69242912947E+00 -0.60426425274E+01  0.18234067143E+01  0.63496298206E+01  0.00000000000E+00 0.  1.
</event>
<event>
 7    1  0.3989873E-010  0.4778727E+02  0.7816164E-02  0.1312668E+00
        -11   -1    0    0    0    0  0.00000000000E+00  0.00000000000E+00  0.45593999997E+02  0.45594000000E+02  0.51100000000E-03 0.  1.
         11   -1    0    0    0    0 -0.00000000000E+00 -0.00000000000E+00 -0.45593999997E+02  0.45594000000E+02  0.51100000000E-03 0. -1.
    9900012    2    1    2    0    0  0.34005455965E+02  0.21888611545E+02 -0.15752493367E+02  0.47787269614E+02  0.19999993480E+02 0.  0.
        -12    1    1    2    0    0 -0.34005455965E+02 -0.21888611545E+02  0.15752493367E+02  0.43400730386E+02  0.00000000000E+00 0.  1.
         11    1    3    3    0    0  0.19558207440E+02  0.15339030655E+02 -0.10753277528E+02  0.27082140195E+02  0.51100000000E-03 0. -1.
        -11    1    3    3    0    0  0.36575641779E+01 -0.16249769623E+01 -0.59102291523E+01  0.71378662594E+01  0.51100000000E-03 0.  1.
        -12    1    3    3    0    0  0.10789684347E+02  0.81745578525E+01  0.91101331394E+00  0.13567263160E+02  0.00000000000E+00 0.  1.
</event>
<event>
 7    1  0.2811980E-010  0.4778727E+02  0.7816164E-02  0.1312668E+00
        -11   -1    0    0    0    0  0.00000000000E+00  0.00000000000E+00  0.45593999997E+02  0.45594000000E+02  0.51100000000E-03 0.  1.
         11   -1    0    0    0    0 -0.00000000000E+00 -0.00000000000E+00 -0.45593999997E+02  0.45594000000E+02  0.51100000000E-03 0. -1.
    9900012    2    1    2    0    0 -0.37569018908E+02 -0.21578233593E+02 -0.25635526015E+01  0.47787272487E+02  0.20000006577E+02 0.  0.
        -12    1    1    2    0    0  0.37569018908E+02  0.21578233593E+02  0.25635526015E+01  0.43400727513E+02  0.00000000000E+00 0.  1.
         11    1    3    3    0    0 -0.21112152343E+02 -0.35493137674E+01  0.28999602002E+01  0.21603943487E+02  0.51100000000E-03 0. -1.
        -11    1    3    3    0    0 -0.40953136241E+00  0.61125644100E+00 -0.90822825529E+00  0.11688580745E+01  0.51100000000E-03 0.  1.
         12    1    3    3    0    0 -0.16047335203E+02 -0.18640176267E+02 -0.45552845464E+01  0.25014470926E+02  0.00000000000E+00 0. -1.
</event>
<event>
 7    1  0.2811980E-010  0.4778727E+02  0.7816164E-02  0.1312668E+00
        -11   -1    0    0    0    0  0.00000000000E+00  0.00000000000E+00  0.45593999997E+02  0.45594000000E+02  0.51100000000E-03 0. -1.
         11   -1    0    0    0    0 -0.00000000000E+00 -0.00000000000E+00 -0.45593999997E+02  0.45594000000E+02  0.51100000000E-03 0.  1.
    9900012    2    1    2    0    0  0.25952880823E+02 -0.17550839820E+02  0.30033972067E+02  0.47787268675E+02  0.19999989199E+02 0.  0.
        -12    1    1    2    0    0 -0.25952880823E+02  0.17550839820E+02 -0.30033972067E+02  0.43400731325E+02  0.00000000000E+00 0.  1.
         11    1    3    3    0    0  0.23166991844E+02 -0.17184103900E+02  0.31286667202E+02  0.42554182906E+02  0.51100000000E-03 0. -1.
        -11    1    3    3    0    0  0.23147168682E+01  0.15103420738E+01 -0.17025419523E+01  0.32461818681E+01  0.51100000000E-03 0.  1.
         12    1    3    3    0    0  0.47117211036E+00 -0.18770779939E+01  0.44984681731E+00  0.19869039010E+01  0.00000000000E+00 0. -1.
</event>
<event>
 7    1  0.2811980E-010  0.4778728E+02  0.7816164E-02  0.1312668E+00
        -11   -1    0    0    0    0  0.00000000000E+00  0.00000000000E+00  0.45593999997E+02  0.45594000000E+02  0.51100000000E-03 0. -1.
         11   -1    0    0    0    0 -0.00000000000E+00 -0.00000000000E+00 -0.45593999997E+02  0.45594000000E+02  0.51100000000E-03 0.  1.
    9900012    2    1    2    0    0  0.37784298657E+02  0.20811823600E+02  0.47788156418E+01  0.47787282201E+02  0.20000050866E+02 0.  0.
        -12    1    1    2    0    0 -0.37784298657E+02 -0.20811823600E+02 -0.47788156418E+01  0.43400717799E+02  0.00000000000E+00 0.  1.
         11    1    3    3    0    0  0.12799117627E+02  0.33317285893E+01  0.57795988480E+01  0.14433349941E+02  0.51100000000E-03 0. -1.
        -11    1    3    3    0    0  0.11651530725E+02  0.15563785365E+02 -0.32043120073E+01  0.19704243168E+02  0.51100000000E-03 0.  1.
        -12    1    3    3    0    0  0.13333650305E+02  0.19163096457E+01  0.22035288011E+01  0.13649689091E+02  0.00000000000E+00 0.  1.
</event>
<event>
 7    1  0.2811980E-010  0.4778727E+02  0.7816164E-02  0.1312668E+00
        -11   -1    0    0    0    0  0.00000000000E+00  0.00000000000E+00  0.45593999997E+02  0.45594000000E+02  0.51100000000E-03 0.  1.
         11   -1    0    0    0    0 -0.00000000000E+00 -0.00000000000E+00 -0.45593999997E+02  0.45594000000E+02  0.51100000000E-03 0. -1.
    9900012    2    1    2    0    0  0.10330868390E+02 -0.41751922812E+02  0.58028813065E+01  0.47787270378E+02  0.19999996963E+02 0.  0.
        -12    1    1    2    0    0 -0.10330868390E+02  0.41751922812E+02 -0.58028813065E+01  0.43400729622E+02  0.00000000000E+00 0.  1.
         11    1    3    3    0    0  0.69335594038E+01 -0.13264963321E+02  0.97802545648E+00  0.14999667729E+02  0.51100000000E-03 0. -1.
        -11    1    3    3    0    0  0.66337204887E+01 -0.28093929815E+02  0.56735125213E+01  0.29418767556E+02  0.51100000000E-03 0.  1.
        -12    1    3    3    0    0 -0.32364115026E+01 -0.39302967691E+00 -0.84865667128E+00  0.33688350934E+01  0.00000000000E+00 0.  1.
</event>
<event>
 7    1  0.2811980E-010  0.4778731E+02  0.7816164E-02  0.1312668E+00
        -11   -1    0    0    0    0  0.00000000000E+00  0.00000000000E+00  0.45593999997E+02  0.45594000000E+02  0.51100000000E-03 0.  1.
         11   -1    0    0    0    0 -0.00000000000E+00 -0.00000000000E+00 -0.45593999997E+02  0.45594000000E+02  0.51100000000E-03 0. -1.
    9900012    2    1    2    0    0  0.40528547622E+02 -0.14762155765E+02 -0.48099067399E+01  0.47787313161E+02  0.20000192026E+02 0.  0.
        -12    1    1    2    0    0 -0.40528547622E+02  0.14762155765E+02  0.48099067399E+01  0.43400686839E+02  0.00000000000E+00 0.  1.
         11    1    3    3    0    0  0.16502357048E+02  0.25049744235E+01 -0.43112929386E+01  0.17239197547E+02  0.51100000000E-03 0. -1.
        -11    1    3    3    0    0  0.77623271203E+01 -0.77031391640E+01 -0.34147939467E+01  0.11456565509E+02  0.51100000000E-03 0.  1.
         12    1    3    3    0    0  0.16263863455E+02 -0.95639910250E+01  0.29161801455E+01  0.19091550106E+02  0.00000000000E+00 0. -1.
</event>
<event>
 7    1  0.2811980E-010  0.4778727E+02  0.7816164E-02  0.1312668E+00
        -11   -1    0    0    0    0  0.00000000000E+00  0.00000000000E+00  0.45593999997E+02  0.45594000000E+02  0.51100000000E-03 0.  1.
         11   -1    0    0    0    0 -0.00000000000E+00 -0.00000000000E+00 -0.45593999997E+02  0.45594000000E+02  0.51100000000E-03 0. -1.
    9900012    2    1    2    0    0  0.14244261322E+02  0.39709522106E+02 -0.10192055575E+02  0.47787272779E+02  0.20000007907E+02 0.  0.
        -12    1    1    2    0    0 -0.14244261322E+02 -0.39709522106E+02  0.10192055575E+02  0.43400727221E+02  0.00000000000E+00 0.  1.
         11    1    3    3    0    0  0.42908504698E+01  0.38950958368E+01 -0.87235668507E+01  0.10473002826E+02  0.51100000000E-03 0. -1.
        -11    1    3    3    0    0  0.72087267864E+01  0.22738611360E+02  0.16115865519E+00  0.23854478842E+02  0.51100000000E-03 0.  1.
         12    1    3    3    0    0  0.27446840663E+01  0.13075814909E+02 -0.16296473793E+01  0.13459791111E+02  0.00000000000E+00 0. -1.
</event>
<event>
 7    1  0.2811980E-010  0.4778726E+02  0.7816164E-02  0.1312668E+00
        -11   -1    0    0    0    0  0.00000000000E+00  0.00000000000E+00  0.45593999997E+02  0.45594000000E+02  0.51100000000E-03 0.  1.
         11   -1    0    0    0    0 -0.00000000000E+00 -0.00000000000E+00 -0.45593999997E+02  0.45594000000E+02  0.51100000000E-03 0. -1.
    9900012    2    1    2    0    0 -0.84591748594E+01  0.42558276393E+02  0.92702932560E+00  0.47787263690E+02  0.19999966469E+02 0.  0.
        -12    1    1    2    0    0  0.84591748594E+01 -0.42558276393E+02 -0.92702932560E+00  0.43400736310E+02  0.00000000000E+00 0.  1.
         11    1    3    3    0    0 -0.62514849438E+01  0.18721144980E+01  0.22074912245E+01  0.68890416215E+01  0.51100000000E-03 0. -1.
        -11    1    3    3    0    0 -0.99060891721E+00  0.21949467013E+02  0.93557726146E+00  0.21991719197E+02  0.51100000000E-03 0.  1.
         12    1    3    3    0    0 -0.12170809985E+01  0.18736694882E+02 -0.22160391603E+01  0.18906502871E+02  0.00000000000E+00 0. -1.
</event>
<event>
 7    1  0.2811980E-010  0.4778727E+02  0.7816164E-02  0.1312668E+00
        -11   -1    0    0    0    0  0.00000000000E+00  0.00000000000E+00  0.45593999997E+02  0.45594000000E+02  0.51100000000E-03 0.  1.
         11   -1    0    0    0    0 -0.00000000000E+00 -0.00000000000E+00 -0.45593999997E+02  0.45594000000E+02  0.51100000000E-03 0. -1.
    9900012    2    1    2    0    0  0.20748555989E+02 -0.28419888449E+02 -0.25405332257E+02  0.47787267954E+02  0.19999985907E+02 0.  0.
        -12    1    1    2    0    0 -0.20748555989E+02  0.28419888449E+02  0.25405332257E+02  0.43400732046E+02  0.00000000000E+00 0.  1.
         11    1    3    3    0    0  0.37192241661E+01 -0.10753561791E+02 -0.28594170258E+01  0.11732347828E+02  0.51100000000E-03 0. -1.
        -11    1    3    3    0    0  0.54105849611E+01  0.11179942763E+01 -0.75600193961E+01  0.93636656473E+01  0.51100000000E-03 0.  1.
        -12    1    3    3    0    0  0.11618746862E+02 -0.18784320935E+02 -0.14985895835E+02  0.26691254478E+02  0.00000000000E+00 0.  1.
</event>
<event>
 7    1  0.2811980E-010  0.4778727E+02  0.7816164E-02  0.1312668E+00
        -11   -1    0    0    0    0  0.00000000000E+00  0.00000000000E+00  0.45593999997E+02  0.45594000000E+02  0.51100000000E-03 0.  1.
         11   -1    0    0    0    0 -0.00000000000E+00 -0.00000000000E+00 -0.45593999997E+02  0.45594000000E+02  0.51100000000E-03 0. -1.
    9900012    2    1    2    0    0 -0.27289121969E+02  0.11910802917E+02 -0.31576262656E+02  0.47787265360E+02  0.19999974082E+02 0.  0.
        -12    1    1    2    0    0  0.27289121969E+02 -0.11910802917E+02  0.31576262656E+02  0.43400734640E+02  0.00000000000E+00 0.  1.
         11    1    3    3    0    0 -0.12130470795E+02  0.59277666401E+01 -0.10085572167E+02  0.16852462884E+02  0.51100000000E-03 0. -1.
        -11    1    3    3    0    0 -0.78237227397E+01  0.10577384908E+02 -0.15872531499E+02  0.20616230631E+02  0.51100000000E-03 0.  1.
        -12    1    3    3    0    0 -0.73349284342E+01 -0.45943486309E+01 -0.56181589906E+01  0.10318571845E+02  0.00000000000E+00 0.  1.
</event>
<event>
 7    1  0.2811980E-010  0.4778727E+02  0.7816164E-02  0.1312668E+00
        -11   -1    0    0    0    0  0.00000000000E+00  0.00000000000E+00  0.45593999997E+02  0.45594000000E+02  0.51100000000E-03 0.  1.
         11   -1    0    0    0    0 -0.00000000000E+00 -0.00000000000E+00 -0.45593999997E+02  0.45594000000E+02  0.51100000000E-03 0. -1.
    9900012    2    1    2    0    0 -0.36422855773E+02 -0.12897459866E+02 -0.19764976053E+02  0.47787272218E+02  0.20000005349E+02 0.  0.
        -12    1    1    2    0    0  0.36422855773E+02  0.12897459866E+02  0.19764976053E+02  0.43400727782E+02  0.00000000000E+00 0.  1.
         11    1    3    3    0    0 -0.16246716749E+02 -0.23596950109E+01 -0.15070616621E+02  0.22285588421E+02  0.51100000000E-03 0. -1.
        -11    1    3    3    0    0 -0.17589220638E+02 -0.11581335750E+02 -0.12881071544E+01  0.21098986722E+02  0.51100000000E-03 0.  1.
        -12    1    3    3    0    0 -0.25869183860E+01  0.10435708950E+01 -0.34062522776E+01  0.44026970742E+01  0.00000000000E+00 0.  1.
</event>
<event>
 7    1  0.2811980E-010  0.4778727E+02  0.7816164E-02  0.1312668E+00
        -11   -1    0    0    0    0  0.00000000000E+00  0.00000000000E+00  0.45593999997E+02  0.45594000000E+02  0.51100000000E-03 0.  1.
         11   -1    0    0    0    0 -0.00000000000E+00 -0.00000000000E+00 -0.45593999997E+02  0.45594000000E+02  0.51100000000E-03 0. -1.
    9900012    2    1    2    0    0  0.17077362811E+01  0.25215576825E+02 -0.35282878501E+02  0.47787271975E+02  0.20000004241E+02 0.  0.
        -12    1    1    2    0    0 -0.17077362811E+01 -0.25215576825E+02  0.35282878501E+02  0.43400728025E+02  0.00000000000E+00 0.  1.
         11    1    3    3    0    0  0.15829685411E+01  0.10818195818E+02 -0.15724043728E+02  0.19151623994E+02  0.51100000000E-03 0. -1.
        -11    1    3    3    0    0  0.48247629316E+01  0.11021794763E+02 -0.51110847477E+01  0.13072164500E+02  0.51100000000E-03 0.  1.
        -12    1    3    3    0    0 -0.46999951917E+01  0.33755862434E+01 -0.14447750025E+02  0.15563483482E+02  0.00000000000E+00 0.  1.
</event>
<event>
 7    1  0.2811980E-010  0.4778727E+02  0.7816164E-02  0.1312668E+00
        -11   -1    0    0    0    0  0.00000000000E+00  0.00000000000E+00  0.45593999997E+02  0.45594000000E+02  0.51100000000E-03 0.  1.
         11   -1    0    0    0    0 -0.00000000000E+00 -0.00000000000E+00 -0.45593999997E+02  0.45594000000E+02  0.51100000000E-03 0. -1.
    9900012    2    1    2    0    0 -0.42913226461E+02  0.24840068233E+01 -0.59923208375E+01  0.47787271847E+02  0.20000003661E+02 0.  0.
        -12    1    1    2    0    0  0.42913226461E+02 -0.24840068233E+01  0.59923208375E+01  0.43400728153E+02  0.00000000000E+00 0.  1.
         11    1    3    3    0    0 -0.77348170701E+01  0.84110985153E+01 -0.24062006746E+01  0.11677490111E+02  0.51100000000E-03 0.  1.
        -11    1    3    3    0    0 -0.27451965891E+02 -0.36247178549E+01 -0.42746908613E+01  0.28018243932E+02  0.51100000000E-03 0. -1.
        -12    1    3    3    0    0 -0.77264434997E+01 -0.23023738371E+01  0.68857069845E+00  0.80915378048E+01  0.00000000000E+00 0.  1.
</event>
<event>
 7    1  0.2811980E-010  0.4778727E+02  0.7816164E-02  0.1312668E+00
        -11   -1    0    0    0    0  0.00000000000E+00  0.00000000000E+00  0.45593999997E+02  0.45594000000E+02  0.51100000000E-03 0. -1.
         11   -1    0    0    0    0 -0.00000000000E+00 -0.00000000000E+00 -0.45593999997E+02  0.45594000000E+02  0.51100000000E-03 0.  1.
    9900012    2    1    2    0    0  0.24374114463E+02  0.12590406147E+02  0.33630453536E+02  0.47787272036E+02  0.20000004520E+02 0.  0.
        -12    1    1    2    0    0 -0.24374114463E+02 -0.12590406147E+02 -0.33630453536E+02  0.43400727964E+02  0.00000000000E+00 0.  1.
         11    1    3    3    0    0  0.79433869547E+01  0.31689650671E+01  0.48440858050E+01  0.98287793472E+01  0.51100000000E-03 0. -1.
        -11    1    3    3    0    0  0.44187324359E+01  0.43432011778E+01 -0.17283863318E+00  0.61982631652E+01  0.51100000000E-03 0.  1.
        -12    1    3    3    0    0  0.12011995072E+02  0.50782399019E+01  0.28959206364E+02  0.31760229523E+02  0.00000000000E+00 0.  1.
</event>
<event>
 7    1  0.2811980E-010  0.4778726E+02  0.7816164E-02  0.1312668E+00
        -11   -1    0    0    0    0  0.00000000000E+00  0.00000000000E+00  0.45593999997E+02  0.45594000000E+02  0.51100000000E-03 0.  1.
         11   -1    0    0    0    0 -0.00000000000E+00 -0.00000000000E+00 -0.45593999997E+02  0.45594000000E+02  0.51100000000E-03 0. -1.
    9900012    2    1    2    0    0 -0.33816946838E+02 -0.26720111877E+02  0.51062807622E+01  0.47787258354E+02  0.19999942141E+02 0.  0.
        -12    1    1    2    0    0  0.33816946838E+02  0.26720111877E+02 -0.51062807622E+01  0.43400741646E+02  0.00000000000E+00 0.  1.
         11    1    3    3    0    0 -0.23419882420E+02 -0.16775779486E+02  0.54109958229E+01  0.29312054619E+02  0.51100000000E-03 0. -1.
        -11    1    3    3    0    0  0.21628806600E+01 -0.26423952163E+01  0.16910368357E+01  0.38105001075E+01  0.51100000000E-03 0.  1.
         12    1    3    3    0    0 -0.12559945078E+02 -0.73019371744E+01 -0.19957518964E+01  0.14664703628E+02  0.00000000000E+00 0. -1.
</event>
<event>
 7    1  0.2811980E-010  0.4778727E+02  0.7816164E-02  0.1312668E+00
        -11   -1    0    0    0    0  0.00000000000E+00  0.00000000000E+00  0.45593999997E+02  0.45594000000E+02  0.51100000000E-03 0.  1.
         11   -1    0    0    0    0 -0.00000000000E+00 -0.00000000000E+00 -0.45593999997E+02  0.45594000000E+02  0.51100000000E-03 0. -1.
    9900012    2    1    2    0    0  0.36390075497E+02  0.18099596997E+02  0.15224666509E+02  0.47787268711E+02  0.19999989359E+02 0.  0.
        -12    1    1    2    0    0 -0.36390075497E+02 -0.18099596997E+02 -0.15224666509E+02  0.43400731289E+02  0.00000000000E+00 0.  1.
         11    1    3    3    0    0  0.19270520489E+02  0.83187380873E+01  0.58347258896E+01  0.21785279198E+02  0.51100000000E-03 0. -1.
        -11    1    3    3    0    0  0.42679733825E+01 -0.19980150824E+01  0.69531388082E+01  0.83996309806E+01  0.51100000000E-03 0.  1.
        -12    1    3    3    0    0  0.12851581626E+02  0.11778873992E+02  0.24368018110E+01  0.17602358532E+02  0.00000000000E+00 0.  1.
</event>
<event>
 7    1  0.2811980E-010  0.4778727E+02  0.7816164E-02  0.1312668E+00
        -11   -1    0    0    0    0  0.00000000000E+00  0.00000000000E+00  0.45593999997E+02  0.45594000000E+02  0.51100000000E-03 0.  1.
         11   -1    0    0    0    0 -0.00000000000E+00 -0.00000000000E+00 -0.45593999997E+02  0.45594000000E+02  0.51100000000E-03 0. -1.
    9900012    2    1    2    0    0 -0.72047354944E+01  0.35282605752E+02 -0.24225043646E+02  0.47787271644E+02  0.20000002732E+02 0.  0.
        -12    1    1    2    0    0  0.72047354944E+01 -0.35282605752E+02  0.24225043646E+02  0.43400728356E+02  0.00000000000E+00 0.  1.
         11    1    3    3    0    0 -0.75912123768E+01  0.18205553982E+02 -0.87474712911E+01  0.21577464063E+02  0.51100000000E-03 0. -1.
        -11    1    3    3    0    0 -0.39740920214E+00  0.11070575899E+02 -0.16690469824E+02  0.20032158346E+02  0.51100000000E-03 0.  1.
        -12    1    3    3    0    0  0.78388608452E+00  0.60064758718E+01  0.12128974692E+01  0.61776492344E+01  0.00000000000E+00 0.  1.
</event>
<event>
 7    1  0.2811980E-010  0.4778727E+02  0.7816164E-02  0.1312668E+00
        -11   -1    0    0    0    0  0.00000000000E+00  0.00000000000E+00  0.45593999997E+02  0.45594000000E+02  0.51100000000E-03 0.  1.
         11   -1    0    0    0    0 -0.00000000000E+00 -0.00000000000E+00 -0.45593999997E+02  0.45594000000E+02  0.51100000000E-03 0. -1.
    9900012    2    1    2    0    0 -0.20287705452E+02 -0.10666125692E+02 -0.36854662542E+02  0.47787269812E+02  0.19999994380E+02 0.  0.
        -12    1    1    2    0    0  0.20287705452E+02  0.10666125692E+02  0.36854662542E+02  0.43400730188E+02  0.00000000000E+00 0.  1.
         11    1    3    3    0    0 -0.11208345746E+02 -0.10660889865E+02 -0.19420622753E+02  0.24828253572E+02  0.51100000000E-03 0. -1.
        -11    1    3    3    0    0 -0.48226141374E+01  0.22100596420E+01 -0.17367754164E+02  0.18159869374E+02  0.51100000000E-03 0.  1.
        -12    1    3    3    0    0 -0.42567455683E+01 -0.22152954692E+01 -0.66285625451E-01  0.47991468651E+01  0.00000000000E+00 0.  1.
</event>
<event>
 7    1  0.2811980E-010  0.4778727E+02  0.7816164E-02  0.1312668E+00
        -11   -1    0    0    0    0  0.00000000000E+00  0.00000000000E+00  0.45593999997E+02  0.45594000000E+02  0.51100000000E-03 0.  1.
         11   -1    0    0    0    0 -0.00000000000E+00 -0.00000000000E+00 -0.45593999997E+02  0.45594000000E+02  0.51100000000E-03 0. -1.
    9900012    2    1    2    0    0 -0.15537211150E+02 -0.14631197093E+02 -0.37790826221E+02  0.47787269532E+02  0.19999993104E+02 0.  0.
        -12    1    1    2    0    0  0.15537211150E+02  0.14631197093E+02  0.37790826221E+02  0.43400730468E+02  0.00000000000E+00 0.  1.
         11    1    3    3    0    0 -0.13662917953E+02 -0.82449577137E+00 -0.19563656635E+02  0.23876594846E+02  0.51100000000E-03 0. -1.
        -11    1    3    3    0    0  0.41703549023E+00 -0.10546899648E+02 -0.16456016805E+02  0.19550230181E+02  0.51100000000E-03 0.  1.
        -12    1    3    3    0    0 -0.22913286872E+01 -0.32598016729E+01 -0.17711527810E+01  0.43604445041E+01  0.00000000000E+00 0.  1.
</event>
<event>
 7    1  0.2811980E-010  0.4778727E+02  0.7816164E-02  0.1312668E+00
        -11   -1    0    0    0    0  0.00000000000E+00  0.00000000000E+00  0.45593999997E+02  0.45594000000E+02  0.51100000000E-03 0. -1.
         11   -1    0    0    0    0 -0.00000000000E+00 -0.00000000000E+00 -0.45593999997E+02  0.45594000000E+02  0.51100000000E-03 0.  1.
    9900012    2    1    2    0    0 -0.19096827861E+02  0.17695265657E+02  0.34724804791E+02  0.47787270411E+02  0.19999997114E+02 0.  0.
        -12    1    1    2    0    0  0.19096827861E+02 -0.17695265657E+02 -0.34724804791E+02  0.43400729589E+02  0.00000000000E+00 0.  1.
         11    1    3    3    0    0 -0.49408299783E+01 -0.11872623774E+01  0.12826486107E+02  0.13796381371E+02  0.51100000000E-03 0. -1.
        -11    1    3    3    0    0 -0.35228254176E+01  0.51717354962E+01  0.13142116824E+02  0.14555836693E+02  0.51100000000E-03 0.  1.
         12    1    3    3    0    0 -0.10633172465E+02  0.13710792538E+02  0.87562018603E+01  0.19435052347E+02  0.00000000000E+00 0. -1.
</event>
<event>
 7    1  0.2811980E-010  0.4778727E+02  0.7816164E-02  0.1312668E+00
        -11   -1    0    0    0    0  0.00000000000E+00  0.00000000000E+00  0.45593999997E+02  0.45594000000E+02  0.51100000000E-03 0.  1.
         11   -1    0    0    0    0 -0.00000000000E+00 -0.00000000000E+00 -0.45593999997E+02  0.45594000000E+02  0.51100000000E-03 0. -1.
    9900012    2    1    2    0    0  0.14537299817E+02 -0.40611421783E+02  0.47960934420E+01  0.47787272155E+02  0.20000005064E+02 0.  0.
        -12    1    1    2    0    0 -0.14537299817E+02  0.40611421783E+02 -0.47960934420E+01  0.43400727845E+02  0.00000000000E+00 0.  1.
         11    1    3    3    0    0  0.14874564279E+02 -0.32992314262E+02  0.61547915326E+01  0.36710038435E+02  0.51100000000E-03 0. -1.
        -11    1    3    3    0    0  0.82713696176E+00  0.13663723328E+01 -0.12296049454E+01  0.20157027281E+01  0.51100000000E-03 0.  1.
         12    1    3    3    0    0 -0.11644014245E+01 -0.89854798537E+01 -0.12909314520E+00  0.90615309920E+01  0.00000000000E+00 0. -1.
</event>
<event>
 7    1  0.2811980E-010  0.4778727E+02  0.7816164E-02  0.1312668E+00
        -11   -1    0    0    0    0  0.00000000000E+00  0.00000000000E+00  0.45593999997E+02  0.45594000000E+02  0.51100000000E-03 0.  1.
         11   -1    0    0    0    0 -0.00000000000E+00 -0.00000000000E+00 -0.45593999997E+02  0.45594000000E+02  0.51100000000E-03 0. -1.
    9900012    2    1    2    0    0  0.34856289044E+02  0.24132348777E+02 -0.92893557251E+01  0.47787271052E+02  0.20000000034E+02 0.  0.
        -12    1    1    2    0    0 -0.34856289044E+02 -0.24132348777E+02  0.92893557251E+01  0.43400728948E+02  0.00000000000E+00 0.  1.
         11    1    3    3    0    0  0.13724736077E+02  0.28123137833E+01 -0.10113883244E+02  0.17279123928E+02  0.51100000000E-03 0. -1.
        -11    1    3    3    0    0  0.13001088314E+02  0.12337351977E+02  0.30752666879E+01  0.18185043762E+02  0.51100000000E-03 0.  1.
         12    1    3    3    0    0  0.81304646535E+01  0.89826830172E+01 -0.22507391687E+01  0.12323103362E+02  0.00000000000E+00 0. -1.
</event>
<event>
 7    1  0.2811980E-010  0.4778728E+02  0.7816164E-02  0.1312668E+00
        -11   -1    0    0    0    0  0.00000000000E+00  0.00000000000E+00  0.45593999997E+02  0.45594000000E+02  0.51100000000E-03 0.  1.
         11   -1    0    0    0    0 -0.00000000000E+00 -0.00000000000E+00 -0.45593999997E+02  0.45594000000E+02  0.51100000000E-03 0. -1.
    9900012    2    1    2    0    0 -0.81806835694E+00  0.13946684268E+02 -0.41090672914E+02  0.47787278365E+02  0.20000033377E+02 0.  0.
        -12    1    1    2    0    0  0.81806835694E+00 -0.13946684268E+02  0.41090672914E+02  0.43400721635E+02  0.00000000000E+00 0.  1.
         11    1    3    3    0    0 -0.50301682900E+01  0.16456337914E+02 -0.25589006028E+02  0.30836842905E+02  0.51100000000E-03 0. -1.
        -11    1    3    3    0    0  0.33215846732E+01 -0.53050445173E+00 -0.13767398559E+02  0.14172354182E+02  0.51100000000E-03 0.  1.
        -12    1    3    3    0    0  0.89051525987E+00 -0.19791491938E+01 -0.17342683265E+01  0.27780812781E+01  0.00000000000E+00 0.  1.
</event>
<event>
 7    1  0.2811980E-010  0.4778726E+02  0.7816164E-02  0.1312668E+00
        -11   -1    0    0    0    0  0.00000000000E+00  0.00000000000E+00  0.45593999997E+02  0.45594000000E+02  0.51100000000E-03 0.  1.
         11   -1    0    0    0    0 -0.00000000000E+00 -0.00000000000E+00 -0.45593999997E+02  0.45594000000E+02  0.51100000000E-03 0. -1.
    9900012    2    1    2    0    0 -0.18384447241E-01 -0.20185944086E+02 -0.38420713422E+02  0.47787263872E+02  0.19999967297E+02 0.  0.
        -12    1    1    2    0    0  0.18384447241E-01  0.20185944086E+02  0.38420713422E+02  0.43400736128E+02  0.00000000000E+00 0.  1.
         11    1    3    3    0    0  0.42426562122E+01 -0.61932761637E+01 -0.15672459707E+02  0.17377652169E+02  0.51100000000E-03 0. -1.
        -11    1    3    3    0    0 -0.63309419441E+01 -0.69191309757E+01 -0.38733879764E+01  0.10146838623E+02  0.51100000000E-03 0.  1.
        -12    1    3    3    0    0  0.20699012846E+01 -0.70735369468E+01 -0.18874865739E+02  0.20262773081E+02  0.00000000000E+00 0.  1.
</event>
<event>
 7    1  0.2811980E-010  0.4778727E+02  0.7816164E-02  0.1312668E+00
        -11   -1    0    0    0    0  0.00000000000E+00  0.00000000000E+00  0.45593999997E+02  0.45594000000E+02  0.51100000000E-03 0.  1.
         11   -1    0    0    0    0 -0.00000000000E+00 -0.00000000000E+00 -0.45593999997E+02  0.45594000000E+02  0.51100000000E-03 0. -1.
    9900012    2    1    2    0    0 -0.37688195885E+02  0.15194342578E+02 -0.15243192896E+02  0.47787273220E+02  0.20000009918E+02 0.  0.
        -12    1    1    2    0    0  0.37688195885E+02 -0.15194342578E+02  0.15243192896E+02  0.43400726780E+02  0.00000000000E+00 0.  1.
         11    1    3    3    0    0 -0.16788420615E+02  0.60201457681E+01 -0.13809678703E+02  0.22556605417E+02  0.51100000000E-03 0. -1.
        -11    1    3    3    0    0 -0.12320630966E+02  0.10676442436E+02  0.49350241020E+00  0.16310362209E+02  0.51100000000E-03 0.  1.
        -12    1    3    3    0    0 -0.85791443036E+01 -0.15022456257E+01 -0.19270166031E+01  0.89203055940E+01  0.00000000000E+00 0.  1.
</event>
<event>
 7    1  0.2811980E-010  0.4778727E+02  0.7816164E-02  0.1312668E+00
        -11   -1    0    0    0    0  0.00000000000E+00  0.00000000000E+00  0.45593999997E+02  0.45594000000E+02  0.51100000000E-03 0.  1.
         11   -1    0    0    0    0 -0.00000000000E+00 -0.00000000000E+00 -0.45593999997E+02  0.45594000000E+02  0.51100000000E-03 0. -1.
    9900012    2    1    2    0    0  0.65769641697E+01 -0.15531475855E+02 -0.39989254014E+02  0.47787266866E+02  0.19999980950E+02 0.  0.
        -12    1    1    2    0    0 -0.65769641697E+01  0.15531475855E+02  0.39989254014E+02  0.43400733134E+02  0.00000000000E+00 0.  1.
         11    1    3    3    0    0  0.67696426041E+01 -0.79192504406E+01 -0.20765847240E+02  0.23232800098E+02  0.51100000000E-03 0. -1.
        -11    1    3    3    0    0  0.22540790320E+01 -0.10883212540E+02 -0.15110668398E+02  0.18757864675E+02  0.51100000000E-03 0.  1.
        -12    1    3    3    0    0 -0.24467574665E+01  0.32709871259E+01 -0.41127383764E+01  0.57966020935E+01  0.00000000000E+00 0.  1.
</event>
<event>
 7    1  0.2811980E-010  0.4778727E+02  0.7816164E-02  0.1312668E+00
        -11   -1    0    0    0    0  0.00000000000E+00  0.00000000000E+00  0.45593999997E+02  0.45594000000E+02  0.51100000000E-03 0.  1.
         11   -1    0    0    0    0 -0.00000000000E+00 -0.00000000000E+00 -0.45593999997E+02  0.45594000000E+02  0.51100000000E-03 0. -1.
    9900012    2    1    2    0    0  0.32599584107E+02 -0.79871208973E+01 -0.27515382502E+02  0.47787271223E+02  0.20000000813E+02 0.  0.
        -12    1    1    2    0    0 -0.32599584107E+02  0.79871208973E+01  0.27515382502E+02  0.43400728777E+02  0.00000000000E+00 0.  1.
         11    1    3    3    0    0  0.15547086481E+02 -0.85422973547E+01 -0.15333385566E+02  0.23447717486E+02  0.51100000000E-03 0. -1.
        -11    1    3    3    0    0  0.10888216081E+02  0.63068080513E+01 -0.81713838360E+01  0.15003352668E+02  0.51100000000E-03 0.  1.
        -12    1    3    3    0    0  0.61642815450E+01 -0.57516315939E+01 -0.40106131002E+01  0.93362010688E+01  0.00000000000E+00 0.  1.
</event>
<event>
 7    1  0.2811980E-010  0.4778727E+02  0.7816164E-02  0.1312668E+00
        -11   -1    0    0    0    0  0.00000000000E+00  0.00000000000E+00  0.45593999997E+02  0.45594000000E+02  0.51100000000E-03 0.  1.
         11   -1    0    0    0    0 -0.00000000000E+00 -0.00000000000E+00 -0.45593999997E+02  0.45594000000E+02  0.51100000000E-03 0. -1.
    9900012    2    1    2    0    0  0.38630803294E+02 -0.16665126653E+02 -0.10656347807E+02  0.47787272379E+02  0.20000006083E+02 0.  0.
        -12    1    1    2    0    0 -0.38630803294E+02  0.16665126653E+02  0.10656347807E+02  0.43400727621E+02  0.00000000000E+00 0.  1.
         11    1    3    3    0    0  0.22886580064E+02 -0.40419657324E+01 -0.25783672851E+01  0.23383349035E+02  0.51100000000E-03 0. -1.
        -11    1    3    3    0    0  0.86427347544E+01 -0.70523866763E+01 -0.10218482857E+02  0.15127802684E+02  0.51100000000E-03 0.  1.
         12    1    3    3    0    0  0.71014884759E+01 -0.55707742438E+01  0.21405023353E+01  0.92761206598E+01  0.00000000000E+00 0. -1.
</event>
<event>
 7    1  0.2811980E-010  0.4778727E+02  0.7816164E-02  0.1312668E+00
        -11   -1    0    0    0    0  0.00000000000E+00  0.00000000000E+00  0.45593999997E+02  0.45594000000E+02  0.51100000000E-03 0.  1.
         11   -1    0    0    0    0 -0.00000000000E+00 -0.00000000000E+00 -0.45593999997E+02  0.45594000000E+02  0.51100000000E-03 0. -1.
    9900012    2    1    2    0    0  0.17501685629E+02 -0.31295350600E+01 -0.39591921274E+02  0.47787271668E+02  0.20000002845E+02 0.  0.
        -12    1    1    2    0    0 -0.17501685629E+02  0.31295350600E+01  0.39591921274E+02  0.43400728332E+02  0.00000000000E+00 0.  1.
         11    1    3    3    0    0  0.98286487819E+01 -0.73935875723E+01 -0.34507591177E+02  0.36633882174E+02  0.51100000000E-03 0. -1.
        -11    1    3    3    0    0  0.51242363220E+01  0.30675480837E+01 -0.79848691678E+00  0.60253822075E+01  0.51100000000E-03 0.  1.
         12    1    3    3    0    0  0.25488005251E+01  0.11965044286E+01 -0.42858431802E+01  0.51280072864E+01  0.00000000000E+00 0. -1.
</event>
<event>
 7    1  0.2811980E-010  0.4778727E+02  0.7816164E-02  0.1312668E+00
        -11   -1    0    0    0    0  0.00000000000E+00  0.00000000000E+00  0.45593999997E+02  0.45594000000E+02  0.51100000000E-03 0. -1.
         11   -1    0    0    0    0 -0.00000000000E+00 -0.00000000000E+00 -0.45593999997E+02  0.45594000000E+02  0.51100000000E-03 0.  1.
    9900012    2    1    2    0    0 -0.41918490792E+02 -0.81921848748E+01  0.77039743239E+01  0.47787274388E+02  0.20000015243E+02 0.  0.
        -12    1    1    2    0    0  0.41918490792E+02  0.81921848748E+01 -0.77039743239E+01  0.43400725612E+02  0.00000000000E+00 0.  1.
         11    1    3    3    0    0 -0.26272364831E+01  0.22830260857E+01 -0.30837821332E+01  0.46501927006E+01  0.51100000000E-03 0. -1.
        -11    1    3    3    0    0 -0.73647483454E+00 -0.22094747510E+01  0.77848817940E+00  0.24556502120E+01  0.51100000000E-03 0.  1.
         12    1    3    3    0    0 -0.38554779474E+02 -0.82657362095E+01  0.10009268278E+02  0.40681431475E+02  0.00000000000E+00 0. -1.
</event>
<event>
 7    1  0.2811980E-010  0.4778727E+02  0.7816164E-02  0.1312668E+00
        -11   -1    0    0    0    0  0.00000000000E+00  0.00000000000E+00  0.45593999997E+02  0.45594000000E+02  0.51100000000E-03 0.  1.
         11   -1    0    0    0    0 -0.00000000000E+00 -0.00000000000E+00 -0.45593999997E+02  0.45594000000E+02  0.51100000000E-03 0. -1.
    9900012    2    1    2    0    0 -0.41793647515E+02 -0.74512813383E+01 -0.90217911786E+01  0.47787270948E+02  0.19999999560E+02 0.  0.
        -12    1    1    2    0    0  0.41793647515E+02  0.74512813383E+01  0.90217911786E+01  0.43400729052E+02  0.00000000000E+00 0.  1.
         11    1    3    3    0    0 -0.21998226372E+02 -0.52530923372E+01 -0.14555043609E+02  0.26895468714E+02  0.51100000000E-03 0. -1.
        -11    1    3    3    0    0 -0.19331729946E+02 -0.24670108838E+01  0.49657539298E+01  0.20111206770E+02  0.51100000000E-03 0.  1.
        -12    1    3    3    0    0 -0.46369119675E+00  0.26882188269E+00  0.56749850024E+00  0.78059546394E+00  0.00000000000E+00 0.  1.
</event>
<event>
 7    1  0.2811980E-010  0.4778727E+02  0.7816164E-02  0.1312668E+00
        -11   -1    0    0    0    0  0.00000000000E+00  0.00000000000E+00  0.45593999997E+02  0.45594000000E+02  0.51100000000E-03 0.  1.
         11   -1    0    0    0    0 -0.00000000000E+00 -0.00000000000E+00 -0.45593999997E+02  0.45594000000E+02  0.51100000000E-03 0. -1.
    9900012    2    1    2    0    0  0.28906001278E+02  0.29977456959E+02 -0.12223686746E+02  0.47787270129E+02  0.19999995828E+02 0.  0.
        -12    1    1    2    0    0 -0.28906001278E+02 -0.29977456959E+02  0.12223686746E+02  0.43400729871E+02  0.00000000000E+00 0.  1.
         11    1    3    3    0    0  0.14637346554E+01  0.36667752069E+01 -0.41718137113E+01  0.57438479665E+01  0.51100000000E-03 0. -1.
        -11    1    3    3    0    0  0.26287351030E+01 -0.75868893308E+00 -0.43459548783E+01  0.51354825678E+01  0.51100000000E-03 0.  1.
        -12    1    3    3    0    0  0.24813531520E+02  0.27069370685E+02 -0.37059181568E+01  0.36907939595E+02  0.00000000000E+00 0.  1.
</event>
<event>
 7    1  0.2847942E-010  0.4778727E+02  0.7816164E-02  0.1312668E+00
        -11   -1    0    0    0    0  0.00000000000E+00  0.00000000000E+00  0.45593999997E+02  0.45594000000E+02  0.51100000000E-03 0.  1.
         11   -1    0    0    0    0 -0.00000000000E+00 -0.00000000000E+00 -0.45593999997E+02  0.45594000000E+02  0.51100000000E-03 0. -1.
    9900012    2    1    2    0    0 -0.24772004116E+01 -0.41233874377E+02 -0.13313696503E+02  0.47787269216E+02  0.19999991665E+02 0.  0.
        -12    1    1    2    0    0  0.24772004116E+01  0.41233874377E+02  0.13313696503E+02  0.43400730784E+02  0.00000000000E+00 0.  1.
         11    1    3    3    0    0 -0.24548978953E+01 -0.15427773423E+02 -0.11193982641E+01  0.15661920994E+02  0.51100000000E-03 0.  1.
        -11    1    3    3    0    0  0.25896621142E+01 -0.25746060802E+02 -0.13520494101E+02  0.29195372196E+02  0.51100000000E-03 0. -1.
        -12    1    3    3    0    0 -0.26119646304E+01 -0.60040151587E-01  0.13261958623E+01  0.29299760264E+01  0.00000000000E+00 0.  1.
</event>
<event>
 7    1  0.2811980E-010  0.4778727E+02  0.7816164E-02  0.1312668E+00
        -11   -1    0    0    0    0  0.00000000000E+00  0.00000000000E+00  0.45593999997E+02  0.45594000000E+02  0.51100000000E-03 0.  1.
         11   -1    0    0    0    0 -0.00000000000E+00 -0.00000000000E+00 -0.45593999997E+02  0.45594000000E+02  0.51100000000E-03 0. -1.
    9900012    2    1    2    0    0 -0.15866555111E+02  0.40382955386E+02  0.10453907753E+01  0.47787268455E+02  0.19999988193E+02 0.  0.
        -12    1    1    2    0    0  0.15866555111E+02 -0.40382955386E+02 -0.10453907753E+01  0.43400731545E+02  0.00000000000E+00 0.  1.
         11    1    3    3    0    0 -0.33014232041E+01  0.22867486367E+02 -0.40945508224E+01  0.23464583410E+02  0.51100000000E-03 0. -1.
        -11    1    3    3    0    0 -0.12051682763E+02  0.90961255866E+01  0.49353442685E+01  0.15885218960E+02  0.51100000000E-03 0.  1.
        -12    1    3    3    0    0 -0.51344914325E+00  0.84193434322E+01  0.20459732922E+00  0.84374660840E+01  0.00000000000E+00 0.  1.
</event>
<event>
 7    1  0.2811980E-010  0.4778727E+02  0.7816164E-02  0.1312668E+00
        -11   -1    0    0    0    0  0.00000000000E+00  0.00000000000E+00  0.45593999997E+02  0.45594000000E+02  0.51100000000E-03 0.  1.
         11   -1    0    0    0    0 -0.00000000000E+00 -0.00000000000E+00 -0.45593999997E+02  0.45594000000E+02  0.51100000000E-03 0. -1.
    9900012    2    1    2    0    0 -0.39351982727E+02 -0.39404859680E+01 -0.17875044880E+02  0.47787271853E+02  0.20000003687E+02 0.  0.
        -12    1    1    2    0    0  0.39351982727E+02  0.39404859680E+01  0.17875044880E+02  0.43400728147E+02  0.00000000000E+00 0.  1.
         11    1    3    3    0    0 -0.38937170330E+02  0.97646521070E+00 -0.13821257797E+02  0.41328971497E+02  0.51100000000E-03 0. -1.
        -11    1    3    3    0    0 -0.53535340946E+00 -0.19886299977E+01 -0.20650781131E+01  0.29164705408E+01  0.51100000000E-03 0.  1.
         12    1    3    3    0    0  0.12054101283E+00 -0.29283211809E+01 -0.19887089700E+01  0.35418298155E+01  0.00000000000E+00 0. -1.
</event>
<event>
 7    1  0.2811980E-010  0.4778726E+02  0.7816164E-02  0.1312668E+00
        -11   -1    0    0    0    0  0.00000000000E+00  0.00000000000E+00  0.45593999997E+02  0.45594000000E+02  0.51100000000E-03 0.  1.
         11   -1    0    0    0    0 -0.00000000000E+00 -0.00000000000E+00 -0.45593999997E+02  0.45594000000E+02  0.51100000000E-03 0. -1.
    9900012    2    1    2    0    0 -0.23701425068E+02 -0.16985310724E+02 -0.32146011172E+02  0.47787258475E+02  0.19999942690E+02 0.  0.
        -12    1    1    2    0    0  0.23701425068E+02  0.16985310724E+02  0.32146011172E+02  0.43400741525E+02  0.00000000000E+00 0.  1.
         11    1    3    3    0    0 -0.10071671283E+02 -0.12070100864E+02 -0.18193871565E+02  0.24044601474E+02  0.51100000000E-03 0. -1.
        -11    1    3    3    0    0  0.22147839277E+01  0.65734760451E+00 -0.93216817915E+00  0.24912469759E+01  0.51100000000E-03 0.  1.
        -12    1    3    3    0    0 -0.15844537713E+02 -0.55725574646E+01 -0.13019971429E+02  0.21251410025E+02  0.00000000000E+00 0.  1.
</event>
<event>
 7    1  0.2811980E-010  0.4778727E+02  0.7816164E-02  0.1312668E+00
        -11   -1    0    0    0    0  0.00000000000E+00  0.00000000000E+00  0.45593999997E+02  0.45594000000E+02  0.51100000000E-03 0.  1.
         11   -1    0    0    0    0 -0.00000000000E+00 -0.00000000000E+00 -0.45593999997E+02  0.45594000000E+02  0.51100000000E-03 0. -1.
    9900012    2    1    2    0    0 -0.34411376521E+02  0.10187140862E+02 -0.24407014198E+02  0.47787274026E+02  0.20000013592E+02 0.  0.
        -12    1    1    2    0    0  0.34411376521E+02 -0.10187140862E+02  0.24407014198E+02  0.43400725974E+02  0.00000000000E+00 0.  1.
         11    1    3    3    0    0 -0.40568953758E+01  0.20279879864E+01 -0.11662573750E+02  0.12513463233E+02  0.51100000000E-03 0. -1.
        -11    1    3    3    0    0 -0.27244350085E+02  0.10286526447E+02 -0.11182310165E+02  0.31194731907E+02  0.51100000000E-03 0.  1.
         12    1    3    3    0    0 -0.31101310608E+01 -0.21273735711E+01 -0.15621302835E+01  0.40790788849E+01  0.00000000000E+00 0. -1.
</event>
<event>
 7    1  0.3445303E-010  0.4778727E+02  0.7816164E-02  0.1312668E+00
        -11   -1    0    0    0    0  0.00000000000E+00  0.00000000000E+00  0.45593999997E+02  0.45594000000E+02  0.51100000000E-03 0. -1.
         11   -1    0    0    0    0 -0.00000000000E+00 -0.00000000000E+00 -0.45593999997E+02  0.45594000000E+02  0.51100000000E-03 0.  1.
    9900012    2    1    2    0    0 -0.58745558007E+01 -0.34165214098E+02  0.26112271762E+02  0.47787274237E+02  0.20000014555E+02 0.  0.
        -12    1    1    2    0    0  0.58745558007E+01  0.34165214098E+02 -0.26112271762E+02  0.43400725763E+02  0.00000000000E+00 0.  1.
         11    1    3    3    0    0 -0.71459727531E+01 -0.15356852416E+02  0.11176112927E+02  0.20292938257E+02  0.51100000000E-03 0. -1.
        -11    1    3    3    0    0  0.11344509590E+01 -0.20040749979E+01 -0.24166032719E+01  0.33381532634E+01  0.51100000000E-03 0.  1.
        -12    1    3    3    0    0  0.13696599341E+00 -0.16804286684E+02  0.17352762107E+02  0.24156182716E+02  0.00000000000E+00 0.  1.
</event>
<event>
 7    1  0.2811980E-010  0.4778727E+02  0.7816164E-02  0.1312668E+00
        -11   -1    0    0    0    0  0.00000000000E+00  0.00000000000E+00  0.45593999997E+02  0.45594000000E+02  0.51100000000E-03 0.  1.
         11   -1    0    0    0    0 -0.00000000000E+00 -0.00000000000E+00 -0.45593999997E+02  0.45594000000E+02  0.51100000000E-03 0. -1.
    9900012    2    1    2    0    0  0.31387439504E+02 -0.28784215658E+02  0.83618610592E+01  0.47787272471E+02  0.20000006503E+02 0.  0.
        -12    1    1    2    0    0 -0.31387439504E+02  0.28784215658E+02 -0.83618610592E+01  0.43400727529E+02  0.00000000000E+00 0.  1.
         11    1    3    3    0    0  0.21113397864E+02 -0.19183053586E+02  0.24665713752E+01  0.28633006982E+02  0.51100000000E-03 0. -1.
        -11    1    3    3    0    0  0.30101014688E+01 -0.34735942849E+01  0.81775749754E+01  0.93807942547E+01  0.51100000000E-03 0.  1.
        -12    1    3    3    0    0  0.72639401715E+01 -0.61275677877E+01 -0.22822852914E+01  0.97734712338E+01  0.00000000000E+00 0.  1.
</event>
<event>
 7    1  0.2811980E-010  0.4778728E+02  0.7816164E-02  0.1312668E+00
        -11   -1    0    0    0    0  0.00000000000E+00  0.00000000000E+00  0.45593999997E+02  0.45594000000E+02  0.51100000000E-03 0.  1.
         11   -1    0    0    0    0 -0.00000000000E+00 -0.00000000000E+00 -0.45593999997E+02  0.45594000000E+02  0.51100000000E-03 0. -1.
    9900012    2    1    2    0    0  0.28933674913E+02 -0.95934550818E+01 -0.30893864687E+02  0.47787276508E+02  0.20000024909E+02 0.  0.
        -12    1    1    2    0    0 -0.28933674913E+02  0.95934550818E+01  0.30893864687E+02  0.43400723492E+02  0.00000000000E+00 0.  1.
         11    1    3    3    0    0  0.65790671452E+01  0.24474640853E+01 -0.14967337593E+02  0.16531648431E+02  0.51100000000E-03 0. -1.
        -11    1    3    3    0    0  0.10156010652E+02 -0.67428495404E+01 -0.26737994060E+01  0.12480375628E+02  0.51100000000E-03 0.  1.
         12    1    3    3    0    0  0.12198597115E+02 -0.52980696267E+01 -0.13252727687E+02  0.18775252449E+02  0.00000000000E+00 0. -1.
</event>
<event>
 7    1  0.2811980E-010  0.4778727E+02  0.7816164E-02  0.1312668E+00
        -11   -1    0    0    0    0  0.00000000000E+00  0.00000000000E+00  0.45593999997E+02  0.45594000000E+02  0.51100000000E-03 0.  1.
         11   -1    0    0    0    0 -0.00000000000E+00 -0.00000000000E+00 -0.45593999997E+02  0.45594000000E+02  0.51100000000E-03 0. -1.
    9900012    2    1    2    0    0 -0.36653649320E+02 -0.53650898011E+01  0.22613025565E+02  0.47787272792E+02  0.20000007966E+02 0.  0.
        -12    1    1    2    0    0  0.36653649320E+02  0.53650898011E+01 -0.22613025565E+02  0.43400727208E+02  0.00000000000E+00 0.  1.
         11    1    3    3    0    0 -0.22718536307E+02  0.17455481367E+01  0.21242125099E+02  0.31151351644E+02  0.51100000000E-03 0. -1.
        -11    1    3    3    0    0  0.16907849915E+00  0.49137824618E+00 -0.15155364713E+00  0.54130295471E+00  0.51100000000E-03 0.  1.
         12    1    3    3    0    0 -0.14104191512E+02 -0.76020161840E+01  0.15224541129E+01  0.16094618193E+02  0.00000000000E+00 0. -1.
</event>
<event>
 7    1  0.2811980E-010  0.4778728E+02  0.7816164E-02  0.1312668E+00
        -11   -1    0    0    0    0  0.00000000000E+00  0.00000000000E+00  0.45593999997E+02  0.45594000000E+02  0.51100000000E-03 0.  1.
         11   -1    0    0    0    0 -0.00000000000E+00 -0.00000000000E+00 -0.45593999997E+02  0.45594000000E+02  0.51100000000E-03 0. -1.
    9900012    2    1    2    0    0  0.10272245241E+02  0.39245564362E+02 -0.15423666240E+02  0.47787276220E+02  0.20000023597E+02 0.  0.
        -12    1    1    2    0    0 -0.10272245241E+02 -0.39245564362E+02  0.15423666240E+02  0.43400723780E+02  0.00000000000E+00 0.  1.
         11    1    3    3    0    0  0.36044795422E+01  0.15393544040E+02 -0.14247378012E+02  0.21282416483E+02  0.51100000000E-03 0.  1.
        -11    1    3    3    0    0  0.59628393523E+01  0.10823155528E+02 -0.43078693168E+01  0.13086400844E+02  0.51100000000E-03 0. -1.
         12    1    3    3    0    0  0.70492634615E+00  0.13028864793E+02  0.31315810882E+01  0.13418458893E+02  0.00000000000E+00 0. -1.
</event>
<event>
 7    1  0.2811980E-010  0.4778727E+02  0.7816164E-02  0.1312668E+00
        -11   -1    0    0    0    0  0.00000000000E+00  0.00000000000E+00  0.45593999997E+02  0.45594000000E+02  0.51100000000E-03 0.  1.
         11   -1    0    0    0    0 -0.00000000000E+00 -0.00000000000E+00 -0.45593999997E+02  0.45594000000E+02  0.51100000000E-03 0. -1.
    9900012    2    1    2    0    0 -0.17374780678E+02  0.30058234454E+02 -0.26043094252E+02  0.47787271662E+02  0.20000002815E+02 0.  0.
        -12    1    1    2    0    0  0.17374780678E+02 -0.30058234454E+02  0.26043094252E+02  0.43400728338E+02  0.00000000000E+00 0.  1.
         11    1    3    3    0    0 -0.33140263395E+01  0.10320831150E+02 -0.13945061465E+02  0.17662589441E+02  0.51100000000E-03 0. -1.
        -11    1    3    3    0    0 -0.14070636465E+01  0.41830275201E+01  0.27271453628E+01  0.51879542625E+01  0.51100000000E-03 0.  1.
        -12    1    3    3    0    0 -0.12653690692E+02  0.15554375783E+02 -0.14825178149E+02  0.24936727959E+02  0.00000000000E+00 0.  1.
</event>
<event>
 7    1  0.2811980E-010  0.4778727E+02  0.7816164E-02  0.1312668E+00
        -11   -1    0    0    0    0  0.00000000000E+00  0.00000000000E+00  0.45593999997E+02  0.45594000000E+02  0.51100000000E-03 0.  1.
         11   -1    0    0    0    0 -0.00000000000E+00 -0.00000000000E+00 -0.45593999997E+02  0.45594000000E+02  0.51100000000E-03 0. -1.
    9900012    2    1    2    0    0  0.13637055760E+02  0.48969149183E+01 -0.40910566228E+02  0.47787268501E+02  0.19999988404E+02 0.  0.
        -12    1    1    2    0    0 -0.13637055760E+02 -0.48969149183E+01  0.40910566228E+02  0.43400731499E+02  0.00000000000E+00 0.  1.
         11    1    3    3    0    0  0.13768519737E+02 -0.37328204163E+01 -0.21442152764E+02  0.25754067629E+02  0.51100000000E-03 0.  1.
        -11    1    3    3    0    0 -0.16516188993E+01  0.78052311356E+01 -0.18250299472E+02  0.19917904236E+02  0.51100000000E-03 0. -1.
         12    1    3    3    0    0  0.15201549225E+01  0.82450419905E+00 -0.12181139916E+01  0.21152966362E+01  0.00000000000E+00 0. -1.
</event>
<event>
 7    1  0.2811980E-010  0.4778727E+02  0.7816164E-02  0.1312668E+00
        -11   -1    0    0    0    0  0.00000000000E+00  0.00000000000E+00  0.45593999997E+02  0.45594000000E+02  0.51100000000E-03 0.  1.
         11   -1    0    0    0    0 -0.00000000000E+00 -0.00000000000E+00 -0.45593999997E+02  0.45594000000E+02  0.51100000000E-03 0. -1.
    9900012    2    1    2    0    0  0.68559553374E+01 -0.16055456146E+02 -0.39734634986E+02  0.47787274048E+02  0.20000013695E+02 0.  0.
        -12    1    1    2    0    0 -0.68559553374E+01  0.16055456146E+02  0.39734634986E+02  0.43400725952E+02  0.00000000000E+00 0.  1.
         11    1    3    3    0    0 -0.36842279862E+01 -0.33728415763E+01 -0.89673196369E+01  0.10264619715E+02  0.51100000000E-03 0. -1.
        -11    1    3    3    0    0  0.10910422045E+02 -0.24366133061E+01 -0.14812805165E+02  0.18557844452E+02  0.51100000000E-03 0.  1.
        -12    1    3    3    0    0 -0.37023872132E+00 -0.10246001264E+02 -0.15954510184E+02  0.18964809881E+02  0.00000000000E+00 0.  1.
</event>
<event>
 7    1  0.2811980E-010  0.4778727E+02  0.7816164E-02  0.1312668E+00
        -11   -1    0    0    0    0  0.00000000000E+00  0.00000000000E+00  0.45593999997E+02  0.45594000000E+02  0.51100000000E-03 0. -1.
         11   -1    0    0    0    0 -0.00000000000E+00 -0.00000000000E+00 -0.45593999997E+02  0.45594000000E+02  0.51100000000E-03 0.  1.
    9900012    2    1    2    0    0  0.37047308979E+02 -0.12175571647E+02  0.19049293791E+02  0.47787271418E+02  0.20000001704E+02 0.  0.
        -12    1    1    2    0    0 -0.37047308979E+02  0.12175571647E+02 -0.19049293791E+02  0.43400728582E+02  0.00000000000E+00 0.  1.
         11    1    3    3    0    0  0.21388333788E+02 -0.22418274953E+01  0.98203184225E+01  0.23641600346E+02  0.51100000000E-03 0. -1.
        -11    1    3    3    0    0  0.50831422939E+00 -0.66428195144E+01  0.15313959838E+01  0.68359789626E+01  0.51100000000E-03 0.  1.
        -12    1    3    3    0    0  0.15150660962E+02 -0.32909246375E+01  0.76975793849E+01  0.17309692110E+02  0.00000000000E+00 0.  1.
</event>
<event>
 7    1  0.2811980E-010  0.4778729E+02  0.7816164E-02  0.1312668E+00
        -11   -1    0    0    0    0  0.00000000000E+00  0.00000000000E+00  0.45593999997E+02  0.45594000000E+02  0.51100000000E-03 0. -1.
         11   -1    0    0    0    0 -0.00000000000E+00 -0.00000000000E+00 -0.45593999997E+02  0.45594000000E+02  0.51100000000E-03 0.  1.
    9900012    2    1    2    0    0  0.38174630427E+02 -0.22087174057E+01  0.20529033495E+02  0.47787285063E+02  0.20000063915E+02 0.  0.
        -12    1    1    2    0    0 -0.38174630427E+02  0.22087174057E+01 -0.20529033495E+02  0.43400714937E+02  0.00000000000E+00 0.  1.
         11    1    3    3    0    0  0.26685575142E+02  0.41533330889E+01  0.21311127625E+02  0.34402532717E+02  0.51100000000E-03 0. -1.
        -11    1    3    3    0    0  0.91659081054E+01 -0.45019241967E+01  0.30491101853E+00  0.10216367449E+02  0.51100000000E-03 0.  1.
         12    1    3    3    0    0  0.23231471796E+01 -0.18601262979E+01 -0.10870051485E+01  0.31683848970E+01  0.00000000000E+00 0. -1.
</event>
<event>
 7    1  0.2811980E-010  0.4778727E+02  0.7816164E-02  0.1312668E+00
        -11   -1    0    0    0    0  0.00000000000E+00  0.00000000000E+00  0.45593999997E+02  0.45594000000E+02  0.51100000000E-03 0.  1.
         11   -1    0    0    0    0 -0.00000000000E+00 -0.00000000000E+00 -0.45593999997E+02  0.45594000000E+02  0.51100000000E-03 0. -1.
    9900012    2    1    2    0    0  0.47980488651E+01 -0.10251598625E+02 -0.41898767845E+02  0.47787270810E+02  0.19999998932E+02 0.  0.
        -12    1    1    2    0    0 -0.47980488651E+01  0.10251598625E+02  0.41898767845E+02  0.43400729190E+02  0.00000000000E+00 0.  1.
         11    1    3    3    0    0 -0.23049299889E+00 -0.13276566394E+02 -0.23715771980E+02  0.27180106385E+02  0.51100000000E-03 0. -1.
        -11    1    3    3    0    0  0.48415092771E+00  0.41539463147E+01 -0.44912748648E+01  0.61368739826E+01  0.51100000000E-03 0.  1.
         12    1    3    3    0    0  0.45443909363E+01 -0.11289785454E+01 -0.13691721000E+02  0.14470290442E+02  0.00000000000E+00 0. -1.
</event>
<event>
 7    1  0.2811980E-010  0.4778727E+02  0.7816164E-02  0.1312668E+00
        -11   -1    0    0    0    0  0.00000000000E+00  0.00000000000E+00  0.45593999997E+02  0.45594000000E+02  0.51100000000E-03 0.  1.
         11   -1    0    0    0    0 -0.00000000000E+00 -0.00000000000E+00 -0.45593999997E+02  0.45594000000E+02  0.51100000000E-03 0. -1.
    9900012    2    1    2    0    0  0.86377323531E+00 -0.33246567641E+02  0.27884457067E+02  0.47787270627E+02  0.19999998099E+02 0.  0.
        -12    1    1    2    0    0 -0.86377323531E+00  0.33246567641E+02 -0.27884457067E+02  0.43400729373E+02  0.00000000000E+00 0.  1.
         11    1    3    3    0    0  0.15285240352E+00 -0.99959434703E+00  0.21105004826E-01  0.10114338328E+01  0.51100000000E-03 0. -1.
        -11    1    3    3    0    0  0.13626586848E+01 -0.28160873693E+01  0.13801541528E+02  0.14151669003E+02  0.51100000000E-03 0.  1.
        -12    1    3    3    0    0 -0.65173785299E+00 -0.29430885925E+02  0.14061810534E+02  0.32624167791E+02  0.00000000000E+00 0.  1.
</event>
<event>
 7    1  0.2811980E-010  0.4778727E+02  0.7816164E-02  0.1312668E+00
        -11   -1    0    0    0    0  0.00000000000E+00  0.00000000000E+00  0.45593999997E+02  0.45594000000E+02  0.51100000000E-03 0.  1.
         11   -1    0    0    0    0 -0.00000000000E+00 -0.00000000000E+00 -0.45593999997E+02  0.45594000000E+02  0.51100000000E-03 0. -1.
    9900012    2    1    2    0    0 -0.10617638833E+02  0.10888243333E+02 -0.40648927701E+02  0.47787269355E+02  0.19999992298E+02 0.  0.
        -12    1    1    2    0    0  0.10617638833E+02 -0.10888243333E+02  0.40648927701E+02  0.43400730645E+02  0.00000000000E+00 0.  1.
         11    1    3    3    0    0 -0.30760365167E+01 -0.41177734769E+00 -0.12508957772E+02  0.12888195608E+02  0.51100000000E-03 0. -1.
        -11    1    3    3    0    0  0.35663180530E+01  0.38389640585E+01 -0.15983752431E+02  0.16820719709E+02  0.51100000000E-03 0.  1.
        -12    1    3    3    0    0 -0.11107920369E+02  0.74610566227E+01 -0.12156217498E+02  0.18078354038E+02  0.00000000000E+00 0.  1.
</event>
<event>
 7    1  0.2811980E-010  0.4778727E+02  0.7816164E-02  0.1312668E+00
        -11   -1    0    0    0    0  0.00000000000E+00  0.00000000000E+00  0.45593999997E+02  0.45594000000E+02  0.51100000000E-03 0.  1.
         11   -1    0    0    0    0 -0.00000000000E+00 -0.00000000000E+00 -0.45593999997E+02  0.45594000000E+02  0.51100000000E-03 0. -1.
    9900012    2    1    2    0    0 -0.37484369007E+02 -0.20769362999E+02  0.68687214659E+01  0.47787266206E+02  0.19999977940E+02 0.  0.
        -12    1    1    2    0    0  0.37484369007E+02  0.20769362999E+02 -0.68687214659E+01  0.43400733794E+02  0.00000000000E+00 0.  1.
         11    1    3    3    0    0 -0.35041047833E+02 -0.12522780977E+02  0.71991908561E+01  0.37901496354E+02  0.51100000000E-03 0. -1.
        -11    1    3    3    0    0 -0.33212110917E+01 -0.82028467606E+01  0.21315844302E+00  0.88522638277E+01  0.51100000000E-03 0.  1.
         12    1    3    3    0    0  0.87788991773E+00 -0.43735261492E-01 -0.54362783317E+00  0.10335060241E+01  0.00000000000E+00 0. -1.
</event>
<event>
 7    1  0.2811980E-010  0.4778727E+02  0.7816164E-02  0.1312668E+00
        -11   -1    0    0    0    0  0.00000000000E+00  0.00000000000E+00  0.45593999997E+02  0.45594000000E+02  0.51100000000E-03 0. -1.
         11   -1    0    0    0    0 -0.00000000000E+00 -0.00000000000E+00 -0.45593999997E+02  0.45594000000E+02  0.51100000000E-03 0.  1.
    9900012    2    1    2    0    0 -0.42772872556E+02 -0.10889748839E+01  0.72745469585E+01  0.47787268135E+02  0.19999986733E+02 0.  0.
        -12    1    1    2    0    0  0.42772872556E+02  0.10889748839E+01 -0.72745469585E+01  0.43400731865E+02  0.00000000000E+00 0.  1.
         11    1    3    3    0    0 -0.27933497424E+02  0.92978445401E+00  0.12593606523E+02  0.30655239405E+02  0.51100000000E-03 0. -1.
        -11    1    3    3    0    0 -0.47304782213E+01 -0.40606258348E+00 -0.49931312807E+01  0.68901140245E+01  0.51100000000E-03 0.  1.
         12    1    3    3    0    0 -0.10108896911E+02 -0.16126967544E+01 -0.32592828370E+00  0.10241914705E+02  0.00000000000E+00 0. -1.
</event>
<event>
 7    1  0.2811980E-010  0.4778727E+02  0.7816164E-02  0.1312668E+00
        -11   -1    0    0    0    0  0.00000000000E+00  0.00000000000E+00  0.45593999997E+02  0.45594000000E+02  0.51100000000E-03 0.  1.
         11   -1    0    0    0    0 -0.00000000000E+00 -0.00000000000E+00 -0.45593999997E+02  0.45594000000E+02  0.51100000000E-03 0. -1.
    9900012    2    1    2    0    0 -0.53984371619E+01 -0.43031870524E+02  0.16547346236E+01  0.47787272457E+02  0.20000006439E+02 0.  0.
        -12    1    1    2    0    0  0.53984371619E+01  0.43031870524E+02 -0.16547346236E+01  0.43400727543E+02  0.00000000000E+00 0.  1.
         11    1    3    3    0    0 -0.11206027857E+01 -0.11410820922E+02  0.17177835501E+00  0.11467000165E+02  0.51100000000E-03 0. -1.
        -11    1    3    3    0    0 -0.79640862447E+01 -0.25518044151E+02 -0.43812235552E+01  0.27088602162E+02  0.51100000000E-03 0.  1.
        -12    1    3    3    0    0  0.36862518685E+01 -0.61030054515E+01  0.58641798238E+01  0.92316701298E+01  0.00000000000E+00 0.  1.
</event>
<event>
 7    1  0.2811980E-010  0.4778727E+02  0.7816164E-02  0.1312668E+00
        -11   -1    0    0    0    0  0.00000000000E+00  0.00000000000E+00  0.45593999997E+02  0.45594000000E+02  0.51100000000E-03 0.  1.
         11   -1    0    0    0    0 -0.00000000000E+00 -0.00000000000E+00 -0.45593999997E+02  0.45594000000E+02  0.51100000000E-03 0. -1.
    9900012    2    1    2    0    0 -0.11677813600E+02 -0.40548101628E+02 -0.10153981487E+02  0.47787271709E+02  0.20000003031E+02 0.  0.
        -12    1    1    2    0    0  0.11677813600E+02  0.40548101628E+02  0.10153981487E+02  0.43400728291E+02  0.00000000000E+00 0.  1.
         11    1    3    3    0    0  0.85418169130E+00 -0.10690820981E+01  0.61975186357E+00  0.15022168711E+01  0.51100000000E-03 0. -1.
        -11    1    3    3    0    0 -0.73074264668E+01 -0.51843032269E+01  0.22375926017E+01  0.92348417652E+01  0.51100000000E-03 0.  1.
        -12    1    3    3    0    0 -0.52245688241E+01 -0.34294716303E+02 -0.13011325952E+02  0.37050213073E+02  0.00000000000E+00 0.  1.
</event>
<event>
 7    1  0.2811980E-010  0.4778727E+02  0.7816164E-02  0.1312668E+00
        -11   -1    0    0    0    0  0.00000000000E+00  0.00000000000E+00  0.45593999997E+02  0.45594000000E+02  0.51100000000E-03 0. -1.
         11   -1    0    0    0    0 -0.00000000000E+00 -0.00000000000E+00 -0.45593999997E+02  0.45594000000E+02  0.51100000000E-03 0.  1.
    9900012    2    1    2    0    0 -0.17464268787E+01  0.30627335136E+02  0.30700810231E+02  0.47787269439E+02  0.19999992682E+02 0.  0.
        -12    1    1    2    0    0  0.17464268787E+01 -0.30627335136E+02 -0.30700810231E+02  0.43400730561E+02  0.00000000000E+00 0.  1.
         11    1    3    3    0    0  0.42974729709E+01  0.90312762480E+00  0.67508957755E+01  0.80534779738E+01  0.51100000000E-03 0. -1.
        -11    1    3    3    0    0 -0.17296265929E+01  0.22396267407E+02  0.13298670679E+02  0.26104387448E+02  0.51100000000E-03 0.  1.
         12    1    3    3    0    0 -0.43142732567E+01  0.73279401039E+01  0.10651243776E+02  0.13629404018E+02  0.00000000000E+00 0. -1.
</event>
<event>
 7    1  0.2811980E-010  0.4778726E+02  0.7816164E-02  0.1312668E+00
        -11   -1    0    0    0    0  0.00000000000E+00  0.00000000000E+00  0.45593999997E+02  0.45594000000E+02  0.51100000000E-03 0. -1.
         11   -1    0    0    0    0 -0.00000000000E+00 -0.00000000000E+00 -0.45593999997E+02  0.45594000000E+02  0.51100000000E-03 0.  1.
    9900012    2    1    2    0    0  0.23488282904E+02  0.33331346383E+02  0.14864253519E+02  0.47787261318E+02  0.19999955651E+02 0.  0.
        -12    1    1    2    0    0 -0.23488282904E+02 -0.33331346383E+02 -0.14864253519E+02  0.43400738682E+02  0.00000000000E+00 0.  1.
         11    1    3    3    0    0 -0.62661699811E+00  0.12084326567E+02 -0.28944190098E+00  0.12104023063E+02  0.51100000000E-03 0. -1.
        -11    1    3    3    0    0  0.23352708029E+02  0.21134356825E+02  0.14503523197E+02  0.34675094752E+02  0.51100000000E-03 0.  1.
         12    1    3    3    0    0  0.76219187303E+00  0.11266299130E+00  0.65017222306E+00  0.10081435020E+01  0.00000000000E+00 0. -1.
</event>
<event>
 7    1  0.2811980E-010  0.4778728E+02  0.7816164E-02  0.1312668E+00
        -11   -1    0    0    0    0  0.00000000000E+00  0.00000000000E+00  0.45593999997E+02  0.45594000000E+02  0.51100000000E-03 0.  1.
         11   -1    0    0    0    0 -0.00000000000E+00 -0.00000000000E+00 -0.45593999997E+02  0.45594000000E+02  0.51100000000E-03 0. -1.
    9900012    2    1    2    0    0  0.19893342309E+02  0.17295791793E+02 -0.34478002390E+02  0.47787284214E+02  0.20000060045E+02 0.  0.
        -12    1    1    2    0    0 -0.19893342309E+02 -0.17295791793E+02  0.34478002390E+02  0.43400715786E+02  0.00000000000E+00 0.  1.
         11    1    3    3    0    0  0.14354919767E+02  0.39465863126E+01 -0.27985769189E+02  0.31699251449E+02  0.51100000000E-03 0.  1.
        -11    1    3    3    0    0  0.52133226388E+01  0.10821513532E+02 -0.62151676491E+01  0.13524503585E+02  0.51100000000E-03 0. -1.
        -12    1    3    3    0    0  0.32509990276E+00  0.25276919493E+01 -0.27706555108E+00  0.25635291800E+01  0.00000000000E+00 0.  1.
</event>
<event>
 7    1  0.2811980E-010  0.4778727E+02  0.7816164E-02  0.1312668E+00
        -11   -1    0    0    0    0  0.00000000000E+00  0.00000000000E+00  0.45593999997E+02  0.45594000000E+02  0.51100000000E-03 0.  1.
         11   -1    0    0    0    0 -0.00000000000E+00 -0.00000000000E+00 -0.45593999997E+02  0.45594000000E+02  0.51100000000E-03 0. -1.
    9900012    2    1    2    0    0  0.20633626190E+01 -0.87151685716E+01 -0.42466592198E+02  0.47787273261E+02  0.20000010108E+02 0.  0.
        -12    1    1    2    0    0 -0.20633626190E+01  0.87151685716E+01  0.42466592198E+02  0.43400726739E+02  0.00000000000E+00 0.  1.
         11    1    3    3    0    0 -0.23990002763E+00 -0.79224515055E+01 -0.71203755443E+01  0.10654695586E+02  0.51100000000E-03 0. -1.
        -11    1    3    3    0    0 -0.54165024180E+00  0.68722539316E+00 -0.33336625507E+02  0.33348107356E+02  0.51100000000E-03 0.  1.
        -12    1    3    3    0    0  0.28449128885E+01 -0.14799424592E+01 -0.20095911462E+01  0.37844703197E+01  0.00000000000E+00 0.  1.
</event>
<event>
 7    1  0.2811980E-010  0.4778727E+02  0.7816164E-02  0.1312668E+00
        -11   -1    0    0    0    0  0.00000000000E+00  0.00000000000E+00  0.45593999997E+02  0.45594000000E+02  0.51100000000E-03 0. -1.
         11   -1    0    0    0    0 -0.00000000000E+00 -0.00000000000E+00 -0.45593999997E+02  0.45594000000E+02  0.51100000000E-03 0.  1.
    9900012    2    1    2    0    0 -0.22892414173E+01  0.26255491644E+02  0.34482340664E+02  0.47787270912E+02  0.19999999396E+02 0.  0.
        -12    1    1    2    0    0  0.22892414173E+01 -0.26255491644E+02 -0.34482340664E+02  0.43400729088E+02  0.00000000000E+00 0.  1.
         11    1    3    3    0    0 -0.62738322641E+01  0.90578233694E+01  0.57108479785E+01  0.12410435946E+02  0.51100000000E-03 0. -1.
        -11    1    3    3    0    0  0.26570117270E+01  0.83362067362E-01  0.80009826422E+01  0.84310369500E+01  0.51100000000E-03 0.  1.
         12    1    3    3    0    0  0.13275791198E+01  0.17114306207E+02  0.20770510043E+02  0.26945798016E+02  0.00000000000E+00 0. -1.
</event>
<event>
 7    1  0.2811980E-010  0.4778727E+02  0.7816164E-02  0.1312668E+00
        -11   -1    0    0    0    0  0.00000000000E+00  0.00000000000E+00  0.45593999997E+02  0.45594000000E+02  0.51100000000E-03 0.  1.
         11   -1    0    0    0    0 -0.00000000000E+00 -0.00000000000E+00 -0.45593999997E+02  0.45594000000E+02  0.51100000000E-03 0. -1.
    9900012    2    1    2    0    0 -0.38640376880E+02 -0.90269252453E+01 -0.17580082553E+02  0.47787269506E+02  0.19999992987E+02 0.  0.
        -12    1    1    2    0    0  0.38640376880E+02  0.90269252453E+01  0.17580082553E+02  0.43400730494E+02  0.00000000000E+00 0.  1.
         11    1    3    3    0    0 -0.27602279387E+01 -0.55399400771E+00  0.33357683723E+00  0.28349676191E+01  0.51100000000E-03 0. -1.
        -11    1    3    3    0    0 -0.76930701591E+01  0.34745372435E+00 -0.12858119678E+02  0.14987838219E+02  0.51100000000E-03 0.  1.
        -12    1    3    3    0    0 -0.28187078782E+02 -0.88203849620E+01 -0.50555397122E+01  0.29964463669E+02  0.00000000000E+00 0.  1.
</event>
<event>
 7    1  0.2811980E-010  0.4778726E+02  0.7816164E-02  0.1312668E+00
        -11   -1    0    0    0    0  0.00000000000E+00  0.00000000000E+00  0.45593999997E+02  0.45594000000E+02  0.51100000000E-03 0.  1.
         11   -1    0    0    0    0 -0.00000000000E+00 -0.00000000000E+00 -0.45593999997E+02  0.45594000000E+02  0.51100000000E-03 0. -1.
    9900012    2    1    2    0    0 -0.29598204668E+02  0.31647171999E+02 -0.24550282164E+01  0.47787258317E+02  0.19999941969E+02 0.  0.
        -12    1    1    2    0    0  0.29598204668E+02 -0.31647171999E+02  0.24550282164E+01  0.43400741683E+02  0.00000000000E+00 0.  1.
         11    1    3    3    0    0 -0.18462254314E+02  0.15822380500E+02  0.39134084694E+00  0.24317806377E+02  0.51100000000E-03 0. -1.
        -11    1    3    3    0    0  0.20486714899E+01  0.29801573794E+01 -0.35246769023E+01  0.50499247921E+01  0.51100000000E-03 0.  1.
        -12    1    3    3    0    0 -0.13184621844E+02  0.12844634120E+02  0.67830783898E+00  0.18419527148E+02  0.00000000000E+00 0.  1.
</event>
<event>
 7    1  0.2811980E-010  0.4778727E+02  0.7816164E-02  0.1312668E+00
        -11   -1    0    0    0    0  0.00000000000E+00  0.00000000000E+00  0.45593999997E+02  0.45594000000E+02  0.51100000000E-03 0. -1.
         11   -1    0    0    0    0 -0.00000000000E+00 -0.00000000000E+00 -0.45593999997E+02  0.45594000000E+02  0.51100000000E-03 0.  1.
    9900012    2    1    2    0    0 -0.30069269655E+02  0.31157369663E+02  0.29462799268E+01  0.47787271581E+02  0.20000002446E+02 0.  0.
        -12    1    1    2    0    0  0.30069269655E+02 -0.31157369663E+02 -0.29462799268E+01  0.43400728419E+02  0.00000000000E+00 0.  1.
         11    1    3    3    0    0 -0.24635464523E+02  0.17554954885E+02  0.17640772132E+01  0.30301724736E+02  0.51100000000E-03 0. -1.
        -11    1    3    3    0    0 -0.26925355661E+01 -0.70067416802E+00 -0.49491644389E+00  0.28258865179E+01  0.51100000000E-03 0.  1.
         12    1    3    3    0    0 -0.27412695653E+01  0.14303088947E+02  0.16771191575E+01  0.14659660327E+02  0.00000000000E+00 0. -1.
</event>
<event>
 7    1  0.2811980E-010  0.4778727E+02  0.7816164E-02  0.1312668E+00
        -11   -1    0    0    0    0  0.00000000000E+00  0.00000000000E+00  0.45593999997E+02  0.45594000000E+02  0.51100000000E-03 0.  1.
         11   -1    0    0    0    0 -0.00000000000E+00 -0.00000000000E+00 -0.45593999997E+02  0.45594000000E+02  0.51100000000E-03 0. -1.
    9900012    2    1    2    0    0  0.27376426161E+02  0.32215398433E+02 -0.98144064203E+01  0.47787272138E+02  0.20000004987E+02 0.  0.
        -12    1    1    2    0    0 -0.27376426161E+02 -0.32215398433E+02  0.98144064203E+01  0.43400727862E+02  0.00000000000E+00 0.  1.
         11    1    3    3    0    0  0.14026918667E+02  0.13655349592E+02  0.31815614392E+01  0.19832936072E+02  0.51100000000E-03 0. -1.
        -11    1    3    3    0    0  0.10464723406E+01  0.90565053630E+01 -0.36861348057E+01  0.98337675291E+01  0.51100000000E-03 0.  1.
         12    1    3    3    0    0  0.12303035153E+02  0.95035434781E+01 -0.93098330539E+01  0.18120568537E+02  0.00000000000E+00 0. -1.
</event>
<event>
 7    1  0.2811980E-010  0.4778727E+02  0.7816164E-02  0.1312668E+00
        -11   -1    0    0    0    0  0.00000000000E+00  0.00000000000E+00  0.45593999997E+02  0.45594000000E+02  0.51100000000E-03 0.  1.
         11   -1    0    0    0    0 -0.00000000000E+00 -0.00000000000E+00 -0.45593999997E+02  0.45594000000E+02  0.51100000000E-03 0. -1.
    9900012    2    1    2    0    0  0.10748192419E+02  0.35993992660E+02 -0.21737804841E+02  0.47787270661E+02  0.19999998250E+02 0.  0.
        -12    1    1    2    0    0 -0.10748192419E+02 -0.35993992660E+02  0.21737804841E+02  0.43400729339E+02  0.00000000000E+00 0.  1.
         11    1    3    3    0    0  0.84193997983E+01  0.82582034953E+01 -0.14122264403E+02  0.18398982854E+02  0.51100000000E-03 0. -1.
        -11    1    3    3    0    0  0.39903687035E+01  0.16935224271E+02 -0.37615777732E+01  0.17800964331E+02  0.51100000000E-03 0.  1.
         12    1    3    3    0    0 -0.16615760834E+01  0.10800564894E+02 -0.38539626645E+01  0.11587323475E+02  0.00000000000E+00 0. -1.
</event>
<event>
 7    1  0.2811980E-010  0.4778727E+02  0.7816164E-02  0.1312668E+00
        -11   -1    0    0    0    0  0.00000000000E+00  0.00000000000E+00  0.45593999997E+02  0.45594000000E+02  0.51100000000E-03 0. -1.
         11   -1    0    0    0    0 -0.00000000000E+00 -0.00000000000E+00 -0.45593999997E+02  0.45594000000E+02  0.51100000000E-03 0.  1.
    9900012    2    1    2    0    0  0.41349061489E+01  0.33525566537E+02  0.27249997434E+02  0.47787269354E+02  0.19999992291E+02 0.  0.
        -12    1    1    2    0    0 -0.41349061489E+01 -0.33525566537E+02 -0.27249997434E+02  0.43400730646E+02  0.00000000000E+00 0.  1.
         11    1    3    3    0    0 -0.51812938798E+01  0.22220086984E+02  0.10515198449E+02  0.25122648557E+02  0.51100000000E-03 0. -1.
        -11    1    3    3    0    0  0.41832004788E+01  0.53965074594E+01  0.11055836473E+02  0.12994344130E+02  0.51100000000E-03 0.  1.
        -12    1    3    3    0    0  0.51329995498E+01  0.59089720934E+01  0.56789625124E+01  0.96702766659E+01  0.00000000000E+00 0.  1.
</event>
<event>
 7    1  0.2811980E-010  0.4778727E+02  0.7816164E-02  0.1312668E+00
        -11   -1    0    0    0    0  0.00000000000E+00  0.00000000000E+00  0.45593999997E+02  0.45594000000E+02  0.51100000000E-03 0.  1.
         11   -1    0    0    0    0 -0.00000000000E+00 -0.00000000000E+00 -0.45593999997E+02  0.45594000000E+02  0.51100000000E-03 0. -1.
    9900012    2    1    2    0    0  0.32926039567E+02 -0.24962667374E+01 -0.28165005444E+02  0.47787274651E+02  0.20000016443E+02 0.  0.
        -12    1    1    2    0    0 -0.32926039567E+02  0.24962667374E+01  0.28165005444E+02  0.43400725349E+02  0.00000000000E+00 0.  1.
         11    1    3    3    0    0  0.24363708911E+02  0.59245588894E+00 -0.19694981134E+02  0.31334224069E+02  0.51100000000E-03 0. -1.
        -11    1    3    3    0    0 -0.11678687511E+01  0.41947821634E+00 -0.55761105230E+01  0.57125203037E+01  0.51100000000E-03 0.  1.
        -12    1    3    3    0    0  0.97301994069E+01 -0.35082008427E+01 -0.28939137874E+01  0.10740530278E+02  0.00000000000E+00 0.  1.
</event>
<event>
 7    1  0.3328768E-010  0.4778727E+02  0.7816164E-02  0.1312668E+00
        -11   -1    0    0    0    0  0.00000000000E+00  0.00000000000E+00  0.45593999997E+02  0.45594000000E+02  0.51100000000E-03 0. -1.
         11   -1    0    0    0    0 -0.00000000000E+00 -0.00000000000E+00 -0.45593999997E+02  0.45594000000E+02  0.51100000000E-03 0.  1.
    9900012    2    1    2    0    0 -0.38705621010E+02  0.18374141348E+02 -0.69202185634E+01  0.47787267368E+02  0.19999983239E+02 0.  0.
        -12    1    1    2    0    0  0.38705621010E+02 -0.18374141348E+02  0.69202185634E+01  0.43400732632E+02  0.00000000000E+00 0.  1.
         11    1    3    3    0    0 -0.11528862070E+02  0.85239969889E+01 -0.66057021963E+01  0.15786338621E+02  0.51100000000E-03 0. -1.
        -11    1    3    3    0    0 -0.77341034304E+01  0.44982241482E+01  0.61124787221E+01  0.10835717454E+02  0.51100000000E-03 0.  1.
        -12    1    3    3    0    0 -0.19442655509E+02  0.53519202107E+01 -0.64269950892E+01  0.21165211293E+02  0.00000000000E+00 0.  1.
</event>
<event>
 7    1  0.2811980E-010  0.4778727E+02  0.7816164E-02  0.1312668E+00
        -11   -1    0    0    0    0  0.00000000000E+00  0.00000000000E+00  0.45593999997E+02  0.45594000000E+02  0.51100000000E-03 0.  1.
         11   -1    0    0    0    0 -0.00000000000E+00 -0.00000000000E+00 -0.45593999997E+02  0.45594000000E+02  0.51100000000E-03 0. -1.
    9900012    2    1    2    0    0  0.43769340936E+01  0.24378133423E+02 -0.35639474851E+02  0.47787272945E+02  0.20000008667E+02 0.  0.
        -12    1    1    2    0    0 -0.43769340936E+01 -0.24378133423E+02  0.35639474851E+02  0.43400727055E+02  0.00000000000E+00 0.  1.
         11    1    3    3    0    0  0.49379737946E+01  0.19140581329E+02 -0.30356893881E+02  0.36225494409E+02  0.51100000000E-03 0. -1.
        -11    1    3    3    0    0  0.38412018479E+00  0.50721682216E+01  0.10188395839E+01  0.51877233102E+01  0.51100000000E-03 0.  1.
        -12    1    3    3    0    0 -0.94515988577E+00  0.16538387206E+00 -0.63014205533E+01  0.63740552260E+01  0.00000000000E+00 0.  1.
</event>
<event>
 7    1  0.2811980E-010  0.4778728E+02  0.7816164E-02  0.1312668E+00
        -11   -1    0    0    0    0  0.00000000000E+00  0.00000000000E+00  0.45593999997E+02  0.45594000000E+02  0.51100000000E-03 0. -1.
         11   -1    0    0    0    0 -0.00000000000E+00 -0.00000000000E+00 -0.45593999997E+02  0.45594000000E+02  0.51100000000E-03 0.  1.
    9900012    2    1    2    0    0 -0.36910322536E+02  0.13932725353E+02  0.18086720548E+02  0.47787283351E+02  0.20000056111E+02 0.  0.
        -12    1    1    2    0    0  0.36910322536E+02 -0.13932725353E+02 -0.18086720548E+02  0.43400716649E+02  0.00000000000E+00 0.  1.
         11    1    3    3    0    0 -0.15530559987E+02  0.76531407777E+01  0.14311771260E+01  0.17372884777E+02  0.51100000000E-03 0. -1.
        -11    1    3    3    0    0 -0.21699980650E+02  0.47373751240E+01  0.17803213413E+02  0.28465528124E+02  0.51100000000E-03 0.  1.
        -12    1    3    3    0    0  0.32021810084E+00  0.15422094509E+01 -0.11476699911E+01  0.19488704501E+01  0.00000000000E+00 0.  1.
</event>
<event>
 7    1  0.2811980E-010  0.4778727E+02  0.7816164E-02  0.1312668E+00
        -11   -1    0    0    0    0  0.00000000000E+00  0.00000000000E+00  0.45593999997E+02  0.45594000000E+02  0.51100000000E-03 0.  1.
         11   -1    0    0    0    0 -0.00000000000E+00 -0.00000000000E+00 -0.45593999997E+02  0.45594000000E+02  0.51100000000E-03 0. -1.
    9900012    2    1    2    0    0  0.66185826718E+01 -0.33470678220E+02 -0.26824087363E+02  0.47787267288E+02  0.19999982871E+02 0.  0.
        -12    1    1    2    0    0 -0.66185826718E+01  0.33470678220E+02  0.26824087363E+02  0.43400732712E+02  0.00000000000E+00 0.  1.
         11    1    3    3    0    0  0.11269786834E+01 -0.54406306498E+01  0.22918272278E+01  0.60102425179E+01  0.51100000000E-03 0. -1.
        -11    1    3    3    0    0 -0.62460364092E+00 -0.34756010474E+01 -0.48192254099E+00  0.35640120574E+01  0.51100000000E-03 0.  1.
         12    1    3    3    0    0  0.61162076293E+01 -0.24554446523E+02 -0.28633992050E+02  0.38213012712E+02  0.00000000000E+00 0. -1.
</event>
<event>
 7    1  0.2811980E-010  0.4778727E+02  0.7816164E-02  0.1312668E+00
        -11   -1    0    0    0    0  0.00000000000E+00  0.00000000000E+00  0.45593999997E+02  0.45594000000E+02  0.51100000000E-03 0.  1.
         11   -1    0    0    0    0 -0.00000000000E+00 -0.00000000000E+00 -0.45593999997E+02  0.45594000000E+02  0.51100000000E-03 0. -1.
    9900012    2    1    2    0    0  0.43322829070E+02  0.10352569008E+01  0.23841425835E+01  0.47787269461E+02  0.19999992781E+02 0.  0.
        -12    1    1    2    0    0 -0.43322829070E+02 -0.10352569008E+01 -0.23841425835E+01  0.43400730539E+02  0.00000000000E+00 0.  1.
         11    1    3    3    0    0  0.33376420647E+02  0.59521746254E+01 -0.20074465227E+01  0.33962386249E+02  0.51100000000E-03 0. -1.
        -11    1    3    3    0    0  0.43401678595E+01 -0.17435720170E+01 -0.16826024857E+01  0.49707395639E+01  0.51100000000E-03 0.  1.
         12    1    3    3    0    0  0.56062405638E+01 -0.31733457076E+01  0.60741915919E+01  0.88541436477E+01  0.00000000000E+00 0. -1.
</event>
<event>
 7    1  0.2811980E-010  0.4778728E+02  0.7816164E-02  0.1312668E+00
        -11   -1    0    0    0    0  0.00000000000E+00  0.00000000000E+00  0.45593999997E+02  0.45594000000E+02  0.51100000000E-03 0. -1.
         11   -1    0    0    0    0 -0.00000000000E+00 -0.00000000000E+00 -0.45593999997E+02  0.45594000000E+02  0.51100000000E-03 0.  1.
    9900012    2    1    2    0    0 -0.16080325593E+02  0.81234582686E+00  0.40303666877E+02  0.47787281796E+02  0.20000049019E+02 0.  0.
        -12    1    1    2    0    0  0.16080325593E+02 -0.81234582686E+00 -0.40303666877E+02  0.43400718204E+02  0.00000000000E+00 0.  1.
         11    1    3    3    0    0 -0.77670306524E+01  0.10524604579E+01  0.37174712317E+02  0.37992021192E+02  0.51100000000E-03 0. -1.
        -11    1    3    3    0    0 -0.23614816457E+01  0.75050610276E+00 -0.78977193460E+00  0.26006912433E+01  0.51100000000E-03 0.  1.
         12    1    3    3    0    0 -0.59518132950E+01 -0.99062073376E+00  0.39187264945E+01  0.71945693599E+01  0.00000000000E+00 0. -1.
</event>
<event>
 7    1  0.2811980E-010  0.4778727E+02  0.7816164E-02  0.1312668E+00
        -11   -1    0    0    0    0  0.00000000000E+00  0.00000000000E+00  0.45593999997E+02  0.45594000000E+02  0.51100000000E-03 0. -1.
         11   -1    0    0    0    0 -0.00000000000E+00 -0.00000000000E+00 -0.45593999997E+02  0.45594000000E+02  0.51100000000E-03 0.  1.
    9900012    2    1    2    0    0 -0.91199307506E+01  0.38672230388E+02  0.17461642460E+02  0.47787268468E+02  0.19999988253E+02 0.  0.
        -12    1    1    2    0    0  0.91199307506E+01 -0.38672230388E+02 -0.17461642460E+02  0.43400731532E+02  0.00000000000E+00 0.  1.
         11    1    3    3    0    0  0.91848588834E+00  0.21122014716E+02  0.10500901487E+02  0.23606186780E+02  0.51100000000E-03 0. -1.
        -11    1    3    3    0    0 -0.85215701515E+01  0.12953314951E+02 -0.23719734136E+00  0.15506830396E+02  0.51100000000E-03 0.  1.
        -12    1    3    3    0    0 -0.15168464874E+01  0.45969007208E+01  0.71979383146E+01  0.86742512924E+01  0.00000000000E+00 0.  1.
</event>
<event>
 7    1  0.2811980E-010  0.4778726E+02  0.7816164E-02  0.1312668E+00
        -11   -1    0    0    0    0  0.00000000000E+00  0.00000000000E+00  0.45593999997E+02  0.45594000000E+02  0.51100000000E-03 0.  1.
         11   -1    0    0    0    0 -0.00000000000E+00 -0.00000000000E+00 -0.45593999997E+02  0.45594000000E+02  0.51100000000E-03 0. -1.
    9900012    2    1    2    0    0  0.24310329131E+02  0.10909569224E+01 -0.35936636622E+02  0.47787261053E+02  0.19999954447E+02 0.  0.
        -12    1    1    2    0    0 -0.24310329131E+02 -0.10909569224E+01  0.35936636622E+02  0.43400738947E+02  0.00000000000E+00 0.  1.
         11    1    3    3    0    0  0.12925618983E+02  0.51536947349E+01 -0.71057827667E+01  0.15624479016E+02  0.51100000000E-03 0. -1.
        -11    1    3    3    0    0 -0.57941334011E+00  0.76286075965E+00 -0.61706995177E+00  0.11394963553E+01  0.51100000000E-03 0.  1.
         12    1    3    3    0    0  0.11964123487E+02 -0.48255985722E+01 -0.28213783903E+02  0.31023285682E+02  0.00000000000E+00 0. -1.
</event>
<event>
 7    1  0.2811980E-010  0.4778727E+02  0.7816164E-02  0.1312668E+00
        -11   -1    0    0    0    0  0.00000000000E+00  0.00000000000E+00  0.45593999997E+02  0.45594000000E+02  0.51100000000E-03 0.  1.
         11   -1    0    0    0    0 -0.00000000000E+00 -0.00000000000E+00 -0.45593999997E+02  0.45594000000E+02  0.51100000000E-03 0. -1.
    9900012    2    1    2    0    0 -0.84332000663E+01 -0.37264532746E+01 -0.42410114610E+02  0.47787272603E+02  0.20000007107E+02 0.  0.
        -12    1    1    2    0    0  0.84332000663E+01  0.37264532746E+01  0.42410114610E+02  0.43400727397E+02  0.00000000000E+00 0.  1.
         11    1    3    3    0    0 -0.65496902657E+01 -0.54334698352E+00 -0.23541795460E+02  0.24441968053E+02  0.51100000000E-03 0. -1.
        -11    1    3    3    0    0 -0.61530823778E+01 -0.19990008716E+01 -0.35096384708E+01  0.73602982066E+01  0.51100000000E-03 0.  1.
        -12    1    3    3    0    0  0.42695725772E+01 -0.11841054195E+01 -0.15358680678E+02  0.15985006344E+02  0.00000000000E+00 0.  1.
</event>
<event>
 7    1  0.2811980E-010  0.4778727E+02  0.7816164E-02  0.1312668E+00
        -11   -1    0    0    0    0  0.00000000000E+00  0.00000000000E+00  0.45593999997E+02  0.45594000000E+02  0.51100000000E-03 0.  1.
         11   -1    0    0    0    0 -0.00000000000E+00 -0.00000000000E+00 -0.45593999997E+02  0.45594000000E+02  0.51100000000E-03 0. -1.
    9900012    2    1    2    0    0  0.54304715978E+01  0.43009595630E+02  0.20755477931E+01  0.47787271473E+02  0.20000001954E+02 0.  0.
        -12    1    1    2    0    0 -0.54304715978E+01 -0.43009595630E+02 -0.20755477931E+01  0.43400728527E+02  0.00000000000E+00 0.  1.
         11    1    3    3    0    0 -0.68370669266E+00  0.90091062174E+01 -0.42655519218E+01  0.99913153857E+01  0.51100000000E-03 0. -1.
        -11    1    3    3    0    0 -0.91170656111E+00  0.20274487372E+02  0.89083376623E+01  0.22164036799E+02  0.51100000000E-03 0.  1.
        -12    1    3    3    0    0  0.70258848516E+01  0.13726002041E+02 -0.25672379474E+01  0.15631919289E+02  0.00000000000E+00 0.  1.
</event>
<event>
 7    1  0.2811980E-010  0.4778727E+02  0.7816164E-02  0.1312668E+00
        -11   -1    0    0    0    0  0.00000000000E+00  0.00000000000E+00  0.45593999997E+02  0.45594000000E+02  0.51100000000E-03 0. -1.
         11   -1    0    0    0    0 -0.00000000000E+00 -0.00000000000E+00 -0.45593999997E+02  0.45594000000E+02  0.51100000000E-03 0.  1.
    9900012    2    1    2    0    0  0.32977067689E+02  0.20126471603E+02  0.19775270630E+02  0.47787272114E+02  0.20000004876E+02 0.  0.
        -12    1    1    2    0    0 -0.32977067689E+02 -0.20126471603E+02 -0.19775270630E+02  0.43400727886E+02  0.00000000000E+00 0.  1.
         11    1    3    3    0    0  0.31487114191E+02  0.18753926931E+02  0.12173235614E+02  0.38617817144E+02  0.51100000000E-03 0. -1.
        -11    1    3    3    0    0  0.11285401433E+01  0.10599810397E-01 -0.27971731508E+00  0.11627369645E+01  0.51100000000E-03 0.  1.
         12    1    3    3    0    0  0.36141335553E+00  0.13619448609E+01  0.78817523303E+01  0.80067180052E+01  0.00000000000E+00 0. -1.
</event>
<event>
 7    1  0.2811980E-010  0.4778727E+02  0.7816164E-02  0.1312668E+00
        -11   -1    0    0    0    0  0.00000000000E+00  0.00000000000E+00  0.45593999997E+02  0.45594000000E+02  0.51100000000E-03 0. -1.
         11   -1    0    0    0    0 -0.00000000000E+00 -0.00000000000E+00 -0.45593999997E+02  0.45594000000E+02  0.51100000000E-03 0.  1.
    9900012    2    1    2    0    0 -0.28318666851E+02 -0.32856025990E+02 -0.14689842362E+01  0.47787271311E+02  0.20000001214E+02 0.  0.
        -12    1    1    2    0    0  0.28318666851E+02  0.32856025990E+02  0.14689842362E+01  0.43400728689E+02  0.00000000000E+00 0.  1.
         11    1    3    3    0    0 -0.18489658667E+01 -0.22387254487E+01 -0.78391050207E+00  0.30075043387E+01  0.51100000000E-03 0. -1.
        -11    1    3    3    0    0 -0.90722718013E+01 -0.32636755385E+01  0.64323118300E+01  0.11590182457E+02  0.51100000000E-03 0.  1.
        -12    1    3    3    0    0 -0.17397429183E+02 -0.27353625003E+02 -0.71173855642E+01  0.33189584514E+02  0.00000000000E+00 0.  1.
</event>
<event>
 7    1  0.2811980E-010  0.4778727E+02  0.7816164E-02  0.1312668E+00
        -11   -1    0    0    0    0  0.00000000000E+00  0.00000000000E+00  0.45593999997E+02  0.45594000000E+02  0.51100000000E-03 0. -1.
         11   -1    0    0    0    0 -0.00000000000E+00 -0.00000000000E+00 -0.45593999997E+02  0.45594000000E+02  0.51100000000E-03 0.  1.
    9900012    2    1    2    0    0  0.41183978498E+02 -0.98939649320E+01  0.94664040125E+01  0.47787269224E+02  0.19999991700E+02 0.  0.
        -12    1    1    2    0    0 -0.41183978498E+02  0.98939649320E+01 -0.94664040125E+01  0.43400730776E+02  0.00000000000E+00 0.  1.
         11    1    3    3    0    0  0.93720712580E+01 -0.31211327534E+01  0.87667754502E+00  0.99169427299E+01  0.51100000000E-03 0. -1.
        -11    1    3    3    0    0  0.94488948447E+01 -0.26900406389E+00 -0.52159882980E+01  0.10796319334E+02  0.51100000000E-03 0.  1.
        -12    1    3    3    0    0  0.22363012395E+02 -0.65038281147E+01  0.13805714766E+02  0.27074007160E+02  0.00000000000E+00 0.  1.
</event>
<event>
 7    1  0.2811980E-010  0.4778727E+02  0.7816164E-02  0.1312668E+00
        -11   -1    0    0    0    0  0.00000000000E+00  0.00000000000E+00  0.45593999997E+02  0.45594000000E+02  0.51100000000E-03 0.  1.
         11   -1    0    0    0    0 -0.00000000000E+00 -0.00000000000E+00 -0.45593999997E+02  0.45594000000E+02  0.51100000000E-03 0. -1.
    9900012    2    1    2    0    0 -0.16774024926E+01  0.18235912342E+02 -0.39347944751E+02  0.47787274958E+02  0.20000017843E+02 0.  0.
        -12    1    1    2    0    0  0.16774024926E+01 -0.18235912342E+02  0.39347944751E+02  0.43400725042E+02  0.00000000000E+00 0.  1.
         11    1    3    3    0    0 -0.10252809661E+02  0.95614502769E+01 -0.21418094581E+02  0.25598363484E+02  0.51100000000E-03 0. -1.
        -11    1    3    3    0    0  0.23698205192E+01  0.56034529690E+01 -0.72992831140E+01  0.95023296464E+01  0.51100000000E-03 0.  1.
         12    1    3    3    0    0  0.62055866492E+01  0.30710090961E+01 -0.10630567056E+02  0.12686581828E+02  0.00000000000E+00 0. -1.
</event>
<event>
 7    1  0.2811980E-010  0.4778727E+02  0.7816164E-02  0.1312668E+00
        -11   -1    0    0    0    0  0.00000000000E+00  0.00000000000E+00  0.45593999997E+02  0.45594000000E+02  0.51100000000E-03 0.  1.
         11   -1    0    0    0    0 -0.00000000000E+00 -0.00000000000E+00 -0.45593999997E+02  0.45594000000E+02  0.51100000000E-03 0. -1.
    9900012    2    1    2    0    0 -0.40892593535E+02 -0.10558331754E+02  0.99970269136E+01  0.47787272788E+02  0.20000007950E+02 0.  0.
        -12    1    1    2    0    0  0.40892593535E+02  0.10558331754E+02 -0.99970269136E+01  0.43400727212E+02  0.00000000000E+00 0.  1.
         11    1    3    3    0    0 -0.12667880115E+02 -0.60049241204E+00  0.54203149058E+01  0.13791866867E+02  0.51100000000E-03 0. -1.
        -11    1    3    3    0    0 -0.26026706097E+02 -0.13196766592E+02  0.60701158796E+01  0.29805878376E+02  0.51100000000E-03 0.  1.
        -12    1    3    3    0    0 -0.21980073229E+01  0.32389272502E+01 -0.14934038719E+01  0.41895275448E+01  0.00000000000E+00 0.  1.
</event>
<event>
 7    1  0.2811980E-010  0.4778727E+02  0.7816164E-02  0.1312668E+00
        -11   -1    0    0    0    0  0.00000000000E+00  0.00000000000E+00  0.45593999997E+02  0.45594000000E+02  0.51100000000E-03 0. -1.
         11   -1    0    0    0    0 -0.00000000000E+00 -0.00000000000E+00 -0.45593999997E+02  0.45594000000E+02  0.51100000000E-03 0.  1.
    9900012    2    1    2    0    0  0.38100372075E+02 -0.17956606831E+02  0.10466387985E+02  0.47787270068E+02  0.19999995550E+02 0.  0.
        -12    1    1    2    0    0 -0.38100372075E+02  0.17956606831E+02 -0.10466387985E+02  0.43400729932E+02  0.00000000000E+00 0.  1.
         11    1    3    3    0    0  0.38262939236E+01  0.11332970965E+01  0.39097064924E+01  0.55866530782E+01  0.51100000000E-03 0. -1.
        -11    1    3    3    0    0  0.24891204651E+02 -0.19730110501E+02  0.78215479746E+01  0.32711251005E+02  0.51100000000E-03 0.  1.
        -12    1    3    3    0    0  0.93828735003E+01  0.64020657296E+00 -0.12648664815E+01  0.94893659849E+01  0.00000000000E+00 0.  1.
</event>
<event>
 7    1  0.2811980E-010  0.4778727E+02  0.7816164E-02  0.1312668E+00
        -11   -1    0    0    0    0  0.00000000000E+00  0.00000000000E+00  0.45593999997E+02  0.45594000000E+02  0.51100000000E-03 0.  1.
         11   -1    0    0    0    0 -0.00000000000E+00 -0.00000000000E+00 -0.45593999997E+02  0.45594000000E+02  0.51100000000E-03 0. -1.
    9900012    2    1    2    0    0  0.87946885319E+01  0.34321079601E+02 -0.25066718602E+02  0.47787269213E+02  0.19999991652E+02 0.  0.
        -12    1    1    2    0    0 -0.87946885319E+01 -0.34321079601E+02  0.25066718602E+02  0.43400730787E+02  0.00000000000E+00 0.  1.
         11    1    3    3    0    0  0.11989754148E+02  0.24330132019E+02 -0.21254460775E+02  0.34459565170E+02  0.51100000000E-03 0. -1.
        -11    1    3    3    0    0 -0.10222220053E+01 -0.10378360031E+01  0.41197564395E-02  0.14567287431E+01  0.51100000000E-03 0.  1.
        -12    1    3    3    0    0 -0.21728436111E+01  0.11028783585E+02 -0.38163775827E+01  0.11870975300E+02  0.00000000000E+00 0.  1.
</event>
<event>
 7    1  0.2811980E-010  0.4778727E+02  0.7816164E-02  0.1312668E+00
        -11   -1    0    0    0    0  0.00000000000E+00  0.00000000000E+00  0.45593999997E+02  0.45594000000E+02  0.51100000000E-03 0. -1.
         11   -1    0    0    0    0 -0.00000000000E+00 -0.00000000000E+00 -0.45593999997E+02  0.45594000000E+02  0.51100000000E-03 0.  1.
    9900012    2    1    2    0    0 -0.18351486402E+02 -0.33648790583E+02  0.20361848782E+02  0.47787273662E+02  0.20000011934E+02 0.  0.
        -12    1    1    2    0    0  0.18351486402E+02  0.33648790583E+02 -0.20361848782E+02  0.43400726338E+02  0.00000000000E+00 0.  1.
         11    1    3    3    0    0 -0.19302070428E+01 -0.40926681651E+01  0.10562648323E+02  0.11491090974E+02  0.51100000000E-03 0. -1.
        -11    1    3    3    0    0 -0.23240943146E+01 -0.52788857309E+01 -0.16171755641E+01  0.59902676074E+01  0.51100000000E-03 0.  1.
         12    1    3    3    0    0 -0.14097185044E+02 -0.24277236687E+02  0.11416376023E+02  0.30305915080E+02  0.00000000000E+00 0. -1.
</event>
<event>
 7    1  0.2811980E-010  0.4778727E+02  0.7816164E-02  0.1312668E+00
        -11   -1    0    0    0    0  0.00000000000E+00  0.00000000000E+00  0.45593999997E+02  0.45594000000E+02  0.51100000000E-03 0.  1.
         11   -1    0    0    0    0 -0.00000000000E+00 -0.00000000000E+00 -0.45593999997E+02  0.45594000000E+02  0.51100000000E-03 0. -1.
    9900012    2    1    2    0    0 -0.17500323602E+02  0.54968172591E+01 -0.39333788400E+02  0.47787271480E+02  0.20000001985E+02 0.  0.
        -12    1    1    2    0    0  0.17500323602E+02 -0.54968172591E+01  0.39333788400E+02  0.43400728520E+02  0.00000000000E+00 0.  1.
         11    1    3    3    0    0 -0.19544094921E+01 -0.49913401712E+01 -0.15321146611E+02  0.16231781384E+02  0.51100000000E-03 0. -1.
        -11    1    3    3    0    0 -0.15116649458E+02  0.72695696207E+01 -0.22239007619E+02  0.27855577421E+02  0.51100000000E-03 0.  1.
         12    1    3    3    0    0 -0.42926465165E+00  0.32185878097E+01 -0.17736341705E+01  0.36999126747E+01  0.00000000000E+00 0. -1.
</event>
<event>
 7    1  0.2811980E-010  0.4778727E+02  0.7816164E-02  0.1312668E+00
        -11   -1    0    0    0    0  0.00000000000E+00  0.00000000000E+00  0.45593999997E+02  0.45594000000E+02  0.51100000000E-03 0. -1.
         11   -1    0    0    0    0 -0.00000000000E+00 -0.00000000000E+00 -0.45593999997E+02  0.45594000000E+02  0.51100000000E-03 0.  1.
    9900012    2    1    2    0    0  0.65170524019E+01 -0.27022413246E+02  0.33330772646E+02  0.47787271955E+02  0.20000004154E+02 0.  0.
        -12    1    1    2    0    0 -0.65170524019E+01  0.27022413246E+02 -0.33330772646E+02  0.43400728045E+02  0.00000000000E+00 0.  1.
         11    1    3    3    0    0  0.45240712989E+01 -0.24307149536E+02  0.15367662337E+02  0.29111334315E+02  0.51100000000E-03 0. -1.
        -11    1    3    3    0    0  0.30640522283E+01 -0.13118658088E+01  0.12339126733E+02  0.12781371474E+02  0.51100000000E-03 0.  1.
         12    1    3    3    0    0 -0.10710711254E+01 -0.14033979013E+01  0.56239835761E+01  0.58945661664E+01  0.00000000000E+00 0. -1.
</event>
<event>
 7    1  0.2811980E-010  0.4778727E+02  0.7816164E-02  0.1312668E+00
        -11   -1    0    0    0    0  0.00000000000E+00  0.00000000000E+00  0.45593999997E+02  0.45594000000E+02  0.51100000000E-03 0. -1.
         11   -1    0    0    0    0 -0.00000000000E+00 -0.00000000000E+00 -0.45593999997E+02  0.45594000000E+02  0.51100000000E-03 0.  1.
    9900012    2    1    2    0    0 -0.41802309758E+02 -0.53369054407E+00 -0.11657846171E+02  0.47787270697E+02  0.19999998416E+02 0.  0.
        -12    1    1    2    0    0  0.41802309758E+02  0.53369054407E+00  0.11657846171E+02  0.43400729303E+02  0.00000000000E+00 0.  1.
         11    1    3    3    0    0 -0.28363084482E+02 -0.52966487669E+00 -0.15538172959E+02  0.32344704750E+02  0.51100000000E-03 0. -1.
        -11    1    3    3    0    0 -0.14983156751E+01  0.75311272528E+00 -0.15678022106E+01  0.22956769528E+01  0.51100000000E-03 0.  1.
         12    1    3    3    0    0 -0.11940909600E+02 -0.75713839265E+00  0.54481289985E+01  0.13146888994E+02  0.00000000000E+00 0. -1.
</event>
<event>
 7    1  0.2811980E-010  0.4778727E+02  0.7816164E-02  0.1312668E+00
        -11   -1    0    0    0    0  0.00000000000E+00  0.00000000000E+00  0.45593999997E+02  0.45594000000E+02  0.51100000000E-03 0. -1.
         11   -1    0    0    0    0 -0.00000000000E+00 -0.00000000000E+00 -0.45593999997E+02  0.45594000000E+02  0.51100000000E-03 0.  1.
    9900012    2    1    2    0    0  0.37616492178E+02 -0.77620108853E+01  0.20208270019E+02  0.47787268739E+02  0.19999989490E+02 0.  0.
        -12    1    1    2    0    0 -0.37616492178E+02  0.77620108853E+01 -0.20208270019E+02  0.43400731261E+02  0.00000000000E+00 0.  1.
         11    1    3    3    0    0  0.13287330058E+02  0.19513448565E+01  0.10508738680E+02  0.17052697022E+02  0.51100000000E-03 0.  1.
        -11    1    3    3    0    0  0.18349757512E+02 -0.89931960153E+01  0.14038408213E+01  0.20483211287E+02  0.51100000000E-03 0. -1.
         12    1    3    3    0    0  0.59794046081E+01 -0.72015972656E+00  0.82956905175E+01  0.10251360430E+02  0.00000000000E+00 0. -1.
</event>
<event>
 7    1  0.2811980E-010  0.4778727E+02  0.7816164E-02  0.1312668E+00
        -11   -1    0    0    0    0  0.00000000000E+00  0.00000000000E+00  0.45593999997E+02  0.45594000000E+02  0.51100000000E-03 0.  1.
         11   -1    0    0    0    0 -0.00000000000E+00 -0.00000000000E+00 -0.45593999997E+02  0.45594000000E+02  0.51100000000E-03 0. -1.
    9900012    2    1    2    0    0  0.39170241297E+02 -0.15792388737E+02 -0.99958124502E+01  0.47787267151E+02  0.19999982246E+02 0.  0.
        -12    1    1    2    0    0 -0.39170241297E+02  0.15792388737E+02  0.99958124502E+01  0.43400732849E+02  0.00000000000E+00 0.  1.
         11    1    3    3    0    0  0.15619917759E+02 -0.84542487588E+01 -0.13271953575E+02  0.22172074887E+02  0.51100000000E-03 0. -1.
        -11    1    3    3    0    0  0.20950309982E+02 -0.82506779776E+01  0.20833313191E+01  0.22612594833E+02  0.51100000000E-03 0.  1.
         12    1    3    3    0    0  0.26000135573E+01  0.91253799915E+00  0.11928098056E+01  0.30025974306E+01  0.00000000000E+00 0. -1.
</event>
<event>
 7    1  0.2811980E-010  0.4778727E+02  0.7816164E-02  0.1312668E+00
        -11   -1    0    0    0    0  0.00000000000E+00  0.00000000000E+00  0.45593999997E+02  0.45594000000E+02  0.51100000000E-03 0.  1.
         11   -1    0    0    0    0 -0.00000000000E+00 -0.00000000000E+00 -0.45593999997E+02  0.45594000000E+02  0.51100000000E-03 0. -1.
    9900012    2    1    2    0    0 -0.35729460836E+02 -0.18316825405E+02 -0.16477947895E+02  0.47787271534E+02  0.20000002231E+02 0.  0.
        -12    1    1    2    0    0  0.35729460836E+02  0.18316825405E+02  0.16477947895E+02  0.43400728466E+02  0.00000000000E+00 0.  1.
         11    1    3    3    0    0 -0.88647121196E+01  0.91245102653E+00 -0.52034184643E+01  0.10319459861E+02  0.51100000000E-03 0. -1.
        -11    1    3    3    0    0 -0.23347757451E+02 -0.16476871929E+02 -0.38927803403E+01  0.28840229292E+02  0.51100000000E-03 0.  1.
        -12    1    3    3    0    0 -0.35169912651E+01 -0.27524045027E+01 -0.73817490909E+01  0.86275823813E+01  0.00000000000E+00 0.  1.
</event>
<event>
 7    1  0.2811980E-010  0.4778727E+02  0.7816164E-02  0.1312668E+00
        -11   -1    0    0    0    0  0.00000000000E+00  0.00000000000E+00  0.45593999997E+02  0.45594000000E+02  0.51100000000E-03 0.  1.
         11   -1    0    0    0    0 -0.00000000000E+00 -0.00000000000E+00 -0.45593999997E+02  0.45594000000E+02  0.51100000000E-03 0. -1.
    9900012    2    1    2    0    0 -0.10011256507E+02  0.39546092717E+02 -0.14815680516E+02  0.47787273103E+02  0.20000009386E+02 0.  0.
        -12    1    1    2    0    0  0.10011256507E+02 -0.39546092717E+02  0.14815680516E+02  0.43400726897E+02  0.00000000000E+00 0.  1.
         11    1    3    3    0    0 -0.11457464550E+02  0.32257211089E+02 -0.11790504217E+02  0.36205208895E+02  0.51100000000E-03 0. -1.
        -11    1    3    3    0    0  0.28631929697E+01  0.83571579678E+01 -0.10016181599E+01  0.88906244145E+01  0.51100000000E-03 0.  1.
         12    1    3    3    0    0 -0.14169849261E+01 -0.10682763399E+01 -0.20235581395E+01  0.26914397937E+01  0.00000000000E+00 0. -1.
</event>
<event>
 7    1  0.2811980E-010  0.4778727E+02  0.7816164E-02  0.1312668E+00
        -11   -1    0    0    0    0  0.00000000000E+00  0.00000000000E+00  0.45593999997E+02  0.45594000000E+02  0.51100000000E-03 0.  1.
         11   -1    0    0    0    0 -0.00000000000E+00 -0.00000000000E+00 -0.45593999997E+02  0.45594000000E+02  0.51100000000E-03 0. -1.
    9900012    2    1    2    0    0 -0.25715565374E+02  0.25603046139E+02 -0.23807918126E+02  0.47787271440E+02  0.20000001802E+02 0.  0.
        -12    1    1    2    0    0  0.25715565374E+02 -0.25603046139E+02  0.23807918126E+02  0.43400728560E+02  0.00000000000E+00 0.  1.
         11    1    3    3    0    0 -0.58920970746E+01  0.88859267161E+01 -0.92563769289E+01  0.14119384394E+02  0.51100000000E-03 0. -1.
        -11    1    3    3    0    0 -0.66987282275E+01 -0.13023577786E+00 -0.96641073539E+01  0.11759459700E+02  0.51100000000E-03 0.  1.
        -12    1    3    3    0    0 -0.13124740072E+02  0.16847355201E+02 -0.48874338427E+01  0.21908427346E+02  0.00000000000E+00 0.  1.
</event>
<event>
 7    1  0.2811980E-010  0.4778727E+02  0.7816164E-02  0.1312668E+00
        -11   -1    0    0    0    0  0.00000000000E+00  0.00000000000E+00  0.45593999997E+02  0.45594000000E+02  0.51100000000E-03 0.  1.
         11   -1    0    0    0    0 -0.00000000000E+00 -0.00000000000E+00 -0.45593999997E+02  0.45594000000E+02  0.51100000000E-03 0. -1.
    9900012    2    1    2    0    0  0.36744050233E+02  0.43256811398E+01 -0.22688903415E+02  0.47787273243E+02  0.20000010025E+02 0.  0.
        -12    1    1    2    0    0 -0.36744050233E+02 -0.43256811398E+01  0.22688903415E+02  0.43400726757E+02  0.00000000000E+00 0.  1.
         11    1    3    3    0    0 -0.22086263071E+00 -0.18619120148E+01 -0.38155057179E+01  0.42513034233E+01  0.51100000000E-03 0. -1.
        -11    1    3    3    0    0  0.57661602149E+00  0.13646296358E+01  0.10072107244E+01  0.17914166974E+01  0.51100000000E-03 0.  1.
         12    1    3    3    0    0  0.36388296842E+02  0.48229635188E+01 -0.19880608422E+02  0.41744553122E+02  0.00000000000E+00 0. -1.
</event>
<event>
 7    1  0.2811980E-010  0.4778727E+02  0.7816164E-02  0.1312668E+00
        -11   -1    0    0    0    0  0.00000000000E+00  0.00000000000E+00  0.45593999997E+02  0.45594000000E+02  0.51100000000E-03 0.  1.
         11   -1    0    0    0    0 -0.00000000000E+00 -0.00000000000E+00 -0.45593999997E+02  0.45594000000E+02  0.51100000000E-03 0. -1.
    9900012    2    1    2    0    0 -0.13755665848E+02  0.40264361232E+02 -0.85548893670E+01  0.47787271199E+02  0.20000000707E+02 0.  0.
        -12    1    1    2    0    0  0.13755665848E+02 -0.40264361232E+02  0.85548893670E+01  0.43400728801E+02  0.00000000000E+00 0.  1.
         11    1    3    3    0    0 -0.67611610026E+01  0.36311479644E+02 -0.15155552261E+01  0.36966657408E+02  0.51100000000E-03 0. -1.
        -11    1    3    3    0    0 -0.57451160261E+01  0.37200869337E+01 -0.52506177622E+01  0.86263776925E+01  0.51100000000E-03 0.  1.
         12    1    3    3    0    0 -0.12493888198E+01  0.23279465426E+00 -0.17887163787E+01  0.21942360988E+01  0.00000000000E+00 0. -1.
</event>
<event>
 7    1  0.2811980E-010  0.4778727E+02  0.7816164E-02  0.1312668E+00
        -11   -1    0    0    0    0  0.00000000000E+00  0.00000000000E+00  0.45593999997E+02  0.45594000000E+02  0.51100000000E-03 0.  1.
         11   -1    0    0    0    0 -0.00000000000E+00 -0.00000000000E+00 -0.45593999997E+02  0.45594000000E+02  0.51100000000E-03 0. -1.
    9900012    2    1    2    0    0  0.29465524702E+02  0.49859240835E+01 -0.31472950338E+02  0.47787272035E+02  0.20000004516E+02 0.  0.
        -12    1    1    2    0    0 -0.29465524702E+02 -0.49859240835E+01  0.31472950338E+02  0.43400727965E+02  0.00000000000E+00 0.  1.
         11    1    3    3    0    0  0.13990494566E+02  0.91950560437E+01 -0.99824219045E+01  0.19491837809E+02  0.51100000000E-03 0. -1.
        -11    1    3    3    0    0  0.11911659661E+02 -0.58360612822E+01 -0.11468012851E+02  0.17534610522E+02  0.51100000000E-03 0.  1.
         12    1    3    3    0    0  0.35633704754E+01  0.16269293220E+01 -0.10022515583E+02  0.10760823703E+02  0.00000000000E+00 0. -1.
</event>
<event>
 7    1  0.2811980E-010  0.4778726E+02  0.7816164E-02  0.1312668E+00
        -11   -1    0    0    0    0  0.00000000000E+00  0.00000000000E+00  0.45593999997E+02  0.45594000000E+02  0.51100000000E-03 0. -1.
         11   -1    0    0    0    0 -0.00000000000E+00 -0.00000000000E+00 -0.45593999997E+02  0.45594000000E+02  0.51100000000E-03 0.  1.
    9900012    2    1    2    0    0 -0.35206034438E+02 -0.84309200958E+01  0.23939069024E+02  0.47787259221E+02  0.19999946090E+02 0.  0.
        -12    1    1    2    0    0  0.35206034438E+02  0.84309200958E+01 -0.23939069024E+02  0.43400740779E+02  0.00000000000E+00 0.  1.
         11    1    3    3    0    0 -0.25669875934E+02 -0.58663365706E+01  0.25893818293E+02  0.36930289212E+02  0.51100000000E-03 0. -1.
        -11    1    3    3    0    0 -0.37685207033E+01  0.45935097804E+00 -0.21089563551E+01  0.43428618192E+01  0.51100000000E-03 0.  1.
         12    1    3    3    0    0 -0.57676378006E+01 -0.30239345032E+01  0.15420708553E+00  0.65141081894E+01  0.00000000000E+00 0. -1.
</event>
<event>
 7    1  0.2811980E-010  0.4778729E+02  0.7816164E-02  0.1312668E+00
        -11   -1    0    0    0    0  0.00000000000E+00  0.00000000000E+00  0.45593999997E+02  0.45594000000E+02  0.51100000000E-03 0. -1.
         11   -1    0    0    0    0 -0.00000000000E+00 -0.00000000000E+00 -0.45593999997E+02  0.45594000000E+02  0.51100000000E-03 0.  1.
    9900012    2    1    2    0    0 -0.34811164474E+02  0.57773788944E+01  0.25267102785E+02  0.47787288461E+02  0.20000079410E+02 0.  0.
        -12    1    1    2    0    0  0.34811164474E+02 -0.57773788944E+01 -0.25267102785E+02  0.43400711539E+02  0.00000000000E+00 0.  1.
         11    1    3    3    0    0 -0.29129490883E+02  0.24634795585E-01  0.18118773352E+02  0.34304778006E+02  0.51100000000E-03 0. -1.
        -11    1    3    3    0    0 -0.18714354152E+01  0.69570840946E+01  0.32626316978E+01  0.79087328611E+01  0.51100000000E-03 0.  1.
         12    1    3    3    0    0 -0.38102381754E+01 -0.12043399958E+01  0.38856977351E+01  0.55737775939E+01  0.00000000000E+00 0. -1.
</event>
<event>
 7    1  0.2811980E-010  0.4778727E+02  0.7816164E-02  0.1312668E+00
        -11   -1    0    0    0    0  0.00000000000E+00  0.00000000000E+00  0.45593999997E+02  0.45594000000E+02  0.51100000000E-03 0. -1.
         11   -1    0    0    0    0 -0.00000000000E+00 -0.00000000000E+00 -0.45593999997E+02  0.45594000000E+02  0.51100000000E-03 0.  1.
    9900012    2    1    2    0    0  0.41975007592E+02  0.10380327539E+02 -0.37377692189E+01  0.47787269811E+02  0.19999994378E+02 0.  0.
        -12    1    1    2    0    0 -0.41975007592E+02 -0.10380327539E+02  0.37377692189E+01  0.43400730189E+02  0.00000000000E+00 0.  1.
         11    1    3    3    0    0  0.14730123672E+02  0.82456096854E+01 -0.52982441988E+01  0.17692880329E+02  0.51100000000E-03 0. -1.
        -11    1    3    3    0    0  0.22613748413E+02  0.37981275829E+01  0.57401915901E+01  0.23638045397E+02  0.51100000000E-03 0.  1.
        -12    1    3    3    0    0  0.46311355066E+01 -0.16634097294E+01 -0.41797166102E+01  0.64563440854E+01  0.00000000000E+00 0.  1.
</event>
<event>
 7    1  0.2811980E-010  0.4778727E+02  0.7816164E-02  0.1312668E+00
        -11   -1    0    0    0    0  0.00000000000E+00  0.00000000000E+00  0.45593999997E+02  0.45594000000E+02  0.51100000000E-03 0. -1.
         11   -1    0    0    0    0 -0.00000000000E+00 -0.00000000000E+00 -0.45593999997E+02  0.45594000000E+02  0.51100000000E-03 0.  1.
    9900012    2    1    2    0    0  0.54622048160E+01  0.14481607649E+02  0.40547138503E+02  0.47787273251E+02  0.20000010060E+02 0.  0.
        -12    1    1    2    0    0 -0.54622048160E+01 -0.14481607649E+02 -0.40547138503E+02  0.43400726749E+02  0.00000000000E+00 0.  1.
         11    1    3    3    0    0 -0.31944737120E+01  0.13395738918E+01  0.15315016252E+02  0.15701873887E+02  0.51100000000E-03 0. -1.
        -11    1    3    3    0    0 -0.29099536988E+01  0.34926260463E+01  0.40166129995E+01  0.60662548147E+01  0.51100000000E-03 0.  1.
         12    1    3    3    0    0  0.11566632227E+02  0.96494077113E+01  0.21215509252E+02  0.26019144549E+02  0.00000000000E+00 0. -1.
</event>
<event>
 7    1  0.2811980E-010  0.4778726E+02  0.7816164E-02  0.1312668E+00
        -11   -1    0    0    0    0  0.00000000000E+00  0.00000000000E+00  0.45593999997E+02  0.45594000000E+02  0.51100000000E-03 0.  1.
         11   -1    0    0    0    0 -0.00000000000E+00 -0.00000000000E+00 -0.45593999997E+02  0.45594000000E+02  0.51100000000E-03 0. -1.
    9900012    2    1    2    0    0 -0.16436258612E+02 -0.22402473422E+02 -0.33340703252E+02  0.47787263763E+02  0.19999966801E+02 0.  0.
        -12    1    1    2    0    0  0.16436258612E+02  0.22402473422E+02  0.33340703252E+02  0.43400736237E+02  0.00000000000E+00 0.  1.
         11    1    3    3    0    0 -0.98618376197E+01 -0.42313671525E+01 -0.20056796993E+01  0.10917099456E+02  0.51100000000E-03 0.  1.
        -11    1    3    3    0    0 -0.54599668239E+01 -0.13887489877E+02 -0.25515368060E+02  0.29558545639E+02  0.51100000000E-03 0. -1.
        -12    1    3    3    0    0 -0.11144541687E+01 -0.42836163925E+01 -0.58196554925E+01  0.73116186678E+01  0.00000000000E+00 0.  1.
</event>
<event>
 7    1  0.2811980E-010  0.4778728E+02  0.7816164E-02  0.1312668E+00
        -11   -1    0    0    0    0  0.00000000000E+00  0.00000000000E+00  0.45593999997E+02  0.45594000000E+02  0.51100000000E-03 0.  1.
         11   -1    0    0    0    0 -0.00000000000E+00 -0.00000000000E+00 -0.45593999997E+02  0.45594000000E+02  0.51100000000E-03 0. -1.
    9900012    2    1    2    0    0 -0.58359285524E+01  0.13098662271E+02 -0.40963270563E+02  0.47787279377E+02  0.20000037994E+02 0.  0.
        -12    1    1    2    0    0  0.58359285524E+01 -0.13098662271E+02  0.40963270563E+02  0.43400720623E+02  0.00000000000E+00 0.  1.
         11    1    3    3    0    0  0.18412274251E+01  0.10945897152E+02 -0.14119726358E+02  0.17960218695E+02  0.51100000000E-03 0. -1.
        -11    1    3    3    0    0  0.73689288276E+00  0.71568612139E+00  0.52830616251E+00  0.11551300392E+01  0.51100000000E-03 0.  1.
         12    1    3    3    0    0 -0.84140488602E+01  0.14370789972E+01 -0.27371850367E+02  0.28671930643E+02  0.00000000000E+00 0. -1.
</event>
<event>
 7    1  0.2811980E-010  0.4778726E+02  0.7816164E-02  0.1312668E+00
        -11   -1    0    0    0    0  0.00000000000E+00  0.00000000000E+00  0.45593999997E+02  0.45594000000E+02  0.51100000000E-03 0.  1.
         11   -1    0    0    0    0 -0.00000000000E+00 -0.00000000000E+00 -0.45593999997E+02  0.45594000000E+02  0.51100000000E-03 0. -1.
    9900012    2    1    2    0    0 -0.39865701479E+02  0.25301022869E+00 -0.17154760644E+02  0.47787262894E+02  0.19999962841E+02 0.  0.
        -12    1    1    2    0    0  0.39865701479E+02 -0.25301022869E+00  0.17154760644E+02  0.43400737106E+02  0.00000000000E+00 0.  1.
         11    1    3    3    0    0 -0.10359635148E+02 -0.52108283623E+01 -0.11726607224E+02  0.16492061420E+02  0.51100000000E-03 0.  1.
        -11    1    3    3    0    0 -0.22940856833E+02  0.45644822618E+01 -0.11726530499E+01  0.23419917292E+02  0.51100000000E-03 0. -1.
        -12    1    3    3    0    0 -0.65652094980E+01  0.89935632924E+00 -0.42555003694E+01  0.78752841824E+01  0.00000000000E+00 0.  1.
</event>
<event>
 7    1  0.2811980E-010  0.4778727E+02  0.7816164E-02  0.1312668E+00
        -11   -1    0    0    0    0  0.00000000000E+00  0.00000000000E+00  0.45593999997E+02  0.45594000000E+02  0.51100000000E-03 0.  1.
         11   -1    0    0    0    0 -0.00000000000E+00 -0.00000000000E+00 -0.45593999997E+02  0.45594000000E+02  0.51100000000E-03 0. -1.
    9900012    2    1    2    0    0 -0.55716687564E+01  0.37471939510E+01 -0.42878181662E+02  0.47787269385E+02  0.19999992436E+02 0.  0.
        -12    1    1    2    0    0  0.55716687564E+01 -0.37471939510E+01  0.42878181662E+02  0.43400730615E+02  0.00000000000E+00 0.  1.
         11    1    3    3    0    0 -0.60998405931E+01  0.39244005335E+00 -0.23292219574E+02  0.24080896108E+02  0.51100000000E-03 0. -1.
        -11    1    3    3    0    0  0.62863003956E+01  0.10459138644E+01 -0.13899439305E+02  0.15290713579E+02  0.51100000000E-03 0.  1.
        -12    1    3    3    0    0 -0.57581285589E+01  0.23088400332E+01 -0.56865227830E+01  0.84156596985E+01  0.00000000000E+00 0.  1.
</event>
<event>
 7    1  0.2811980E-010  0.4778728E+02  0.7816164E-02  0.1312668E+00
        -11   -1    0    0    0    0  0.00000000000E+00  0.00000000000E+00  0.45593999997E+02  0.45594000000E+02  0.51100000000E-03 0. -1.
         11   -1    0    0    0    0 -0.00000000000E+00 -0.00000000000E+00 -0.45593999997E+02  0.45594000000E+02  0.51100000000E-03 0.  1.
    9900012    2    1    2    0    0 -0.47360623165E+01  0.43072477074E+02  0.24401396197E+01  0.47787275940E+02  0.20000022321E+02 0.  0.
        -12    1    1    2    0    0  0.47360623165E+01 -0.43072477074E+02 -0.24401396197E+01  0.43400724060E+02  0.00000000000E+00 0.  1.
         11    1    3    3    0    0  0.31887029359E+01  0.26002333714E+02  0.60354264751E+01  0.26883369543E+02  0.51100000000E-03 0. -1.
        -11    1    3    3    0    0 -0.66904118131E+01  0.17305370365E+02 -0.17019534928E+01  0.18631535086E+02  0.51100000000E-03 0.  1.
         12    1    3    3    0    0 -0.12343534393E+01 -0.23522700430E+00 -0.18933333626E+01  0.22723713118E+01  0.00000000000E+00 0. -1.
</event>
<event>
 7    1  0.2811980E-010  0.4778727E+02  0.7816164E-02  0.1312668E+00
        -11   -1    0    0    0    0  0.00000000000E+00  0.00000000000E+00  0.45593999997E+02  0.45594000000E+02  0.51100000000E-03 0. -1.
         11   -1    0    0    0    0 -0.00000000000E+00 -0.00000000000E+00 -0.45593999997E+02  0.45594000000E+02  0.51100000000E-03 0.  1.
    9900012    2    1    2    0    0  0.33130953335E+01  0.36718619723E+02 -0.22899556870E+02  0.47787270284E+02  0.19999996532E+02 0.  0.
        -12    1    1    2    0    0 -0.33130953335E+01 -0.36718619723E+02  0.22899556870E+02  0.43400729716E+02  0.00000000000E+00 0.  1.
         11    1    3    3    0    0  0.92821031388E+01  0.10012661839E+02 -0.90886473893E+01  0.16401656849E+02  0.51100000000E-03 0. -1.
        -11    1    3    3    0    0 -0.33447842693E+01  0.24578911881E+02 -0.12122008558E+02  0.27608940270E+02  0.51100000000E-03 0.  1.
         12    1    3    3    0    0 -0.26242235361E+01  0.21270460034E+01 -0.16889009223E+01  0.37766731648E+01  0.00000000000E+00 0. -1.
</event>
<event>
 7    1  0.2811980E-010  0.4778727E+02  0.7816164E-02  0.1312668E+00
        -11   -1    0    0    0    0  0.00000000000E+00  0.00000000000E+00  0.45593999997E+02  0.45594000000E+02  0.51100000000E-03 0.  1.
         11   -1    0    0    0    0 -0.00000000000E+00 -0.00000000000E+00 -0.45593999997E+02  0.45594000000E+02  0.51100000000E-03 0. -1.
    9900012    2    1    2    0    0  0.61629811988E+01 -0.27527710136E+02 -0.32982813465E+02  0.47787272510E+02  0.20000006683E+02 0.  0.
        -12    1    1    2    0    0 -0.61629811988E+01  0.27527710136E+02  0.32982813465E+02  0.43400727490E+02  0.00000000000E+00 0.  1.
         11    1    3    3    0    0  0.47400420695E+01 -0.94204164966E+01 -0.22181373594E+02  0.24560651062E+02  0.51100000000E-03 0. -1.
        -11    1    3    3    0    0  0.35659790821E+01 -0.17618156301E+02 -0.10907489899E+02  0.21025911976E+02  0.51100000000E-03 0.  1.
        -12    1    3    3    0    0 -0.21430399529E+01 -0.48913733863E+00  0.10605002778E+00  0.22007094729E+01  0.00000000000E+00 0.  1.
</event>
<event>
 7    1  0.2811980E-010  0.4778727E+02  0.7816164E-02  0.1312668E+00
        -11   -1    0    0    0    0  0.00000000000E+00  0.00000000000E+00  0.45593999997E+02  0.45594000000E+02  0.51100000000E-03 0.  1.
         11   -1    0    0    0    0 -0.00000000000E+00 -0.00000000000E+00 -0.45593999997E+02  0.45594000000E+02  0.51100000000E-03 0. -1.
    9900012    2    1    2    0    0  0.30196993751E+02  0.27571079734E+02  0.14546485208E+02  0.47787273034E+02  0.20000009072E+02 0.  0.
        -12    1    1    2    0    0 -0.30196993751E+02 -0.27571079734E+02 -0.14546485208E+02  0.43400726966E+02  0.00000000000E+00 0.  1.
         11    1    3    3    0    0  0.22243182586E+02  0.19000871688E+02  0.68756650091E+01  0.30051074291E+02  0.51100000000E-03 0. -1.
        -11    1    3    3    0    0  0.98335595951E+00  0.85256424207E+01  0.62640619312E+01  0.10625066577E+02  0.51100000000E-03 0.  1.
         12    1    3    3    0    0  0.69704552056E+01  0.44565625045E-01  0.14067582676E+01  0.71111321666E+01  0.00000000000E+00 0. -1.
</event>
<event>
 7    1  0.2811980E-010  0.4778728E+02  0.7816164E-02  0.1312668E+00
        -11   -1    0    0    0    0  0.00000000000E+00  0.00000000000E+00  0.45593999997E+02  0.45594000000E+02  0.51100000000E-03 0.  1.
         11   -1    0    0    0    0 -0.00000000000E+00 -0.00000000000E+00 -0.45593999997E+02  0.45594000000E+02  0.51100000000E-03 0. -1.
    9900012    2    1    2    0    0 -0.22185593441E+02  0.28755442642E+01 -0.37190768773E+02  0.47787278887E+02  0.20000035758E+02 0.  0.
        -12    1    1    2    0    0  0.22185593441E+02 -0.28755442642E+01  0.37190768773E+02  0.43400721113E+02  0.00000000000E+00 0.  1.
         11    1    3    3    0    0 -0.21886202460E+02  0.66892225705E+01 -0.23083578297E+02  0.32505432530E+02  0.51100000000E-03 0. -1.
        -11    1    3    3    0    0  0.17574653985E+01 -0.49939571205E+00 -0.62205470997E+01  0.64833083518E+01  0.51100000000E-03 0.  1.
         12    1    3    3    0    0 -0.20568563801E+01 -0.33142825942E+01 -0.78866433769E+01  0.87985380056E+01  0.00000000000E+00 0. -1.
</event>
<event>
 7    1  0.2811980E-010  0.4778727E+02  0.7816164E-02  0.1312668E+00
        -11   -1    0    0    0    0  0.00000000000E+00  0.00000000000E+00  0.45593999997E+02  0.45594000000E+02  0.51100000000E-03 0.  1.
         11   -1    0    0    0    0 -0.00000000000E+00 -0.00000000000E+00 -0.45593999997E+02  0.45594000000E+02  0.51100000000E-03 0. -1.
    9900012    2    1    2    0    0  0.22264620255E+02  0.10552562030E+02 -0.35728883579E+02  0.47787274174E+02  0.20000014267E+02 0.  0.
        -12    1    1    2    0    0 -0.22264620255E+02 -0.10552562030E+02  0.35728883579E+02  0.43400725826E+02  0.00000000000E+00 0.  1.
         11    1    3    3    0    0  0.11819753418E+02  0.65009348092E+01 -0.15463682800E+02  0.20520580164E+02  0.51100000000E-03 0. -1.
        -11    1    3    3    0    0  0.28533396045E+01 -0.53821781986E+01 -0.59263040891E+01  0.84988510681E+01  0.51100000000E-03 0.  1.
        -12    1    3    3    0    0  0.75915272322E+01  0.94338054198E+01 -0.14338896690E+02  0.18767842942E+02  0.00000000000E+00 0.  1.
</event>
<event>
 7    1  0.2811980E-010  0.4778727E+02  0.7816164E-02  0.1312668E+00
        -11   -1    0    0    0    0  0.00000000000E+00  0.00000000000E+00  0.45593999997E+02  0.45594000000E+02  0.51100000000E-03 0. -1.
         11   -1    0    0    0    0 -0.00000000000E+00 -0.00000000000E+00 -0.45593999997E+02  0.45594000000E+02  0.51100000000E-03 0.  1.
    9900012    2    1    2    0    0 -0.38655222685E+02  0.19335585399E+02 -0.39411190385E+01  0.47787268176E+02  0.19999986924E+02 0.  0.
        -12    1    1    2    0    0  0.38655222685E+02 -0.19335585399E+02  0.39411190385E+01  0.43400731824E+02  0.00000000000E+00 0.  1.
         11    1    3    3    0    0 -0.17728924145E+02  0.35399580628E+01  0.49646720468E+01  0.18748173863E+02  0.51100000000E-03 0. -1.
        -11    1    3    3    0    0 -0.12543857324E+02  0.41638903052E+01 -0.54124887475E+01  0.14282204792E+02  0.51100000000E-03 0.  1.
         12    1    3    3    0    0 -0.83824412168E+01  0.11631737031E+02 -0.34933023377E+01  0.14756889521E+02  0.00000000000E+00 0. -1.
</event>
<event>
 7    1  0.2811980E-010  0.4778727E+02  0.7816164E-02  0.1312668E+00
        -11   -1    0    0    0    0  0.00000000000E+00  0.00000000000E+00  0.45593999997E+02  0.45594000000E+02  0.51100000000E-03 0. -1.
         11   -1    0    0    0    0 -0.00000000000E+00 -0.00000000000E+00 -0.45593999997E+02  0.45594000000E+02  0.51100000000E-03 0.  1.
    9900012    2    1    2    0    0 -0.21975387928E+02 -0.18274553534E+02  0.32661083895E+02  0.47787269791E+02  0.19999994286E+02 0.  0.
        -12    1    1    2    0    0  0.21975387928E+02  0.18274553534E+02 -0.32661083895E+02  0.43400730209E+02  0.00000000000E+00 0.  1.
         11    1    3    3    0    0  0.14827767191E+01 -0.54282522773E+01  0.10827033310E+02  0.12202016233E+02  0.51100000000E-03 0. -1.
        -11    1    3    3    0    0 -0.53901947728E+01 -0.19901245595E+01  0.78979904014E+00  0.57998774329E+01  0.51100000000E-03 0.  1.
         12    1    3    3    0    0 -0.18067969874E+02 -0.10856176697E+02  0.21044251545E+02  0.29785376126E+02  0.00000000000E+00 0. -1.
</event>
<event>
 7    1  0.2811980E-010  0.4778727E+02  0.7816164E-02  0.1312668E+00
        -11   -1    0    0    0    0  0.00000000000E+00  0.00000000000E+00  0.45593999997E+02  0.45594000000E+02  0.51100000000E-03 0.  1.
         11   -1    0    0    0    0 -0.00000000000E+00 -0.00000000000E+00 -0.45593999997E+02  0.45594000000E+02  0.51100000000E-03 0. -1.
    9900012    2    1    2    0    0 -0.36881558989E+02 -0.21584724211E+02 -0.75811381949E+01  0.47787269948E+02  0.19999994999E+02 0.  0.
        -12    1    1    2    0    0  0.36881558989E+02  0.21584724211E+02  0.75811381949E+01  0.43400730052E+02  0.00000000000E+00 0.  1.
         11    1    3    3    0    0 -0.23795621928E+02 -0.78985063368E+01  0.37152652964E+01  0.25346029704E+02  0.51100000000E-03 0. -1.
        -11    1    3    3    0    0  0.26715148754E-01 -0.13597070349E+01 -0.46962210119E+00  0.14387710377E+01  0.51100000000E-03 0.  1.
         12    1    3    3    0    0 -0.13112652210E+02 -0.12326510840E+02 -0.10826781390E+02  0.21002469206E+02  0.00000000000E+00 0. -1.
</event>
<event>
 7    1  0.2811980E-010  0.4778727E+02  0.7816164E-02  0.1312668E+00
        -11   -1    0    0    0    0  0.00000000000E+00  0.00000000000E+00  0.45593999997E+02  0.45594000000E+02  0.51100000000E-03 0. -1.
         11   -1    0    0    0    0 -0.00000000000E+00 -0.00000000000E+00 -0.45593999997E+02  0.45594000000E+02  0.51100000000E-03 0.  1.
    9900012    2    1    2    0    0  0.32031042494E+02  0.23200851358E+02 -0.17870538550E+02  0.47787270340E+02  0.19999996787E+02 0.  0.
        -12    1    1    2    0    0 -0.32031042494E+02 -0.23200851358E+02  0.17870538550E+02  0.43400729660E+02  0.00000000000E+00 0.  1.
         11    1    3    3    0    0  0.84851032685E+01  0.10845743147E+02 -0.73790922738E+01  0.15622999870E+02  0.51100000000E-03 0. -1.
        -11    1    3    3    0    0  0.41565955071E+01 -0.25441633424E+01  0.12610519967E+01  0.50339155457E+01  0.51100000000E-03 0.  1.
        -12    1    3    3    0    0  0.19389343719E+02  0.14899271553E+02 -0.11752498273E+02  0.27130354924E+02  0.00000000000E+00 0.  1.
</event>
<event>
 7    1  0.2811980E-010  0.4778727E+02  0.7816164E-02  0.1312668E+00
        -11   -1    0    0    0    0  0.00000000000E+00  0.00000000000E+00  0.45593999997E+02  0.45594000000E+02  0.51100000000E-03 0.  1.
         11   -1    0    0    0    0 -0.00000000000E+00 -0.00000000000E+00 -0.45593999997E+02  0.45594000000E+02  0.51100000000E-03 0. -1.
    9900012    2    1    2    0    0  0.20376189064E+02  0.35465009664E+02 -0.14514380309E+02  0.47787271585E+02  0.20000002464E+02 0.  0.
        -12    1    1    2    0    0 -0.20376189064E+02 -0.35465009664E+02  0.14514380309E+02  0.43400728415E+02  0.00000000000E+00 0.  1.
         11    1    3    3    0    0  0.99074716981E+01  0.22359283250E+02 -0.17439544448E+02  0.30037197834E+02  0.51100000000E-03 0. -1.
        -11    1    3    3    0    0  0.44433849843E+01  0.24963000980E+01  0.21281554902E+01  0.55230634932E+01  0.51100000000E-03 0.  1.
         12    1    3    3    0    0  0.60253323817E+01  0.10609426315E+02  0.79700864874E+00  0.12227010257E+02  0.00000000000E+00 0. -1.
</event>
<event>
 7    1  0.2811980E-010  0.4778727E+02  0.7816164E-02  0.1312668E+00
        -11   -1    0    0    0    0  0.00000000000E+00  0.00000000000E+00  0.45593999997E+02  0.45594000000E+02  0.51100000000E-03 0.  1.
         11   -1    0    0    0    0 -0.00000000000E+00 -0.00000000000E+00 -0.45593999997E+02  0.45594000000E+02  0.51100000000E-03 0. -1.
    9900012    2    1    2    0    0  0.26614066497E+02  0.28833165930E+02 -0.18546250293E+02  0.47787269673E+02  0.19999993746E+02 0.  0.
        -12    1    1    2    0    0 -0.26614066497E+02 -0.28833165930E+02  0.18546250293E+02  0.43400730327E+02  0.00000000000E+00 0.  1.
         11    1    3    3    0    0  0.83483175976E+01  0.74311023268E+01 -0.11091009539E+02  0.15745671829E+02  0.51100000000E-03 0. -1.
        -11    1    3    3    0    0  0.18616981169E+02  0.13394596343E+02 -0.38615388568E+01  0.23257658559E+02  0.51100000000E-03 0.  1.
        -12    1    3    3    0    0 -0.35123227025E+00  0.80074672600E+01 -0.35937018979E+01  0.87839392848E+01  0.00000000000E+00 0.  1.
</event>
<event>
 7    1  0.2811980E-010  0.4778727E+02  0.7816164E-02  0.1312668E+00
        -11   -1    0    0    0    0  0.00000000000E+00  0.00000000000E+00  0.45593999997E+02  0.45594000000E+02  0.51100000000E-03 0.  1.
         11   -1    0    0    0    0 -0.00000000000E+00 -0.00000000000E+00 -0.45593999997E+02  0.45594000000E+02  0.51100000000E-03 0. -1.
    9900012    2    1    2    0    0 -0.75008990130E+01 -0.27296765088E+02 -0.32897509600E+02  0.47787274106E+02  0.20000013957E+02 0.  0.
        -12    1    1    2    0    0  0.75008990130E+01  0.27296765088E+02  0.32897509600E+02  0.43400725894E+02  0.00000000000E+00 0.  1.
         11    1    3    3    0    0 -0.50832435129E+01 -0.24367379507E+02 -0.20956302756E+02  0.32538825641E+02  0.51100000000E-03 0. -1.
        -11    1    3    3    0    0 -0.56198335458E+00 -0.24111180599E+01 -0.12872551328E+02  0.13108466483E+02  0.51100000000E-03 0.  1.
         12    1    3    3    0    0 -0.18556721455E+01 -0.51826752113E+00  0.93134448311E+00  0.21399819816E+01  0.00000000000E+00 0. -1.
</event>
<event>
 7    1  0.2811980E-010  0.4778727E+02  0.7816164E-02  0.1312668E+00
        -11   -1    0    0    0    0  0.00000000000E+00  0.00000000000E+00  0.45593999997E+02  0.45594000000E+02  0.51100000000E-03 0.  1.
         11   -1    0    0    0    0 -0.00000000000E+00 -0.00000000000E+00 -0.45593999997E+02  0.45594000000E+02  0.51100000000E-03 0. -1.
    9900012    2    1    2    0    0 -0.64046541666E+01 -0.39179546110E+01 -0.42746383086E+02  0.47787271547E+02  0.20000002292E+02 0.  0.
        -12    1    1    2    0    0  0.64046541666E+01  0.39179546110E+01  0.42746383086E+02  0.43400728453E+02  0.00000000000E+00 0.  1.
         11    1    3    3    0    0 -0.98113353367E+01 -0.15336444969E+01 -0.37514986418E+02  0.38807068592E+02  0.51100000000E-03 0. -1.
        -11    1    3    3    0    0  0.38350347362E+01 -0.33278632619E+01 -0.58712585946E+01  0.77623348976E+01  0.51100000000E-03 0.  1.
         12    1    3    3    0    0 -0.42835356606E+00  0.94355314786E+00  0.63986192658E+00  0.12178680575E+01  0.00000000000E+00 0. -1.
</event>
<event>
 7    1  0.2811980E-010  0.4778728E+02  0.7816164E-02  0.1312668E+00
        -11   -1    0    0    0    0  0.00000000000E+00  0.00000000000E+00  0.45593999997E+02  0.45594000000E+02  0.51100000000E-03 0. -1.
         11   -1    0    0    0    0 -0.00000000000E+00 -0.00000000000E+00 -0.45593999997E+02  0.45594000000E+02  0.51100000000E-03 0.  1.
    9900012    2    1    2    0    0 -0.52334735157E+01 -0.42505663871E+02  0.70357718269E+01  0.47787276603E+02  0.20000025346E+02 0.  0.
        -12    1    1    2    0    0  0.52334735157E+01  0.42505663871E+02 -0.70357718269E+01  0.43400723397E+02  0.00000000000E+00 0.  1.
         11    1    3    3    0    0  0.86250309520E+00 -0.27301028625E+02  0.28057185064E+01  0.27458370894E+02  0.51100000000E-03 0. -1.
        -11    1    3    3    0    0 -0.86585242703E+01 -0.87446843756E+01  0.22568633936E+00  0.12308146975E+02  0.51100000000E-03 0.  1.
        -12    1    3    3    0    0  0.25625476594E+01 -0.64599508705E+01  0.40043669812E+01  0.80207587345E+01  0.00000000000E+00 0.  1.
</event>
<event>
 7    1  0.2811980E-010  0.4778727E+02  0.7816164E-02  0.1312668E+00
        -11   -1    0    0    0    0  0.00000000000E+00  0.00000000000E+00  0.45593999997E+02  0.45594000000E+02  0.51100000000E-03 0.  1.
         11   -1    0    0    0    0 -0.00000000000E+00 -0.00000000000E+00 -0.45593999997E+02  0.45594000000E+02  0.51100000000E-03 0. -1.
    9900012    2    1    2    0    0 -0.17663767643E+02 -0.36831276650E+02  0.14665329037E+02  0.47787268408E+02  0.19999987978E+02 0.  0.
        -12    1    1    2    0    0  0.17663767643E+02  0.36831276650E+02 -0.14665329037E+02  0.43400731592E+02  0.00000000000E+00 0.  1.
         11    1    3    3    0    0 -0.21266414037E+01 -0.61282789209E+01  0.11678487973E+01  0.65910755774E+01  0.51100000000E-03 0. -1.
        -11    1    3    3    0    0 -0.14200500593E+02 -0.24673548798E+02  0.24929528634E+01  0.28577141942E+02  0.51100000000E-03 0.  1.
        -12    1    3    3    0    0 -0.13366256461E+01 -0.60294489312E+01  0.11004527376E+02  0.12619050888E+02  0.00000000000E+00 0.  1.
</event>
<event>
 7    1  0.2811980E-010  0.4778725E+02  0.7816164E-02  0.1312668E+00
        -11   -1    0    0    0    0  0.00000000000E+00  0.00000000000E+00  0.45593999997E+02  0.45594000000E+02  0.51100000000E-03 0. -1.
         11   -1    0    0    0    0 -0.00000000000E+00 -0.00000000000E+00 -0.45593999997E+02  0.45594000000E+02  0.51100000000E-03 0.  1.
    9900012    2    1    2    0    0 -0.40496642829E+02  0.12691227942E+02  0.90873299147E+01  0.47787252171E+02  0.19999913950E+02 0.  0.
        -12    1    1    2    0    0  0.40496642829E+02 -0.12691227942E+02 -0.90873299147E+01  0.43400747829E+02  0.00000000000E+00 0.  1.
         11    1    3    3    0    0 -0.52884948710E+01  0.11511986599E+01  0.82227686701E+01  0.98441536568E+01  0.51100000000E-03 0. -1.
        -11    1    3    3    0    0 -0.86398718140E+00  0.21414527893E+01 -0.22005042591E+00  0.23196371159E+01  0.51100000000E-03 0.  1.
         12    1    3    3    0    0 -0.34344160777E+02  0.93985764933E+01  0.10846116704E+01  0.35623461399E+02  0.00000000000E+00 0. -1.
</event>
<event>
 7    1  0.2811980E-010  0.4778728E+02  0.7816164E-02  0.1312668E+00
        -11   -1    0    0    0    0  0.00000000000E+00  0.00000000000E+00  0.45593999997E+02  0.45594000000E+02  0.51100000000E-03 0.  1.
         11   -1    0    0    0    0 -0.00000000000E+00 -0.00000000000E+00 -0.45593999997E+02  0.45594000000E+02  0.51100000000E-03 0. -1.
    9900012    2    1    2    0    0 -0.38842046554E+02 -0.69122083150E+00 -0.19350465375E+02  0.47787275617E+02  0.20000020849E+02 0.  0.
        -12    1    1    2    0    0  0.38842046554E+02  0.69122083150E+00  0.19350465375E+02  0.43400724383E+02  0.00000000000E+00 0.  1.
         11    1    3    3    0    0 -0.63938512042E+01  0.15959281972E+01 -0.15811737990E+01  0.67770517835E+01  0.51100000000E-03 0. -1.
        -11    1    3    3    0    0 -0.31250263587E+02 -0.95388902032E+00 -0.20755746295E+02  0.37527188585E+02  0.51100000000E-03 0.  1.
        -12    1    3    3    0    0 -0.11979317622E+01 -0.13332600084E+01  0.29864547190E+01  0.34830352489E+01  0.00000000000E+00 0.  1.
</event>
<event>
 7    1  0.2811980E-010  0.4778727E+02  0.7816164E-02  0.1312668E+00
        -11   -1    0    0    0    0  0.00000000000E+00  0.00000000000E+00  0.45593999997E+02  0.45594000000E+02  0.51100000000E-03 0. -1.
         11   -1    0    0    0    0 -0.00000000000E+00 -0.00000000000E+00 -0.45593999997E+02  0.45594000000E+02  0.51100000000E-03 0.  1.
    9900012    2    1    2    0    0  0.37286551741E+02 -0.20178666937E+02 -0.92821212788E+01  0.47787270564E+02  0.19999997811E+02 0.  0.
        -12    1    1    2    0    0 -0.37286551741E+02  0.20178666937E+02  0.92821212788E+01  0.43400729436E+02  0.00000000000E+00 0.  1.
         11    1    3    3    0    0  0.34616425935E+02 -0.19301296999E+02 -0.88848163701E+01  0.40617446652E+02  0.51100000000E-03 0. -1.
        -11    1    3    3    0    0 -0.80163903129E+00  0.58916433775E+00  0.23195120341E+01  0.25238613454E+01  0.51100000000E-03 0.  1.
        -12    1    3    3    0    0  0.34717648375E+01 -0.14665342759E+01 -0.27168169428E+01  0.46459625666E+01  0.00000000000E+00 0.  1.
</event>
<event>
 7    1  0.2811980E-010  0.4778727E+02  0.7816164E-02  0.1312668E+00
        -11   -1    0    0    0    0  0.00000000000E+00  0.00000000000E+00  0.45593999997E+02  0.45594000000E+02  0.51100000000E-03 0.  1.
         11   -1    0    0    0    0 -0.00000000000E+00 -0.00000000000E+00 -0.45593999997E+02  0.45594000000E+02  0.51100000000E-03 0. -1.
    9900012    2    1    2    0    0  0.41231255821E+02  0.75474183140E-01 -0.13549950865E+02  0.47787270498E+02  0.19999997507E+02 0.  0.
        -12    1    1    2    0    0 -0.41231255821E+02 -0.75474183140E-01  0.13549950865E+02  0.43400729502E+02  0.00000000000E+00 0.  1.
         11    1    3    3    0    0  0.27992562180E+01 -0.11271442245E+01  0.32173170154E+01  0.44110563945E+01  0.51100000000E-03 0. -1.
        -11    1    3    3    0    0  0.56108201184E+01  0.22227606381E+01  0.87789032421E+00  0.60985784358E+01  0.51100000000E-03 0.  1.
         12    1    3    3    0    0  0.32821179484E+02 -0.10201422304E+01 -0.17645158204E+02  0.37277635667E+02  0.00000000000E+00 0. -1.
</event>
<event>
 7    1  0.2811980E-010  0.4778727E+02  0.7816164E-02  0.1312668E+00
        -11   -1    0    0    0    0  0.00000000000E+00  0.00000000000E+00  0.45593999997E+02  0.45594000000E+02  0.51100000000E-03 0. -1.
         11   -1    0    0    0    0 -0.00000000000E+00 -0.00000000000E+00 -0.45593999997E+02  0.45594000000E+02  0.51100000000E-03 0.  1.
    9900012    2    1    2    0    0 -0.30075156583E+02  0.10382449494E+02  0.29518009019E+02  0.47787272386E+02  0.20000006118E+02 0.  0.
        -12    1    1    2    0    0  0.30075156583E+02 -0.10382449494E+02 -0.29518009019E+02  0.43400727614E+02  0.00000000000E+00 0.  1.
         11    1    3    3    0    0 -0.18175090692E+02  0.14944695242E+02  0.20059545213E+02  0.30920271538E+02  0.51100000000E-03 0. -1.
        -11    1    3    3    0    0 -0.78681356147E+01 -0.54547651998E+01  0.50414837595E+01  0.10820285587E+02  0.51100000000E-03 0.  1.
        -12    1    3    3    0    0 -0.40319302756E+01  0.89251945128E+00  0.44169800459E+01  0.60467152607E+01  0.00000000000E+00 0.  1.
</event>
<event>
 7    1  0.2811980E-010  0.4778727E+02  0.7816164E-02  0.1312668E+00
        -11   -1    0    0    0    0  0.00000000000E+00  0.00000000000E+00  0.45593999997E+02  0.45594000000E+02  0.51100000000E-03 0.  1.
         11   -1    0    0    0    0 -0.00000000000E+00 -0.00000000000E+00 -0.45593999997E+02  0.45594000000E+02  0.51100000000E-03 0. -1.
    9900012    2    1    2    0    0 -0.21510498901E+02  0.35439103566E+02 -0.12844904464E+02  0.47787271950E+02  0.20000004129E+02 0.  0.
        -12    1    1    2    0    0  0.21510498901E+02 -0.35439103566E+02  0.12844904464E+02  0.43400728050E+02  0.00000000000E+00 0.  1.
         11    1    3    3    0    0 -0.16623761435E+02  0.35120628974E+02 -0.61429705464E+01  0.39338837187E+02  0.51100000000E-03 0. -1.
        -11    1    3    3    0    0 -0.47516481062E+01  0.45047923402E+00 -0.57260659647E+01  0.74544565837E+01  0.51100000000E-03 0.  1.
        -12    1    3    3    0    0 -0.13508936039E+00 -0.13200464208E+00 -0.97586795261E+00  0.99397817971E+00  0.00000000000E+00 0.  1.
</event>
<event>
 7    1  0.2811980E-010  0.4778727E+02  0.7816164E-02  0.1312668E+00
        -11   -1    0    0    0    0  0.00000000000E+00  0.00000000000E+00  0.45593999997E+02  0.45594000000E+02  0.51100000000E-03 0.  1.
         11   -1    0    0    0    0 -0.00000000000E+00 -0.00000000000E+00 -0.45593999997E+02  0.45594000000E+02  0.51100000000E-03 0. -1.
    9900012    2    1    2    0    0 -0.17840734685E+02  0.38483005165E+02  0.91863947236E+01  0.47787270183E+02  0.19999996074E+02 0.  0.
        -12    1    1    2    0    0  0.17840734685E+02 -0.38483005165E+02 -0.91863947236E+01  0.43400729817E+02  0.00000000000E+00 0.  1.
         11    1    3    3    0    0 -0.10419000486E+02  0.82483817342E+01 -0.17633620364E+01  0.13405253384E+02  0.51100000000E-03 0. -1.
        -11    1    3    3    0    0  0.68654109117E+00  0.15769279574E+02  0.33268136170E+01  0.16131001397E+02  0.51100000000E-03 0.  1.
        -12    1    3    3    0    0 -0.81082752900E+01  0.14465343856E+02  0.76229431430E+01  0.18251015402E+02  0.00000000000E+00 0.  1.
</event>
<event>
 7    1  0.2811980E-010  0.4778727E+02  0.7816164E-02  0.1312668E+00
        -11   -1    0    0    0    0  0.00000000000E+00  0.00000000000E+00  0.45593999997E+02  0.45594000000E+02  0.51100000000E-03 0. -1.
         11   -1    0    0    0    0 -0.00000000000E+00 -0.00000000000E+00 -0.45593999997E+02  0.45594000000E+02  0.51100000000E-03 0.  1.
    9900012    2    1    2    0    0  0.74193150257E+01  0.42412416762E+02  0.54556612283E+01  0.47787267628E+02  0.19999984422E+02 0.  0.
        -12    1    1    2    0    0 -0.74193150257E+01 -0.42412416762E+02 -0.54556612283E+01  0.43400732372E+02  0.00000000000E+00 0.  1.
         11    1    3    3    0    0  0.37037250505E+01  0.34714490898E+02  0.38912677974E+01  0.35127701646E+02  0.51100000000E-03 0. -1.
        -11    1    3    3    0    0  0.40090830852E+01  0.13431439777E+01  0.40260773020E+01  0.58383286676E+01  0.51100000000E-03 0.  1.
        -12    1    3    3    0    0 -0.29349310992E+00  0.63547818855E+01 -0.24616838711E+01  0.68212373143E+01  0.00000000000E+00 0.  1.
</event>
<event>
 7    1  0.2811980E-010  0.4778728E+02  0.7816164E-02  0.1312668E+00
        -11   -1    0    0    0    0  0.00000000000E+00  0.00000000000E+00  0.45593999997E+02  0.45594000000E+02  0.51100000000E-03 0.  1.
         11   -1    0    0    0    0 -0.00000000000E+00 -0.00000000000E+00 -0.45593999997E+02  0.45594000000E+02  0.51100000000E-03 0. -1.
    9900012    2    1    2    0    0 -0.22807019394E+02  0.21940092761E+02 -0.29700078639E+02  0.47787280246E+02  0.20000041953E+02 0.  0.
        -12    1    1    2    0    0  0.22807019394E+02 -0.21940092761E+02  0.29700078639E+02  0.43400719754E+02  0.00000000000E+00 0.  1.
         11    1    3    3    0    0 -0.95803841000E+01  0.18014178404E+02 -0.10302912438E+02  0.22857042417E+02  0.51100000000E-03 0. -1.
        -11    1    3    3    0    0 -0.11372277657E+02  0.10671907479E+01 -0.17841143933E+02  0.21184286919E+02  0.51100000000E-03 0.  1.
        -12    1    3    3    0    0 -0.18543576371E+01  0.28587236088E+01 -0.15560222687E+01  0.37459509098E+01  0.00000000000E+00 0.  1.
</event>
<event>
 7    1  0.2811980E-010  0.4778727E+02  0.7816164E-02  0.1312668E+00
        -11   -1    0    0    0    0  0.00000000000E+00  0.00000000000E+00  0.45593999997E+02  0.45594000000E+02  0.51100000000E-03 0. -1.
         11   -1    0    0    0    0 -0.00000000000E+00 -0.00000000000E+00 -0.45593999997E+02  0.45594000000E+02  0.51100000000E-03 0.  1.
    9900012    2    1    2    0    0  0.25056166373E+02  0.34495809050E+02  0.81148539658E+01  0.47787272239E+02  0.20000005445E+02 0.  0.
        -12    1    1    2    0    0 -0.25056166373E+02 -0.34495809050E+02 -0.81148539658E+01  0.43400727761E+02  0.00000000000E+00 0.  1.
         11    1    3    3    0    0  0.49801983973E+01  0.11788420772E+02  0.42969114156E+01  0.13499358813E+02  0.51100000000E-03 0. -1.
        -11    1    3    3    0    0  0.79086089008E+01  0.54155289762E+01  0.82943975633E+01  0.12675609651E+02  0.51100000000E-03 0.  1.
        -12    1    3    3    0    0  0.12167359074E+02  0.17291859302E+02 -0.44764550131E+01  0.21612303775E+02  0.00000000000E+00 0.  1.
</event>
<event>
 7    1  0.2811980E-010  0.4778727E+02  0.7816164E-02  0.1312668E+00
        -11   -1    0    0    0    0  0.00000000000E+00  0.00000000000E+00  0.45593999997E+02  0.45594000000E+02  0.51100000000E-03 0.  1.
         11   -1    0    0    0    0 -0.00000000000E+00 -0.00000000000E+00 -0.45593999997E+02  0.45594000000E+02  0.51100000000E-03 0. -1.
    9900012    2    1    2    0    0  0.27408473484E+02 -0.23494689862E+02 -0.24091460731E+02  0.47787270161E+02  0.19999995970E+02 0.  0.
        -12    1    1    2    0    0 -0.27408473484E+02  0.23494689862E+02  0.24091460731E+02  0.43400729839E+02  0.00000000000E+00 0.  1.
         11    1    3    3    0    0  0.96110018406E+01 -0.53031141661E+00 -0.34158526977E+01  0.10213747426E+02  0.51100000000E-03 0. -1.
        -11    1    3    3    0    0  0.30074388669E+01  0.10036081091E+01 -0.26779513322E+01  0.41501013691E+01  0.51100000000E-03 0.  1.
         12    1    3    3    0    0  0.14790032777E+02 -0.23967986555E+02 -0.17997656701E+02  0.33423421365E+02  0.00000000000E+00 0. -1.
</event>
<event>
 7    1  0.2811980E-010  0.4778726E+02  0.7816164E-02  0.1312668E+00
        -11   -1    0    0    0    0  0.00000000000E+00  0.00000000000E+00  0.45593999997E+02  0.45594000000E+02  0.51100000000E-03 0. -1.
         11   -1    0    0    0    0 -0.00000000000E+00 -0.00000000000E+00 -0.45593999997E+02  0.45594000000E+02  0.51100000000E-03 0.  1.
    9900012    2    1    2    0    0 -0.31664244134E+02  0.29663552744E+02 -0.10359197458E+01  0.47787264434E+02  0.19999969858E+02 0.  0.
        -12    1    1    2    0    0  0.31664244134E+02 -0.29663552744E+02  0.10359197458E+01  0.43400735566E+02  0.00000000000E+00 0.  1.
         11    1    3    3    0    0 -0.74406531480E+01  0.81763683524E+01  0.84342421859E+01  0.13905134311E+02  0.51100000000E-03 0. -1.
        -11    1    3    3    0    0 -0.22089593667E+02  0.18269198106E+02 -0.85357581675E+01  0.29909411822E+02  0.51100000000E-03 0.  1.
         12    1    3    3    0    0 -0.21339973187E+01  0.32179862862E+01 -0.93440376421E+00  0.39727182998E+01  0.00000000000E+00 0. -1.
</event>
<event>
 7    1  0.2811980E-010  0.4778726E+02  0.7816164E-02  0.1312668E+00
        -11   -1    0    0    0    0  0.00000000000E+00  0.00000000000E+00  0.45593999997E+02  0.45594000000E+02  0.51100000000E-03 0.  1.
         11   -1    0    0    0    0 -0.00000000000E+00 -0.00000000000E+00 -0.45593999997E+02  0.45594000000E+02  0.51100000000E-03 0. -1.
    9900012    2    1    2    0    0 -0.19233327198E+02  0.35845390519E+02 -0.15126517978E+02  0.47787257579E+02  0.19999938606E+02 0.  0.
        -12    1    1    2    0    0  0.19233327198E+02 -0.35845390519E+02  0.15126517978E+02  0.43400742421E+02  0.00000000000E+00 0.  1.
         11    1    3    3    0    0 -0.11207544791E+02  0.72974152387E+01 -0.70016904805E+01  0.15095860335E+02  0.51100000000E-03 0. -1.
        -11    1    3    3    0    0 -0.70392489963E+01  0.23066103322E+02 -0.16822809452E+01  0.24174908859E+02  0.51100000000E-03 0.  1.
        -12    1    3    3    0    0 -0.98653340986E+00  0.54818719587E+01 -0.64425465519E+01  0.85164883851E+01  0.00000000000E+00 0.  1.
</event>
<event>
 7    1  0.2811980E-010  0.4778727E+02  0.7816164E-02  0.1312668E+00
        -11   -1    0    0    0    0  0.00000000000E+00  0.00000000000E+00  0.45593999997E+02  0.45594000000E+02  0.51100000000E-03 0.  1.
         11   -1    0    0    0    0 -0.00000000000E+00 -0.00000000000E+00 -0.45593999997E+02  0.45594000000E+02  0.51100000000E-03 0. -1.
    9900012    2    1    2    0    0  0.32621255774E+02 -0.20675636009E+02 -0.19798870441E+02  0.47787268170E+02  0.19999986895E+02 0.  0.
        -12    1    1    2    0    0 -0.32621255774E+02  0.20675636009E+02  0.19798870441E+02  0.43400731830E+02  0.00000000000E+00 0.  1.
         11    1    3    3    0    0  0.10599280672E+02 -0.35287978127E+01 -0.86402687857E+01  0.14122726710E+02  0.51100000000E-03 0. -1.
        -11    1    3    3    0    0  0.61094665231E+01 -0.13137870546E+02 -0.13616791492E+01  0.14552779598E+02  0.51100000000E-03 0.  1.
        -12    1    3    3    0    0  0.15912508578E+02 -0.40089676504E+01 -0.97969225063E+01  0.19111761862E+02  0.00000000000E+00 0.  1.
</event>
<event>
 7    1  0.2811980E-010  0.4778727E+02  0.7816164E-02  0.1312668E+00
        -11   -1    0    0    0    0  0.00000000000E+00  0.00000000000E+00  0.45593999997E+02  0.45594000000E+02  0.51100000000E-03 0.  1.
         11   -1    0    0    0    0 -0.00000000000E+00 -0.00000000000E+00 -0.45593999997E+02  0.45594000000E+02  0.51100000000E-03 0. -1.
    9900012    2    1    2    0    0 -0.21733558057E+02  0.35464771258E+02 -0.12390541887E+02  0.47787273342E+02  0.20000010476E+02 0.  0.
        -12    1    1    2    0    0  0.21733558057E+02 -0.35464771258E+02  0.12390541887E+02  0.43400726658E+02  0.00000000000E+00 0.  1.
         11    1    3    3    0    0 -0.78307604686E+01  0.47308173827E+01 -0.56504958849E+01  0.10753117996E+02  0.51100000000E-03 0. -1.
        -11    1    3    3    0    0 -0.11407813676E+02  0.95043844944E+01 -0.46359123760E+01  0.15555167029E+02  0.51100000000E-03 0.  1.
        -12    1    3    3    0    0 -0.24949839124E+01  0.21229569381E+02 -0.21041336259E+01  0.21478988317E+02  0.00000000000E+00 0.  1.
</event>
<event>
 7    1  0.2811980E-010  0.4778726E+02  0.7816164E-02  0.1312668E+00
        -11   -1    0    0    0    0  0.00000000000E+00  0.00000000000E+00  0.45593999997E+02  0.45594000000E+02  0.51100000000E-03 0.  1.
         11   -1    0    0    0    0 -0.00000000000E+00 -0.00000000000E+00 -0.45593999997E+02  0.45594000000E+02  0.51100000000E-03 0. -1.
    9900012    2    1    2    0    0  0.13124204631E+02  0.34036753801E+02 -0.23513377641E+02  0.47787259400E+02  0.19999946910E+02 0.  0.
        -12    1    1    2    0    0 -0.13124204631E+02 -0.34036753801E+02  0.23513377641E+02  0.43400740600E+02  0.00000000000E+00 0.  1.
         11    1    3    3    0    0  0.72147113608E+01  0.19661476379E+02 -0.23184189282E+02  0.31243116784E+02  0.51100000000E-03 0. -1.
        -11    1    3    3    0    0  0.29709966348E+01  0.11308260913E+02  0.17376695922E+01  0.11820451842E+02  0.51100000000E-03 0.  1.
        -12    1    3    3    0    0  0.29384966360E+01  0.30670165093E+01 -0.20668579507E+01  0.47236907748E+01  0.00000000000E+00 0.  1.
</event>
<event>
 7    1  0.2811980E-010  0.4778727E+02  0.7816164E-02  0.1312668E+00
        -11   -1    0    0    0    0  0.00000000000E+00  0.00000000000E+00  0.45593999997E+02  0.45594000000E+02  0.51100000000E-03 0.  1.
         11   -1    0    0    0    0 -0.00000000000E+00 -0.00000000000E+00 -0.45593999997E+02  0.45594000000E+02  0.51100000000E-03 0. -1.
    9900012    2    1    2    0    0  0.40770349947E+02 -0.23216083709E+01 -0.14697338830E+02  0.47787273405E+02  0.20000010764E+02 0.  0.
        -12    1    1    2    0    0 -0.40770349947E+02  0.23216083709E+01  0.14697338830E+02  0.43400726595E+02  0.00000000000E+00 0.  1.
         11    1    3    3    0    0  0.20995088365E+02  0.42128121597E+01 -0.10049080392E+02  0.23654292184E+02  0.51100000000E-03 0. -1.
        -11    1    3    3    0    0  0.64229471144E+01 -0.75628118799E+01 -0.40822320591E+01  0.10729165485E+02  0.51100000000E-03 0.  1.
        -12    1    3    3    0    0  0.13352314468E+02  0.10283913493E+01 -0.56602637944E+00  0.13403815736E+02  0.00000000000E+00 0.  1.
</event>
<event>
 7    1  0.2811980E-010  0.4778725E+02  0.7816164E-02  0.1312668E+00
        -11   -1    0    0    0    0  0.00000000000E+00  0.00000000000E+00  0.45593999997E+02  0.45594000000E+02  0.51100000000E-03 0. -1.
         11   -1    0    0    0    0 -0.00000000000E+00 -0.00000000000E+00 -0.45593999997E+02  0.45594000000E+02  0.51100000000E-03 0.  1.
    9900012    2    1    2    0    0 -0.38509819793E+02 -0.18074175741E+02  0.85989931714E+01  0.47787254238E+02  0.19999923371E+02 0.  0.
        -12    1    1    2    0    0  0.38509819793E+02  0.18074175741E+02 -0.85989931714E+01  0.43400745762E+02  0.00000000000E+00 0.  1.
         11    1    3    3    0    0 -0.25333772634E+02 -0.15047082671E+02 -0.12007549791E+01  0.29489939735E+02  0.51100000000E-03 0. -1.
        -11    1    3    3    0    0 -0.95318049184E+01  0.14903578967E+01  0.61300932053E+01  0.11430420580E+02  0.51100000000E-03 0.  1.
         12    1    3    3    0    0 -0.36442422406E+01 -0.45174509658E+01  0.36696549452E+01  0.68668939233E+01  0.00000000000E+00 0. -1.
</event>
<event>
 7    1  0.2811980E-010  0.4778727E+02  0.7816164E-02  0.1312668E+00
        -11   -1    0    0    0    0  0.00000000000E+00  0.00000000000E+00  0.45593999997E+02  0.45594000000E+02  0.51100000000E-03 0. -1.
         11   -1    0    0    0    0 -0.00000000000E+00 -0.00000000000E+00 -0.45593999997E+02  0.45594000000E+02  0.51100000000E-03 0.  1.
    9900012    2    1    2    0    0  0.40892595563E+01 -0.42494196697E+02  0.78194874295E+01  0.47787272123E+02  0.20000004915E+02 0.  0.
        -12    1    1    2    0    0 -0.40892595563E+01  0.42494196697E+02 -0.78194874295E+01  0.43400727877E+02  0.00000000000E+00 0.  1.
         11    1    3    3    0    0 -0.39591780738E+01 -0.16103048992E+02  0.81185882307E+01  0.18463335370E+02  0.51100000000E-03 0. -1.
        -11    1    3    3    0    0  0.35876688611E+01 -0.13891362090E+02 -0.50758658783E+01  0.15218597940E+02  0.51100000000E-03 0.  1.
         12    1    3    3    0    0  0.44607687690E+01 -0.12499785615E+02  0.47767650771E+01  0.14105338813E+02  0.00000000000E+00 0. -1.
</event>
<event>
 7    1  0.2811980E-010  0.4778727E+02  0.7816164E-02  0.1312668E+00
        -11   -1    0    0    0    0  0.00000000000E+00  0.00000000000E+00  0.45593999997E+02  0.45594000000E+02  0.51100000000E-03 0.  1.
         11   -1    0    0    0    0 -0.00000000000E+00 -0.00000000000E+00 -0.45593999997E+02  0.45594000000E+02  0.51100000000E-03 0. -1.
    9900012    2    1    2    0    0 -0.20536147229E+02  0.22154367704E+01 -0.38170431733E+02  0.47787270032E+02  0.19999995383E+02 0.  0.
        -12    1    1    2    0    0  0.20536147229E+02 -0.22154367704E+01  0.38170431733E+02  0.43400729968E+02  0.00000000000E+00 0.  1.
         11    1    3    3    0    0 -0.15707111701E+02  0.89230882017E+01 -0.26344879865E+02  0.31943505699E+02  0.51100000000E-03 0. -1.
        -11    1    3    3    0    0  0.11120932342E+01 -0.37410377122E+01 -0.44717136484E+01  0.59353464718E+01  0.51100000000E-03 0.  1.
         12    1    3    3    0    0 -0.59411287626E+01 -0.29666137192E+01 -0.73538382200E+01  0.99084178605E+01  0.00000000000E+00 0. -1.
</event>
<event>
 7    1  0.2811980E-010  0.4778727E+02  0.7816164E-02  0.1312668E+00
        -11   -1    0    0    0    0  0.00000000000E+00  0.00000000000E+00  0.45593999997E+02  0.45594000000E+02  0.51100000000E-03 0.  1.
         11   -1    0    0    0    0 -0.00000000000E+00 -0.00000000000E+00 -0.45593999997E+02  0.45594000000E+02  0.51100000000E-03 0. -1.
    9900012    2    1    2    0    0  0.37459635249E+02 -0.15471653485E+02 -0.15525041115E+02  0.47787271479E+02  0.20000001979E+02 0.  0.
        -12    1    1    2    0    0 -0.37459635249E+02  0.15471653485E+02  0.15525041115E+02  0.43400728521E+02  0.00000000000E+00 0.  1.
         11    1    3    3    0    0  0.26267294706E+02 -0.14635017189E+02 -0.53740445409E+01  0.30545619232E+02  0.51100000000E-03 0. -1.
        -11    1    3    3    0    0 -0.30320928810E+00  0.20586598387E+01 -0.14329063205E+01  0.25265068748E+01  0.51100000000E-03 0.  1.
         12    1    3    3    0    0  0.11495549832E+02 -0.28952961343E+01 -0.87180902532E+01  0.14715145372E+02  0.00000000000E+00 0. -1.
</event>
<event>
 7    1  0.2811980E-010  0.4778728E+02  0.7816164E-02  0.1312668E+00
        -11   -1    0    0    0    0  0.00000000000E+00  0.00000000000E+00  0.45593999997E+02  0.45594000000E+02  0.51100000000E-03 0. -1.
         11   -1    0    0    0    0 -0.00000000000E+00 -0.00000000000E+00 -0.45593999997E+02  0.45594000000E+02  0.51100000000E-03 0.  1.
    9900012    2    1    2    0    0  0.11841931718E+02 -0.20228870767E+02  0.36526487211E+02  0.47787276189E+02  0.20000023458E+02 0.  0.
        -12    1    1    2    0    0 -0.11841931718E+02  0.20228870767E+02 -0.36526487211E+02  0.43400723811E+02  0.00000000000E+00 0.  1.
         11    1    3    3    0    0  0.92788259489E+01 -0.97057805909E+01  0.13911845281E+02  0.19334896618E+02  0.51100000000E-03 0. -1.
        -11    1    3    3    0    0  0.82812846784E-02  0.74406776523E+00  0.14052816702E+02  0.14072503791E+02  0.51100000000E-03 0.  1.
        -12    1    3    3    0    0  0.25548244845E+01 -0.11267157941E+02  0.85618252284E+01  0.14379875780E+02  0.00000000000E+00 0.  1.
</event>
<event>
 7    1  0.2811980E-010  0.4778727E+02  0.7816164E-02  0.1312668E+00
        -11   -1    0    0    0    0  0.00000000000E+00  0.00000000000E+00  0.45593999997E+02  0.45594000000E+02  0.51100000000E-03 0. -1.
         11   -1    0    0    0    0 -0.00000000000E+00 -0.00000000000E+00 -0.45593999997E+02  0.45594000000E+02  0.51100000000E-03 0.  1.
    9900012    2    1    2    0    0  0.36321212807E+02  0.23754855609E+02  0.31546893338E+00  0.47787272063E+02  0.20000004645E+02 0.  0.
        -12    1    1    2    0    0 -0.36321212807E+02 -0.23754855609E+02 -0.31546893338E+00  0.43400727937E+02  0.00000000000E+00 0.  1.
         11    1    3    3    0    0  0.22378891833E+02  0.72792100498E+01  0.20109361908E+00  0.23533850886E+02  0.51100000000E-03 0. -1.
        -11    1    3    3    0    0  0.60369442716E+01  0.14591418798E+02 -0.18317090599E+01  0.15896834811E+02  0.51100000000E-03 0.  1.
        -12    1    3    3    0    0  0.79053767030E+01  0.18842267610E+01  0.19460843742E+01  0.83565863662E+01  0.00000000000E+00 0.  1.
</event>
<event>
 7    1  0.2811980E-010  0.4778727E+02  0.7816164E-02  0.1312668E+00
        -11   -1    0    0    0    0  0.00000000000E+00  0.00000000000E+00  0.45593999997E+02  0.45594000000E+02  0.51100000000E-03 0. -1.
         11   -1    0    0    0    0 -0.00000000000E+00 -0.00000000000E+00 -0.45593999997E+02  0.45594000000E+02  0.51100000000E-03 0.  1.
    9900012    2    1    2    0    0 -0.27716551336E+02  0.75261685863E+01  0.32538790403E+02  0.47787270600E+02  0.19999997975E+02 0.  0.
        -12    1    1    2    0    0  0.27716551336E+02 -0.75261685863E+01 -0.32538790403E+02  0.43400729400E+02  0.00000000000E+00 0.  1.
         11    1    3    3    0    0 -0.93484024838E+00  0.49715882959E+01  0.10924948711E+02  0.12039315639E+02  0.51100000000E-03 0.  1.
        -11    1    3    3    0    0 -0.12979014307E+02  0.32582867964E+01  0.15928674604E+02  0.20803699674E+02  0.51100000000E-03 0. -1.
         12    1    3    3    0    0 -0.13802696780E+02 -0.70370650597E+00  0.56851670889E+01  0.14944255287E+02  0.00000000000E+00 0. -1.
</event>
<event>
 7    1  0.2811980E-010  0.4778727E+02  0.7816164E-02  0.1312668E+00
        -11   -1    0    0    0    0  0.00000000000E+00  0.00000000000E+00  0.45593999997E+02  0.45594000000E+02  0.51100000000E-03 0.  1.
         11   -1    0    0    0    0 -0.00000000000E+00 -0.00000000000E+00 -0.45593999997E+02  0.45594000000E+02  0.51100000000E-03 0. -1.
    9900012    2    1    2    0    0 -0.23343151592E+02  0.24278282304E+02 -0.27373088750E+02  0.47787266071E+02  0.19999977324E+02 0.  0.
        -12    1    1    2    0    0  0.23343151592E+02 -0.24278282304E+02  0.27373088750E+02  0.43400733929E+02  0.00000000000E+00 0.  1.
         11    1    3    3    0    0 -0.15335160184E+02  0.12372866952E+02 -0.16906829050E+02  0.25963355778E+02  0.51100000000E-03 0. -1.
        -11    1    3    3    0    0 -0.19096363477E+01  0.90744649835E+01  0.13055690767E+00  0.92741399107E+01  0.51100000000E-03 0.  1.
        -12    1    3    3    0    0 -0.60983550610E+01  0.28309503685E+01 -0.10596816607E+02  0.12549770382E+02  0.00000000000E+00 0.  1.
</event>
<event>
 7    1  0.2811980E-010  0.4778728E+02  0.7816164E-02  0.1312668E+00
        -11   -1    0    0    0    0  0.00000000000E+00  0.00000000000E+00  0.45593999997E+02  0.45594000000E+02  0.51100000000E-03 0. -1.
         11   -1    0    0    0    0 -0.00000000000E+00 -0.00000000000E+00 -0.45593999997E+02  0.45594000000E+02  0.51100000000E-03 0.  1.
    9900012    2    1    2    0    0  0.30778838659E+02  0.26324130229E+02  0.15598895952E+02  0.47787282305E+02  0.20000051341E+02 0.  0.
        -12    1    1    2    0    0 -0.30778838659E+02 -0.26324130229E+02 -0.15598895952E+02  0.43400717695E+02  0.00000000000E+00 0.  1.
         11    1    3    3    0    0  0.11714282137E+02  0.20062276314E+02  0.76264187034E+01  0.24451617521E+02  0.51100000000E-03 0. -1.
        -11    1    3    3    0    0  0.27367731095E+01 -0.22143944840E+01  0.97471412971E+00  0.36528807644E+01  0.51100000000E-03 0.  1.
        -12    1    3    3    0    0  0.16327783413E+02  0.84762483994E+01  0.69977631184E+01  0.19682784020E+02  0.00000000000E+00 0.  1.
</event>
<event>
 7    1  0.2811980E-010  0.4778726E+02  0.7816164E-02  0.1312668E+00
        -11   -1    0    0    0    0  0.00000000000E+00  0.00000000000E+00  0.45593999997E+02  0.45594000000E+02  0.51100000000E-03 0.  1.
         11   -1    0    0    0    0 -0.00000000000E+00 -0.00000000000E+00 -0.45593999997E+02  0.45594000000E+02  0.51100000000E-03 0. -1.
    9900012    2    1    2    0    0  0.57088652799E+01  0.36587796956E+02 -0.22635501791E+02  0.47787263023E+02  0.19999963425E+02 0.  0.
        -12    1    1    2    0    0 -0.57088652799E+01 -0.36587796956E+02  0.22635501791E+02  0.43400736977E+02  0.00000000000E+00 0.  1.
         11    1    3    3    0    0  0.72192515321E+01  0.31789934372E+02 -0.24042241695E+02  0.40506134178E+02  0.51100000000E-03 0. -1.
        -11    1    3    3    0    0 -0.32322623408E+01  0.42171276063E+01  0.12414688774E+01  0.54564576716E+01  0.51100000000E-03 0.  1.
         12    1    3    3    0    0  0.17218760886E+01  0.58073497775E+00  0.16527102632E+00  0.18246711734E+01  0.00000000000E+00 0. -1.
</event>
<event>
 7    1  0.2811980E-010  0.4778727E+02  0.7816164E-02  0.1312668E+00
        -11   -1    0    0    0    0  0.00000000000E+00  0.00000000000E+00  0.45593999997E+02  0.45594000000E+02  0.51100000000E-03 0.  1.
         11   -1    0    0    0    0 -0.00000000000E+00 -0.00000000000E+00 -0.45593999997E+02  0.45594000000E+02  0.51100000000E-03 0. -1.
    9900012    2    1    2    0    0  0.17960069977E+02  0.29132161078E+02 -0.26690376766E+02  0.47787272650E+02  0.20000007319E+02 0.  0.
        -12    1    1    2    0    0 -0.17960069977E+02 -0.29132161078E+02  0.26690376766E+02  0.43400727350E+02  0.00000000000E+00 0.  1.
         11    1    3    3    0    0  0.14666584308E+02  0.30198410719E+02 -0.24339811874E+02  0.41466602798E+02  0.51100000000E-03 0. -1.
        -11    1    3    3    0    0 -0.10189047481E+01 -0.96055280531E+00  0.16137674746E-01  0.14003889685E+01  0.51100000000E-03 0.  1.
        -12    1    3    3    0    0  0.43123904175E+01 -0.10569683660E+00 -0.23667025662E+01  0.49202808834E+01  0.00000000000E+00 0.  1.
</event>
<event>
 7    1  0.2811980E-010  0.4778727E+02  0.7816164E-02  0.1312668E+00
        -11   -1    0    0    0    0  0.00000000000E+00  0.00000000000E+00  0.45593999997E+02  0.45594000000E+02  0.51100000000E-03 0. -1.
         11   -1    0    0    0    0 -0.00000000000E+00 -0.00000000000E+00 -0.45593999997E+02  0.45594000000E+02  0.51100000000E-03 0.  1.
    9900012    2    1    2    0    0  0.35745858186E+02 -0.13263017926E+02  0.20735216726E+02  0.47787271497E+02  0.20000002062E+02 0.  0.
        -12    1    1    2    0    0 -0.35745858186E+02  0.13263017926E+02 -0.20735216726E+02  0.43400728503E+02  0.00000000000E+00 0.  1.
         11    1    3    3    0    0  0.13321734729E+02 -0.71551617025E+01  0.78655830896E+01  0.17045009615E+02  0.51100000000E-03 0. -1.
        -11    1    3    3    0    0  0.58266960705E+00 -0.55981542412E+01  0.49758703147E+01  0.75125308937E+01  0.51100000000E-03 0.  1.
        -12    1    3    3    0    0  0.21841453849E+02 -0.50970198205E+00  0.78937633219E+01  0.23229730987E+02  0.00000000000E+00 0.  1.
</event>
<event>
 7    1  0.2811980E-010  0.4778727E+02  0.7816164E-02  0.1312668E+00
        -11   -1    0    0    0    0  0.00000000000E+00  0.00000000000E+00  0.45593999997E+02  0.45594000000E+02  0.51100000000E-03 0.  1.
         11   -1    0    0    0    0 -0.00000000000E+00 -0.00000000000E+00 -0.45593999997E+02  0.45594000000E+02  0.51100000000E-03 0. -1.
    9900012    2    1    2    0    0 -0.27245705697E+02 -0.27835860752E+02 -0.19143138437E+02  0.47787269915E+02  0.19999994848E+02 0.  0.
        -12    1    1    2    0    0  0.27245705697E+02  0.27835860752E+02  0.19143138437E+02  0.43400730085E+02  0.00000000000E+00 0.  1.
         11    1    3    3    0    0 -0.16382604099E+02 -0.18740364066E+02 -0.12576663382E+02  0.27888410218E+02  0.51100000000E-03 0. -1.
        -11    1    3    3    0    0  0.25778398968E+01 -0.21920576771E+01  0.95715479859E-01  0.33851938065E+01  0.51100000000E-03 0.  1.
        -12    1    3    3    0    0 -0.13440941494E+02 -0.69034390097E+01 -0.66621905344E+01  0.16513665890E+02  0.00000000000E+00 0.  1.
</event>
<event>
 7    1  0.2811980E-010  0.4778727E+02  0.7816164E-02  0.1312668E+00
        -11   -1    0    0    0    0  0.00000000000E+00  0.00000000000E+00  0.45593999997E+02  0.45594000000E+02  0.51100000000E-03 0.  1.
         11   -1    0    0    0    0 -0.00000000000E+00 -0.00000000000E+00 -0.45593999997E+02  0.45594000000E+02  0.51100000000E-03 0. -1.
    9900012    2    1    2    0    0  0.26635769023E+02  0.29262059240E+02 -0.17829490462E+02  0.47787273825E+02  0.20000012676E+02 0.  0.
        -12    1    1    2    0    0 -0.26635769023E+02 -0.29262059240E+02  0.17829490462E+02  0.43400726175E+02  0.00000000000E+00 0.  1.
         11    1    3    3    0    0  0.23320949597E+02  0.28738294736E+02 -0.15403231092E+02  0.40087601609E+02  0.51100000000E-03 0. -1.
        -11    1    3    3    0    0  0.21379758626E+01 -0.24823433774E+01  0.53432566741E+00  0.33194086239E+01  0.51100000000E-03 0.  1.
        -12    1    3    3    0    0  0.11768435639E+01  0.30061078815E+01 -0.29605850378E+01  0.43802635919E+01  0.00000000000E+00 0.  1.
</event>
<event>
 7    1  0.2811980E-010  0.4778727E+02  0.7816164E-02  0.1312668E+00
        -11   -1    0    0    0    0  0.00000000000E+00  0.00000000000E+00  0.45593999997E+02  0.45594000000E+02  0.51100000000E-03 0.  1.
         11   -1    0    0    0    0 -0.00000000000E+00 -0.00000000000E+00 -0.45593999997E+02  0.45594000000E+02  0.51100000000E-03 0. -1.
    9900012    2    1    2    0    0 -0.30322361318E+02 -0.37830250903E+00 -0.31048902006E+02  0.47787273917E+02  0.20000013099E+02 0.  0.
        -12    1    1    2    0    0  0.30322361318E+02  0.37830250903E+00  0.31048902006E+02  0.43400726083E+02  0.00000000000E+00 0.  1.
         11    1    3    3    0    0 -0.17287101233E+02 -0.31336653684E+01 -0.79114702135E+01  0.19267980924E+02  0.51100000000E-03 0. -1.
        -11    1    3    3    0    0 -0.85318642126E+01  0.65267156552E+01 -0.16067507195E+02  0.19327584224E+02  0.51100000000E-03 0.  1.
        -12    1    3    3    0    0 -0.45033958724E+01 -0.37713527958E+01 -0.70699245972E+01  0.91917087695E+01  0.00000000000E+00 0.  1.
</event>
<event>
 7    1  0.2811980E-010  0.4778727E+02  0.7816164E-02  0.1312668E+00
        -11   -1    0    0    0    0  0.00000000000E+00  0.00000000000E+00  0.45593999997E+02  0.45594000000E+02  0.51100000000E-03 0.  1.
         11   -1    0    0    0    0 -0.00000000000E+00 -0.00000000000E+00 -0.45593999997E+02  0.45594000000E+02  0.51100000000E-03 0. -1.
    9900012    2    1    2    0    0 -0.54437832805E+01  0.37519803574E+02 -0.21124703422E+02  0.47787268079E+02  0.19999986479E+02 0.  0.
        -12    1    1    2    0    0  0.54437832805E+01 -0.37519803574E+02  0.21124703422E+02  0.43400731921E+02  0.00000000000E+00 0.  1.
         11    1    3    3    0    0 -0.11004193120E+01  0.21866502703E+02 -0.16939610480E+02  0.27682219322E+02  0.51100000000E-03 0. -1.
        -11    1    3    3    0    0 -0.11794004534E+01  0.14377183659E+02  0.35033364229E+00  0.14429730743E+02  0.51100000000E-03 0.  1.
        -12    1    3    3    0    0 -0.31639635151E+01  0.12761172126E+01 -0.45354265842E+01  0.56753180145E+01  0.00000000000E+00 0.  1.
</event>
<event>
 7    1  0.2811980E-010  0.4778727E+02  0.7816164E-02  0.1312668E+00
        -11   -1    0    0    0    0  0.00000000000E+00  0.00000000000E+00  0.45593999997E+02  0.45594000000E+02  0.51100000000E-03 0.  1.
         11   -1    0    0    0    0 -0.00000000000E+00 -0.00000000000E+00 -0.45593999997E+02  0.45594000000E+02  0.51100000000E-03 0. -1.
    9900012    2    1    2    0    0  0.72267452122E+01 -0.30057608057E+02 -0.30462068888E+02  0.47787270866E+02  0.19999999186E+02 0.  0.
        -12    1    1    2    0    0 -0.72267452122E+01  0.30057608057E+02  0.30462068888E+02  0.43400729134E+02  0.00000000000E+00 0.  1.
         11    1    3    3    0    0  0.36746266435E+01 -0.24874764437E+02 -0.26144825426E+02  0.36274077295E+02  0.51100000000E-03 0. -1.
        -11    1    3    3    0    0 -0.14074130503E+01  0.13826050112E+01 -0.23212921431E+01  0.30464414628E+01  0.51100000000E-03 0.  1.
         12    1    3    3    0    0  0.49595316191E+01 -0.65654486303E+01 -0.19959513188E+01  0.84667521084E+01  0.00000000000E+00 0. -1.
</event>
<event>
 7    1  0.2811980E-010  0.4778727E+02  0.7816164E-02  0.1312668E+00
        -11   -1    0    0    0    0  0.00000000000E+00  0.00000000000E+00  0.45593999997E+02  0.45594000000E+02  0.51100000000E-03 0. -1.
         11   -1    0    0    0    0 -0.00000000000E+00 -0.00000000000E+00 -0.45593999997E+02  0.45594000000E+02  0.51100000000E-03 0.  1.
    9900012    2    1    2    0    0  0.24458330596E+02 -0.35347600648E+02 -0.59966809423E+01  0.47787274321E+02  0.20000014941E+02 0.  0.
        -12    1    1    2    0    0 -0.24458330596E+02  0.35347600648E+02  0.59966809423E+01  0.43400725679E+02  0.00000000000E+00 0.  1.
         11    1    3    3    0    0  0.15582980820E+02 -0.11804818973E+02  0.19099010233E+01  0.19642575300E+02  0.51100000000E-03 0. -1.
        -11    1    3    3    0    0  0.74567071060E+01 -0.14279236013E+02 -0.94059359982E+01  0.18653972613E+02  0.51100000000E-03 0.  1.
         12    1    3    3    0    0  0.14186426699E+01 -0.92635456617E+01  0.14993540325E+01  0.94907264088E+01  0.00000000000E+00 0. -1.
</event>
<event>
 7    1  0.2811980E-010  0.4778725E+02  0.7816164E-02  0.1312668E+00
        -11   -1    0    0    0    0  0.00000000000E+00  0.00000000000E+00  0.45593999997E+02  0.45594000000E+02  0.51100000000E-03 0.  1.
         11   -1    0    0    0    0 -0.00000000000E+00 -0.00000000000E+00 -0.45593999997E+02  0.45594000000E+02  0.51100000000E-03 0. -1.
    9900012    2    1    2    0    0  0.51890054635E+01  0.40891756557E+02 -0.13585431630E+02  0.47787245576E+02  0.19999883877E+02 0.  0.
        -12    1    1    2    0    0 -0.51890054635E+01 -0.40891756557E+02  0.13585431630E+02  0.43400754424E+02  0.00000000000E+00 0.  1.
         11    1    3    3    0    0  0.76073578213E+00  0.24071839669E+02 -0.76244877090E+00  0.24095923148E+02  0.51100000000E-03 0. -1.
        -11    1    3    3    0    0  0.82053207200E+00  0.72039965510E+00 -0.55573047426E+01  0.56635576105E+01  0.51100000000E-03 0.  1.
        -12    1    3    3    0    0  0.36077376094E+01  0.16099517233E+02 -0.72656781169E+01  0.18027764817E+02  0.00000000000E+00 0.  1.
</event>
<event>
 7    1  0.2811980E-010  0.4778727E+02  0.7816164E-02  0.1312668E+00
        -11   -1    0    0    0    0  0.00000000000E+00  0.00000000000E+00  0.45593999997E+02  0.45594000000E+02  0.51100000000E-03 0.  1.
         11   -1    0    0    0    0 -0.00000000000E+00 -0.00000000000E+00 -0.45593999997E+02  0.45594000000E+02  0.51100000000E-03 0. -1.
    9900012    2    1    2    0    0 -0.38863136124E+02 -0.18454881814E+02 -0.57181779028E+01  0.47787267625E+02  0.19999984409E+02 0.  0.
        -12    1    1    2    0    0  0.38863136124E+02  0.18454881814E+02  0.57181779028E+01  0.43400732375E+02  0.00000000000E+00 0.  1.
         11    1    3    3    0    0 -0.32686963169E+02 -0.19795689107E+02 -0.44456363703E-01  0.38213987557E+02  0.51100000000E-03 0. -1.
        -11    1    3    3    0    0 -0.14165141213E+01  0.23555490815E+01 -0.13450800048E+01  0.30601248686E+01  0.51100000000E-03 0.  1.
        -12    1    3    3    0    0 -0.47596588340E+01 -0.10147417887E+01 -0.43286415343E+01  0.65131551990E+01  0.00000000000E+00 0.  1.
</event>
<event>
 7    1  0.2811980E-010  0.4778727E+02  0.7816164E-02  0.1312668E+00
        -11   -1    0    0    0    0  0.00000000000E+00  0.00000000000E+00  0.45593999997E+02  0.45594000000E+02  0.51100000000E-03 0.  1.
         11   -1    0    0    0    0 -0.00000000000E+00 -0.00000000000E+00 -0.45593999997E+02  0.45594000000E+02  0.51100000000E-03 0. -1.
    9900012    2    1    2    0    0 -0.30588709365E+02  0.76886261480E+01 -0.29813400658E+02  0.47787274529E+02  0.20000015886E+02 0.  0.
        -12    1    1    2    0    0  0.30588709365E+02 -0.76886261480E+01  0.29813400658E+02  0.43400725471E+02  0.00000000000E+00 0.  1.
         11    1    3    3    0    0 -0.17756707104E+02 -0.35247665933E+01 -0.18289273067E+02  0.25733677085E+02  0.51100000000E-03 0. -1.
        -11    1    3    3    0    0 -0.22722702853E+01 -0.11475821054E+01 -0.15351730701E+01  0.29726946622E+01  0.51100000000E-03 0.  1.
         12    1    3    3    0    0 -0.10559731975E+02  0.12360974847E+02 -0.99889545209E+01  0.19080902782E+02  0.00000000000E+00 0. -1.
</event>
<event>
 7    1  0.2811980E-010  0.4778727E+02  0.7816164E-02  0.1312668E+00
        -11   -1    0    0    0    0  0.00000000000E+00  0.00000000000E+00  0.45593999997E+02  0.45594000000E+02  0.51100000000E-03 0. -1.
         11   -1    0    0    0    0 -0.00000000000E+00 -0.00000000000E+00 -0.45593999997E+02  0.45594000000E+02  0.51100000000E-03 0.  1.
    9900012    2    1    2    0    0 -0.36322317338E+02  0.11425806198E+02  0.20826989275E+02  0.47787271131E+02  0.20000000396E+02 0.  0.
        -12    1    1    2    0    0  0.36322317338E+02 -0.11425806198E+02 -0.20826989275E+02  0.43400728869E+02  0.00000000000E+00 0.  1.
         11    1    3    3    0    0 -0.15180228348E+02 -0.22177062896E+01  0.13368991209E+02  0.20349139541E+02  0.51100000000E-03 0. -1.
        -11    1    3    3    0    0 -0.12357720700E+02  0.90471359704E+01  0.84198659516E+01  0.17477358870E+02  0.51100000000E-03 0.  1.
         12    1    3    3    0    0 -0.87843682898E+01  0.45963765175E+01 -0.96186788543E+00  0.99607727195E+01  0.00000000000E+00 0. -1.
</event>
<event>
 7    1  0.2811980E-010  0.4778727E+02  0.7816164E-02  0.1312668E+00
        -11   -1    0    0    0    0  0.00000000000E+00  0.00000000000E+00  0.45593999997E+02  0.45594000000E+02  0.51100000000E-03 0. -1.
         11   -1    0    0    0    0 -0.00000000000E+00 -0.00000000000E+00 -0.45593999997E+02  0.45594000000E+02  0.51100000000E-03 0.  1.
    9900012    2    1    2    0    0  0.33135939152E+01  0.29103951957E+02  0.32025038879E+02  0.47787273746E+02  0.20000012318E+02 0.  0.
        -12    1    1    2    0    0 -0.33135939152E+01 -0.29103951957E+02 -0.32025038879E+02  0.43400726254E+02  0.00000000000E+00 0.  1.
         11    1    3    3    0    0  0.65700802137E+01  0.19340243006E+02  0.14466402570E+02  0.25029737456E+02  0.51100000000E-03 0. -1.
        -11    1    3    3    0    0 -0.21565039964E+00  0.19528443476E+01  0.13132725371E+02  0.13278877289E+02  0.51100000000E-03 0.  1.
        -12    1    3    3    0    0 -0.30408358989E+01  0.78108646029E+01  0.44259109391E+01  0.94786590006E+01  0.00000000000E+00 0.  1.
</event>
<event>
 7    1  0.2811980E-010  0.4778726E+02  0.7816164E-02  0.1312668E+00
        -11   -1    0    0    0    0  0.00000000000E+00  0.00000000000E+00  0.45593999997E+02  0.45594000000E+02  0.51100000000E-03 0. -1.
         11   -1    0    0    0    0 -0.00000000000E+00 -0.00000000000E+00 -0.45593999997E+02  0.45594000000E+02  0.51100000000E-03 0.  1.
    9900012    2    1    2    0    0 -0.20301326027E+02 -0.11457107067E+02  0.36608943233E+02  0.47787264229E+02  0.19999968926E+02 0.  0.
        -12    1    1    2    0    0  0.20301326027E+02  0.11457107067E+02 -0.36608943233E+02  0.43400735771E+02  0.00000000000E+00 0.  1.
         11    1    3    3    0    0 -0.12295488233E+02 -0.27303875709E+01  0.12857502684E+02  0.17998595020E+02  0.51100000000E-03 0. -1.
        -11    1    3    3    0    0  0.18196935830E+01  0.24383622523E+01  0.50298663204E+01  0.58784734984E+01  0.51100000000E-03 0.  1.
        -12    1    3    3    0    0 -0.98255313770E+01 -0.11165081749E+02  0.18721574229E+02  0.23910195710E+02  0.00000000000E+00 0.  1.
</event>
<event>
 7    1  0.2811980E-010  0.4778728E+02  0.7816164E-02  0.1312668E+00
        -11   -1    0    0    0    0  0.00000000000E+00  0.00000000000E+00  0.45593999997E+02  0.45594000000E+02  0.51100000000E-03 0. -1.
         11   -1    0    0    0    0 -0.00000000000E+00 -0.00000000000E+00 -0.45593999997E+02  0.45594000000E+02  0.51100000000E-03 0.  1.
    9900012    2    1    2    0    0  0.16323320499E+02 -0.29319187444E+02  0.27523760166E+02  0.47787275142E+02  0.20000018684E+02 0.  0.
        -12    1    1    2    0    0 -0.16323320499E+02  0.29319187444E+02 -0.27523760166E+02  0.43400724858E+02  0.00000000000E+00 0.  1.
         11    1    3    3    0    0  0.13438279012E+02 -0.98358815270E+01  0.86706777712E+01  0.18775317880E+02  0.51100000000E-03 0. -1.
        -11    1    3    3    0    0  0.18769371639E+01 -0.34395000798E+01 -0.39009803742E+00  0.39376681749E+01  0.51100000000E-03 0.  1.
         12    1    3    3    0    0  0.10081043226E+01 -0.16043805837E+02  0.19243180433E+02  0.25074289087E+02  0.00000000000E+00 0. -1.
</event>
<event>
 7    1  0.2811980E-010  0.4778727E+02  0.7816164E-02  0.1312668E+00
        -11   -1    0    0    0    0  0.00000000000E+00  0.00000000000E+00  0.45593999997E+02  0.45594000000E+02  0.51100000000E-03 0.  1.
         11   -1    0    0    0    0 -0.00000000000E+00 -0.00000000000E+00 -0.45593999997E+02  0.45594000000E+02  0.51100000000E-03 0. -1.
    9900012    2    1    2    0    0 -0.50954254194E+01  0.62501520349E+01 -0.42644990223E+02  0.47787274755E+02  0.20000016919E+02 0.  0.
        -12    1    1    2    0    0  0.50954254194E+01 -0.62501520349E+01  0.42644990223E+02  0.43400725245E+02  0.00000000000E+00 0.  1.
         11    1    3    3    0    0 -0.55002379211E+01 -0.64179831688E+01 -0.12989675485E+02  0.15497573830E+02  0.51100000000E-03 0. -1.
        -11    1    3    3    0    0 -0.41067429209E+00  0.66427695572E+01 -0.14238453437E+02  0.15717143420E+02  0.51100000000E-03 0.  1.
         12    1    3    3    0    0  0.81548679375E+00  0.60253656465E+01 -0.15416861301E+02  0.16572557505E+02  0.00000000000E+00 0. -1.
</event>
<event>
 7    1  0.2811980E-010  0.4778727E+02  0.7816164E-02  0.1312668E+00
        -11   -1    0    0    0    0  0.00000000000E+00  0.00000000000E+00  0.45593999997E+02  0.45594000000E+02  0.51100000000E-03 0.  1.
         11   -1    0    0    0    0 -0.00000000000E+00 -0.00000000000E+00 -0.45593999997E+02  0.45594000000E+02  0.51100000000E-03 0. -1.
    9900012    2    1    2    0    0 -0.61009944077E+01  0.86433382481E+01 -0.42091498849E+02  0.47787266087E+02  0.19999977397E+02 0.  0.
        -12    1    1    2    0    0  0.61009944077E+01 -0.86433382481E+01  0.42091498849E+02  0.43400733913E+02  0.00000000000E+00 0.  1.
         11    1    3    3    0    0 -0.12677155440E+02  0.50121910495E+01 -0.33777896360E+02  0.36424972367E+02  0.51100000000E-03 0. -1.
        -11    1    3    3    0    0  0.51130319405E+01  0.22013355791E+01 -0.69462584044E+01  0.89016560279E+01  0.51100000000E-03 0.  1.
         12    1    3    3    0    0  0.14631290919E+01  0.14298116194E+01 -0.13673440851E+01  0.24606376924E+01  0.00000000000E+00 0. -1.
</event>
<event>
 7    1  0.2811980E-010  0.4778725E+02  0.7816164E-02  0.1312668E+00
        -11   -1    0    0    0    0  0.00000000000E+00  0.00000000000E+00  0.45593999997E+02  0.45594000000E+02  0.51100000000E-03 0. -1.
         11   -1    0    0    0    0 -0.00000000000E+00 -0.00000000000E+00 -0.45593999997E+02  0.45594000000E+02  0.51100000000E-03 0.  1.
    9900012    2    1    2    0    0  0.18957940449E+02  0.54898166451E+01  0.38653372099E+02  0.47787253837E+02  0.19999921545E+02 0.  0.
        -12    1    1    2    0    0 -0.18957940449E+02 -0.54898166451E+01 -0.38653372099E+02  0.43400746163E+02  0.00000000000E+00 0.  1.
         11    1    3    3    0    0  0.14222999423E+02  0.72819601010E+01  0.27932053602E+02  0.32179500838E+02  0.51100000000E-03 0. -1.
        -11    1    3    3    0    0 -0.29455018881E+01 -0.94141634511E+00  0.11333225511E+01  0.32934277545E+01  0.51100000000E-03 0.  1.
        -12    1    3    3    0    0  0.76804429135E+01 -0.85072711079E+00  0.95879959464E+01  0.12314325245E+02  0.00000000000E+00 0.  1.
</event>
<event>
 7    1  0.2811980E-010  0.4778727E+02  0.7816164E-02  0.1312668E+00
        -11   -1    0    0    0    0  0.00000000000E+00  0.00000000000E+00  0.45593999997E+02  0.45594000000E+02  0.51100000000E-03 0.  1.
         11   -1    0    0    0    0 -0.00000000000E+00 -0.00000000000E+00 -0.45593999997E+02  0.45594000000E+02  0.51100000000E-03 0. -1.
    9900012    2    1    2    0    0  0.22980339353E+02 -0.33512779764E+02 -0.15245360808E+02  0.47787269241E+02  0.19999991776E+02 0.  0.
        -12    1    1    2    0    0 -0.22980339353E+02  0.33512779764E+02  0.15245360808E+02  0.43400730759E+02  0.00000000000E+00 0.  1.
         11    1    3    3    0    0  0.14040843578E+02 -0.30694578071E+02 -0.11240405436E+02  0.35575962755E+02  0.51100000000E-03 0. -1.
        -11    1    3    3    0    0  0.92596823445E+01 -0.58720248143E+00 -0.30982605584E+01  0.97819089458E+01  0.51100000000E-03 0.  1.
        -12    1    3    3    0    0 -0.32018656917E+00 -0.22309992115E+01 -0.90669481378E+00  0.24293975397E+01  0.00000000000E+00 0.  1.
</event>
<event>
 7    1  0.2811980E-010  0.4778727E+02  0.7816164E-02  0.1312668E+00
        -11   -1    0    0    0    0  0.00000000000E+00  0.00000000000E+00  0.45593999997E+02  0.45594000000E+02  0.51100000000E-03 0. -1.
         11   -1    0    0    0    0 -0.00000000000E+00 -0.00000000000E+00 -0.45593999997E+02  0.45594000000E+02  0.51100000000E-03 0.  1.
    9900012    2    1    2    0    0 -0.12726350648E+02 -0.22140529423E+02  0.35092164255E+02  0.47787273784E+02  0.20000012492E+02 0.  0.
        -12    1    1    2    0    0  0.12726350648E+02  0.22140529423E+02 -0.35092164255E+02  0.43400726216E+02  0.00000000000E+00 0.  1.
         11    1    3    3    0    0 -0.84027477921E+00 -0.11901559262E+02  0.15957772712E+02  0.19924951312E+02  0.51100000000E-03 0. -1.
        -11    1    3    3    0    0 -0.10633380574E+02 -0.20518939333E+01  0.61291203939E+01  0.12443679850E+02  0.51100000000E-03 0.  1.
        -12    1    3    3    0    0 -0.12526952942E+01 -0.81870762273E+01  0.13005271149E+02  0.15418642622E+02  0.00000000000E+00 0.  1.
</event>
<event>
 7    1  0.2811980E-010  0.4778728E+02  0.7816164E-02  0.1312668E+00
        -11   -1    0    0    0    0  0.00000000000E+00  0.00000000000E+00  0.45593999997E+02  0.45594000000E+02  0.51100000000E-03 0.  1.
         11   -1    0    0    0    0 -0.00000000000E+00 -0.00000000000E+00 -0.45593999997E+02  0.45594000000E+02  0.51100000000E-03 0. -1.
    9900012    2    1    2    0    0 -0.31311378112E+02 -0.22716392756E+02 -0.19677042716E+02  0.47787275246E+02  0.20000019158E+02 0.  0.
        -12    1    1    2    0    0  0.31311378112E+02  0.22716392756E+02  0.19677042716E+02  0.43400724754E+02  0.00000000000E+00 0.  1.
         11    1    3    3    0    0 -0.56251129859E+01 -0.10162731792E+02  0.39640439347E+00  0.11622398646E+02  0.51100000000E-03 0. -1.
        -11    1    3    3    0    0 -0.29655531684E+01  0.12351054113E+01 -0.73247979616E+00  0.32949230468E+01  0.51100000000E-03 0.  1.
         12    1    3    3    0    0 -0.22720711957E+02 -0.13788766375E+02 -0.19340967313E+02  0.32869953553E+02  0.00000000000E+00 0. -1.
</event>
<event>
 7    1  0.2811980E-010  0.4778727E+02  0.7816164E-02  0.1312668E+00
        -11   -1    0    0    0    0  0.00000000000E+00  0.00000000000E+00  0.45593999997E+02  0.45594000000E+02  0.51100000000E-03 0.  1.
         11   -1    0    0    0    0 -0.00000000000E+00 -0.00000000000E+00 -0.45593999997E+02  0.45594000000E+02  0.51100000000E-03 0. -1.
    9900012    2    1    2    0    0 -0.38939669503E+02 -0.93070118001E+01 -0.16754254421E+02  0.47787269927E+02  0.19999994905E+02 0.  0.
        -12    1    1    2    0    0  0.38939669503E+02  0.93070118001E+01  0.16754254421E+02  0.43400730073E+02  0.00000000000E+00 0.  1.
         11    1    3    3    0    0 -0.17183822919E+02 -0.12839584587E+02 -0.81142413362E+01  0.22934245468E+02  0.51100000000E-03 0. -1.
        -11    1    3    3    0    0 -0.18117415343E+02  0.46256058539E+01 -0.94766646901E+01  0.20962923034E+02  0.51100000000E-03 0.  1.
         12    1    3    3    0    0 -0.36384312411E+01 -0.10930330667E+01  0.83665160565E+00  0.38901014242E+01  0.00000000000E+00 0. -1.
</event>
<event>
 7    1  0.2811980E-010  0.4778727E+02  0.7816164E-02  0.1312668E+00
        -11   -1    0    0    0    0  0.00000000000E+00  0.00000000000E+00  0.45593999997E+02  0.45594000000E+02  0.51100000000E-03 0.  1.
         11   -1    0    0    0    0 -0.00000000000E+00 -0.00000000000E+00 -0.45593999997E+02  0.45594000000E+02  0.51100000000E-03 0. -1.
    9900012    2    1    2    0    0 -0.21082551782E+02  0.34801327476E+02  0.15100227746E+02  0.47787271184E+02  0.20000000638E+02 0.  0.
        -12    1    1    2    0    0  0.21082551782E+02 -0.34801327476E+02 -0.15100227746E+02  0.43400728816E+02  0.00000000000E+00 0.  1.
         11    1    3    3    0    0 -0.19143798413E+02  0.29059438960E+02  0.12230962125E+02  0.36885396095E+02  0.51100000000E-03 0. -1.
        -11    1    3    3    0    0 -0.25795963346E+01 -0.11312692615E+01 -0.99934667509E+00  0.29887759082E+01  0.51100000000E-03 0.  1.
         12    1    3    3    0    0  0.64084296618E+00  0.68731577780E+01  0.38686122963E+01  0.79130991810E+01  0.00000000000E+00 0. -1.
</event>
<event>
 7    1  0.2811980E-010  0.4778728E+02  0.7816164E-02  0.1312668E+00
        -11   -1    0    0    0    0  0.00000000000E+00  0.00000000000E+00  0.45593999997E+02  0.45594000000E+02  0.51100000000E-03 0.  1.
         11   -1    0    0    0    0 -0.00000000000E+00 -0.00000000000E+00 -0.45593999997E+02  0.45594000000E+02  0.51100000000E-03 0. -1.
    9900012    2    1    2    0    0 -0.36438016270E+02 -0.99722378582E+01 -0.21364649293E+02  0.47787276539E+02  0.20000025050E+02 0.  0.
        -12    1    1    2    0    0  0.36438016270E+02  0.99722378582E+01  0.21364649293E+02  0.43400723461E+02  0.00000000000E+00 0.  1.
         11    1    3    3    0    0 -0.49248793584E+01  0.39435318192E+01 -0.13045175427E+01  0.64426427950E+01  0.51100000000E-03 0. -1.
        -11    1    3    3    0    0 -0.28620283435E+02 -0.15428582320E+02 -0.19803095831E+02  0.38069993184E+02  0.51100000000E-03 0.  1.
        -12    1    3    3    0    0 -0.28928534764E+01  0.15128126427E+01 -0.25703591917E+00  0.32746405592E+01  0.00000000000E+00 0.  1.
</event>
<event>
 7    1  0.2811980E-010  0.4778724E+02  0.7816164E-02  0.1312668E+00
        -11   -1    0    0    0    0  0.00000000000E+00  0.00000000000E+00  0.45593999997E+02  0.45594000000E+02  0.51100000000E-03 0. -1.
         11   -1    0    0    0    0 -0.00000000000E+00 -0.00000000000E+00 -0.45593999997E+02  0.45594000000E+02  0.51100000000E-03 0.  1.
    9900012    2    1    2    0    0 -0.13406716612E+02 -0.38742108604E+02  0.14245533970E+02  0.47787236557E+02  0.19999842756E+02 0.  0.
        -12    1    1    2    0    0  0.13406716612E+02  0.38742108604E+02 -0.14245533970E+02  0.43400763443E+02  0.00000000000E+00 0.  1.
         11    1    3    3    0    0 -0.11160181181E+02 -0.12160187694E+02 -0.32254311391E-01  0.16505176441E+02  0.51100000000E-03 0. -1.
        -11    1    3    3    0    0 -0.17279823595E+01 -0.87098986458E+00  0.20083283052E+01  0.27888939065E+01  0.51100000000E-03 0.  1.
         12    1    3    3    0    0 -0.51855307071E+00 -0.25710931045E+02  0.12269459976E+02  0.28493166209E+02  0.00000000000E+00 0. -1.
</event>
<event>
 7    1  0.3303323E-010  0.4778729E+02  0.7816164E-02  0.1312668E+00
        -11   -1    0    0    0    0  0.00000000000E+00  0.00000000000E+00  0.45593999997E+02  0.45594000000E+02  0.51100000000E-03 0.  1.
         11   -1    0    0    0    0 -0.00000000000E+00 -0.00000000000E+00 -0.45593999997E+02  0.45594000000E+02  0.51100000000E-03 0. -1.
    9900012    2    1    2    0    0  0.35323364578E+02 -0.25216009673E+02 -0.18608884179E+00  0.47787287356E+02  0.20000074372E+02 0.  0.
        -12    1    1    2    0    0 -0.35323364578E+02  0.25216009673E+02  0.18608884179E+00  0.43400712644E+02  0.00000000000E+00 0.  1.
         11    1    3    3    0    0  0.21944029144E+02 -0.89922682089E+01 -0.14352568499E+01  0.23758393571E+02  0.51100000000E-03 0. -1.
        -11    1    3    3    0    0 -0.17088045631E+01 -0.14896496305E+01  0.18580577588E+01  0.29311171851E+01  0.51100000000E-03 0.  1.
        -12    1    3    3    0    0  0.15088139997E+02 -0.14734091833E+02 -0.60888975074E+00  0.21097776600E+02  0.00000000000E+00 0.  1.
</event>
<event>
 7    1  0.2811980E-010  0.4778727E+02  0.7816164E-02  0.1312668E+00
        -11   -1    0    0    0    0  0.00000000000E+00  0.00000000000E+00  0.45593999997E+02  0.45594000000E+02  0.51100000000E-03 0.  1.
         11   -1    0    0    0    0 -0.00000000000E+00 -0.00000000000E+00 -0.45593999997E+02  0.45594000000E+02  0.51100000000E-03 0. -1.
    9900012    2    1    2    0    0 -0.20358422529E+02  0.15098760268E+02 -0.35230460034E+02  0.47787271392E+02  0.20000001584E+02 0.  0.
        -12    1    1    2    0    0  0.20358422529E+02 -0.15098760268E+02  0.35230460034E+02  0.43400728608E+02  0.00000000000E+00 0.  1.
         11    1    3    3    0    0 -0.44456622480E+01  0.37843222113E+01 -0.39483267748E+01  0.70479991489E+01  0.51100000000E-03 0. -1.
        -11    1    3    3    0    0 -0.81642873778E+01  0.45042133738E+01 -0.17894708973E+01  0.94945106697E+01  0.51100000000E-03 0.  1.
        -12    1    3    3    0    0 -0.77484729034E+01  0.68102246833E+01 -0.29492662362E+02  0.31244761573E+02  0.00000000000E+00 0.  1.
</event>
<event>
 7    1  0.2811980E-010  0.4778727E+02  0.7816164E-02  0.1312668E+00
        -11   -1    0    0    0    0  0.00000000000E+00  0.00000000000E+00  0.45593999997E+02  0.45594000000E+02  0.51100000000E-03 0.  1.
         11   -1    0    0    0    0 -0.00000000000E+00 -0.00000000000E+00 -0.45593999997E+02  0.45594000000E+02  0.51100000000E-03 0. -1.
    9900012    2    1    2    0    0  0.56715121630E-01  0.14725496913E+02 -0.40826216827E+02  0.47787268942E+02  0.19999990414E+02 0.  0.
        -12    1    1    2    0    0 -0.56715121630E-01 -0.14725496913E+02  0.40826216827E+02  0.43400731058E+02  0.00000000000E+00 0.  1.
         11    1    3    3    0    0  0.25137402860E+01  0.18466467789E+01 -0.28910966671E+02  0.29078737742E+02  0.51100000000E-03 0. -1.
        -11    1    3    3    0    0  0.65620052334E+00  0.10400762562E+02 -0.90861286554E+01  0.13826214059E+02  0.51100000000E-03 0.  1.
        -12    1    3    3    0    0 -0.31132256878E+01  0.24780875725E+01 -0.28291215006E+01  0.48823171410E+01  0.00000000000E+00 0.  1.
</event>
<event>
 7    1  0.2811980E-010  0.4778727E+02  0.7816164E-02  0.1312668E+00
        -11   -1    0    0    0    0  0.00000000000E+00  0.00000000000E+00  0.45593999997E+02  0.45594000000E+02  0.51100000000E-03 0. -1.
         11   -1    0    0    0    0 -0.00000000000E+00 -0.00000000000E+00 -0.45593999997E+02  0.45594000000E+02  0.51100000000E-03 0.  1.
    9900012    2    1    2    0    0 -0.22669166177E+02 -0.30175727679E+02  0.21427958815E+02  0.47787273565E+02  0.20000011494E+02 0.  0.
        -12    1    1    2    0    0  0.22669166177E+02  0.30175727679E+02 -0.21427958815E+02  0.43400726435E+02  0.00000000000E+00 0.  1.
         11    1    3    3    0    0 -0.69276805373E+01 -0.13084670231E+02  0.18522619251E+02  0.23712629058E+02  0.51100000000E-03 0. -1.
        -11    1    3    3    0    0 -0.99869754682E+01 -0.12143330645E+02  0.44281387533E+01  0.16334275963E+02  0.51100000000E-03 0.  1.
         12    1    3    3    0    0 -0.57545101712E+01 -0.49477268026E+01 -0.15227991897E+01  0.77403685439E+01  0.00000000000E+00 0. -1.
</event>
<event>
 7    1  0.2811980E-010  0.4778726E+02  0.7816164E-02  0.1312668E+00
        -11   -1    0    0    0    0  0.00000000000E+00  0.00000000000E+00  0.45593999997E+02  0.45594000000E+02  0.51100000000E-03 0.  1.
         11   -1    0    0    0    0 -0.00000000000E+00 -0.00000000000E+00 -0.45593999997E+02  0.45594000000E+02  0.51100000000E-03 0. -1.
    9900012    2    1    2    0    0 -0.24466534976E+02  0.26453001703E+02 -0.24191969205E+02  0.47787262601E+02  0.19999961502E+02 0.  0.
        -12    1    1    2    0    0  0.24466534976E+02 -0.26453001703E+02  0.24191969205E+02  0.43400737399E+02  0.00000000000E+00 0.  1.
         11    1    3    3    0    0 -0.10154268407E+02  0.54221332050E+01 -0.17179381849E+02  0.20679454934E+02  0.51100000000E-03 0. -1.
        -11    1    3    3    0    0 -0.97728046447E+01  0.88619200733E+01 -0.32822518198E+01  0.13594650245E+02  0.51100000000E-03 0.  1.
         12    1    3    3    0    0 -0.45394619235E+01  0.12168948424E+02 -0.37303355361E+01  0.13513157422E+02  0.00000000000E+00 0. -1.
</event>
<event>
 7    1  0.2811980E-010  0.4778727E+02  0.7816164E-02  0.1312668E+00
        -11   -1    0    0    0    0  0.00000000000E+00  0.00000000000E+00  0.45593999997E+02  0.45594000000E+02  0.51100000000E-03 0. -1.
         11   -1    0    0    0    0 -0.00000000000E+00 -0.00000000000E+00 -0.45593999997E+02  0.45594000000E+02  0.51100000000E-03 0.  1.
    9900012    2    1    2    0    0 -0.21210476750E+02 -0.13845161663E+02  0.35242734087E+02  0.47787272686E+02  0.20000007484E+02 0.  0.
        -12    1    1    2    0    0  0.21210476750E+02  0.13845161663E+02 -0.35242734087E+02  0.43400727314E+02  0.00000000000E+00 0.  1.
         11    1    3    3    0    0  0.57103282803E+00 -0.35522635918E+01  0.17127835767E+00  0.36019427609E+01  0.51100000000E-03 0. -1.
        -11    1    3    3    0    0 -0.13664565259E+02 -0.12124513173E+02  0.26948662683E+02  0.32556943715E+02  0.51100000000E-03 0.  1.
         12    1    3    3    0    0 -0.81169443196E+01  0.18316151020E+01  0.81227930465E+01  0.11628386210E+02  0.00000000000E+00 0. -1.
</event>
<event>
 7    1  0.2811980E-010  0.4778728E+02  0.7816164E-02  0.1312668E+00
        -11   -1    0    0    0    0  0.00000000000E+00  0.00000000000E+00  0.45593999997E+02  0.45594000000E+02  0.51100000000E-03 0.  1.
         11   -1    0    0    0    0 -0.00000000000E+00 -0.00000000000E+00 -0.45593999997E+02  0.45594000000E+02  0.51100000000E-03 0. -1.
    9900012    2    1    2    0    0 -0.33778732249E+02  0.22949693148E+02  0.14694616743E+02  0.47787275016E+02  0.20000018106E+02 0.  0.
        -12    1    1    2    0    0  0.33778732249E+02 -0.22949693148E+02 -0.14694616743E+02  0.43400724984E+02  0.00000000000E+00 0.  1.
         11    1    3    3    0    0 -0.16008732530E+02  0.45891540815E+01  0.17314534457E+01  0.16743290707E+02  0.51100000000E-03 0. -1.
        -11    1    3    3    0    0 -0.90401214527E+01  0.17103240831E+02  0.81058787238E+01  0.20974983026E+02  0.51100000000E-03 0.  1.
        -12    1    3    3    0    0 -0.87298782665E+01  0.12572982357E+01  0.48572845732E+01  0.10069001282E+02  0.00000000000E+00 0.  1.
</event>
<event>
 7    1  0.2811980E-010  0.4778728E+02  0.7816164E-02  0.1312668E+00
        -11   -1    0    0    0    0  0.00000000000E+00  0.00000000000E+00  0.45593999997E+02  0.45594000000E+02  0.51100000000E-03 0.  1.
         11   -1    0    0    0    0 -0.00000000000E+00 -0.00000000000E+00 -0.45593999997E+02  0.45594000000E+02  0.51100000000E-03 0. -1.
    9900012    2    1    2    0    0 -0.33288368712E+02 -0.16923345729E+02 -0.22115781761E+02  0.47787275063E+02  0.20000018322E+02 0.  0.
        -12    1    1    2    0    0  0.33288368712E+02  0.16923345729E+02  0.22115781761E+02  0.43400724937E+02  0.00000000000E+00 0.  1.
         11    1    3    3    0    0 -0.44545156057E+01  0.26101542964E+01 -0.76052120216E+01  0.91921088379E+01  0.51100000000E-03 0. -1.
        -11    1    3    3    0    0 -0.21948934939E+02 -0.13941934750E+02 -0.68858798921E+01  0.26898859301E+02  0.51100000000E-03 0.  1.
        -12    1    3    3    0    0 -0.68849181665E+01 -0.55915652759E+01 -0.76246898477E+01  0.11696306924E+02  0.00000000000E+00 0.  1.
</event>
<event>
 7    1  0.2811980E-010  0.4778727E+02  0.7816164E-02  0.1312668E+00
        -11   -1    0    0    0    0  0.00000000000E+00  0.00000000000E+00  0.45593999997E+02  0.45594000000E+02  0.51100000000E-03 0. -1.
         11   -1    0    0    0    0 -0.00000000000E+00 -0.00000000000E+00 -0.45593999997E+02  0.45594000000E+02  0.51100000000E-03 0.  1.
    9900012    2    1    2    0    0 -0.10589631285E+02  0.17437340312E+02  0.38306947501E+02  0.47787270113E+02  0.19999995752E+02 0.  0.
        -12    1    1    2    0    0  0.10589631285E+02 -0.17437340312E+02 -0.38306947501E+02  0.43400729887E+02  0.00000000000E+00 0.  1.
         11    1    3    3    0    0 -0.41310500131E+01  0.19523953931E+02  0.23546276274E+02  0.30865473882E+02  0.51100000000E-03 0.  1.
        -11    1    3    3    0    0 -0.24515052853E+01 -0.32765688932E+01  0.75080714351E+01  0.85508431638E+01  0.51100000000E-03 0. -1.
        -12    1    3    3    0    0 -0.40070759866E+01  0.11899552745E+01  0.72525997915E+01  0.83709530672E+01  0.00000000000E+00 0.  1.
</event>
<event>
 7    1  0.2811980E-010  0.4778727E+02  0.7816164E-02  0.1312668E+00
        -11   -1    0    0    0    0  0.00000000000E+00  0.00000000000E+00  0.45593999997E+02  0.45594000000E+02  0.51100000000E-03 0.  1.
         11   -1    0    0    0    0 -0.00000000000E+00 -0.00000000000E+00 -0.45593999997E+02  0.45594000000E+02  0.51100000000E-03 0. -1.
    9900012    2    1    2    0    0 -0.63199604384E+01 -0.28815946732E+02 -0.31832724604E+02  0.47787273719E+02  0.20000012195E+02 0.  0.
        -12    1    1    2    0    0  0.63199604384E+01  0.28815946732E+02  0.31832724604E+02  0.43400726281E+02  0.00000000000E+00 0.  1.
         11    1    3    3    0    0 -0.48167993947E+01 -0.13730790577E+02 -0.25862006931E+02  0.29674560975E+02  0.51100000000E-03 0. -1.
        -11    1    3    3    0    0 -0.24385643364E+01 -0.21143685482E+01 -0.37027150421E+01  0.49119496460E+01  0.51100000000E-03 0.  1.
         12    1    3    3    0    0  0.93540329264E+00 -0.12970787606E+02 -0.22680026307E+01  0.13200763099E+02  0.00000000000E+00 0. -1.
</event>
<event>
 7    1  0.2811980E-010  0.4778728E+02  0.7816164E-02  0.1312668E+00
        -11   -1    0    0    0    0  0.00000000000E+00  0.00000000000E+00  0.45593999997E+02  0.45594000000E+02  0.51100000000E-03 0.  1.
         11   -1    0    0    0    0 -0.00000000000E+00 -0.00000000000E+00 -0.45593999997E+02  0.45594000000E+02  0.51100000000E-03 0. -1.
    9900012    2    1    2    0    0  0.19104178793E+02  0.69857300092E+01  0.38338658964E+02  0.47787276017E+02  0.20000022670E+02 0.  0.
        -12    1    1    2    0    0 -0.19104178793E+02 -0.69857300092E+01 -0.38338658964E+02  0.43400723983E+02  0.00000000000E+00 0.  1.
         11    1    3    3    0    0  0.19818790378E+02  0.11981570823E+02  0.31324651267E+02  0.38956081280E+02  0.51100000000E-03 0. -1.
        -11    1    3    3    0    0 -0.58910443602E+00 -0.45751475180E+01  0.70106657536E+01  0.83921661934E+01  0.51100000000E-03 0.  1.
         12    1    3    3    0    0 -0.12550714897E+00 -0.42069329567E+00  0.33419439923E-02  0.43902854355E+00  0.00000000000E+00 0. -1.
</event>
<event>
 7    1  0.2811980E-010  0.4778727E+02  0.7816164E-02  0.1312668E+00
        -11   -1    0    0    0    0  0.00000000000E+00  0.00000000000E+00  0.45593999997E+02  0.45594000000E+02  0.51100000000E-03 0.  1.
         11   -1    0    0    0    0 -0.00000000000E+00 -0.00000000000E+00 -0.45593999997E+02  0.45594000000E+02  0.51100000000E-03 0. -1.
    9900012    2    1    2    0    0 -0.11626766811E+02 -0.30652707900E+02 -0.28440341086E+02  0.47787271789E+02  0.20000003397E+02 0.  0.
        -12    1    1    2    0    0  0.11626766811E+02  0.30652707900E+02  0.28440341086E+02  0.43400728211E+02  0.00000000000E+00 0.  1.
         11    1    3    3    0    0 -0.92971534808E+01 -0.69310720132E+01 -0.53646281329E+01  0.12777169380E+02  0.51100000000E-03 0. -1.
        -11    1    3    3    0    0  0.18647471447E+01 -0.20207797807E+02 -0.20871702292E+02  0.29111171927E+02  0.51100000000E-03 0.  1.
        -12    1    3    3    0    0 -0.41943604749E+01 -0.35138380803E+01 -0.22040106616E+01  0.58989304830E+01  0.00000000000E+00 0.  1.
</event>
<event>
 7    1  0.2811980E-010  0.4778727E+02  0.7816164E-02  0.1312668E+00
        -11   -1    0    0    0    0  0.00000000000E+00  0.00000000000E+00  0.45593999997E+02  0.45594000000E+02  0.51100000000E-03 0.  1.
         11   -1    0    0    0    0 -0.00000000000E+00 -0.00000000000E+00 -0.45593999997E+02  0.45594000000E+02  0.51100000000E-03 0. -1.
    9900012    2    1    2    0    0 -0.28867446407E+02  0.51874215574E+01 -0.31990383518E+02  0.47787269106E+02  0.19999991163E+02 0.  0.
        -12    1    1    2    0    0  0.28867446407E+02 -0.51874215574E+01  0.31990383518E+02  0.43400730894E+02  0.00000000000E+00 0.  1.
         11    1    3    3    0    0 -0.24274165263E+02  0.82209835766E+01 -0.32060683746E+02  0.41045183794E+02  0.51100000000E-03 0. -1.
        -11    1    3    3    0    0 -0.19973610397E+01  0.62322936376E+00 -0.66974604236E+00  0.21969128306E+01  0.51100000000E-03 0.  1.
         12    1    3    3    0    0 -0.25959201049E+01 -0.36567913829E+01  0.74004627017E+00  0.45451724820E+01  0.00000000000E+00 0. -1.
</event>
<event>
 7    1  0.2811980E-010  0.4778728E+02  0.7816164E-02  0.1312668E+00
        -11   -1    0    0    0    0  0.00000000000E+00  0.00000000000E+00  0.45593999997E+02  0.45594000000E+02  0.51100000000E-03 0.  1.
         11   -1    0    0    0    0 -0.00000000000E+00 -0.00000000000E+00 -0.45593999997E+02  0.45594000000E+02  0.51100000000E-03 0. -1.
    9900012    2    1    2    0    0 -0.12888625781E+02 -0.39597392049E+02 -0.12229158715E+02  0.47787280484E+02  0.20000043040E+02 0.  0.
        -12    1    1    2    0    0  0.12888625781E+02  0.39597392049E+02  0.12229158715E+02  0.43400719516E+02  0.00000000000E+00 0.  1.
         11    1    3    3    0    0 -0.16569425723E+02 -0.25381644184E+02 -0.66023051419E+01  0.31021994838E+02  0.51100000000E-03 0. -1.
        -11    1    3    3    0    0  0.45251947357E+01 -0.81378665587E+01 -0.16593131864E+01  0.94580960048E+01  0.51100000000E-03 0.  1.
         12    1    3    3    0    0 -0.84439479367E+00 -0.60778813065E+01 -0.39675403862E+01  0.73071896417E+01  0.00000000000E+00 0. -1.
</event>
<event>
 7    1  0.2811980E-010  0.4778727E+02  0.7816164E-02  0.1312668E+00
        -11   -1    0    0    0    0  0.00000000000E+00  0.00000000000E+00  0.45593999997E+02  0.45594000000E+02  0.51100000000E-03 0.  1.
         11   -1    0    0    0    0 -0.00000000000E+00 -0.00000000000E+00 -0.45593999997E+02  0.45594000000E+02  0.51100000000E-03 0. -1.
    9900012    2    1    2    0    0 -0.19309011478E+02 -0.38710474964E+02  0.35049303029E+01  0.47787270368E+02  0.19999996916E+02 0.  0.
        -12    1    1    2    0    0  0.19309011478E+02  0.38710474964E+02 -0.35049303029E+01  0.43400729632E+02  0.00000000000E+00 0.  1.
         11    1    3    3    0    0 -0.17841127245E+02 -0.33283465738E+02  0.28124953726E+01  0.37868259049E+02  0.51100000000E-03 0. -1.
        -11    1    3    3    0    0 -0.32106709056E+01 -0.11460179206E+01 -0.25633848225E+01  0.42652909335E+01  0.51100000000E-03 0.  1.
         12    1    3    3    0    0  0.17427866724E+01 -0.42809913049E+01  0.32558197528E+01  0.56537203858E+01  0.00000000000E+00 0. -1.
</event>
<event>
 7    1  0.2811980E-010  0.4778727E+02  0.7816164E-02  0.1312668E+00
        -11   -1    0    0    0    0  0.00000000000E+00  0.00000000000E+00  0.45593999997E+02  0.45594000000E+02  0.51100000000E-03 0.  1.
         11   -1    0    0    0    0 -0.00000000000E+00 -0.00000000000E+00 -0.45593999997E+02  0.45594000000E+02  0.51100000000E-03 0. -1.
    9900012    2    1    2    0    0  0.15724700486E+02  0.37922984397E+02 -0.14078504253E+02  0.47787271516E+02  0.20000002148E+02 0.  0.
        -12    1    1    2    0    0 -0.15724700486E+02 -0.37922984397E+02  0.14078504253E+02  0.43400728484E+02  0.00000000000E+00 0.  1.
         11    1    3    3    0    0  0.11415097164E+02  0.18990023255E+02 -0.68703051128E+01  0.23197554162E+02  0.51100000000E-03 0. -1.
        -11    1    3    3    0    0 -0.22813167431E+01  0.15084190335E+02 -0.20855702900E+01  0.15397623448E+02  0.51100000000E-03 0.  1.
        -12    1    3    3    0    0  0.65909200649E+01  0.38487708068E+01 -0.51226288504E+01  0.91920939053E+01  0.00000000000E+00 0.  1.
</event>
<event>
 7    1  0.2811980E-010  0.4778727E+02  0.7816164E-02  0.1312668E+00
        -11   -1    0    0    0    0  0.00000000000E+00  0.00000000000E+00  0.45593999997E+02  0.45594000000E+02  0.51100000000E-03 0.  1.
         11   -1    0    0    0    0 -0.00000000000E+00 -0.00000000000E+00 -0.45593999997E+02  0.45594000000E+02  0.51100000000E-03 0. -1.
    9900012    2    1    2    0    0 -0.60135685353E+01  0.22096700709E+02 -0.36867279306E+02  0.47787268759E+02  0.19999989582E+02 0.  0.
        -12    1    1    2    0    0  0.60135685353E+01 -0.22096700709E+02  0.36867279306E+02  0.43400731241E+02  0.00000000000E+00 0.  1.
         11    1    3    3    0    0 -0.17113789608E+01  0.43278584728E+01 -0.11115220849E+02  0.12050199653E+02  0.51100000000E-03 0. -1.
        -11    1    3    3    0    0 -0.19824138928E+01  0.13195772532E+02 -0.27295007878E+02  0.30382163071E+02  0.51100000000E-03 0.  1.
        -12    1    3    3    0    0 -0.23197756816E+01  0.45730697045E+01  0.15429494199E+01  0.53549060354E+01  0.00000000000E+00 0.  1.
</event>
<event>
 7    1  0.2811980E-010  0.4778729E+02  0.7816164E-02  0.1312668E+00
        -11   -1    0    0    0    0  0.00000000000E+00  0.00000000000E+00  0.45593999997E+02  0.45594000000E+02  0.51100000000E-03 0.  1.
         11   -1    0    0    0    0 -0.00000000000E+00 -0.00000000000E+00 -0.45593999997E+02  0.45594000000E+02  0.51100000000E-03 0. -1.
    9900012    2    1    2    0    0  0.33838988713E+02 -0.16509257501E+02 -0.21586771707E+02  0.47787292021E+02  0.20000095640E+02 0.  0.
        -12    1    1    2    0    0 -0.33838988713E+02  0.16509257501E+02  0.21586771707E+02  0.43400707979E+02  0.00000000000E+00 0.  1.
         11    1    3    3    0    0  0.13584323296E+02 -0.11627459330E+02 -0.10749662109E+02  0.20863530037E+02  0.51100000000E-03 0. -1.
        -11    1    3    3    0    0  0.14656472982E+02  0.27802990859E+01 -0.84255941614E+01  0.17132801888E+02  0.51100000000E-03 0.  1.
        -12    1    3    3    0    0  0.55981924343E+01 -0.76620972568E+01 -0.24115154366E+01  0.97909600961E+01  0.00000000000E+00 0.  1.
</event>
<event>
 7    1  0.2811980E-010  0.4778728E+02  0.7816164E-02  0.1312668E+00
        -11   -1    0    0    0    0  0.00000000000E+00  0.00000000000E+00  0.45593999997E+02  0.45594000000E+02  0.51100000000E-03 0.  1.
         11   -1    0    0    0    0 -0.00000000000E+00 -0.00000000000E+00 -0.45593999997E+02  0.45594000000E+02  0.51100000000E-03 0. -1.
    9900012    2    1    2    0    0  0.16429125263E+02  0.94402634111E+01 -0.39045975432E+02  0.47787275034E+02  0.20000018190E+02 0.  0.
        -12    1    1    2    0    0 -0.16429125263E+02 -0.94402634111E+01  0.39045975432E+02  0.43400724966E+02  0.00000000000E+00 0.  1.
         11    1    3    3    0    0  0.15746305402E+02  0.51216820164E+01 -0.38318923601E+02  0.41743474540E+02  0.51100000000E-03 0. -1.
        -11    1    3    3    0    0  0.20595773030E+01  0.31646475811E+01  0.58284878251E+00  0.38205452417E+01  0.51100000000E-03 0.  1.
         12    1    3    3    0    0 -0.13767574418E+01  0.11539338135E+01 -0.13099006128E+01  0.22232552518E+01  0.00000000000E+00 0. -1.
</event>
<event>
 7    1  0.2811980E-010  0.4778727E+02  0.7816164E-02  0.1312668E+00
        -11   -1    0    0    0    0  0.00000000000E+00  0.00000000000E+00  0.45593999997E+02  0.45594000000E+02  0.51100000000E-03 0.  1.
         11   -1    0    0    0    0 -0.00000000000E+00 -0.00000000000E+00 -0.45593999997E+02  0.45594000000E+02  0.51100000000E-03 0. -1.
    9900012    2    1    2    0    0 -0.10423655617E+02  0.38032748513E+02 -0.18124032014E+02  0.47787273136E+02  0.20000009535E+02 0.  0.
        -12    1    1    2    0    0  0.10423655617E+02 -0.38032748513E+02  0.18124032014E+02  0.43400726864E+02  0.00000000000E+00 0.  1.
         11    1    3    3    0    0  0.17343527918E+01  0.14292257835E+02  0.15366292527E+01  0.14478875762E+02  0.51100000000E-03 0.  1.
        -11    1    3    3    0    0 -0.55255737163E+01  0.12407533584E+02 -0.11883286586E+02  0.18046920925E+02  0.51100000000E-03 0. -1.
         12    1    3    3    0    0 -0.66324346929E+01  0.11332957095E+02 -0.77773746801E+01  0.15261476449E+02  0.00000000000E+00 0. -1.
</event>
<event>
 7    1  0.2811980E-010  0.4778727E+02  0.7816164E-02  0.1312668E+00
        -11   -1    0    0    0    0  0.00000000000E+00  0.00000000000E+00  0.45593999997E+02  0.45594000000E+02  0.51100000000E-03 0. -1.
         11   -1    0    0    0    0 -0.00000000000E+00 -0.00000000000E+00 -0.45593999997E+02  0.45594000000E+02  0.51100000000E-03 0.  1.
    9900012    2    1    2    0    0  0.18662945368E+02 -0.38638772768E+02  0.65086977339E+01  0.47787269165E+02  0.19999991430E+02 0.  0.
        -12    1    1    2    0    0 -0.18662945368E+02  0.38638772768E+02 -0.65086977339E+01  0.43400730835E+02  0.00000000000E+00 0.  1.
         11    1    3    3    0    0  0.20496321659E+02 -0.37671450786E+02  0.91948970509E+01  0.43860956874E+02  0.51100000000E-03 0. -1.
        -11    1    3    3    0    0 -0.60474778095E+00 -0.13843599166E+01 -0.18245420375E+01  0.23687815781E+01  0.51100000000E-03 0.  1.
         12    1    3    3    0    0 -0.12286285102E+01  0.41703793408E+00 -0.86165727948E+00  0.15575307130E+01  0.00000000000E+00 0. -1.
</event>
<event>
 7    1  0.2811980E-010  0.4778723E+02  0.7816164E-02  0.1312668E+00
        -11   -1    0    0    0    0  0.00000000000E+00  0.00000000000E+00  0.45593999997E+02  0.45594000000E+02  0.51100000000E-03 0. -1.
         11   -1    0    0    0    0 -0.00000000000E+00 -0.00000000000E+00 -0.45593999997E+02  0.45594000000E+02  0.51100000000E-03 0.  1.
    9900012    2    1    2    0    0 -0.15741589625E+02  0.43055357877E+01  0.40215559156E+02  0.47787234101E+02  0.19999831561E+02 0.  0.
        -12    1    1    2    0    0  0.15741589625E+02 -0.43055357877E+01 -0.40215559156E+02  0.43400765899E+02  0.00000000000E+00 0.  1.
         11    1    3    3    0    0 -0.92802380084E+00 -0.54629257501E+01  0.10316377732E+02  0.11710355916E+02  0.51100000000E-03 0. -1.
        -11    1    3    3    0    0 -0.11985022651E+02  0.60998767708E+01  0.13575922473E+02  0.19109027600E+02  0.51100000000E-03 0.  1.
        -12    1    3    3    0    0 -0.28285431728E+01  0.36685847670E+01  0.16323258951E+02  0.16967850585E+02  0.00000000000E+00 0.  1.
</event>
<event>
 7    1  0.2811980E-010  0.4778729E+02  0.7816164E-02  0.1312668E+00
        -11   -1    0    0    0    0  0.00000000000E+00  0.00000000000E+00  0.45593999997E+02  0.45594000000E+02  0.51100000000E-03 0.  1.
         11   -1    0    0    0    0 -0.00000000000E+00 -0.00000000000E+00 -0.45593999997E+02  0.45594000000E+02  0.51100000000E-03 0. -1.
    9900012    2    1    2    0    0  0.12068089618E+02 -0.58903334156E+01 -0.41270895664E+02  0.47787289825E+02  0.20000085628E+02 0.  0.
        -12    1    1    2    0    0 -0.12068089618E+02  0.58903334156E+01  0.41270895664E+02  0.43400710175E+02  0.00000000000E+00 0.  1.
         11    1    3    3    0    0  0.91943909044E+01  0.17261259775E+01 -0.18813940569E+02  0.21011442002E+02  0.51100000000E-03 0. -1.
        -11    1    3    3    0    0  0.32951415598E+01 -0.69491695384E+01 -0.47249736866E+01  0.90263110833E+01  0.51100000000E-03 0.  1.
        -12    1    3    3    0    0 -0.42144284579E+00 -0.66728985468E+00 -0.17731981408E+02  0.17749536740E+02  0.00000000000E+00 0.  1.
</event>
<event>
 7    1  0.2811980E-010  0.4778728E+02  0.7816164E-02  0.1312668E+00
        -11   -1    0    0    0    0  0.00000000000E+00  0.00000000000E+00  0.45593999997E+02  0.45594000000E+02  0.51100000000E-03 0. -1.
         11   -1    0    0    0    0 -0.00000000000E+00 -0.00000000000E+00 -0.45593999997E+02  0.45594000000E+02  0.51100000000E-03 0.  1.
    9900012    2    1    2    0    0 -0.25714843061E+02  0.23883958599E+02  0.25532845239E+02  0.47787276296E+02  0.20000023945E+02 0.  0.
        -12    1    1    2    0    0  0.25714843061E+02 -0.23883958599E+02 -0.25532845239E+02  0.43400723704E+02  0.00000000000E+00 0.  1.
         11    1    3    3    0    0 -0.12984401286E+02  0.13904375078E+02  0.12737552232E+02  0.22894793299E+02  0.51100000000E-03 0. -1.
        -11    1    3    3    0    0 -0.10017106599E+02  0.95854053347E+00  0.14831980910E+01  0.10171583034E+02  0.51100000000E-03 0.  1.
        -12    1    3    3    0    0 -0.27133351763E+01  0.90210429872E+01  0.11312094916E+02  0.14720899964E+02  0.00000000000E+00 0.  1.
</event>
<event>
 7    1  0.2811980E-010  0.4778727E+02  0.7816164E-02  0.1312668E+00
        -11   -1    0    0    0    0  0.00000000000E+00  0.00000000000E+00  0.45593999997E+02  0.45594000000E+02  0.51100000000E-03 0. -1.
         11   -1    0    0    0    0 -0.00000000000E+00 -0.00000000000E+00 -0.45593999997E+02  0.45594000000E+02  0.51100000000E-03 0.  1.
    9900012    2    1    2    0    0  0.27471807299E+02  0.32566909402E+02 -0.82655808535E+01  0.47787267159E+02  0.19999982285E+02 0.  0.
        -12    1    1    2    0    0 -0.27471807299E+02 -0.32566909402E+02  0.82655808535E+01  0.43400732841E+02  0.00000000000E+00 0.  1.
         11    1    3    3    0    0  0.19975082592E+01  0.47251660250E+01  0.53778671051E+01  0.74322734120E+01  0.51100000000E-03 0. -1.
        -11    1    3    3    0    0  0.21720370705E+02  0.21753951379E+02 -0.99883223422E+01  0.32322986985E+02  0.51100000000E-03 0.  1.
        -12    1    3    3    0    0  0.37539283348E+01  0.60877919976E+01 -0.36551256164E+01  0.80320067617E+01  0.00000000000E+00 0.  1.
</event>
<event>
 7    1  0.2811980E-010  0.4778727E+02  0.7816164E-02  0.1312668E+00
        -11   -1    0    0    0    0  0.00000000000E+00  0.00000000000E+00  0.45593999997E+02  0.45594000000E+02  0.51100000000E-03 0.  1.
         11   -1    0    0    0    0 -0.00000000000E+00 -0.00000000000E+00 -0.45593999997E+02  0.45594000000E+02  0.51100000000E-03 0. -1.
    9900012    2    1    2    0    0 -0.14419917352E+02 -0.70133103794E+01 -0.40329927498E+02  0.47787267392E+02  0.19999983347E+02 0.  0.
        -12    1    1    2    0    0  0.14419917352E+02  0.70133103794E+01  0.40329927498E+02  0.43400732608E+02  0.00000000000E+00 0.  1.
         11    1    3    3    0    0 -0.71510364604E+01 -0.91849846549E+01 -0.27029803710E+02  0.29429773265E+02  0.51100000000E-03 0. -1.
        -11    1    3    3    0    0  0.24697642774E+01  0.13946124213E+01 -0.36832399995E+01  0.46487564517E+01  0.51100000000E-03 0.  1.
         12    1    3    3    0    0 -0.97386451687E+01  0.77706185424E+00 -0.96168837882E+01  0.13708737675E+02  0.00000000000E+00 0. -1.
</event>
<event>
 7    1  0.2811980E-010  0.4778727E+02  0.7816164E-02  0.1312668E+00
        -11   -1    0    0    0    0  0.00000000000E+00  0.00000000000E+00  0.45593999997E+02  0.45594000000E+02  0.51100000000E-03 0.  1.
         11   -1    0    0    0    0 -0.00000000000E+00 -0.00000000000E+00 -0.45593999997E+02  0.45594000000E+02  0.51100000000E-03 0. -1.
    9900012    2    1    2    0    0 -0.13527936165E+02  0.26992590120E+02 -0.31177202732E+02  0.47787274793E+02  0.20000017093E+02 0.  0.
        -12    1    1    2    0    0  0.13527936165E+02 -0.26992590120E+02  0.31177202732E+02  0.43400725207E+02  0.00000000000E+00 0.  1.
         11    1    3    3    0    0 -0.78663659887E+00  0.20291652722E+01 -0.24400406624E+01  0.32695729898E+01  0.51100000000E-03 0. -1.
        -11    1    3    3    0    0 -0.16065929747E+01 -0.24702251583E+01 -0.75667311029E+01  0.81202569641E+01  0.51100000000E-03 0.  1.
        -12    1    3    3    0    0 -0.11134706592E+02  0.27433650006E+02 -0.21170430967E+02  0.36397444839E+02  0.00000000000E+00 0.  1.
</event>
<event>
 7    1  0.2811980E-010  0.4778727E+02  0.7816164E-02  0.1312668E+00
        -11   -1    0    0    0    0  0.00000000000E+00  0.00000000000E+00  0.45593999997E+02  0.45594000000E+02  0.51100000000E-03 0.  1.
         11   -1    0    0    0    0 -0.00000000000E+00 -0.00000000000E+00 -0.45593999997E+02  0.45594000000E+02  0.51100000000E-03 0. -1.
    9900012    2    1    2    0    0 -0.18432817191E+02 -0.37596820292E+02  0.11416366723E+02  0.47787273338E+02  0.20000010458E+02 0.  0.
        -12    1    1    2    0    0  0.18432817191E+02  0.37596820292E+02 -0.11416366723E+02  0.43400726662E+02  0.00000000000E+00 0.  1.
         11    1    3    3    0    0  0.43281602137E+00 -0.25899451682E+01 -0.34727181974E+01  0.43537245689E+01  0.51100000000E-03 0.  1.
        -11    1    3    3    0    0 -0.78547483023E+01 -0.65541993355E+01  0.27049968236E+01  0.10581663759E+02  0.51100000000E-03 0. -1.
         12    1    3    3    0    0 -0.11010884910E+02 -0.28452675788E+02  0.12184088097E+02  0.32851885011E+02  0.00000000000E+00 0. -1.
</event>
<event>
 7    1  0.2811980E-010  0.4778728E+02  0.7816164E-02  0.1312668E+00
        -11   -1    0    0    0    0  0.00000000000E+00  0.00000000000E+00  0.45593999997E+02  0.45594000000E+02  0.51100000000E-03 0.  1.
         11   -1    0    0    0    0 -0.00000000000E+00 -0.00000000000E+00 -0.45593999997E+02  0.45594000000E+02  0.51100000000E-03 0. -1.
    9900012    2    1    2    0    0 -0.10050160673E+02  0.27641775464E+02 -0.31914719637E+02  0.47787276390E+02  0.20000024372E+02 0.  0.
        -12    1    1    2    0    0  0.10050160673E+02 -0.27641775464E+02  0.31914719637E+02  0.43400723610E+02  0.00000000000E+00 0.  1.
         11    1    3    3    0    0 -0.61199046169E+01  0.32673857558E+01 -0.16130440573E+02  0.17559047683E+02  0.51100000000E-03 0. -1.
        -11    1    3    3    0    0 -0.51301741367E+01  0.91417547432E+01 -0.58822329155E+01  0.12020442204E+02  0.51100000000E-03 0.  1.
         12    1    3    3    0    0  0.11999180809E+01  0.15232634965E+02 -0.99020461490E+01  0.18207786502E+02  0.00000000000E+00 0. -1.
</event>
<event>
 7    1  0.2811980E-010  0.4778727E+02  0.7816164E-02  0.1312668E+00
        -11   -1    0    0    0    0  0.00000000000E+00  0.00000000000E+00  0.45593999997E+02  0.45594000000E+02  0.51100000000E-03 0.  1.
         11   -1    0    0    0    0 -0.00000000000E+00 -0.00000000000E+00 -0.45593999997E+02  0.45594000000E+02  0.51100000000E-03 0. -1.
    9900012    2    1    2    0    0 -0.32680073212E+02 -0.18779197848E+02 -0.21516926191E+02  0.47787267637E+02  0.19999984463E+02 0.  0.
        -12    1    1    2    0    0  0.32680073212E+02  0.18779197848E+02  0.21516926191E+02  0.43400732363E+02  0.00000000000E+00 0.  1.
         11    1    3    3    0    0 -0.22233185907E+02 -0.18872693353E+02 -0.13250008403E+02  0.32032106282E+02  0.51100000000E-03 0. -1.
        -11    1    3    3    0    0 -0.24980807818E+01  0.37578736423E+01 -0.17380622014E+01  0.48355850092E+01  0.51100000000E-03 0.  1.
        -12    1    3    3    0    0 -0.79488065233E+01 -0.36643781378E+01 -0.65288555870E+01  0.10919576345E+02  0.00000000000E+00 0.  1.
</event>
<event>
 7    1  0.2811980E-010  0.4778727E+02  0.7816164E-02  0.1312668E+00
        -11   -1    0    0    0    0  0.00000000000E+00  0.00000000000E+00  0.45593999997E+02  0.45594000000E+02  0.51100000000E-03 0.  1.
         11   -1    0    0    0    0 -0.00000000000E+00 -0.00000000000E+00 -0.45593999997E+02  0.45594000000E+02  0.51100000000E-03 0. -1.
    9900012    2    1    2    0    0  0.39768959913E+02 -0.16670391777E+02 -0.49143793887E+01  0.47787271212E+02  0.20000000764E+02 0.  0.
        -12    1    1    2    0    0 -0.39768959913E+02  0.16670391777E+02  0.49143793887E+01  0.43400728788E+02  0.00000000000E+00 0.  1.
         11    1    3    3    0    0  0.14501122046E+02  0.60872814070E+00 -0.86602517288E+01  0.16901273644E+02  0.51100000000E-03 0. -1.
        -11    1    3    3    0    0  0.11216205225E+02 -0.73684561965E+01  0.83197730844E+00  0.13445802054E+02  0.51100000000E-03 0.  1.
         12    1    3    3    0    0  0.14051632642E+02 -0.99106637210E+01  0.29138950316E+01  0.17440195514E+02  0.00000000000E+00 0. -1.
</event>
<event>
 7    1  0.2811980E-010  0.4778727E+02  0.7816164E-02  0.1312668E+00
        -11   -1    0    0    0    0  0.00000000000E+00  0.00000000000E+00  0.45593999997E+02  0.45594000000E+02  0.51100000000E-03 0.  1.
         11   -1    0    0    0    0 -0.00000000000E+00 -0.00000000000E+00 -0.45593999997E+02  0.45594000000E+02  0.51100000000E-03 0. -1.
    9900012    2    1    2    0    0  0.13415654227E+02 -0.41050916320E+02 -0.42971721550E+01  0.47787271923E+02  0.20000004007E+02 0.  0.
        -12    1    1    2    0    0 -0.13415654227E+02  0.41050916320E+02  0.42971721550E+01  0.43400728077E+02  0.00000000000E+00 0.  1.
         11    1    3    3    0    0  0.64987733868E+00 -0.10848006616E+02 -0.81157813613E+01  0.13563461780E+02  0.51100000000E-03 0.  1.
        -11    1    3    3    0    0  0.44452839208E+01 -0.27501050803E+01 -0.33849040274E+00  0.52381488240E+01  0.51100000000E-03 0. -1.
         12    1    3    3    0    0  0.83204929678E+01 -0.27452804624E+02  0.41570996091E+01  0.28985661319E+02  0.00000000000E+00 0. -1.
</event>
<event>
 7    1  0.2811980E-010  0.4778727E+02  0.7816164E-02  0.1312668E+00
        -11   -1    0    0    0    0  0.00000000000E+00  0.00000000000E+00  0.45593999997E+02  0.45594000000E+02  0.51100000000E-03 0.  1.
         11   -1    0    0    0    0 -0.00000000000E+00 -0.00000000000E+00 -0.45593999997E+02  0.45594000000E+02  0.51100000000E-03 0. -1.
    9900012    2    1    2    0    0 -0.17881340490E+02 -0.24075424440E+02 -0.31372835186E+02  0.47787272042E+02  0.20000004549E+02 0.  0.
        -12    1    1    2    0    0  0.17881340490E+02  0.24075424440E+02  0.31372835186E+02  0.43400727958E+02  0.00000000000E+00 0.  1.
         11    1    3    3    0    0  0.17367320602E+01  0.16876112495E+01 -0.32488346488E+01  0.40520608108E+01  0.51100000000E-03 0. -1.
        -11    1    3    3    0    0  0.61337904092E+00 -0.77539674443E+00 -0.22784604077E+01  0.24837181905E+01  0.51100000000E-03 0.  1.
         12    1    3    3    0    0 -0.20231451591E+02 -0.24987638945E+02 -0.25845540129E+02  0.41251493041E+02  0.00000000000E+00 0. -1.
</event>
<event>
 7    1  0.2811980E-010  0.4778727E+02  0.7816164E-02  0.1312668E+00
        -11   -1    0    0    0    0  0.00000000000E+00  0.00000000000E+00  0.45593999997E+02  0.45594000000E+02  0.51100000000E-03 0.  1.
         11   -1    0    0    0    0 -0.00000000000E+00 -0.00000000000E+00 -0.45593999997E+02  0.45594000000E+02  0.51100000000E-03 0. -1.
    9900012    2    1    2    0    0 -0.41503341250E+02 -0.88969064731E+01 -0.90521392867E+01  0.47787268378E+02  0.19999987842E+02 0.  0.
        -12    1    1    2    0    0  0.41503341250E+02  0.88969064731E+01  0.90521392867E+01  0.43400731622E+02  0.00000000000E+00 0.  1.
         11    1    3    3    0    0 -0.15483758854E+02 -0.72369074288E+01 -0.54793567834E+01  0.17948341662E+02  0.51100000000E-03 0. -1.
        -11    1    3    3    0    0 -0.63021950717E+00  0.36333397250E+01 -0.34980956420E+00  0.37041464842E+01  0.51100000000E-03 0.  1.
        -12    1    3    3    0    0 -0.25389362888E+02 -0.52933387692E+01 -0.32229729391E+01  0.26134780232E+02  0.00000000000E+00 0.  1.
</event>
<event>
 7    1  0.2811980E-010  0.4778727E+02  0.7816164E-02  0.1312668E+00
        -11   -1    0    0    0    0  0.00000000000E+00  0.00000000000E+00  0.45593999997E+02  0.45594000000E+02  0.51100000000E-03 0. -1.
         11   -1    0    0    0    0 -0.00000000000E+00 -0.00000000000E+00 -0.45593999997E+02  0.45594000000E+02  0.51100000000E-03 0.  1.
    9900012    2    1    2    0    0  0.25074529657E+02  0.19850477706E+02  0.29340243163E+02  0.47787269919E+02  0.19999994870E+02 0.  0.
        -12    1    1    2    0    0 -0.25074529657E+02 -0.19850477706E+02 -0.29340243163E+02  0.43400730081E+02  0.00000000000E+00 0.  1.
         11    1    3    3    0    0  0.86923644072E+01  0.16353531328E+01  0.15761249204E+02  0.18073421248E+02  0.51100000000E-03 0. -1.
        -11    1    3    3    0    0  0.14261043040E+02  0.16883315154E+02  0.15115961840E+02  0.26775286773E+02  0.51100000000E-03 0.  1.
         12    1    3    3    0    0  0.21211222102E+01  0.13318094198E+01 -0.15369678819E+01  0.29385618985E+01  0.00000000000E+00 0. -1.
</event>
<event>
 7    1  0.2811980E-010  0.4778728E+02  0.7816164E-02  0.1312668E+00
        -11   -1    0    0    0    0  0.00000000000E+00  0.00000000000E+00  0.45593999997E+02  0.45594000000E+02  0.51100000000E-03 0.  1.
         11   -1    0    0    0    0 -0.00000000000E+00 -0.00000000000E+00 -0.45593999997E+02  0.45594000000E+02  0.51100000000E-03 0. -1.
    9900012    2    1    2    0    0  0.19380014191E+02  0.26089529318E+02 -0.28764110848E+02  0.47787279235E+02  0.20000037343E+02 0.  0.
        -12    1    1    2    0    0 -0.19380014191E+02 -0.26089529318E+02  0.28764110848E+02  0.43400720765E+02  0.00000000000E+00 0.  1.
         11    1    3    3    0    0  0.12981133872E+02  0.19234782998E+02 -0.19431322540E+02  0.30266532829E+02  0.51100000000E-03 0. -1.
        -11    1    3    3    0    0  0.79603235701E+01  0.27284343762E+00 -0.40362584266E+01  0.89293100086E+01  0.51100000000E-03 0.  1.
         12    1    3    3    0    0 -0.15614432511E+01  0.65819028823E+01 -0.52965298812E+01  0.85914363968E+01  0.00000000000E+00 0. -1.
</event>
<event>
 7    1  0.2811980E-010  0.4778725E+02  0.7816164E-02  0.1312668E+00
        -11   -1    0    0    0    0  0.00000000000E+00  0.00000000000E+00  0.45593999997E+02  0.45594000000E+02  0.51100000000E-03 0.  1.
         11   -1    0    0    0    0 -0.00000000000E+00 -0.00000000000E+00 -0.45593999997E+02  0.45594000000E+02  0.51100000000E-03 0. -1.
    9900012    2    1    2    0    0  0.35086744409E+02 -0.92471602206E+01 -0.23812504976E+02  0.47787251174E+02  0.19999909405E+02 0.  0.
        -12    1    1    2    0    0 -0.35086744409E+02  0.92471602206E+01  0.23812504976E+02  0.43400748826E+02  0.00000000000E+00 0.  1.
         11    1    3    3    0    0  0.95353076955E+01 -0.62188213821E+01 -0.14676868445E+02  0.18574345206E+02  0.51100000000E-03 0. -1.
        -11    1    3    3    0    0  0.12013643004E+01  0.22727037610E+01 -0.20971117993E+01  0.33175799504E+01  0.51100000000E-03 0.  1.
         12    1    3    3    0    0  0.24350072413E+02 -0.53010425995E+01 -0.70385247322E+01  0.25895326018E+02  0.00000000000E+00 0. -1.
</event>
<event>
 7    1  0.2811980E-010  0.4778726E+02  0.7816164E-02  0.1312668E+00
        -11   -1    0    0    0    0  0.00000000000E+00  0.00000000000E+00  0.45593999997E+02  0.45594000000E+02  0.51100000000E-03 0.  1.
         11   -1    0    0    0    0 -0.00000000000E+00 -0.00000000000E+00 -0.45593999997E+02  0.45594000000E+02  0.51100000000E-03 0. -1.
    9900012    2    1    2    0    0  0.15439366998E+02  0.36830185043E+02  0.16993740772E+02  0.47787264880E+02  0.19999971892E+02 0.  0.
        -12    1    1    2    0    0 -0.15439366998E+02 -0.36830185043E+02 -0.16993740772E+02  0.43400735120E+02  0.00000000000E+00 0.  1.
         11    1    3    3    0    0  0.69676022419E+01  0.18161436869E+02  0.12666855517E+02  0.23212808945E+02  0.51100000000E-03 0.  1.
        -11    1    3    3    0    0  0.87094393657E+01  0.13973980394E+02 -0.21135023210E+01  0.16601004621E+02  0.51100000000E-03 0. -1.
         12    1    3    3    0    0 -0.23767460943E+00  0.46947677801E+01  0.64403875757E+01  0.79734513138E+01  0.00000000000E+00 0. -1.
</event>
<event>
 7    1  0.2811980E-010  0.4778727E+02  0.7816164E-02  0.1312668E+00
        -11   -1    0    0    0    0  0.00000000000E+00  0.00000000000E+00  0.45593999997E+02  0.45594000000E+02  0.51100000000E-03 0.  1.
         11   -1    0    0    0    0 -0.00000000000E+00 -0.00000000000E+00 -0.45593999997E+02  0.45594000000E+02  0.51100000000E-03 0. -1.
    9900012    2    1    2    0    0  0.27577139700E+02 -0.13432707848E+02 -0.30703210142E+02  0.47787269738E+02  0.19999994046E+02 0.  0.
        -12    1    1    2    0    0 -0.27577139700E+02  0.13432707848E+02  0.30703210142E+02  0.43400730262E+02  0.00000000000E+00 0.  1.
         11    1    3    3    0    0  0.11909053924E+02 -0.44533943520E+01 -0.97053582704E+01  0.15995382648E+02  0.51100000000E-03 0. -1.
        -11    1    3    3    0    0  0.97770018596E+01 -0.91203900056E+01 -0.22068244189E+02  0.25802687478E+02  0.51100000000E-03 0.  1.
        -12    1    3    3    0    0  0.58910839164E+01  0.14107650967E+00  0.10703923172E+01  0.59891996130E+01  0.00000000000E+00 0.  1.
</event>
<event>
 7    1  0.2935558E-010  0.4778727E+02  0.7816164E-02  0.1312668E+00
        -11   -1    0    0    0    0  0.00000000000E+00  0.00000000000E+00  0.45593999997E+02  0.45594000000E+02  0.51100000000E-03 0.  1.
         11   -1    0    0    0    0 -0.00000000000E+00 -0.00000000000E+00 -0.45593999997E+02  0.45594000000E+02  0.51100000000E-03 0. -1.
    9900012    2    1    2    0    0  0.36188266937E+02  0.13375063156E+02 -0.19878137162E+02  0.47787270566E+02  0.19999997820E+02 0.  0.
        -12    1    1    2    0    0 -0.36188266937E+02 -0.13375063156E+02  0.19878137162E+02  0.43400729434E+02  0.00000000000E+00 0.  1.
         11    1    3    3    0    0  0.23047995819E+02  0.70559375994E+01 -0.14447546782E+02  0.28102099120E+02  0.51100000000E-03 0. -1.
        -11    1    3    3    0    0  0.92139892593E+01  0.14767007181E+01  0.24394248547E+01  0.96451561400E+01  0.51100000000E-03 0.  1.
        -12    1    3    3    0    0  0.39262818592E+01  0.48424248386E+01 -0.78700152348E+01  0.10040015306E+02  0.00000000000E+00 0.  1.
</event>
<event>
 7    1  0.2811980E-010  0.4778727E+02  0.7816164E-02  0.1312668E+00
        -11   -1    0    0    0    0  0.00000000000E+00  0.00000000000E+00  0.45593999997E+02  0.45594000000E+02  0.51100000000E-03 0. -1.
         11   -1    0    0    0    0 -0.00000000000E+00 -0.00000000000E+00 -0.45593999997E+02  0.45594000000E+02  0.51100000000E-03 0.  1.
    9900012    2    1    2    0    0  0.31432020994E+02  0.24185524373E+02  0.17627016581E+02  0.47787271359E+02  0.20000001436E+02 0.  0.
        -12    1    1    2    0    0 -0.31432020994E+02 -0.24185524373E+02 -0.17627016581E+02  0.43400728641E+02  0.00000000000E+00 0.  1.
         11    1    3    3    0    0  0.51013258483E+01  0.77183016201E+01  0.84977339781E+01  0.12562133112E+02  0.51100000000E-03 0. -1.
        -11    1    3    3    0    0  0.24148441241E+02  0.85682437381E+01  0.85398208023E+01  0.27009082819E+02  0.51100000000E-03 0.  1.
        -12    1    3    3    0    0  0.21822539049E+01  0.78989790151E+01  0.58946180071E+00  0.82160554283E+01  0.00000000000E+00 0.  1.
</event>
<event>
 7    1  0.2811980E-010  0.4778727E+02  0.7816164E-02  0.1312668E+00
        -11   -1    0    0    0    0  0.00000000000E+00  0.00000000000E+00  0.45593999997E+02  0.45594000000E+02  0.51100000000E-03 0.  1.
         11   -1    0    0    0    0 -0.00000000000E+00 -0.00000000000E+00 -0.45593999997E+02  0.45594000000E+02  0.51100000000E-03 0. -1.
    9900012    2    1    2    0    0 -0.15667401996E+02  0.38711751251E+02 -0.11813396648E+02  0.47787268317E+02  0.19999987566E+02 0.  0.
        -12    1    1    2    0    0  0.15667401996E+02 -0.38711751251E+02  0.11813396648E+02  0.43400731683E+02  0.00000000000E+00 0.  1.
         11    1    3    3    0    0 -0.49441611286E+01  0.17469117445E+02 -0.11284968893E+02  0.21376747104E+02  0.51100000000E-03 0. -1.
        -11    1    3    3    0    0 -0.21142481500E+01  0.87577370236E+01  0.49577537691E+01  0.10283351871E+02  0.51100000000E-03 0.  1.
        -12    1    3    3    0    0 -0.86089927170E+01  0.12484896783E+02 -0.54861815242E+01  0.16127169342E+02  0.00000000000E+00 0.  1.
</event>
<event>
 7    1  0.2811980E-010  0.4778727E+02  0.7816164E-02  0.1312668E+00
        -11   -1    0    0    0    0  0.00000000000E+00  0.00000000000E+00  0.45593999997E+02  0.45594000000E+02  0.51100000000E-03 0. -1.
         11   -1    0    0    0    0 -0.00000000000E+00 -0.00000000000E+00 -0.45593999997E+02  0.45594000000E+02  0.51100000000E-03 0.  1.
    9900012    2    1    2    0    0  0.41205527023E+02  0.10220645350E+02  0.90147838868E+01  0.47787269855E+02  0.19999994575E+02 0.  0.
        -12    1    1    2    0    0 -0.41205527023E+02 -0.10220645350E+02 -0.90147838868E+01  0.43400730145E+02  0.00000000000E+00 0.  1.
         11    1    3    3    0    0  0.34607036026E+02  0.11718038813E+02  0.11140853131E+02  0.38197879324E+02  0.51100000000E-03 0. -1.
        -11    1    3    3    0    0  0.63005186602E+01  0.49348801111E+00 -0.34303032147E+01  0.71907611704E+01  0.51100000000E-03 0.  1.
         12    1    3    3    0    0  0.29797233680E+00 -0.19908814736E+01  0.13042339704E+01  0.23986293597E+01  0.00000000000E+00 0. -1.
</event>
<event>
 7    1  0.2811980E-010  0.4778728E+02  0.7816164E-02  0.1312668E+00
        -11   -1    0    0    0    0  0.00000000000E+00  0.00000000000E+00  0.45593999997E+02  0.45594000000E+02  0.51100000000E-03 0.  1.
         11   -1    0    0    0    0 -0.00000000000E+00 -0.00000000000E+00 -0.45593999997E+02  0.45594000000E+02  0.51100000000E-03 0. -1.
    9900012    2    1    2    0    0  0.14480814973E+02  0.18149774339E+02 -0.36667620428E+02  0.47787277671E+02  0.20000030214E+02 0.  0.
        -12    1    1    2    0    0 -0.14480814973E+02 -0.18149774339E+02  0.36667620428E+02  0.43400722329E+02  0.00000000000E+00 0.  1.
         11    1    3    3    0    0  0.67434684820E+01  0.86676682596E+01 -0.21893220136E+01  0.11198034263E+02  0.51100000000E-03 0.  1.
        -11    1    3    3    0    0  0.72785917097E+01  0.88116378470E+01 -0.32477974963E+02  0.34430244217E+02  0.51100000000E-03 0. -1.
        -12    1    3    3    0    0  0.45875478117E+00  0.67046823265E+00 -0.20003234506E+01  0.21589991911E+01  0.00000000000E+00 0.  1.
</event>
<event>
 7    1  0.2811980E-010  0.4778727E+02  0.7816164E-02  0.1312668E+00
        -11   -1    0    0    0    0  0.00000000000E+00  0.00000000000E+00  0.45593999997E+02  0.45594000000E+02  0.51100000000E-03 0. -1.
         11   -1    0    0    0    0 -0.00000000000E+00 -0.00000000000E+00 -0.45593999997E+02  0.45594000000E+02  0.51100000000E-03 0.  1.
    9900012    2    1    2    0    0 -0.15475720032E+02 -0.38549671612E+02  0.12571711616E+02  0.47787273913E+02  0.20000013078E+02 0.  0.
        -12    1    1    2    0    0  0.15475720032E+02  0.38549671612E+02 -0.12571711616E+02  0.43400726087E+02  0.00000000000E+00 0.  1.
         11    1    3    3    0    0 -0.16083519035E+02 -0.30753816488E+02  0.99871076621E+01  0.36113974205E+02  0.51100000000E-03 0. -1.
        -11    1    3    3    0    0  0.28549187858E+01 -0.22961473982E+01  0.41436564506E+01  0.55310707091E+01  0.51100000000E-03 0.  1.
         12    1    3    3    0    0 -0.22471197828E+01 -0.54997077260E+01 -0.15590524966E+01  0.61422289990E+01  0.00000000000E+00 0. -1.
</event>
<event>
 7    1  0.2811980E-010  0.4778728E+02  0.7816164E-02  0.1312668E+00
        -11   -1    0    0    0    0  0.00000000000E+00  0.00000000000E+00  0.45593999997E+02  0.45594000000E+02  0.51100000000E-03 0. -1.
         11   -1    0    0    0    0 -0.00000000000E+00 -0.00000000000E+00 -0.45593999997E+02  0.45594000000E+02  0.51100000000E-03 0.  1.
    9900012    2    1    2    0    0 -0.10418770325E+02  0.33790192204E+02  0.25165352546E+02  0.47787276123E+02  0.20000023156E+02 0.  0.
        -12    1    1    2    0    0  0.10418770325E+02 -0.33790192204E+02 -0.25165352546E+02  0.43400723877E+02  0.00000000000E+00 0.  1.
         11    1    3    3    0    0 -0.13708189057E+02  0.24211307626E+02  0.22487822207E+02  0.35774348521E+02  0.51100000000E-03 0. -1.
        -11    1    3    3    0    0  0.27646863128E+01  0.73539617172E+01  0.45314990586E+01  0.90696597139E+01  0.51100000000E-03 0.  1.
         12    1    3    3    0    0  0.52473242008E+00  0.22249228609E+01 -0.18539687200E+01  0.29432678886E+01  0.00000000000E+00 0. -1.
</event>
<event>
 7    1  0.2811980E-010  0.4778727E+02  0.7816164E-02  0.1312668E+00
        -11   -1    0    0    0    0  0.00000000000E+00  0.00000000000E+00  0.45593999997E+02  0.45594000000E+02  0.51100000000E-03 0. -1.
         11   -1    0    0    0    0 -0.00000000000E+00 -0.00000000000E+00 -0.45593999997E+02  0.45594000000E+02  0.51100000000E-03 0.  1.
    9900012    2    1    2    0    0  0.29646513780E+02 -0.15317157919E+02  0.27750535435E+02  0.47787270479E+02  0.19999997423E+02 0.  0.
        -12    1    1    2    0    0 -0.29646513780E+02  0.15317157919E+02 -0.27750535435E+02  0.43400729521E+02  0.00000000000E+00 0.  1.
         11    1    3    3    0    0  0.95638850233E+01  0.56386182791E+00  0.36119293062E+01  0.10238743598E+02  0.51100000000E-03 0. -1.
        -11    1    3    3    0    0 -0.30716494083E+00 -0.54303466509E+01  0.73518217005E+01  0.91450695802E+01  0.51100000000E-03 0.  1.
         12    1    3    3    0    0  0.20389793698E+02 -0.10450673096E+02  0.16786784428E+02  0.28403457301E+02  0.00000000000E+00 0. -1.
</event>
<event>
 7    1  0.2811980E-010  0.4778727E+02  0.7816164E-02  0.1312668E+00
        -11   -1    0    0    0    0  0.00000000000E+00  0.00000000000E+00  0.45593999997E+02  0.45594000000E+02  0.51100000000E-03 0.  1.
         11   -1    0    0    0    0 -0.00000000000E+00 -0.00000000000E+00 -0.45593999997E+02  0.45594000000E+02  0.51100000000E-03 0. -1.
    9900012    2    1    2    0    0 -0.41131847875E+02  0.38937347330E+01 -0.13290347607E+02  0.47787269369E+02  0.19999992362E+02 0.  0.
        -12    1    1    2    0    0  0.41131847875E+02 -0.38937347330E+01  0.13290347607E+02  0.43400730631E+02  0.00000000000E+00 0.  1.
         11    1    3    3    0    0 -0.31014352421E+02  0.69957248705E+01 -0.70028462280E+01  0.32555645872E+02  0.51100000000E-03 0. -1.
        -11    1    3    3    0    0 -0.45035414084E+01 -0.57733705417E+01 -0.17321615699E+01  0.75242326249E+01  0.51100000000E-03 0.  1.
        -12    1    3    3    0    0 -0.56139540454E+01  0.26713804042E+01 -0.45553398090E+01  0.77073908726E+01  0.00000000000E+00 0.  1.
</event>
<event>
 7    1  0.2811980E-010  0.4778727E+02  0.7816164E-02  0.1312668E+00
        -11   -1    0    0    0    0  0.00000000000E+00  0.00000000000E+00  0.45593999997E+02  0.45594000000E+02  0.51100000000E-03 0.  1.
         11   -1    0    0    0    0 -0.00000000000E+00 -0.00000000000E+00 -0.45593999997E+02  0.45594000000E+02  0.51100000000E-03 0. -1.
    9900012    2    1    2    0    0  0.17695548685E+02 -0.33964119872E+02  0.20418850060E+02  0.47787270516E+02  0.19999997591E+02 0.  0.
        -12    1    1    2    0    0 -0.17695548685E+02  0.33964119872E+02 -0.20418850060E+02  0.43400729484E+02  0.00000000000E+00 0.  1.
         11    1    3    3    0    0  0.16505934123E+02 -0.25681593722E+02  0.14989298607E+02  0.34009839611E+02  0.51100000000E-03 0. -1.
        -11    1    3    3    0    0 -0.19457745495E+01 -0.84450698019E+01  0.15787513212E+01  0.88089555880E+01  0.51100000000E-03 0.  1.
         12    1    3    3    0    0  0.31353891119E+01  0.16254365188E+00  0.38508001317E+01  0.49684753170E+01  0.00000000000E+00 0. -1.
</event>
<event>
 7    1  0.2811980E-010  0.4778727E+02  0.7816164E-02  0.1312668E+00
        -11   -1    0    0    0    0  0.00000000000E+00  0.00000000000E+00  0.45593999997E+02  0.45594000000E+02  0.51100000000E-03 0.  1.
         11   -1    0    0    0    0 -0.00000000000E+00 -0.00000000000E+00 -0.45593999997E+02  0.45594000000E+02  0.51100000000E-03 0. -1.
    9900012    2    1    2    0    0 -0.20586653769E+02 -0.15076298370E+02 -0.35107242911E+02  0.47787267393E+02  0.19999983353E+02 0.  0.
        -12    1    1    2    0    0  0.20586653769E+02  0.15076298370E+02  0.35107242911E+02  0.43400732607E+02  0.00000000000E+00 0.  1.
         11    1    3    3    0    0 -0.51900416557E+01 -0.47471314689E+01 -0.24674356053E+02  0.25657272584E+02  0.51100000000E-03 0. -1.
        -11    1    3    3    0    0 -0.12304840433E+02 -0.96636029981E+01 -0.10702064133E+02  0.18955962068E+02  0.51100000000E-03 0.  1.
         12    1    3    3    0    0 -0.30917716809E+01 -0.66556390280E+00  0.26917727374E+00  0.31740327409E+01  0.00000000000E+00 0. -1.
</event>
<event>
 7    1  0.2811980E-010  0.4778727E+02  0.7816164E-02  0.1312668E+00
        -11   -1    0    0    0    0  0.00000000000E+00  0.00000000000E+00  0.45593999997E+02  0.45594000000E+02  0.51100000000E-03 0.  1.
         11   -1    0    0    0    0 -0.00000000000E+00 -0.00000000000E+00 -0.45593999997E+02  0.45594000000E+02  0.51100000000E-03 0. -1.
    9900012    2    1    2    0    0 -0.31627782607E+02  0.19999739500E+02 -0.21984479291E+02  0.47787267951E+02  0.19999985896E+02 0.  0.
        -12    1    1    2    0    0  0.31627782607E+02 -0.19999739500E+02  0.21984479291E+02  0.43400732049E+02  0.00000000000E+00 0.  1.
         11    1    3    3    0    0 -0.84691681259E+01  0.10773774441E+02 -0.14140050500E+02  0.19691166874E+02  0.51100000000E-03 0. -1.
        -11    1    3    3    0    0 -0.62872535479E+01 -0.89590238926E+00  0.11648973137E+01  0.64567162149E+01  0.51100000000E-03 0.  1.
        -12    1    3    3    0    0 -0.16871360933E+02  0.10121867448E+02 -0.90093261048E+01  0.21639384863E+02  0.00000000000E+00 0.  1.
</event>
<event>
 7    1  0.2811980E-010  0.4778727E+02  0.7816164E-02  0.1312668E+00
        -11   -1    0    0    0    0  0.00000000000E+00  0.00000000000E+00  0.45593999997E+02  0.45594000000E+02  0.51100000000E-03 0.  1.
         11   -1    0    0    0    0 -0.00000000000E+00 -0.00000000000E+00 -0.45593999997E+02  0.45594000000E+02  0.51100000000E-03 0. -1.
    9900012    2    1    2    0    0  0.51036129328E+01 -0.12446418381E+02 -0.41263337778E+02  0.47787271434E+02  0.20000001774E+02 0.  0.
        -12    1    1    2    0    0 -0.51036129328E+01  0.12446418381E+02  0.41263337778E+02  0.43400728566E+02  0.00000000000E+00 0.  1.
         11    1    3    3    0    0  0.33215136420E+01 -0.30241710486E+01 -0.21312936275E+01  0.49719690458E+01  0.51100000000E-03 0. -1.
        -11    1    3    3    0    0  0.25821203448E+01 -0.13121149778E+02 -0.33037238439E+02  0.35641142531E+02  0.51100000000E-03 0.  1.
        -12    1    3    3    0    0 -0.80002105402E+00  0.36989024453E+01 -0.60948057114E+01  0.71741598565E+01  0.00000000000E+00 0.  1.
</event>
<event>
 7    1  0.2811980E-010  0.4778727E+02  0.7816164E-02  0.1312668E+00
        -11   -1    0    0    0    0  0.00000000000E+00  0.00000000000E+00  0.45593999997E+02  0.45594000000E+02  0.51100000000E-03 0.  1.
         11   -1    0    0    0    0 -0.00000000000E+00 -0.00000000000E+00 -0.45593999997E+02  0.45594000000E+02  0.51100000000E-03 0. -1.
    9900012    2    1    2    0    0  0.26294994998E+02  0.22168346388E+02  0.26471891891E+02  0.47787269547E+02  0.19999993174E+02 0.  0.
        -12    1    1    2    0    0 -0.26294994998E+02 -0.22168346388E+02 -0.26471891891E+02  0.43400730453E+02  0.00000000000E+00 0.  1.
         11    1    3    3    0    0  0.18197730654E+02  0.54069272144E+01  0.15285625902E+02  0.24372989606E+02  0.51100000000E-03 0. -1.
        -11    1    3    3    0    0 -0.17849196013E+01  0.36280708046E+01  0.13653716108E+01  0.42676780154E+01  0.51100000000E-03 0.  1.
         12    1    3    3    0    0  0.98821839453E+01  0.13133348369E+02  0.98208943787E+01  0.19146601926E+02  0.00000000000E+00 0. -1.
</event>
<event>
 7    1  0.2811980E-010  0.4778727E+02  0.7816164E-02  0.1312668E+00
        -11   -1    0    0    0    0  0.00000000000E+00  0.00000000000E+00  0.45593999997E+02  0.45594000000E+02  0.51100000000E-03 0.  1.
         11   -1    0    0    0    0 -0.00000000000E+00 -0.00000000000E+00 -0.45593999997E+02  0.45594000000E+02  0.51100000000E-03 0. -1.
    9900012    2    1    2    0    0 -0.30072616401E+02 -0.16790031049E+02 -0.26407497314E+02  0.47787270579E+02  0.19999997879E+02 0.  0.
        -12    1    1    2    0    0  0.30072616401E+02  0.16790031049E+02  0.26407497314E+02  0.43400729421E+02  0.00000000000E+00 0.  1.
         11    1    3    3    0    0 -0.22085186074E+02 -0.19058689883E+02 -0.14146131576E+02  0.32420705464E+02  0.51100000000E-03 0. -1.
        -11    1    3    3    0    0 -0.69067153752E+01  0.80670019096E+00 -0.72965189681E+01  0.10079319014E+02  0.51100000000E-03 0.  1.
         12    1    3    3    0    0 -0.10807149522E+01  0.14619586428E+01 -0.49648467705E+01  0.52872461013E+01  0.00000000000E+00 0. -1.
</event>
<event>
 7    1  0.2811980E-010  0.4778727E+02  0.7816164E-02  0.1312668E+00
        -11   -1    0    0    0    0  0.00000000000E+00  0.00000000000E+00  0.45593999997E+02  0.45594000000E+02  0.51100000000E-03 0. -1.
         11   -1    0    0    0    0 -0.00000000000E+00 -0.00000000000E+00 -0.45593999997E+02  0.45594000000E+02  0.51100000000E-03 0.  1.
    9900012    2    1    2    0    0 -0.30050874402E+02  0.85627055879E+01  0.30120565063E+02  0.47787269372E+02  0.19999992376E+02 0.  0.
        -12    1    1    2    0    0  0.30050874402E+02 -0.85627055879E+01 -0.30120565063E+02  0.43400730628E+02  0.00000000000E+00 0.  1.
         11    1    3    3    0    0 -0.49583900687E+01  0.35010873670E+01  0.18035275752E+02  0.19029304153E+02  0.51100000000E-03 0. -1.
        -11    1    3    3    0    0 -0.11468308084E+02  0.17753115403E+01  0.27739757679E+01  0.11931838216E+02  0.51100000000E-03 0.  1.
         12    1    3    3    0    0 -0.13624176249E+02  0.32863066806E+01  0.93113135433E+01  0.16826127004E+02  0.00000000000E+00 0. -1.
</event>
<event>
 7    1  0.2811980E-010  0.4778727E+02  0.7816164E-02  0.1312668E+00
        -11   -1    0    0    0    0  0.00000000000E+00  0.00000000000E+00  0.45593999997E+02  0.45594000000E+02  0.51100000000E-03 0. -1.
         11   -1    0    0    0    0 -0.00000000000E+00 -0.00000000000E+00 -0.45593999997E+02  0.45594000000E+02  0.51100000000E-03 0.  1.
    9900012    2    1    2    0    0  0.33815409597E+02  0.22665445644E+02  0.15047219677E+02  0.47787272213E+02  0.20000005328E+02 0.  0.
        -12    1    1    2    0    0 -0.33815409597E+02 -0.22665445644E+02 -0.15047219677E+02  0.43400727787E+02  0.00000000000E+00 0.  1.
         11    1    3    3    0    0  0.12023420819E+02  0.13270620109E+02  0.11931694203E+02  0.21518302282E+02  0.51100000000E-03 0. -1.
        -11    1    3    3    0    0  0.42473052918E+01 -0.22442768435E+01 -0.75224217426E+00  0.48623296209E+01  0.51100000000E-03 0.  1.
         12    1    3    3    0    0  0.17544683486E+02  0.11639102379E+02  0.38677676480E+01  0.21406640311E+02  0.00000000000E+00 0. -1.
</event>
<event>
 7    1  0.2811980E-010  0.4778728E+02  0.7816164E-02  0.1312668E+00
        -11   -1    0    0    0    0  0.00000000000E+00  0.00000000000E+00  0.45593999997E+02  0.45594000000E+02  0.51100000000E-03 0.  1.
         11   -1    0    0    0    0 -0.00000000000E+00 -0.00000000000E+00 -0.45593999997E+02  0.45594000000E+02  0.51100000000E-03 0. -1.
    9900012    2    1    2    0    0  0.28408083122E+02 -0.42778113156E+01 -0.32531581903E+02  0.47787277916E+02  0.20000031328E+02 0.  0.
        -12    1    1    2    0    0 -0.28408083122E+02  0.42778113156E+01  0.32531581903E+02  0.43400722084E+02  0.00000000000E+00 0.  1.
         11    1    3    3    0    0  0.22362814071E+02 -0.76912638318E+01 -0.20753974453E+02  0.31463922965E+02  0.51100000000E-03 0. -1.
        -11    1    3    3    0    0  0.14780087758E+01 -0.28034213236E+01 -0.56237823362E+01  0.64552776149E+01  0.51100000000E-03 0.  1.
         12    1    3    3    0    0  0.45672602751E+01  0.62168738399E+01 -0.61538251140E+01  0.98680773353E+01  0.00000000000E+00 0. -1.
</event>
<event>
 7    1  0.2811980E-010  0.4778727E+02  0.7816164E-02  0.1312668E+00
        -11   -1    0    0    0    0  0.00000000000E+00  0.00000000000E+00  0.45593999997E+02  0.45594000000E+02  0.51100000000E-03 0. -1.
         11   -1    0    0    0    0 -0.00000000000E+00 -0.00000000000E+00 -0.45593999997E+02  0.45594000000E+02  0.51100000000E-03 0.  1.
    9900012    2    1    2    0    0 -0.38718262175E+02 -0.18747078707E+02  0.57503485847E+01  0.47787270804E+02  0.19999998904E+02 0.  0.
        -12    1    1    2    0    0  0.38718262175E+02  0.18747078707E+02 -0.57503485847E+01  0.43400729196E+02  0.00000000000E+00 0.  1.
         11    1    3    3    0    0 -0.59483766645E+01 -0.41600807463E+01  0.30307559901E+01  0.78660624769E+01  0.51100000000E-03 0. -1.
        -11    1    3    3    0    0 -0.37410291294E+01 -0.59087519683E+01  0.62992539185E+01  0.94121861945E+01  0.51100000000E-03 0.  1.
        -12    1    3    3    0    0 -0.29028856381E+02 -0.86782459928E+01 -0.35796613239E+01  0.30509022133E+02  0.00000000000E+00 0.  1.
</event>
<event>
 7    1  0.2970739E-010  0.4778727E+02  0.7816164E-02  0.1312668E+00
        -11   -1    0    0    0    0  0.00000000000E+00  0.00000000000E+00  0.45593999997E+02  0.45594000000E+02  0.51100000000E-03 0. -1.
         11   -1    0    0    0    0 -0.00000000000E+00 -0.00000000000E+00 -0.45593999997E+02  0.45594000000E+02  0.51100000000E-03 0.  1.
    9900012    2    1    2    0    0  0.42589868509E+02 -0.77031870372E+01  0.32229414563E+01  0.47787270262E+02  0.19999996433E+02 0.  0.
        -12    1    1    2    0    0 -0.42589868509E+02  0.77031870372E+01 -0.32229414563E+01  0.43400729738E+02  0.00000000000E+00 0.  1.
         11    1    3    3    0    0  0.36297491503E+02 -0.78370252552E+01  0.14707877854E+01  0.37163020212E+02  0.51100000000E-03 0. -1.
        -11    1    3    3    0    0  0.34145316274E+01 -0.26403478576E+00  0.51304939287E+01  0.61685256598E+01  0.51100000000E-03 0.  1.
        -12    1    3    3    0    0  0.28778453784E+01  0.39787300377E+00 -0.33783402577E+01  0.44557243907E+01  0.00000000000E+00 0.  1.
</event>
<event>
 7    1  0.2811980E-010  0.4778727E+02  0.7816164E-02  0.1312668E+00
        -11   -1    0    0    0    0  0.00000000000E+00  0.00000000000E+00  0.45593999997E+02  0.45594000000E+02  0.51100000000E-03 0.  1.
         11   -1    0    0    0    0 -0.00000000000E+00 -0.00000000000E+00 -0.45593999997E+02  0.45594000000E+02  0.51100000000E-03 0. -1.
    9900012    2    1    2    0    0 -0.16480774717E+02 -0.15411056340E+02 -0.37074338303E+02  0.47787272433E+02  0.20000006329E+02 0.  0.
        -12    1    1    2    0    0  0.16480774717E+02  0.15411056340E+02  0.37074338303E+02  0.43400727567E+02  0.00000000000E+00 0.  1.
         11    1    3    3    0    0 -0.10213708645E+02 -0.86356914066E+01 -0.65724100794E+01  0.14902737495E+02  0.51100000000E-03 0. -1.
        -11    1    3    3    0    0 -0.19790994411E+01 -0.12983791594E+00 -0.78478009671E+00  0.21329727011E+01  0.51100000000E-03 0.  1.
         12    1    3    3    0    0 -0.42879666313E+01 -0.66455270179E+01 -0.29717148127E+02  0.30751562236E+02  0.00000000000E+00 0. -1.
</event>
<event>
 7    1  0.2811980E-010  0.4778728E+02  0.7816164E-02  0.1312668E+00
        -11   -1    0    0    0    0  0.00000000000E+00  0.00000000000E+00  0.45593999997E+02  0.45594000000E+02  0.51100000000E-03 0. -1.
         11   -1    0    0    0    0 -0.00000000000E+00 -0.00000000000E+00 -0.45593999997E+02  0.45594000000E+02  0.51100000000E-03 0.  1.
    9900012    2    1    2    0    0  0.15718187375E+02 -0.32126840038E+02 -0.24585104539E+02  0.47787278458E+02  0.20000033800E+02 0.  0.
        -12    1    1    2    0    0 -0.15718187375E+02  0.32126840038E+02  0.24585104539E+02  0.43400721542E+02  0.00000000000E+00 0.  1.
         11    1    3    3    0    0  0.92114832424E+01 -0.19557352150E+02 -0.18202444003E+02  0.28260757503E+02  0.51100000000E-03 0. -1.
        -11    1    3    3    0    0 -0.13845316556E+01 -0.62519989361E+01  0.16527796339E+01  0.66133274062E+01  0.51100000000E-03 0.  1.
         12    1    3    3    0    0  0.78912357879E+01 -0.63174889516E+01 -0.80354401696E+01  0.12913193549E+02  0.00000000000E+00 0. -1.
</event>
<event>
 7    1  0.2811980E-010  0.4778727E+02  0.7816164E-02  0.1312668E+00
        -11   -1    0    0    0    0  0.00000000000E+00  0.00000000000E+00  0.45593999997E+02  0.45594000000E+02  0.51100000000E-03 0. -1.
         11   -1    0    0    0    0 -0.00000000000E+00 -0.00000000000E+00 -0.45593999997E+02  0.45594000000E+02  0.51100000000E-03 0.  1.
    9900012    2    1    2    0    0  0.16367004662E+02  0.27692123776E+02  0.29135729934E+02  0.47787270517E+02  0.19999997597E+02 0.  0.
        -12    1    1    2    0    0 -0.16367004662E+02 -0.27692123776E+02 -0.29135729934E+02  0.43400729483E+02  0.00000000000E+00 0.  1.
         11    1    3    3    0    0  0.55863690366E+01  0.29312737409E-01  0.76250066795E+00  0.56382431465E+01  0.51100000000E-03 0. -1.
        -11    1    3    3    0    0 -0.16544479328E+01  0.56417787983E+01  0.53161659134E+01  0.79264422190E+01  0.51100000000E-03 0.  1.
         12    1    3    3    0    0  0.12435083558E+02  0.22021032240E+02  0.23057063353E+02  0.34222585152E+02  0.00000000000E+00 0. -1.
</event>
<event>
 7    1  0.2811980E-010  0.4778727E+02  0.7816164E-02  0.1312668E+00
        -11   -1    0    0    0    0  0.00000000000E+00  0.00000000000E+00  0.45593999997E+02  0.45594000000E+02  0.51100000000E-03 0. -1.
         11   -1    0    0    0    0 -0.00000000000E+00 -0.00000000000E+00 -0.45593999997E+02  0.45594000000E+02  0.51100000000E-03 0.  1.
    9900012    2    1    2    0    0  0.38801094620E+02  0.12244015188E+02  0.15105715983E+02  0.47787268359E+02  0.19999987756E+02 0.  0.
        -12    1    1    2    0    0 -0.38801094620E+02 -0.12244015188E+02 -0.15105715983E+02  0.43400731641E+02  0.00000000000E+00 0.  1.
         11    1    3    3    0    0  0.29875719738E+02  0.80233597874E+01  0.64181304827E+01  0.31593121582E+02  0.51100000000E-03 0. -1.
        -11    1    3    3    0    0  0.93778034102E+01  0.55612853252E+01  0.95863677397E+01  0.14517904049E+02  0.51100000000E-03 0.  1.
         12    1    3    3    0    0 -0.45242852869E+00 -0.13406299247E+01 -0.89878223942E+00  0.16762427278E+01  0.00000000000E+00 0. -1.
</event>
<event>
 7    1  0.2811980E-010  0.4778727E+02  0.7816164E-02  0.1312668E+00
        -11   -1    0    0    0    0  0.00000000000E+00  0.00000000000E+00  0.45593999997E+02  0.45594000000E+02  0.51100000000E-03 0.  1.
         11   -1    0    0    0    0 -0.00000000000E+00 -0.00000000000E+00 -0.45593999997E+02  0.45594000000E+02  0.51100000000E-03 0. -1.
    9900012    2    1    2    0    0 -0.29569216925E+02 -0.31609889468E+02 -0.31779755768E+01  0.47787271543E+02  0.20000002275E+02 0.  0.
        -12    1    1    2    0    0  0.29569216925E+02  0.31609889468E+02  0.31779755768E+01  0.43400728457E+02  0.00000000000E+00 0.  1.
         11    1    3    3    0    0 -0.93795300305E+01 -0.79151719759E+01 -0.53860265817E+01  0.13402791262E+02  0.51100000000E-03 0. -1.
        -11    1    3    3    0    0  0.84359435062E+00 -0.35562985620E+01  0.37336896078E+01  0.52248779161E+01  0.51100000000E-03 0.  1.
        -12    1    3    3    0    0 -0.21033281246E+02 -0.20138418931E+02 -0.15256386028E+01  0.29159602366E+02  0.00000000000E+00 0.  1.
</event>
<event>
 7    1  0.2811980E-010  0.4778727E+02  0.7816164E-02  0.1312668E+00
        -11   -1    0    0    0    0  0.00000000000E+00  0.00000000000E+00  0.45593999997E+02  0.45594000000E+02  0.51100000000E-03 0.  1.
         11   -1    0    0    0    0 -0.00000000000E+00 -0.00000000000E+00 -0.45593999997E+02  0.45594000000E+02  0.51100000000E-03 0. -1.
    9900012    2    1    2    0    0 -0.92430252731E+01 -0.89246399775E+01 -0.41455285487E+02  0.47787269480E+02  0.19999992865E+02 0.  0.
        -12    1    1    2    0    0  0.92430252731E+01  0.89246399775E+01  0.41455285487E+02  0.43400730520E+02  0.00000000000E+00 0.  1.
         11    1    3    3    0    0  0.21038877480E+01  0.18396536766E+01  0.68287111888E-01  0.27955916542E+01  0.51100000000E-03 0.  1.
        -11    1    3    3    0    0 -0.65710254345E+01 -0.95748505428E+01 -0.34601450495E+02  0.36498171390E+02  0.51100000000E-03 0. -1.
        -12    1    3    3    0    0 -0.47758875866E+01 -0.11894431113E+01 -0.69221221033E+01  0.84935064353E+01  0.00000000000E+00 0.  1.
</event>
<event>
 7    1  0.2811980E-010  0.4778727E+02  0.7816164E-02  0.1312668E+00
        -11   -1    0    0    0    0  0.00000000000E+00  0.00000000000E+00  0.45593999997E+02  0.45594000000E+02  0.51100000000E-03 0.  1.
         11   -1    0    0    0    0 -0.00000000000E+00 -0.00000000000E+00 -0.45593999997E+02  0.45594000000E+02  0.51100000000E-03 0. -1.
    9900012    2    1    2    0    0  0.47808031982E+01 -0.24266778184E+02 -0.35663578918E+02  0.47787268855E+02  0.19999990018E+02 0.  0.
        -12    1    1    2    0    0 -0.47808031982E+01  0.24266778184E+02  0.35663578918E+02  0.43400731145E+02  0.00000000000E+00 0.  1.
         11    1    3    3    0    0  0.25438632582E+01 -0.16208046815E+02 -0.16571888877E+02  0.23319509495E+02  0.51100000000E-03 0. -1.
        -11    1    3    3    0    0  0.58826134289E+01  0.44913811532E+00 -0.58213428469E+01  0.82882385706E+01  0.51100000000E-03 0.  1.
        -12    1    3    3    0    0 -0.36456734889E+01 -0.85078694837E+01 -0.13270347194E+02  0.16179520790E+02  0.00000000000E+00 0.  1.
</event>
<event>
 7    1  0.2811980E-010  0.4778727E+02  0.7816164E-02  0.1312668E+00
        -11   -1    0    0    0    0  0.00000000000E+00  0.00000000000E+00  0.45593999997E+02  0.45594000000E+02  0.51100000000E-03 0.  1.
         11   -1    0    0    0    0 -0.00000000000E+00 -0.00000000000E+00 -0.45593999997E+02  0.45594000000E+02  0.51100000000E-03 0. -1.
    9900012    2    1    2    0    0  0.53657864731E+01  0.10625447952E+02 -0.41736450448E+02  0.47787272994E+02  0.20000008887E+02 0.  0.
        -12    1    1    2    0    0 -0.53657864731E+01 -0.10625447952E+02  0.41736450448E+02  0.43400727006E+02  0.00000000000E+00 0.  1.
         11    1    3    3    0    0 -0.81568964579E+00  0.71216416110E+01 -0.72404340424E+01  0.10188572727E+02  0.51100000000E-03 0. -1.
        -11    1    3    3    0    0  0.18725307897E+00 -0.47357545454E+01 -0.99143321465E+01  0.10988922468E+02  0.51100000000E-03 0.  1.
        -12    1    3    3    0    0  0.59942230399E+01  0.82395608867E+01 -0.24581684259E+02  0.26609777799E+02  0.00000000000E+00 0.  1.
</event>
<event>
 7    1  0.2811980E-010  0.4778727E+02  0.7816164E-02  0.1312668E+00
        -11   -1    0    0    0    0  0.00000000000E+00  0.00000000000E+00  0.45593999997E+02  0.45594000000E+02  0.51100000000E-03 0. -1.
         11   -1    0    0    0    0 -0.00000000000E+00 -0.00000000000E+00 -0.45593999997E+02  0.45594000000E+02  0.51100000000E-03 0.  1.
    9900012    2    1    2    0    0 -0.26953539738E+02 -0.32575988701E+02  0.97946400765E+01  0.47787270530E+02  0.19999997656E+02 0.  0.
        -12    1    1    2    0    0  0.26953539738E+02  0.32575988701E+02 -0.97946400765E+01  0.43400729470E+02  0.00000000000E+00 0.  1.
         11    1    3    3    0    0 -0.86384928119E+01 -0.21054819865E+01  0.76672186530E+01  0.11740649666E+02  0.51100000000E-03 0. -1.
        -11    1    3    3    0    0 -0.70162528720E+01 -0.16884208795E+02  0.35608267911E+00  0.18287457618E+02  0.51100000000E-03 0.  1.
         12    1    3    3    0    0 -0.11298794055E+02 -0.13586297919E+02  0.17713387444E+01  0.17759163246E+02  0.00000000000E+00 0. -1.
</event>
<event>
 7    1  0.2811980E-010  0.4778727E+02  0.7816164E-02  0.1312668E+00
        -11   -1    0    0    0    0  0.00000000000E+00  0.00000000000E+00  0.45593999997E+02  0.45594000000E+02  0.51100000000E-03 0.  1.
         11   -1    0    0    0    0 -0.00000000000E+00 -0.00000000000E+00 -0.45593999997E+02  0.45594000000E+02  0.51100000000E-03 0. -1.
    9900012    2    1    2    0    0  0.13789268283E+02 -0.12789017758E+02 -0.39114196391E+02  0.47787271270E+02  0.20000001028E+02 0.  0.
        -12    1    1    2    0    0 -0.13789268283E+02  0.12789017758E+02  0.39114196391E+02  0.43400728730E+02  0.00000000000E+00 0.  1.
         11    1    3    3    0    0  0.83373631440E+01 -0.59526908281E+01 -0.13355264756E+02  0.16831792811E+02  0.51100000000E-03 0. -1.
        -11    1    3    3    0    0 -0.49998509342E+00 -0.58962083293E+01 -0.17047329959E+01  0.61580331766E+01  0.51100000000E-03 0.  1.
        -12    1    3    3    0    0  0.59518902323E+01 -0.94011860014E+00 -0.24054198640E+02  0.24797445282E+02  0.00000000000E+00 0.  1.
</event>
<event>
 7    1  0.2811980E-010  0.4778727E+02  0.7816164E-02  0.1312668E+00
        -11   -1    0    0    0    0  0.00000000000E+00  0.00000000000E+00  0.45593999997E+02  0.45594000000E+02  0.51100000000E-03 0.  1.
         11   -1    0    0    0    0 -0.00000000000E+00 -0.00000000000E+00 -0.45593999997E+02  0.45594000000E+02  0.51100000000E-03 0. -1.
    9900012    2    1    2    0    0 -0.68716751304E+01 -0.36778903012E+02 -0.21993545366E+02  0.47787266554E+02  0.19999979527E+02 0.  0.
        -12    1    1    2    0    0  0.68716751304E+01  0.36778903012E+02  0.21993545366E+02  0.43400733446E+02  0.00000000000E+00 0.  1.
         11    1    3    3    0    0 -0.75956472026E+01 -0.12375963784E+02 -0.13536640938E+02  0.19851926459E+02  0.51100000000E-03 0. -1.
        -11    1    3    3    0    0 -0.19725586572E+01 -0.19757926276E+02 -0.26613575171E+01  0.20033708156E+02  0.51100000000E-03 0.  1.
        -12    1    3    3    0    0  0.26965307294E+01 -0.46450129531E+01 -0.57955469106E+01  0.79016319391E+01  0.00000000000E+00 0.  1.
</event>
<event>
 7    1  0.2811980E-010  0.4778727E+02  0.7816164E-02  0.1312668E+00
        -11   -1    0    0    0    0  0.00000000000E+00  0.00000000000E+00  0.45593999997E+02  0.45594000000E+02  0.51100000000E-03 0. -1.
         11   -1    0    0    0    0 -0.00000000000E+00 -0.00000000000E+00 -0.45593999997E+02  0.45594000000E+02  0.51100000000E-03 0.  1.
    9900012    2    1    2    0    0 -0.40883939973E+02  0.11505737501E+00 -0.14564125211E+02  0.47787268105E+02  0.19999986596E+02 0.  0.
        -12    1    1    2    0    0  0.40883939973E+02 -0.11505737501E+00  0.14564125211E+02  0.43400731895E+02  0.00000000000E+00 0.  1.
         11    1    3    3    0    0 -0.33236216072E+02  0.56315138795E+01 -0.14758195932E+02  0.36798972198E+02  0.51100000000E-03 0. -1.
        -11    1    3    3    0    0 -0.10461701656E+01 -0.45288168336E+00 -0.20723846901E+01  0.23652383388E+01  0.51100000000E-03 0.  1.
         12    1    3    3    0    0 -0.66015537348E+01 -0.50635748211E+01  0.22664554118E+01  0.86230575677E+01  0.00000000000E+00 0. -1.
</event>
<event>
 7    1  0.2811980E-010  0.4778727E+02  0.7816164E-02  0.1312668E+00
        -11   -1    0    0    0    0  0.00000000000E+00  0.00000000000E+00  0.45593999997E+02  0.45594000000E+02  0.51100000000E-03 0.  1.
         11   -1    0    0    0    0 -0.00000000000E+00 -0.00000000000E+00 -0.45593999997E+02  0.45594000000E+02  0.51100000000E-03 0. -1.
    9900012    2    1    2    0    0  0.28861453084E+02 -0.32380343788E+02 -0.14673584947E+01  0.47787270986E+02  0.19999999735E+02 0.  0.
        -12    1    1    2    0    0 -0.28861453084E+02  0.32380343788E+02  0.14673584947E+01  0.43400729014E+02  0.00000000000E+00 0.  1.
         11    1    3    3    0    0  0.12256364438E+02 -0.21754923984E+02 -0.25725097608E+01  0.25102051580E+02  0.51100000000E-03 0. -1.
        -11    1    3    3    0    0 -0.77316618522E+00  0.10022552960E+01  0.12446994404E+01  0.17752685956E+01  0.51100000000E-03 0.  1.
         12    1    3    3    0    0  0.17378254831E+02 -0.11627675100E+02 -0.13954817430E+00  0.20909950811E+02  0.00000000000E+00 0. -1.
</event>
<event>
 7    1  0.2811980E-010  0.4778727E+02  0.7816164E-02  0.1312668E+00
        -11   -1    0    0    0    0  0.00000000000E+00  0.00000000000E+00  0.45593999997E+02  0.45594000000E+02  0.51100000000E-03 0. -1.
         11   -1    0    0    0    0 -0.00000000000E+00 -0.00000000000E+00 -0.45593999997E+02  0.45594000000E+02  0.51100000000E-03 0.  1.
    9900012    2    1    2    0    0  0.75315385525E+01 -0.40720435368E+02  0.12990204712E+02  0.47787270191E+02  0.19999996109E+02 0.  0.
        -12    1    1    2    0    0 -0.75315385525E+01  0.40720435368E+02 -0.12990204712E+02  0.43400729809E+02  0.00000000000E+00 0.  1.
         11    1    3    3    0    0 -0.47437847110E+01 -0.11226760426E+02  0.49089173511E+01  0.13139296514E+02  0.51100000000E-03 0.  1.
        -11    1    3    3    0    0  0.89056502599E+01 -0.28874392361E+02  0.66785372906E+01  0.30945823650E+02  0.51100000000E-03 0. -1.
         12    1    3    3    0    0  0.33696730036E+01 -0.61928258046E+00  0.14027500701E+01  0.37021500274E+01  0.00000000000E+00 0. -1.
</event>
<event>
 7    1  0.2811980E-010  0.4778727E+02  0.7816164E-02  0.1312668E+00
        -11   -1    0    0    0    0  0.00000000000E+00  0.00000000000E+00  0.45593999997E+02  0.45594000000E+02  0.51100000000E-03 0.  1.
         11   -1    0    0    0    0 -0.00000000000E+00 -0.00000000000E+00 -0.45593999997E+02  0.45594000000E+02  0.51100000000E-03 0. -1.
    9900012    2    1    2    0    0  0.26643959140E+02  0.19295343318E+02 -0.28309232942E+02  0.47787268414E+02  0.19999988007E+02 0.  0.
        -12    1    1    2    0    0 -0.26643959140E+02 -0.19295343318E+02  0.28309232942E+02  0.43400731586E+02  0.00000000000E+00 0.  1.
         11    1    3    3    0    0  0.12109811699E+01  0.17766236716E+01 -0.10967361817E+02  0.11176130482E+02  0.51100000000E-03 0. -1.
        -11    1    3    3    0    0  0.13877873389E+02  0.10758176692E+02 -0.46523728548E+01  0.18165305089E+02  0.51100000000E-03 0.  1.
        -12    1    3    3    0    0  0.11555104581E+02  0.67605429540E+01 -0.12689498270E+02  0.18445832843E+02  0.00000000000E+00 0.  1.
</event>
<event>
 7    1  0.2811980E-010  0.4778728E+02  0.7816164E-02  0.1312668E+00
        -11   -1    0    0    0    0  0.00000000000E+00  0.00000000000E+00  0.45593999997E+02  0.45594000000E+02  0.51100000000E-03 0.  1.
         11   -1    0    0    0    0 -0.00000000000E+00 -0.00000000000E+00 -0.45593999997E+02  0.45594000000E+02  0.51100000000E-03 0. -1.
    9900012    2    1    2    0    0 -0.15705210636E+01 -0.11610387342E+02 -0.41789413588E+02  0.47787277441E+02  0.20000029164E+02 0.  0.
        -12    1    1    2    0    0  0.15705210636E+01  0.11610387342E+02  0.41789413588E+02  0.43400722559E+02  0.00000000000E+00 0.  1.
         11    1    3    3    0    0  0.49008116611E+01 -0.11593678922E+02 -0.19736629701E+02  0.23408671430E+02  0.51100000000E-03 0. -1.
        -11    1    3    3    0    0 -0.84082440626E+01  0.31155616114E+00 -0.17376876749E+02  0.19306772937E+02  0.51100000000E-03 0.  1.
        -12    1    3    3    0    0  0.19369113380E+01 -0.32826458130E+00 -0.46759071376E+01  0.50718330735E+01  0.00000000000E+00 0.  1.
</event>
<event>
 7    1  0.2811980E-010  0.4778727E+02  0.7816164E-02  0.1312668E+00
        -11   -1    0    0    0    0  0.00000000000E+00  0.00000000000E+00  0.45593999997E+02  0.45594000000E+02  0.51100000000E-03 0.  1.
         11   -1    0    0    0    0 -0.00000000000E+00 -0.00000000000E+00 -0.45593999997E+02  0.45594000000E+02  0.51100000000E-03 0. -1.
    9900012    2    1    2    0    0  0.11503395984E+01 -0.43267451982E+02  0.31980312284E+01  0.47787273210E+02  0.20000009873E+02 0.  0.
        -12    1    1    2    0    0 -0.11503395984E+01  0.43267451982E+02 -0.31980312284E+01  0.43400726790E+02  0.00000000000E+00 0.  1.
         11    1    3    3    0    0 -0.21014379672E+01 -0.12261479240E+02  0.34898944937E+01  0.12920498385E+02  0.51100000000E-03 0. -1.
        -11    1    3    3    0    0 -0.41977285726E+01 -0.75001875337E+01  0.45694365053E+01  0.97341403548E+01  0.51100000000E-03 0.  1.
        -12    1    3    3    0    0  0.74495061382E+01 -0.23505785208E+02 -0.48612997705E+01  0.25132634470E+02  0.00000000000E+00 0.  1.
</event>
<event>
 7    1  0.2811980E-010  0.4778727E+02  0.7816164E-02  0.1312668E+00
        -11   -1    0    0    0    0  0.00000000000E+00  0.00000000000E+00  0.45593999997E+02  0.45594000000E+02  0.51100000000E-03 0.  1.
         11   -1    0    0    0    0 -0.00000000000E+00 -0.00000000000E+00 -0.45593999997E+02  0.45594000000E+02  0.51100000000E-03 0. -1.
    9900012    2    1    2    0    0 -0.59132920860E+01  0.30388894117E+02 -0.30416627618E+02  0.47787272534E+02  0.20000006791E+02 0.  0.
        -12    1    1    2    0    0  0.59132920860E+01 -0.30388894117E+02  0.30416627618E+02  0.43400727466E+02  0.00000000000E+00 0.  1.
         11    1    3    3    0    0  0.53188737124E+01  0.79042142399E+01 -0.74054812774E+01  0.12066821186E+02  0.51100000000E-03 0. -1.
        -11    1    3    3    0    0 -0.10538849735E+02  0.13643249738E+02 -0.98651952224E+01  0.19862721218E+02  0.51100000000E-03 0.  1.
         12    1    3    3    0    0 -0.69331606306E+00  0.88414301388E+01 -0.13145951118E+02  0.15857730130E+02  0.00000000000E+00 0. -1.
</event>
<event>
 7    1  0.2811980E-010  0.4778727E+02  0.7816164E-02  0.1312668E+00
        -11   -1    0    0    0    0  0.00000000000E+00  0.00000000000E+00  0.45593999997E+02  0.45594000000E+02  0.51100000000E-03 0.  1.
         11   -1    0    0    0    0 -0.00000000000E+00 -0.00000000000E+00 -0.45593999997E+02  0.45594000000E+02  0.51100000000E-03 0. -1.
    9900012    2    1    2    0    0 -0.31901926920E+02 -0.40487820550E+01 -0.29146148783E+02  0.47787267677E+02  0.19999984644E+02 0.  0.
        -12    1    1    2    0    0  0.31901926920E+02  0.40487820550E+01  0.29146148783E+02  0.43400732323E+02  0.00000000000E+00 0.  1.
         11    1    3    3    0    0 -0.11682606482E+02 -0.77920631794E+01 -0.37682091423E+01  0.14539564753E+02  0.51100000000E-03 0. -1.
        -11    1    3    3    0    0  0.18513152457E-01  0.65147688702E+00 -0.23334194490E+01  0.24227281022E+01  0.51100000000E-03 0.  1.
         12    1    3    3    0    0 -0.20237833591E+02  0.30918042374E+01 -0.23044520191E+02  0.30824974821E+02  0.00000000000E+00 0. -1.
</event>
<event>
 7    1  0.2811980E-010  0.4778727E+02  0.7816164E-02  0.1312668E+00
        -11   -1    0    0    0    0  0.00000000000E+00  0.00000000000E+00  0.45593999997E+02  0.45594000000E+02  0.51100000000E-03 0. -1.
         11   -1    0    0    0    0 -0.00000000000E+00 -0.00000000000E+00 -0.45593999997E+02  0.45594000000E+02  0.51100000000E-03 0.  1.
    9900012    2    1    2    0    0  0.13071086253E+02 -0.52151532204E+01  0.41055723583E+02  0.47787267773E+02  0.19999985084E+02 0.  0.
        -12    1    1    2    0    0 -0.13071086253E+02  0.52151532204E+01 -0.41055723583E+02  0.43400732227E+02  0.00000000000E+00 0.  1.
         11    1    3    3    0    0 -0.34663679564E+01 -0.39192588315E+01  0.19972497371E+02  0.20646475440E+02  0.51100000000E-03 0. -1.
        -11    1    3    3    0    0  0.10811929160E+02 -0.23665108726E+01  0.11773208431E+02  0.16158793980E+02  0.51100000000E-03 0.  1.
         12    1    3    3    0    0  0.57255250493E+01  0.10706164837E+01  0.93100177804E+01  0.10981998353E+02  0.00000000000E+00 0. -1.
</event>
<event>
 7    1  0.2811980E-010  0.4778727E+02  0.7816164E-02  0.1312668E+00
        -11   -1    0    0    0    0  0.00000000000E+00  0.00000000000E+00  0.45593999997E+02  0.45594000000E+02  0.51100000000E-03 0. -1.
         11   -1    0    0    0    0 -0.00000000000E+00 -0.00000000000E+00 -0.45593999997E+02  0.45594000000E+02  0.51100000000E-03 0.  1.
    9900012    2    1    2    0    0 -0.25500167918E+02  0.31120164307E+02  0.16275743905E+02  0.47787273854E+02  0.20000012809E+02 0.  0.
        -12    1    1    2    0    0  0.25500167918E+02 -0.31120164307E+02 -0.16275743905E+02  0.43400726146E+02  0.00000000000E+00 0.  1.
         11    1    3    3    0    0 -0.12097014639E+02  0.74560670180E+01  0.13990019839E+02  0.19941197404E+02  0.51100000000E-03 0. -1.
        -11    1    3    3    0    0 -0.78829027098E+01  0.97346897248E+01 -0.78711317759E+00  0.12550852026E+02  0.51100000000E-03 0.  1.
         12    1    3    3    0    0 -0.55202505694E+01  0.13929407564E+02  0.30728372436E+01  0.15295224423E+02  0.00000000000E+00 0. -1.
</event>
<event>
 7    1  0.2811980E-010  0.4778727E+02  0.7816164E-02  0.1312668E+00
        -11   -1    0    0    0    0  0.00000000000E+00  0.00000000000E+00  0.45593999997E+02  0.45594000000E+02  0.51100000000E-03 0. -1.
         11   -1    0    0    0    0 -0.00000000000E+00 -0.00000000000E+00 -0.45593999997E+02  0.45594000000E+02  0.51100000000E-03 0.  1.
    9900012    2    1    2    0    0  0.13227671583E+02 -0.30720365832E+02  0.27657024267E+02  0.47787272314E+02  0.20000005790E+02 0.  0.
        -12    1    1    2    0    0 -0.13227671583E+02  0.30720365832E+02 -0.27657024267E+02  0.43400727686E+02  0.00000000000E+00 0.  1.
         11    1    3    3    0    0 -0.29843470368E+01  0.90179523266E+00  0.37416105648E+01  0.48702373410E+01  0.51100000000E-03 0.  1.
        -11    1    3    3    0    0  0.11475150374E+02 -0.19878195281E+02  0.16098765589E+02  0.28035548461E+02  0.51100000000E-03 0. -1.
        -12    1    3    3    0    0  0.47368682455E+01 -0.11743965784E+02  0.78166481128E+01  0.14881486513E+02  0.00000000000E+00 0.  1.
</event>
<event>
 7    1  0.2811980E-010  0.4778727E+02  0.7816164E-02  0.1312668E+00
        -11   -1    0    0    0    0  0.00000000000E+00  0.00000000000E+00  0.45593999997E+02  0.45594000000E+02  0.51100000000E-03 0. -1.
         11   -1    0    0    0    0 -0.00000000000E+00 -0.00000000000E+00 -0.45593999997E+02  0.45594000000E+02  0.51100000000E-03 0.  1.
    9900012    2    1    2    0    0  0.11434722745E+02 -0.18692458170E+02  0.37462819544E+02  0.47787265849E+02  0.19999976311E+02 0.  0.
        -12    1    1    2    0    0 -0.11434722745E+02  0.18692458170E+02 -0.37462819544E+02  0.43400734151E+02  0.00000000000E+00 0.  1.
         11    1    3    3    0    0  0.30242796189E+01 -0.70095289323E+01  0.28174007000E+02  0.29189971458E+02  0.51100000000E-03 0. -1.
        -11    1    3    3    0    0  0.43412739972E+01 -0.12043722261E+01  0.95832324220E+00  0.46060347454E+01  0.51100000000E-03 0.  1.
         12    1    3    3    0    0  0.40691691292E+01 -0.10478557011E+02  0.83304893022E+01  0.13991259645E+02  0.00000000000E+00 0. -1.
</event>
<event>
 7    1  0.2811980E-010  0.4778727E+02  0.7816164E-02  0.1312668E+00
        -11   -1    0    0    0    0  0.00000000000E+00  0.00000000000E+00  0.45593999997E+02  0.45594000000E+02  0.51100000000E-03 0. -1.
         11   -1    0    0    0    0 -0.00000000000E+00 -0.00000000000E+00 -0.45593999997E+02  0.45594000000E+02  0.51100000000E-03 0.  1.
    9900012    2    1    2    0    0  0.21619992310E+02 -0.22837997767E+02  0.29910278047E+02  0.47787274864E+02  0.20000017415E+02 0.  0.
        -12    1    1    2    0    0 -0.21619992310E+02  0.22837997767E+02 -0.29910278047E+02  0.43400725136E+02  0.00000000000E+00 0.  1.
         11    1    3    3    0    0 -0.14810795766E+01 -0.79054189634E+01  0.14397334082E+01  0.81708064625E+01  0.51100000000E-03 0.  1.
        -11    1    3    3    0    0  0.18616286982E+02 -0.11806022263E+02  0.21973446670E+02  0.31125241549E+02  0.51100000000E-03 0. -1.
        -12    1    3    3    0    0  0.44847849054E+01 -0.31265565405E+01  0.64970979689E+01  0.84912268528E+01  0.00000000000E+00 0.  1.
</event>
<event>
 7    1  0.2811980E-010  0.4778729E+02  0.7816164E-02  0.1312668E+00
        -11   -1    0    0    0    0  0.00000000000E+00  0.00000000000E+00  0.45593999997E+02  0.45594000000E+02  0.51100000000E-03 0. -1.
         11   -1    0    0    0    0 -0.00000000000E+00 -0.00000000000E+00 -0.45593999997E+02  0.45594000000E+02  0.51100000000E-03 0.  1.
    9900012    2    1    2    0    0  0.25625766929E+01  0.42556628549E+02  0.81232940540E+01  0.47787293334E+02  0.20000101629E+02 0.  0.
        -12    1    1    2    0    0 -0.25625766929E+01 -0.42556628549E+02 -0.81232940540E+01  0.43400706666E+02  0.00000000000E+00 0.  1.
         11    1    3    3    0    0 -0.63572182039E+01  0.91222916060E+01  0.16883215748E+01  0.11246370856E+02  0.51100000000E-03 0. -1.
        -11    1    3    3    0    0  0.62924250561E+01  0.27016353608E+02  0.10475435173E+01  0.27759238517E+02  0.51100000000E-03 0.  1.
         12    1    3    3    0    0  0.26273698408E+01  0.64179833348E+01  0.53874289618E+01  0.87816839607E+01  0.00000000000E+00 0. -1.
</event>
<event>
 7    1  0.2811980E-010  0.4778727E+02  0.7816164E-02  0.1312668E+00
        -11   -1    0    0    0    0  0.00000000000E+00  0.00000000000E+00  0.45593999997E+02  0.45594000000E+02  0.51100000000E-03 0. -1.
         11   -1    0    0    0    0 -0.00000000000E+00 -0.00000000000E+00 -0.45593999997E+02  0.45594000000E+02  0.51100000000E-03 0.  1.
    9900012    2    1    2    0    0 -0.14732207092E+02  0.17207612081E+02  0.37020041855E+02  0.47787270303E+02  0.19999996619E+02 0.  0.
        -12    1    1    2    0    0  0.14732207092E+02 -0.17207612081E+02 -0.37020041855E+02  0.43400729697E+02  0.00000000000E+00 0.  1.
         11    1    3    3    0    0 -0.24845808679E+01  0.59391014769E+01  0.90336193623E+01  0.11092896262E+02  0.51100000000E-03 0. -1.
        -11    1    3    3    0    0 -0.98174877305E+01  0.32707921967E+01  0.26168481323E+02  0.28140194775E+02  0.51100000000E-03 0.  1.
        -12    1    3    3    0    0 -0.24301384934E+01  0.79977184072E+01  0.18179411690E+01  0.85541792658E+01  0.00000000000E+00 0.  1.
</event>
<event>
 7    1  0.2811980E-010  0.4778727E+02  0.7816164E-02  0.1312668E+00
        -11   -1    0    0    0    0  0.00000000000E+00  0.00000000000E+00  0.45593999997E+02  0.45594000000E+02  0.51100000000E-03 0.  1.
         11   -1    0    0    0    0 -0.00000000000E+00 -0.00000000000E+00 -0.45593999997E+02  0.45594000000E+02  0.51100000000E-03 0. -1.
    9900012    2    1    2    0    0 -0.42490354402E+02 -0.66847779444E+00  0.88173787479E+01  0.47787271345E+02  0.20000001371E+02 0.  0.
        -12    1    1    2    0    0  0.42490354402E+02  0.66847779444E+00 -0.88173787479E+01  0.43400728655E+02  0.00000000000E+00 0.  1.
         11    1    3    3    0    0 -0.96403921094E+01 -0.61398056128E+01  0.27764653225E+00  0.11432911302E+02  0.51100000000E-03 0. -1.
        -11    1    3    3    0    0 -0.20701784775E+02  0.70998935964E+01  0.99034423871E+01  0.24021876557E+02  0.51100000000E-03 0.  1.
        -12    1    3    3    0    0 -0.12148177518E+02 -0.16285657780E+01 -0.13637101714E+01  0.12332483486E+02  0.00000000000E+00 0.  1.
</event>
<event>
 7    1  0.2811980E-010  0.4778727E+02  0.7816164E-02  0.1312668E+00
        -11   -1    0    0    0    0  0.00000000000E+00  0.00000000000E+00  0.45593999997E+02  0.45594000000E+02  0.51100000000E-03 0.  1.
         11   -1    0    0    0    0 -0.00000000000E+00 -0.00000000000E+00 -0.45593999997E+02  0.45594000000E+02  0.51100000000E-03 0. -1.
    9900012    2    1    2    0    0  0.33310190629E+02 -0.62133237543E+01 -0.27119164258E+02  0.47787271183E+02  0.20000000631E+02 0.  0.
        -12    1    1    2    0    0 -0.33310190629E+02  0.62133237543E+01  0.27119164258E+02  0.43400728817E+02  0.00000000000E+00 0.  1.
         11    1    3    3    0    0  0.26165772056E+02 -0.53858103262E+01 -0.27157679452E+02  0.38094542045E+02  0.51100000000E-03 0. -1.
        -11    1    3    3    0    0  0.22246871396E+01  0.27155113242E+01 -0.71754798474E+00  0.35830308389E+01  0.51100000000E-03 0.  1.
         12    1    3    3    0    0  0.49197314335E+01 -0.35430247522E+01  0.75606317896E+00  0.61096982989E+01  0.00000000000E+00 0. -1.
</event>
<event>
 7    1  0.2811980E-010  0.4778728E+02  0.7816164E-02  0.1312668E+00
        -11   -1    0    0    0    0  0.00000000000E+00  0.00000000000E+00  0.45593999997E+02  0.45594000000E+02  0.51100000000E-03 0.  1.
         11   -1    0    0    0    0 -0.00000000000E+00 -0.00000000000E+00 -0.45593999997E+02  0.45594000000E+02  0.51100000000E-03 0. -1.
    9900012    2    1    2    0    0 -0.35138616392E+02  0.24991583308E+02 -0.49316572303E+01  0.47787276029E+02  0.20000022727E+02 0.  0.
        -12    1    1    2    0    0  0.35138616392E+02 -0.24991583308E+02  0.49316572303E+01  0.43400723971E+02  0.00000000000E+00 0.  1.
         11    1    3    3    0    0 -0.59779574983E+01 -0.33662591271E+00 -0.67480784665E+01  0.90214109821E+01  0.51100000000E-03 0. -1.
        -11    1    3    3    0    0 -0.14636170519E+02  0.13911407937E+02  0.19911183770E+01  0.20290621254E+02  0.51100000000E-03 0.  1.
         12    1    3    3    0    0 -0.14524488375E+02  0.11416801283E+02 -0.17469714086E+00  0.18475243793E+02  0.00000000000E+00 0. -1.
</event>
<event>
 7    1  0.2811980E-010  0.4778727E+02  0.7816164E-02  0.1312668E+00
        -11   -1    0    0    0    0  0.00000000000E+00  0.00000000000E+00  0.45593999997E+02  0.45594000000E+02  0.51100000000E-03 0.  1.
         11   -1    0    0    0    0 -0.00000000000E+00 -0.00000000000E+00 -0.45593999997E+02  0.45594000000E+02  0.51100000000E-03 0. -1.
    9900012    2    1    2    0    0  0.10847724972E+02  0.33748492140E+02 -0.25039758213E+02  0.47787270166E+02  0.19999995993E+02 0.  0.
        -12    1    1    2    0    0 -0.10847724972E+02 -0.33748492140E+02  0.25039758213E+02  0.43400729834E+02  0.00000000000E+00 0.  1.
         11    1    3    3    0    0  0.44979647338E+00  0.86445814123E+01 -0.10075883019E+01  0.87147196805E+01  0.51100000000E-03 0.  1.
        -11    1    3    3    0    0  0.10097757264E+02  0.12414873280E+02 -0.20286822814E+02  0.25838904011E+02  0.51100000000E-03 0. -1.
         12    1    3    3    0    0  0.30017123438E+00  0.12689037448E+02 -0.37453470967E+01  0.13233646474E+02  0.00000000000E+00 0. -1.
</event>
<event>
 7    1  0.2811980E-010  0.4778727E+02  0.7816164E-02  0.1312668E+00
        -11   -1    0    0    0    0  0.00000000000E+00  0.00000000000E+00  0.45593999997E+02  0.45594000000E+02  0.51100000000E-03 0.  1.
         11   -1    0    0    0    0 -0.00000000000E+00 -0.00000000000E+00 -0.45593999997E+02  0.45594000000E+02  0.51100000000E-03 0. -1.
    9900012    2    1    2    0    0  0.25571977222E+02  0.63803081677E+01 -0.34481718886E+02  0.47787270873E+02  0.19999999220E+02 0.  0.
        -12    1    1    2    0    0 -0.25571977222E+02 -0.63803081677E+01  0.34481718886E+02  0.43400729127E+02  0.00000000000E+00 0.  1.
         11    1    3    3    0    0 -0.21596318128E+00  0.35545358459E+00  0.12725840959E+01  0.13388270571E+01  0.51100000000E-03 0.  1.
        -11    1    3    3    0    0  0.14341700882E+02  0.89520769824E+01 -0.26531814430E+02  0.31460471130E+02  0.51100000000E-03 0. -1.
        -12    1    3    3    0    0  0.11446239522E+02 -0.29272223993E+01 -0.92224885521E+01  0.14987972687E+02  0.00000000000E+00 0.  1.
</event>
<event>
 7    1  0.2811980E-010  0.4778727E+02  0.7816164E-02  0.1312668E+00
        -11   -1    0    0    0    0  0.00000000000E+00  0.00000000000E+00  0.45593999997E+02  0.45594000000E+02  0.51100000000E-03 0.  1.
         11   -1    0    0    0    0 -0.00000000000E+00 -0.00000000000E+00 -0.45593999997E+02  0.45594000000E+02  0.51100000000E-03 0. -1.
    9900012    2    1    2    0    0 -0.19565382464E+01 -0.39280323640E+02 -0.18353523812E+02  0.47787266095E+02  0.19999977434E+02 0.  0.
        -12    1    1    2    0    0  0.19565382464E+01  0.39280323640E+02  0.18353523812E+02  0.43400733905E+02  0.00000000000E+00 0.  1.
         11    1    3    3    0    0  0.45602780934E+01 -0.16712347079E+02 -0.37549244783E+01  0.17725635088E+02  0.51100000000E-03 0. -1.
        -11    1    3    3    0    0 -0.76657363903E+01 -0.20207669146E+02 -0.16178883815E+02  0.26997586716E+02  0.51100000000E-03 0.  1.
         12    1    3    3    0    0  0.11489200505E+01 -0.23603074150E+01  0.15802844815E+01  0.30640442912E+01  0.00000000000E+00 0. -1.
</event>
<event>
 7    1  0.2811980E-010  0.4778727E+02  0.7816164E-02  0.1312668E+00
        -11   -1    0    0    0    0  0.00000000000E+00  0.00000000000E+00  0.45593999997E+02  0.45594000000E+02  0.51100000000E-03 0.  1.
         11   -1    0    0    0    0 -0.00000000000E+00 -0.00000000000E+00 -0.45593999997E+02  0.45594000000E+02  0.51100000000E-03 0. -1.
    9900012    2    1    2    0    0 -0.30579327344E+02 -0.82465606199E+01 -0.29673595003E+02  0.47787271166E+02  0.20000000555E+02 0.  0.
        -12    1    1    2    0    0  0.30579327344E+02  0.82465606199E+01  0.29673595003E+02  0.43400728834E+02  0.00000000000E+00 0.  1.
         11    1    3    3    0    0 -0.68392753826E+01 -0.97983853314E+01 -0.72527684547E+01  0.13978079030E+02  0.51100000000E-03 0.  1.
        -11    1    3    3    0    0 -0.42189687028E+01 -0.28084886889E+01 -0.28001848594E+01  0.57903662353E+01  0.51100000000E-03 0. -1.
         12    1    3    3    0    0 -0.19521083259E+02  0.43603134003E+01 -0.19620641689E+02  0.28018825901E+02  0.00000000000E+00 0. -1.
</event>
<event>
 7    1  0.2811980E-010  0.4778727E+02  0.7816164E-02  0.1312668E+00
        -11   -1    0    0    0    0  0.00000000000E+00  0.00000000000E+00  0.45593999997E+02  0.45594000000E+02  0.51100000000E-03 0. -1.
         11   -1    0    0    0    0 -0.00000000000E+00 -0.00000000000E+00 -0.45593999997E+02  0.45594000000E+02  0.51100000000E-03 0.  1.
    9900012    2    1    2    0    0 -0.14204854386E+02 -0.38217410076E+02 -0.14875318206E+02  0.47787269444E+02  0.19999992705E+02 0.  0.
        -12    1    1    2    0    0  0.14204854386E+02  0.38217410076E+02  0.14875318206E+02  0.43400730556E+02  0.00000000000E+00 0.  1.
         11    1    3    3    0    0 -0.66192057417E+01 -0.20290317226E+02 -0.13211029840E+02  0.25100640778E+02  0.51100000000E-03 0. -1.
        -11    1    3    3    0    0 -0.12326599104E+01  0.44328520201E+00  0.24865492170E+01  0.28104945285E+01  0.51100000000E-03 0.  1.
         12    1    3    3    0    0 -0.63529887343E+01 -0.18370378052E+02 -0.41508375824E+01  0.19876134138E+02  0.00000000000E+00 0. -1.
</event>
<event>
 7    1  0.2811980E-010  0.4778727E+02  0.7816164E-02  0.1312668E+00
        -11   -1    0    0    0    0  0.00000000000E+00  0.00000000000E+00  0.45593999997E+02  0.45594000000E+02  0.51100000000E-03 0. -1.
         11   -1    0    0    0    0 -0.00000000000E+00 -0.00000000000E+00 -0.45593999997E+02  0.45594000000E+02  0.51100000000E-03 0.  1.
    9900012    2    1    2    0    0 -0.18161783717E+02 -0.38867984356E+02 -0.65614425883E+01  0.47787272765E+02  0.20000007845E+02 0.  0.
        -12    1    1    2    0    0  0.18161783717E+02  0.38867984356E+02  0.65614425883E+01  0.43400727235E+02  0.00000000000E+00 0.  1.
         11    1    3    3    0    0 -0.58295450067E+01 -0.73736614370E+01 -0.19555575323E+01  0.96009730494E+01  0.51100000000E-03 0.  1.
        -11    1    3    3    0    0 -0.14408763664E+02 -0.14024490856E+02 -0.46417055732E+00  0.20112540085E+02  0.51100000000E-03 0. -1.
        -12    1    3    3    0    0  0.20765249542E+01 -0.17469832063E+02 -0.41417144986E+01  0.18073759631E+02  0.00000000000E+00 0.  1.
</event>
<event>
 7    1  0.2811980E-010  0.4778727E+02  0.7816164E-02  0.1312668E+00
        -11   -1    0    0    0    0  0.00000000000E+00  0.00000000000E+00  0.45593999997E+02  0.45594000000E+02  0.51100000000E-03 0.  1.
         11   -1    0    0    0    0 -0.00000000000E+00 -0.00000000000E+00 -0.45593999997E+02  0.45594000000E+02  0.51100000000E-03 0. -1.
    9900012    2    1    2    0    0 -0.12839645608E+01 -0.41560409854E+02 -0.12438136852E+02  0.47787268663E+02  0.19999989143E+02 0.  0.
        -12    1    1    2    0    0  0.12839645608E+01  0.41560409854E+02  0.12438136852E+02  0.43400731337E+02  0.00000000000E+00 0.  1.
         11    1    3    3    0    0 -0.24606669737E+01 -0.21966893197E+02 -0.15932535368E+00  0.22104856107E+02  0.51100000000E-03 0. -1.
        -11    1    3    3    0    0  0.25638828418E+01 -0.19723503719E+01 -0.61956198618E+01  0.69892322146E+01  0.51100000000E-03 0.  1.
         12    1    3    3    0    0 -0.13871804290E+01 -0.17621166285E+02 -0.60831916368E+01  0.18693180342E+02  0.00000000000E+00 0. -1.
</event>
<event>
 7    1  0.2811980E-010  0.4778728E+02  0.7816164E-02  0.1312668E+00
        -11   -1    0    0    0    0  0.00000000000E+00  0.00000000000E+00  0.45593999997E+02  0.45594000000E+02  0.51100000000E-03 0.  1.
         11   -1    0    0    0    0 -0.00000000000E+00 -0.00000000000E+00 -0.45593999997E+02  0.45594000000E+02  0.51100000000E-03 0. -1.
    9900012    2    1    2    0    0  0.17441620832E+02 -0.38517602088E+02  0.97880721981E+01  0.47787283817E+02  0.20000058235E+02 0.  0.
        -12    1    1    2    0    0 -0.17441620832E+02  0.38517602088E+02 -0.97880721981E+01  0.43400716183E+02  0.00000000000E+00 0.  1.
         11    1    3    3    0    0  0.75590051315E+01 -0.18960150114E+02 -0.16996894658E+01  0.20482060332E+02  0.51100000000E-03 0. -1.
        -11    1    3    3    0    0  0.15005354751E+01 -0.75166580915E+01  0.99409340312E+01  0.12552845305E+02  0.51100000000E-03 0.  1.
        -12    1    3    3    0    0  0.83820802253E+01 -0.12040793883E+02  0.15468276327E+01  0.14752378179E+02  0.00000000000E+00 0.  1.
</event>
<event>
 7    1  0.2811980E-010  0.4778727E+02  0.7816164E-02  0.1312668E+00
        -11   -1    0    0    0    0  0.00000000000E+00  0.00000000000E+00  0.45593999997E+02  0.45594000000E+02  0.51100000000E-03 0.  1.
         11   -1    0    0    0    0 -0.00000000000E+00 -0.00000000000E+00 -0.45593999997E+02  0.45594000000E+02  0.51100000000E-03 0. -1.
    9900012    2    1    2    0    0  0.10009014089E+02  0.32831991446E+02 -0.26561311364E+02  0.47787270897E+02  0.19999999326E+02 0.  0.
        -12    1    1    2    0    0 -0.10009014089E+02 -0.32831991446E+02  0.26561311364E+02  0.43400729103E+02  0.00000000000E+00 0.  1.
         11    1    3    3    0    0  0.72235658947E+01  0.17171869923E+02 -0.39047703635E+01  0.19034186421E+02  0.51100000000E-03 0. -1.
        -11    1    3    3    0    0  0.81737631148E+00 -0.44379482852E+00 -0.55243263893E-01  0.93172418865E+00  0.51100000000E-03 0.  1.
         12    1    3    3    0    0  0.19680718826E+01  0.16103916352E+02 -0.22601297737E+02  0.27821360286E+02  0.00000000000E+00 0. -1.
</event>
<event>
 7    1  0.2811980E-010  0.4778727E+02  0.7816164E-02  0.1312668E+00
        -11   -1    0    0    0    0  0.00000000000E+00  0.00000000000E+00  0.45593999997E+02  0.45594000000E+02  0.51100000000E-03 0.  1.
         11   -1    0    0    0    0 -0.00000000000E+00 -0.00000000000E+00 -0.45593999997E+02  0.45594000000E+02  0.51100000000E-03 0. -1.
    9900012    2    1    2    0    0 -0.29692903556E+02  0.30891644274E+02  0.69037098425E+01  0.47787269394E+02  0.19999992476E+02 0.  0.
        -12    1    1    2    0    0  0.29692903556E+02 -0.30891644274E+02 -0.69037098425E+01  0.43400730606E+02  0.00000000000E+00 0.  1.
         11    1    3    3    0    0 -0.13337364749E+02  0.21140788034E+02  0.74330236918E+01  0.26078114552E+02  0.51100000000E-03 0. -1.
        -11    1    3    3    0    0 -0.25642525668E+00  0.48711534246E+01  0.15996973389E-01  0.48779243293E+01  0.51100000000E-03 0.  1.
         12    1    3    3    0    0 -0.16099113550E+02  0.48797028153E+01 -0.54531082269E+00  0.16831230513E+02  0.00000000000E+00 0. -1.
</event>
<event>
 7    1  0.2811980E-010  0.4778727E+02  0.7816164E-02  0.1312668E+00
        -11   -1    0    0    0    0  0.00000000000E+00  0.00000000000E+00  0.45593999997E+02  0.45594000000E+02  0.51100000000E-03 0. -1.
         11   -1    0    0    0    0 -0.00000000000E+00 -0.00000000000E+00 -0.45593999997E+02  0.45594000000E+02  0.51100000000E-03 0.  1.
    9900012    2    1    2    0    0  0.30930576085E+02  0.19843095580E+02  0.23090568332E+02  0.47787270456E+02  0.19999997315E+02 0.  0.
        -12    1    1    2    0    0 -0.30930576085E+02 -0.19843095580E+02 -0.23090568332E+02  0.43400729544E+02  0.00000000000E+00 0.  1.
         11    1    3    3    0    0 -0.10050813552E+01 -0.13937359471E+01  0.91936553451E+00  0.19488257151E+01  0.51100000000E-03 0.  1.
        -11    1    3    3    0    0  0.32665193395E+02  0.19329509277E+02  0.21774695595E+02  0.43758223878E+02  0.51100000000E-03 0. -1.
         12    1    3    3    0    0 -0.72953595548E+00  0.19073222495E+01  0.39650720166E+00  0.20802208620E+01  0.00000000000E+00 0. -1.
</event>
<event>
 7    1  0.2811980E-010  0.4778727E+02  0.7816164E-02  0.1312668E+00
        -11   -1    0    0    0    0  0.00000000000E+00  0.00000000000E+00  0.45593999997E+02  0.45594000000E+02  0.51100000000E-03 0. -1.
         11   -1    0    0    0    0 -0.00000000000E+00 -0.00000000000E+00 -0.45593999997E+02  0.45594000000E+02  0.51100000000E-03 0.  1.
    9900012    2    1    2    0    0  0.16327521014E+02 -0.79571280685E+01  0.39417247042E+02  0.47787271966E+02  0.20000004200E+02 0.  0.
        -12    1    1    2    0    0 -0.16327521014E+02  0.79571280685E+01 -0.39417247042E+02  0.43400728034E+02  0.00000000000E+00 0.  1.
         11    1    3    3    0    0  0.10191270611E+02 -0.82883738882E+01  0.37597976889E+02  0.39826712201E+02  0.51100000000E-03 0. -1.
        -11    1    3    3    0    0  0.55860440664E+01 -0.12902393873E-01 -0.44631306168E+00  0.56038603118E+01  0.51100000000E-03 0.  1.
         12    1    3    3    0    0  0.55020633652E+00  0.34414821355E+00  0.22655832150E+01  0.23566994526E+01  0.00000000000E+00 0. -1.
</event>
<event>
 7    1  0.2811980E-010  0.4778727E+02  0.7816164E-02  0.1312668E+00
        -11   -1    0    0    0    0  0.00000000000E+00  0.00000000000E+00  0.45593999997E+02  0.45594000000E+02  0.51100000000E-03 0.  1.
         11   -1    0    0    0    0 -0.00000000000E+00 -0.00000000000E+00 -0.45593999997E+02  0.45594000000E+02  0.51100000000E-03 0. -1.
    9900012    2    1    2    0    0  0.58425109768E+01  0.41978794572E+02  0.93418016889E+01  0.47787269741E+02  0.19999994057E+02 0.  0.
        -12    1    1    2    0    0 -0.58425109768E+01 -0.41978794572E+02 -0.93418016889E+01  0.43400730259E+02  0.00000000000E+00 0.  1.
         11    1    3    3    0    0 -0.16869358424E+00  0.32652513685E+02  0.47237331675E+01  0.32992859269E+02  0.51100000000E-03 0.  1.
        -11    1    3    3    0    0  0.50918418201E+01  0.54079847629E+01  0.69251602344E+01  0.10155343266E+02  0.51100000000E-03 0. -1.
         12    1    3    3    0    0  0.91936274090E+00  0.39182961241E+01 -0.23070917130E+01  0.46390672056E+01  0.00000000000E+00 0. -1.
</event>
<event>
 7    1  0.2811980E-010  0.4778727E+02  0.7816164E-02  0.1312668E+00
        -11   -1    0    0    0    0  0.00000000000E+00  0.00000000000E+00  0.45593999997E+02  0.45594000000E+02  0.51100000000E-03 0.  1.
         11   -1    0    0    0    0 -0.00000000000E+00 -0.00000000000E+00 -0.45593999997E+02  0.45594000000E+02  0.51100000000E-03 0. -1.
    9900012    2    1    2    0    0 -0.73613907819E+01  0.42683566841E+02 -0.27470312920E+01  0.47787272662E+02  0.20000007376E+02 0.  0.
        -12    1    1    2    0    0  0.73613907819E+01 -0.42683566841E+02  0.27470312920E+01  0.43400727338E+02  0.00000000000E+00 0.  1.
         11    1    3    3    0    0 -0.25520032127E+01  0.27083086869E+02 -0.61866691154E+01  0.27897691478E+02  0.51100000000E-03 0. -1.
        -11    1    3    3    0    0 -0.74182095168E+01  0.11734394598E+02  0.53115324343E+01  0.14863990920E+02  0.51100000000E-03 0.  1.
        -12    1    3    3    0    0  0.26088219476E+01  0.38660853741E+01 -0.18718946109E+01  0.50255902647E+01  0.00000000000E+00 0.  1.
</event>
<event>
 7    1  0.2811980E-010  0.4778727E+02  0.7816164E-02  0.1312668E+00
        -11   -1    0    0    0    0  0.00000000000E+00  0.00000000000E+00  0.45593999997E+02  0.45594000000E+02  0.51100000000E-03 0.  1.
         11   -1    0    0    0    0 -0.00000000000E+00 -0.00000000000E+00 -0.45593999997E+02  0.45594000000E+02  0.51100000000E-03 0. -1.
    9900012    2    1    2    0    0  0.43158853748E+01  0.44180895705E+01 -0.42959011467E+02  0.47787273644E+02  0.20000011851E+02 0.  0.
        -12    1    1    2    0    0 -0.43158853748E+01 -0.44180895705E+01  0.42959011467E+02  0.43400726356E+02  0.00000000000E+00 0.  1.
         11    1    3    3    0    0  0.87464335261E+01  0.51541424123E+01 -0.14842495768E+02  0.17982351468E+02  0.51100000000E-03 0. -1.
        -11    1    3    3    0    0 -0.45477115069E+01 -0.17954006012E+01 -0.28303621989E+02  0.28722816039E+02  0.51100000000E-03 0.  1.
        -12    1    3    3    0    0  0.11716335569E+00  0.10593477595E+01  0.18710628971E+00  0.10821061367E+01  0.00000000000E+00 0.  1.
</event>
<event>
 7    1  0.2811980E-010  0.4778727E+02  0.7816164E-02  0.1312668E+00
        -11   -1    0    0    0    0  0.00000000000E+00  0.00000000000E+00  0.45593999997E+02  0.45594000000E+02  0.51100000000E-03 0.  1.
         11   -1    0    0    0    0 -0.00000000000E+00 -0.00000000000E+00 -0.45593999997E+02  0.45594000000E+02  0.51100000000E-03 0. -1.
    9900012    2    1    2    0    0 -0.26917951765E+02  0.67033044987E+01 -0.33378327917E+02  0.47787271976E+02  0.20000004249E+02 0.  0.
        -12    1    1    2    0    0  0.26917951765E+02 -0.67033044987E+01  0.33378327917E+02  0.43400728024E+02  0.00000000000E+00 0.  1.
         11    1    3    3    0    0  0.51471258236E-01  0.60475090426E+01 -0.59457320273E+01  0.84809636547E+01  0.51100000000E-03 0. -1.
        -11    1    3    3    0    0 -0.33282276367E+01 -0.79269111744E+00 -0.52880798255E+00  0.34619498195E+01  0.51100000000E-03 0.  1.
         12    1    3    3    0    0 -0.23641195386E+02  0.14484865735E+01 -0.26903787908E+02  0.35844358502E+02  0.00000000000E+00 0. -1.
</event>
<event>
 7    1  0.2811980E-010  0.4778727E+02  0.7816164E-02  0.1312668E+00
        -11   -1    0    0    0    0  0.00000000000E+00  0.00000000000E+00  0.45593999997E+02  0.45594000000E+02  0.51100000000E-03 0.  1.
         11   -1    0    0    0    0 -0.00000000000E+00 -0.00000000000E+00 -0.45593999997E+02  0.45594000000E+02  0.51100000000E-03 0. -1.
    9900012    2    1    2    0    0 -0.96730398160E+01 -0.10693424495E+02 -0.40935393951E+02  0.47787268386E+02  0.19999987878E+02 0.  0.
        -12    1    1    2    0    0  0.96730398160E+01  0.10693424495E+02  0.40935393951E+02  0.43400731614E+02  0.00000000000E+00 0.  1.
         11    1    3    3    0    0 -0.42030993585E+00 -0.69518104972E+00 -0.13085732022E+02  0.13110923688E+02  0.51100000000E-03 0. -1.
        -11    1    3    3    0    0 -0.11378619402E+02 -0.12306406292E+02 -0.26274481602E+02  0.31165188898E+02  0.51100000000E-03 0.  1.
        -12    1    3    3    0    0  0.21258895219E+01  0.23081628470E+01 -0.15751803271E+01  0.35111557999E+01  0.00000000000E+00 0.  1.
</event>
<event>
 7    1  0.2811980E-010  0.4778728E+02  0.7816164E-02  0.1312668E+00
        -11   -1    0    0    0    0  0.00000000000E+00  0.00000000000E+00  0.45593999997E+02  0.45594000000E+02  0.51100000000E-03 0. -1.
         11   -1    0    0    0    0 -0.00000000000E+00 -0.00000000000E+00 -0.45593999997E+02  0.45594000000E+02  0.51100000000E-03 0.  1.
    9900012    2    1    2    0    0  0.11045143202E+02  0.34278779653E+02  0.24219670503E+02  0.47787281548E+02  0.20000047890E+02 0.  0.
        -12    1    1    2    0    0 -0.11045143202E+02 -0.34278779653E+02 -0.24219670503E+02  0.43400718452E+02  0.00000000000E+00 0.  1.
         11    1    3    3    0    0  0.10262655516E+02  0.32149968632E+02  0.20148580979E+02  0.39305316396E+02  0.51100000000E-03 0. -1.
        -11    1    3    3    0    0 -0.29633765866E+01 -0.11391178033E+00  0.94583313111E+00  0.31127443295E+01  0.51100000000E-03 0.  1.
         12    1    3    3    0    0  0.37458642728E+01  0.22427228016E+01  0.31252563931E+01  0.53692208222E+01  0.00000000000E+00 0. -1.
</event>
<event>
 7    1  0.2811980E-010  0.4778728E+02  0.7816164E-02  0.1312668E+00
        -11   -1    0    0    0    0  0.00000000000E+00  0.00000000000E+00  0.45593999997E+02  0.45594000000E+02  0.51100000000E-03 0. -1.
         11   -1    0    0    0    0 -0.00000000000E+00 -0.00000000000E+00 -0.45593999997E+02  0.45594000000E+02  0.51100000000E-03 0.  1.
    9900012    2    1    2    0    0  0.22874603177E+01  0.34520873235E+02  0.26204953916E+02  0.47787276811E+02  0.20000026292E+02 0.  0.
        -12    1    1    2    0    0 -0.22874603177E+01 -0.34520873235E+02 -0.26204953916E+02  0.43400723189E+02  0.00000000000E+00 0.  1.
         11    1    3    3    0    0  0.61830550337E+01  0.15272997267E+02  0.18808789897E+02  0.25005303292E+02  0.51100000000E-03 0. -1.
        -11    1    3    3    0    0 -0.56395040218E+01  0.15432496878E+02  0.84219424875E+01  0.18463344254E+02  0.51100000000E-03 0.  1.
         12    1    3    3    0    0  0.17439093057E+01  0.38153790894E+01 -0.10257784689E+01  0.43186292651E+01  0.00000000000E+00 0. -1.
</event>
<event>
 7    1  0.2811980E-010  0.4778727E+02  0.7816164E-02  0.1312668E+00
        -11   -1    0    0    0    0  0.00000000000E+00  0.00000000000E+00  0.45593999997E+02  0.45594000000E+02  0.51100000000E-03 0.  1.
         11   -1    0    0    0    0 -0.00000000000E+00 -0.00000000000E+00 -0.45593999997E+02  0.45594000000E+02  0.51100000000E-03 0. -1.
    9900012    2    1    2    0    0 -0.42979020745E+02  0.24923425014E+01 -0.54968283602E+01  0.47787272848E+02  0.20000008222E+02 0.  0.
        -12    1    1    2    0    0  0.42979020745E+02 -0.24923425014E+01  0.54968283602E+01  0.43400727152E+02  0.00000000000E+00 0.  1.
         11    1    3    3    0    0 -0.28025440336E+02  0.10065845577E+01 -0.77324229863E+01  0.29090013475E+02  0.51100000000E-03 0. -1.
        -11    1    3    3    0    0 -0.96330765261E+01  0.10227694360E+01 -0.40058299431E+01  0.10482790395E+02  0.51100000000E-03 0.  1.
         12    1    3    3    0    0 -0.53205038827E+01  0.46298850763E+00  0.62414245692E+01  0.82144689772E+01  0.00000000000E+00 0. -1.
</event>
<event>
 7    1  0.2811980E-010  0.4778726E+02  0.7816164E-02  0.1312668E+00
        -11   -1    0    0    0    0  0.00000000000E+00  0.00000000000E+00  0.45593999997E+02  0.45594000000E+02  0.51100000000E-03 0.  1.
         11   -1    0    0    0    0 -0.00000000000E+00 -0.00000000000E+00 -0.45593999997E+02  0.45594000000E+02  0.51100000000E-03 0. -1.
    9900012    2    1    2    0    0  0.52926279293E+00 -0.19570679202E+02 -0.38734131510E+02  0.47787256373E+02  0.19999933106E+02 0.  0.
        -12    1    1    2    0    0 -0.52926279293E+00  0.19570679202E+02  0.38734131510E+02  0.43400743627E+02  0.00000000000E+00 0.  1.
         11    1    3    3    0    0  0.55042903034E+00 -0.13107776975E+02 -0.21566634091E+02  0.25243543642E+02  0.51100000000E-03 0. -1.
        -11    1    3    3    0    0 -0.27684841743E+01 -0.22455611004E+01  0.99154265462E+00  0.37000278886E+01  0.51100000000E-03 0.  1.
        -12    1    3    3    0    0  0.27473179369E+01 -0.42173411271E+01 -0.18159040074E+02  0.18843684842E+02  0.00000000000E+00 0.  1.
</event>
<event>
 7    1  0.2811980E-010  0.4778727E+02  0.7816164E-02  0.1312668E+00
        -11   -1    0    0    0    0  0.00000000000E+00  0.00000000000E+00  0.45593999997E+02  0.45594000000E+02  0.51100000000E-03 0.  1.
         11   -1    0    0    0    0 -0.00000000000E+00 -0.00000000000E+00 -0.45593999997E+02  0.45594000000E+02  0.51100000000E-03 0. -1.
    9900012    2    1    2    0    0 -0.25492830060E+02  0.24075379653E+02 -0.25575670063E+02  0.47787272021E+02  0.20000004451E+02 0.  0.
        -12    1    1    2    0    0  0.25492830060E+02 -0.24075379653E+02  0.25575670063E+02  0.43400727979E+02  0.00000000000E+00 0.  1.
         11    1    3    3    0    0 -0.36296591691E+01  0.27629491921E+01 -0.58175241875E+01  0.73926924632E+01  0.51100000000E-03 0. -1.
        -11    1    3    3    0    0  0.15351976630E+01 -0.13334293920E+01 -0.33814908712E+01  0.39458011330E+01  0.51100000000E-03 0.  1.
        -12    1    3    3    0    0 -0.23398368554E+02  0.22645859853E+02 -0.16376655005E+02  0.36448778425E+02  0.00000000000E+00 0.  1.
</event>
<event>
 7    1  0.2811980E-010  0.4778728E+02  0.7816164E-02  0.1312668E+00
        -11   -1    0    0    0    0  0.00000000000E+00  0.00000000000E+00  0.45593999997E+02  0.45594000000E+02  0.51100000000E-03 0.  1.
         11   -1    0    0    0    0 -0.00000000000E+00 -0.00000000000E+00 -0.45593999997E+02  0.45594000000E+02  0.51100000000E-03 0. -1.
    9900012    2    1    2    0    0 -0.20350261885E+02 -0.12652114675E+02 -0.36185814868E+02  0.47787281548E+02  0.20000047889E+02 0.  0.
        -12    1    1    2    0    0  0.20350261885E+02  0.12652114675E+02  0.36185814868E+02  0.43400718452E+02  0.00000000000E+00 0.  1.
         11    1    3    3    0    0  0.16946299221E+01 -0.34847483946E+01 -0.75580074898E+01  0.84934515612E+01  0.51100000000E-03 0. -1.
        -11    1    3    3    0    0 -0.23161152377E+02 -0.10238039780E+02 -0.27474278668E+02  0.37364320233E+02  0.51100000000E-03 0.  1.
        -12    1    3    3    0    0  0.11162605697E+01  0.10706734996E+01 -0.11535287104E+01  0.19295097533E+01  0.00000000000E+00 0.  1.
</event>
<event>
 7    1  0.2811980E-010  0.4778727E+02  0.7816164E-02  0.1312668E+00
        -11   -1    0    0    0    0  0.00000000000E+00  0.00000000000E+00  0.45593999997E+02  0.45594000000E+02  0.51100000000E-03 0.  1.
         11   -1    0    0    0    0 -0.00000000000E+00 -0.00000000000E+00 -0.45593999997E+02  0.45594000000E+02  0.51100000000E-03 0. -1.
    9900012    2    1    2    0    0 -0.10120322575E+02  0.22654844935E+02 -0.35608432004E+02  0.47787270077E+02  0.19999995591E+02 0.  0.
        -12    1    1    2    0    0  0.10120322575E+02 -0.22654844935E+02  0.35608432004E+02  0.43400729923E+02  0.00000000000E+00 0.  1.
         11    1    3    3    0    0 -0.12312229280E+01  0.53978100076E+01 -0.24861981170E+02  0.25470971138E+02  0.51100000000E-03 0. -1.
        -11    1    3    3    0    0 -0.59395179337E+01  0.10813655249E+02 -0.55474097726E+01  0.13527260202E+02  0.51100000000E-03 0.  1.
         12    1    3    3    0    0 -0.29495817130E+01  0.64433796777E+01 -0.51990410616E+01  0.87890387366E+01  0.00000000000E+00 0. -1.
</event>
<event>
 7    1  0.2811980E-010  0.4778724E+02  0.7816164E-02  0.1312668E+00
        -11   -1    0    0    0    0  0.00000000000E+00  0.00000000000E+00  0.45593999997E+02  0.45594000000E+02  0.51100000000E-03 0. -1.
         11   -1    0    0    0    0 -0.00000000000E+00 -0.00000000000E+00 -0.45593999997E+02  0.45594000000E+02  0.51100000000E-03 0.  1.
    9900012    2    1    2    0    0  0.36287807730E+02  0.18776740781E+02  0.14637455476E+02  0.47787238636E+02  0.19999852236E+02 0.  0.
        -12    1    1    2    0    0 -0.36287807730E+02 -0.18776740781E+02 -0.14637455476E+02  0.43400761364E+02  0.00000000000E+00 0.  1.
         11    1    3    3    0    0  0.26215343105E+02  0.17890934315E+02  0.67716139252E+01  0.32452804196E+02  0.51100000000E-03 0. -1.
        -11    1    3    3    0    0  0.38442173334E+01 -0.70958301847E+00  0.79996566577E+01  0.89037083212E+01  0.51100000000E-03 0.  1.
        -12    1    3    3    0    0  0.62282472913E+01  0.15953894840E+01 -0.13381510723E+00  0.64307261184E+01  0.00000000000E+00 0.  1.
</event>
<event>
 7    1  0.2811980E-010  0.4778729E+02  0.7816164E-02  0.1312668E+00
        -11   -1    0    0    0    0  0.00000000000E+00  0.00000000000E+00  0.45593999997E+02  0.45594000000E+02  0.51100000000E-03 0. -1.
         11   -1    0    0    0    0 -0.00000000000E+00 -0.00000000000E+00 -0.45593999997E+02  0.45594000000E+02  0.51100000000E-03 0.  1.
    9900012    2    1    2    0    0 -0.32328802934E+02  0.10374253689E+02  0.27034148029E+02  0.47787288042E+02  0.20000077501E+02 0.  0.
        -12    1    1    2    0    0  0.32328802934E+02 -0.10374253689E+02 -0.27034148029E+02  0.43400711958E+02  0.00000000000E+00 0.  1.
         11    1    3    3    0    0 -0.21726156071E+01  0.32449605758E+01  0.40852200710E+01  0.56514645009E+01  0.51100000000E-03 0. -1.
        -11    1    3    3    0    0 -0.27312748762E+02  0.96761723659E+01  0.24567880161E+02  0.37989410268E+02  0.51100000000E-03 0.  1.
        -12    1    3    3    0    0 -0.28434385652E+01 -0.25468792528E+01 -0.16189522033E+01  0.41464132740E+01  0.00000000000E+00 0.  1.
</event>
<event>
 7    1  0.2811980E-010  0.4778727E+02  0.7816164E-02  0.1312668E+00
        -11   -1    0    0    0    0  0.00000000000E+00  0.00000000000E+00  0.45593999997E+02  0.45594000000E+02  0.51100000000E-03 0.  1.
         11   -1    0    0    0    0 -0.00000000000E+00 -0.00000000000E+00 -0.45593999997E+02  0.45594000000E+02  0.51100000000E-03 0. -1.
    9900012    2    1    2    0    0 -0.71869827832E+01 -0.38282714171E+02 -0.19141691795E+02  0.47787270852E+02  0.19999999123E+02 0.  0.
        -12    1    1    2    0    0  0.71869827832E+01  0.38282714171E+02  0.19141691795E+02  0.43400729148E+02  0.00000000000E+00 0.  1.
         11    1    3    3    0    0 -0.36180372701E+01 -0.29031697817E+02 -0.82976949315E+01  0.30410218896E+02  0.51100000000E-03 0. -1.
        -11    1    3    3    0    0  0.23315572755E+01 -0.57226798091E+00 -0.45371333991E+01  0.51331500770E+01  0.51100000000E-03 0.  1.
        -12    1    3    3    0    0 -0.59005027886E+01 -0.86787483723E+01 -0.63068634643E+01  0.12243901879E+02  0.00000000000E+00 0.  1.
</event>
<event>
 7    1  0.2811980E-010  0.4778727E+02  0.7816164E-02  0.1312668E+00
        -11   -1    0    0    0    0  0.00000000000E+00  0.00000000000E+00  0.45593999997E+02  0.45594000000E+02  0.51100000000E-03 0.  1.
         11   -1    0    0    0    0 -0.00000000000E+00 -0.00000000000E+00 -0.45593999997E+02  0.45594000000E+02  0.51100000000E-03 0. -1.
    9900012    2    1    2    0    0  0.23631124203E+02 -0.17063953859E+02 -0.32156098502E+02  0.47787271627E+02  0.20000002657E+02 0.  0.
        -12    1    1    2    0    0 -0.23631124203E+02  0.17063953859E+02  0.32156098502E+02  0.43400728373E+02  0.00000000000E+00 0.  1.
         11    1    3    3    0    0  0.22208399788E+02 -0.83837755869E+01 -0.24245877093E+02  0.33931744289E+02  0.51100000000E-03 0. -1.
        -11    1    3    3    0    0  0.62699121228E-01 -0.23605928850E+01  0.12283233776E+01  0.26617867175E+01  0.51100000000E-03 0.  1.
         12    1    3    3    0    0  0.13600252945E+01 -0.63195853873E+01 -0.91385447865E+01  0.11193740621E+02  0.00000000000E+00 0. -1.
</event>
<event>
 7    1  0.2811980E-010  0.4778727E+02  0.7816164E-02  0.1312668E+00
        -11   -1    0    0    0    0  0.00000000000E+00  0.00000000000E+00  0.45593999997E+02  0.45594000000E+02  0.51100000000E-03 0.  1.
         11   -1    0    0    0    0 -0.00000000000E+00 -0.00000000000E+00 -0.45593999997E+02  0.45594000000E+02  0.51100000000E-03 0. -1.
    9900012    2    1    2    0    0 -0.10796511122E+02 -0.31633334048E+02 -0.27683762997E+02  0.47787271791E+02  0.20000003404E+02 0.  0.
        -12    1    1    2    0    0  0.10796511122E+02  0.31633334048E+02  0.27683762997E+02  0.43400728209E+02  0.00000000000E+00 0.  1.
         11    1    3    3    0    0 -0.14469520165E+00 -0.52444473347E+01 -0.11033718069E+01  0.53612120041E+01  0.51100000000E-03 0. -1.
        -11    1    3    3    0    0 -0.11619749172E+02 -0.24461237343E+02 -0.28659498312E+02  0.39430160372E+02  0.51100000000E-03 0.  1.
        -12    1    3    3    0    0  0.96793325178E+00 -0.19276493706E+01  0.20791071229E+01  0.29958994149E+01  0.00000000000E+00 0.  1.
</event>
<event>
 7    1  0.2811980E-010  0.4778727E+02  0.7816164E-02  0.1312668E+00
        -11   -1    0    0    0    0  0.00000000000E+00  0.00000000000E+00  0.45593999997E+02  0.45594000000E+02  0.51100000000E-03 0. -1.
         11   -1    0    0    0    0 -0.00000000000E+00 -0.00000000000E+00 -0.45593999997E+02  0.45594000000E+02  0.51100000000E-03 0.  1.
    9900012    2    1    2    0    0 -0.26806482706E+02  0.24817706301E+01  0.34042274024E+02  0.47787272803E+02  0.20000008016E+02 0.  0.
        -12    1    1    2    0    0  0.26806482706E+02 -0.24817706301E+01 -0.34042274024E+02  0.43400727197E+02  0.00000000000E+00 0.  1.
         11    1    3    3    0    0 -0.10511728313E+01 -0.22587917330E+01  0.12514536128E+02  0.12760122224E+02  0.51100000000E-03 0. -1.
        -11    1    3    3    0    0 -0.27140905884E+00  0.39267184627E+00 -0.75763964212E+00  0.89547314002E+00  0.51100000000E-03 0.  1.
         12    1    3    3    0    0 -0.25483900816E+02  0.43478905169E+01  0.22285377538E+02  0.34131677438E+02  0.00000000000E+00 0. -1.
</event>
<event>
 7    1  0.2811980E-010  0.4778728E+02  0.7816164E-02  0.1312668E+00
        -11   -1    0    0    0    0  0.00000000000E+00  0.00000000000E+00  0.45593999997E+02  0.45594000000E+02  0.51100000000E-03 0.  1.
         11   -1    0    0    0    0 -0.00000000000E+00 -0.00000000000E+00 -0.45593999997E+02  0.45594000000E+02  0.51100000000E-03 0. -1.
    9900012    2    1    2    0    0  0.12719629977E+02  0.14753968049E+02 -0.38783425763E+02  0.47787277957E+02  0.20000031516E+02 0.  0.
        -12    1    1    2    0    0 -0.12719629977E+02 -0.14753968049E+02  0.38783425763E+02  0.43400722043E+02  0.00000000000E+00 0.  1.
         11    1    3    3    0    0  0.93670932158E+01 -0.16487912293E+01 -0.11452565012E+02  0.14886980669E+02  0.51100000000E-03 0. -1.
        -11    1    3    3    0    0  0.26513619111E+01  0.11057223332E+02 -0.11481651281E+02  0.16159214839E+02  0.51100000000E-03 0.  1.
        -12    1    3    3    0    0  0.70117485041E+00  0.53455359460E+01 -0.15849209471E+02  0.16741082449E+02  0.00000000000E+00 0.  1.
</event>
<event>
 7    1  0.2811980E-010  0.4778730E+02  0.7816164E-02  0.1312668E+00
        -11   -1    0    0    0    0  0.00000000000E+00  0.00000000000E+00  0.45593999997E+02  0.45594000000E+02  0.51100000000E-03 0. -1.
         11   -1    0    0    0    0 -0.00000000000E+00 -0.00000000000E+00 -0.45593999997E+02  0.45594000000E+02  0.51100000000E-03 0.  1.
    9900012    2    1    2    0    0 -0.33672272161E+02 -0.26198801958E+02  0.79637588720E+01  0.47787301942E+02  0.20000140875E+02 0.  0.
        -12    1    1    2    0    0  0.33672272161E+02  0.26198801958E+02 -0.79637588720E+01  0.43400698058E+02  0.00000000000E+00 0.  1.
         11    1    3    3    0    0 -0.25962482543E+01  0.10187389706E+01  0.69572010954E+00  0.28744322605E+01  0.51100000000E-03 0. -1.
        -11    1    3    3    0    0 -0.20223951734E+01 -0.25964472262E+01  0.59589725731E+01  0.68074205705E+01  0.51100000000E-03 0.  1.
        -12    1    3    3    0    0 -0.29053628733E+02 -0.24621093703E+02  0.13090661894E+01  0.38105449111E+02  0.00000000000E+00 0.  1.
</event>
<event>
 7    1  0.2811980E-010  0.4778727E+02  0.7816164E-02  0.1312668E+00
        -11   -1    0    0    0    0  0.00000000000E+00  0.00000000000E+00  0.45593999997E+02  0.45594000000E+02  0.51100000000E-03 0. -1.
         11   -1    0    0    0    0 -0.00000000000E+00 -0.00000000000E+00 -0.45593999997E+02  0.45594000000E+02  0.51100000000E-03 0.  1.
    9900012    2    1    2    0    0 -0.26349478052E+02 -0.16762523221E+02  0.30138782812E+02  0.47787269502E+02  0.19999992968E+02 0.  0.
        -12    1    1    2    0    0  0.26349478052E+02  0.16762523221E+02 -0.30138782812E+02  0.43400730498E+02  0.00000000000E+00 0.  1.
         11    1    3    3    0    0 -0.81568632333E+01  0.11677631887E+01  0.16975142242E+02  0.18869381099E+02  0.51100000000E-03 0. -1.
        -11    1    3    3    0    0 -0.96027299784E+01 -0.10769225191E+02  0.88792868247E+01  0.16941970636E+02  0.51100000000E-03 0.  1.
         12    1    3    3    0    0 -0.85898848403E+01 -0.71610612180E+01  0.42843537461E+01  0.11975917767E+02  0.00000000000E+00 0. -1.
</event>
<event>
 7    1  0.2811980E-010  0.4778727E+02  0.7816164E-02  0.1312668E+00
        -11   -1    0    0    0    0  0.00000000000E+00  0.00000000000E+00  0.45593999997E+02  0.45594000000E+02  0.51100000000E-03 0. -1.
         11   -1    0    0    0    0 -0.00000000000E+00 -0.00000000000E+00 -0.45593999997E+02  0.45594000000E+02  0.51100000000E-03 0.  1.
    9900012    2    1    2    0    0 -0.32501736157E+02  0.21096511654E+02  0.19549875324E+02  0.47787270947E+02  0.19999999554E+02 0.  0.
        -12    1    1    2    0    0  0.32501736157E+02 -0.21096511654E+02 -0.19549875324E+02  0.43400729053E+02  0.00000000000E+00 0.  1.
         11    1    3    3    0    0 -0.17592533742E+02  0.25855937392E+01  0.10232822443E+02  0.20515681658E+02  0.51100000000E-03 0. -1.
        -11    1    3    3    0    0 -0.37531273844E+01  0.11371476671E+02  0.68601548876E+01  0.13800658397E+02  0.51100000000E-03 0.  1.
         12    1    3    3    0    0 -0.11156075030E+02  0.71394412437E+01  0.24568979927E+01  0.13470930892E+02  0.00000000000E+00 0. -1.
</event>
<event>
 7    1  0.2811980E-010  0.4778726E+02  0.7816164E-02  0.1312668E+00
        -11   -1    0    0    0    0  0.00000000000E+00  0.00000000000E+00  0.45593999997E+02  0.45594000000E+02  0.51100000000E-03 0.  1.
         11   -1    0    0    0    0 -0.00000000000E+00 -0.00000000000E+00 -0.45593999997E+02  0.45594000000E+02  0.51100000000E-03 0. -1.
    9900012    2    1    2    0    0  0.30864340651E+01 -0.15038131542E+02 -0.40594986678E+02  0.47787257853E+02  0.19999939854E+02 0.  0.
        -12    1    1    2    0    0 -0.30864340651E+01  0.15038131542E+02  0.40594986678E+02  0.43400742147E+02  0.00000000000E+00 0.  1.
         11    1    3    3    0    0  0.21860868318E+01 -0.15539450534E+02 -0.23082691425E+02  0.27911720517E+02  0.51100000000E-03 0. -1.
        -11    1    3    3    0    0  0.79285190339E+00 -0.34746767796E+01 -0.14373516118E+02  0.14808779785E+02  0.51100000000E-03 0.  1.
         12    1    3    3    0    0  0.10749532999E+00  0.39759957715E+01 -0.31387791361E+01  0.50667575515E+01  0.00000000000E+00 0. -1.
</event>
<event>
 7    1  0.2811980E-010  0.4778727E+02  0.7816164E-02  0.1312668E+00
        -11   -1    0    0    0    0  0.00000000000E+00  0.00000000000E+00  0.45593999997E+02  0.45594000000E+02  0.51100000000E-03 0.  1.
         11   -1    0    0    0    0 -0.00000000000E+00 -0.00000000000E+00 -0.45593999997E+02  0.45594000000E+02  0.51100000000E-03 0. -1.
    9900012    2    1    2    0    0  0.41130839374E+02  0.10417547368E+02  0.91297258261E+01  0.47787272651E+02  0.20000007325E+02 0.  0.
        -12    1    1    2    0    0 -0.41130839374E+02 -0.10417547368E+02 -0.91297258261E+01  0.43400727349E+02  0.00000000000E+00 0.  1.
         11    1    3    3    0    0  0.23767527190E+02  0.25008329401E+00 -0.26231857213E+01  0.23913155249E+02  0.51100000000E-03 0. -1.
        -11    1    3    3    0    0  0.10090296362E+02  0.48065449215E+01  0.92246937146E+01  0.14491788335E+02  0.51100000000E-03 0.  1.
         12    1    3    3    0    0  0.72730158219E+01  0.53609191527E+01  0.25282178328E+01  0.93823290668E+01  0.00000000000E+00 0. -1.
</event>
<event>
 7    1  0.2811980E-010  0.4778728E+02  0.7816164E-02  0.1312668E+00
        -11   -1    0    0    0    0  0.00000000000E+00  0.00000000000E+00  0.45593999997E+02  0.45594000000E+02  0.51100000000E-03 0.  1.
         11   -1    0    0    0    0 -0.00000000000E+00 -0.00000000000E+00 -0.45593999997E+02  0.45594000000E+02  0.51100000000E-03 0. -1.
    9900012    2    1    2    0    0  0.14532549226E+02  0.77937441299E+01 -0.40145800857E+02  0.47787276953E+02  0.20000026939E+02 0.  0.
        -12    1    1    2    0    0 -0.14532549226E+02 -0.77937441299E+01  0.40145800857E+02  0.43400723047E+02  0.00000000000E+00 0.  1.
         11    1    3    3    0    0 -0.38972035734E+00  0.71532116234E+01 -0.13294274020E+02  0.15101590660E+02  0.51100000000E-03 0. -1.
        -11    1    3    3    0    0  0.16770694830E+02  0.47892914256E+00 -0.24383222915E+02  0.29597755627E+02  0.51100000000E-03 0.  1.
        -12    1    3    3    0    0 -0.18484252472E+01  0.16160336392E+00 -0.24683039227E+01  0.30879306657E+01  0.00000000000E+00 0.  1.
</event>
<event>
 7    1  0.2811980E-010  0.4778727E+02  0.7816164E-02  0.1312668E+00
        -11   -1    0    0    0    0  0.00000000000E+00  0.00000000000E+00  0.45593999997E+02  0.45594000000E+02  0.51100000000E-03 0.  1.
         11   -1    0    0    0    0 -0.00000000000E+00 -0.00000000000E+00 -0.45593999997E+02  0.45594000000E+02  0.51100000000E-03 0. -1.
    9900012    2    1    2    0    0 -0.18540678528E+02  0.22289723136E+02 -0.32296056230E+02  0.47787265378E+02  0.19999974164E+02 0.  0.
        -12    1    1    2    0    0  0.18540678528E+02 -0.22289723136E+02  0.32296056230E+02  0.43400734622E+02  0.00000000000E+00 0.  1.
         11    1    3    3    0    0 -0.18044734476E+02  0.17447303732E+02 -0.16212986875E+02  0.29881127715E+02  0.51100000000E-03 0. -1.
        -11    1    3    3    0    0  0.35834179451E+00 -0.13372126736E+01 -0.49982931693E+01  0.51864710009E+01  0.51100000000E-03 0.  1.
         12    1    3    3    0    0 -0.85428584615E+00  0.61796320778E+01 -0.11084776185E+02  0.12719666662E+02  0.00000000000E+00 0. -1.
</event>
<event>
 7    1  0.2811980E-010  0.4778727E+02  0.7816164E-02  0.1312668E+00
        -11   -1    0    0    0    0  0.00000000000E+00  0.00000000000E+00  0.45593999997E+02  0.45594000000E+02  0.51100000000E-03 0.  1.
         11   -1    0    0    0    0 -0.00000000000E+00 -0.00000000000E+00 -0.45593999997E+02  0.45594000000E+02  0.51100000000E-03 0. -1.
    9900012    2    1    2    0    0 -0.55752631678E+01 -0.19315173531E+02 -0.38463797845E+02  0.47787271520E+02  0.20000002168E+02 0.  0.
        -12    1    1    2    0    0  0.55752631678E+01  0.19315173531E+02  0.38463797845E+02  0.43400728480E+02  0.00000000000E+00 0.  1.
         11    1    3    3    0    0  0.45311204259E+01 -0.10033205470E+02 -0.11873996499E+02  0.16192222128E+02  0.51100000000E-03 0. -1.
        -11    1    3    3    0    0 -0.97740828333E+01 -0.70392773637E+01 -0.12631820788E+02  0.17454140418E+02  0.51100000000E-03 0.  1.
         12    1    3    3    0    0 -0.33230076042E+00 -0.22426906968E+01 -0.13957980558E+02  0.14140908974E+02  0.00000000000E+00 0. -1.
</event>
<event>
 7    1  0.2811980E-010  0.4778727E+02  0.7816164E-02  0.1312668E+00
        -11   -1    0    0    0    0  0.00000000000E+00  0.00000000000E+00  0.45593999997E+02  0.45594000000E+02  0.51100000000E-03 0.  1.
         11   -1    0    0    0    0 -0.00000000000E+00 -0.00000000000E+00 -0.45593999997E+02  0.45594000000E+02  0.51100000000E-03 0. -1.
    9900012    2    1    2    0    0  0.17022997532E+02  0.17454716034E+01 -0.39884767414E+02  0.47787265124E+02  0.19999973007E+02 0.  0.
        -12    1    1    2    0    0 -0.17022997532E+02 -0.17454716034E+01  0.39884767414E+02  0.43400734876E+02  0.00000000000E+00 0.  1.
         11    1    3    3    0    0  0.12072633423E+02  0.49340261054E+01 -0.21784231927E+02  0.25389876964E+02  0.51100000000E-03 0. -1.
        -11    1    3    3    0    0  0.14720090341E+01 -0.47140745728E+01 -0.12093963820E+01  0.50844812463E+01  0.51100000000E-03 0.  1.
        -12    1    3    3    0    0  0.34783550751E+01  0.15255200708E+01 -0.16891139105E+02  0.17312906913E+02  0.00000000000E+00 0.  1.
</event>
<event>
 7    1  0.2811980E-010  0.4778727E+02  0.7816164E-02  0.1312668E+00
        -11   -1    0    0    0    0  0.00000000000E+00  0.00000000000E+00  0.45593999997E+02  0.45594000000E+02  0.51100000000E-03 0.  1.
         11   -1    0    0    0    0 -0.00000000000E+00 -0.00000000000E+00 -0.45593999997E+02  0.45594000000E+02  0.51100000000E-03 0. -1.
    9900012    2    1    2    0    0 -0.39835379425E+02 -0.13317139756E+02  0.10927925475E+02  0.47787271660E+02  0.20000002807E+02 0.  0.
        -12    1    1    2    0    0  0.39835379425E+02  0.13317139756E+02 -0.10927925475E+02  0.43400728340E+02  0.00000000000E+00 0.  1.
         11    1    3    3    0    0 -0.25133547305E+02 -0.27278095817E+01  0.92601315299E+01  0.26923710396E+02  0.51100000000E-03 0. -1.
        -11    1    3    3    0    0 -0.79482356051E+01 -0.11372742172E+02  0.21811573857E+01  0.14045325256E+02  0.51100000000E-03 0.  1.
         12    1    3    3    0    0 -0.67535965151E+01  0.78341199756E+00 -0.51336344027E+00  0.68182360086E+01  0.00000000000E+00 0. -1.
</event>
<event>
 7    1  0.2811980E-010  0.4778723E+02  0.7816164E-02  0.1312668E+00
        -11   -1    0    0    0    0  0.00000000000E+00  0.00000000000E+00  0.45593999997E+02  0.45594000000E+02  0.51100000000E-03 0. -1.
         11   -1    0    0    0    0 -0.00000000000E+00 -0.00000000000E+00 -0.45593999997E+02  0.45594000000E+02  0.51100000000E-03 0.  1.
    9900012    2    1    2    0    0  0.24317554969E+02 -0.34230497432E+01  0.35784994466E+02  0.47787232978E+02  0.19999826438E+02 0.  0.
        -12    1    1    2    0    0 -0.24317554969E+02  0.34230497432E+01 -0.35784994466E+02  0.43400767022E+02  0.00000000000E+00 0.  1.
         11    1    3    3    0    0  0.54758443235E+01 -0.90744440417E+00  0.58025114783E+01  0.80297861814E+01  0.51100000000E-03 0. -1.
        -11    1    3    3    0    0  0.21158561583E+02  0.81732034274E+00  0.20632464940E+02  0.29564359465E+02  0.51100000000E-03 0.  1.
        -12    1    3    3    0    0 -0.23168509370E+01 -0.33329256818E+01  0.93500180474E+01  0.10193087332E+02  0.00000000000E+00 0.  1.
</event>
<event>
 7    1  0.2811980E-010  0.4778727E+02  0.7816164E-02  0.1312668E+00
        -11   -1    0    0    0    0  0.00000000000E+00  0.00000000000E+00  0.45593999997E+02  0.45594000000E+02  0.51100000000E-03 0.  1.
         11   -1    0    0    0    0 -0.00000000000E+00 -0.00000000000E+00 -0.45593999997E+02  0.45594000000E+02  0.51100000000E-03 0. -1.
    9900012    2    1    2    0    0  0.34947880225E+02 -0.11150505210E+02 -0.23193427725E+02  0.47787272031E+02  0.20000004497E+02 0.  0.
        -12    1    1    2    0    0 -0.34947880225E+02  0.11150505210E+02  0.23193427725E+02  0.43400727969E+02  0.00000000000E+00 0.  1.
         11    1    3    3    0    0  0.39522582397E+01 -0.70863547287E+00 -0.63826719330E+01  0.75406240254E+01  0.51100000000E-03 0. -1.
        -11    1    3    3    0    0  0.24301910391E+02 -0.61179506370E+01 -0.19588507873E+02  0.31807574720E+02  0.51100000000E-03 0.  1.
        -12    1    3    3    0    0  0.66937115940E+01 -0.43239191005E+01  0.27777520808E+01  0.84390732853E+01  0.00000000000E+00 0.  1.
</event>
<event>
 7    1  0.2811980E-010  0.4778729E+02  0.7816164E-02  0.1312668E+00
        -11   -1    0    0    0    0  0.00000000000E+00  0.00000000000E+00  0.45593999997E+02  0.45594000000E+02  0.51100000000E-03 0.  1.
         11   -1    0    0    0    0 -0.00000000000E+00 -0.00000000000E+00 -0.45593999997E+02  0.45594000000E+02  0.51100000000E-03 0. -1.
    9900012    2    1    2    0    0  0.21893269732E+02 -0.92292485109E+01 -0.36319796635E+02  0.47787286697E+02  0.20000071366E+02 0.  0.
        -12    1    1    2    0    0 -0.21893269732E+02  0.92292485109E+01  0.36319796635E+02  0.43400713303E+02  0.00000000000E+00 0.  1.
         11    1    3    3    0    0  0.14919917603E+02  0.85033679970E+00 -0.11177378361E+02  0.18661747004E+02  0.51100000000E-03 0. -1.
        -11    1    3    3    0    0  0.82016636113E+01 -0.97264515805E+01 -0.19100684094E+02  0.22950104127E+02  0.51100000000E-03 0.  1.
         12    1    3    3    0    0 -0.12283114823E+01 -0.35313373007E+00 -0.60417341795E+01  0.61754355656E+01  0.00000000000E+00 0. -1.
</event>
<event>
 7    1  0.2811980E-010  0.4778727E+02  0.7816164E-02  0.1312668E+00
        -11   -1    0    0    0    0  0.00000000000E+00  0.00000000000E+00  0.45593999997E+02  0.45594000000E+02  0.51100000000E-03 0. -1.
         11   -1    0    0    0    0 -0.00000000000E+00 -0.00000000000E+00 -0.45593999997E+02  0.45594000000E+02  0.51100000000E-03 0.  1.
    9900012    2    1    2    0    0 -0.35363585926E+02  0.11419096862E+02  0.22419727435E+02  0.47787272345E+02  0.20000005929E+02 0.  0.
        -12    1    1    2    0    0  0.35363585926E+02 -0.11419096862E+02 -0.22419727435E+02  0.43400727655E+02  0.00000000000E+00 0.  1.
         11    1    3    3    0    0 -0.22361352695E+02  0.14279201980E+02  0.20498583759E+02  0.33527863635E+02  0.51100000000E-03 0. -1.
        -11    1    3    3    0    0 -0.13316873027E+02 -0.31682194797E+01  0.18812135982E+01  0.13817224278E+02  0.51100000000E-03 0.  1.
         12    1    3    3    0    0  0.31463979521E+00  0.30811436147E+00  0.39930077890E-01  0.44218443165E+00  0.00000000000E+00 0. -1.
</event>
<event>
 7    1  0.2811980E-010  0.4778726E+02  0.7816164E-02  0.1312668E+00
        -11   -1    0    0    0    0  0.00000000000E+00  0.00000000000E+00  0.45593999997E+02  0.45594000000E+02  0.51100000000E-03 0.  1.
         11   -1    0    0    0    0 -0.00000000000E+00 -0.00000000000E+00 -0.45593999997E+02  0.45594000000E+02  0.51100000000E-03 0. -1.
    9900012    2    1    2    0    0 -0.30664491754E+02  0.19800682548E+02 -0.23478623242E+02  0.47787264601E+02  0.19999970621E+02 0.  0.
        -12    1    1    2    0    0  0.30664491754E+02 -0.19800682548E+02  0.23478623242E+02  0.43400735399E+02  0.00000000000E+00 0.  1.
         11    1    3    3    0    0 -0.23696272232E+02  0.14367861774E+02 -0.89525754679E+01  0.29122111486E+02  0.51100000000E-03 0. -1.
        -11    1    3    3    0    0 -0.19056044358E+01 -0.13169677530E+01 -0.69489532164E+01  0.73248674659E+01  0.51100000000E-03 0.  1.
         12    1    3    3    0    0 -0.50626150860E+01  0.67497885266E+01 -0.75770945574E+01  0.11340285649E+02  0.00000000000E+00 0. -1.
</event>
<event>
 7    1  0.2811980E-010  0.4778728E+02  0.7816164E-02  0.1312668E+00
        -11   -1    0    0    0    0  0.00000000000E+00  0.00000000000E+00  0.45593999997E+02  0.45594000000E+02  0.51100000000E-03 0.  1.
         11   -1    0    0    0    0 -0.00000000000E+00 -0.00000000000E+00 -0.45593999997E+02  0.45594000000E+02  0.51100000000E-03 0. -1.
    9900012    2    1    2    0    0  0.41391691637E+02  0.93793846168E+01 -0.90762274402E+01  0.47787275387E+02  0.20000019801E+02 0.  0.
        -12    1    1    2    0    0 -0.41391691637E+02 -0.93793846168E+01  0.90762274402E+01  0.43400724613E+02  0.00000000000E+00 0.  1.
         11    1    3    3    0    0  0.15348197518E+02 -0.20595784140E+01 -0.18179525941E+01  0.15592112820E+02  0.51100000000E-03 0. -1.
        -11    1    3    3    0    0  0.51772972707E+00 -0.20290156771E+01 -0.19275013725E+01  0.28460868733E+01  0.51100000000E-03 0.  1.
         12    1    3    3    0    0  0.25525764392E+02  0.13467978708E+02 -0.53307734736E+01  0.29349075694E+02  0.00000000000E+00 0. -1.
</event>
<event>
 7    1  0.2811980E-010  0.4778727E+02  0.7816164E-02  0.1312668E+00
        -11   -1    0    0    0    0  0.00000000000E+00  0.00000000000E+00  0.45593999997E+02  0.45594000000E+02  0.51100000000E-03 0. -1.
         11   -1    0    0    0    0 -0.00000000000E+00 -0.00000000000E+00 -0.45593999997E+02  0.45594000000E+02  0.51100000000E-03 0.  1.
    9900012    2    1    2    0    0 -0.23058889235E+02 -0.24550642029E+02 -0.27371100564E+02  0.47787267945E+02  0.19999985870E+02 0.  0.
        -12    1    1    2    0    0  0.23058889235E+02  0.24550642029E+02  0.27371100564E+02  0.43400732055E+02  0.00000000000E+00 0.  1.
         11    1    3    3    0    0 -0.99184711012E+01 -0.56786384947E+01 -0.35455556984E+01  0.11966368272E+02  0.51100000000E-03 0. -1.
        -11    1    3    3    0    0  0.43122450826E+00 -0.59507838330E+01 -0.12691001990E+02  0.14023527181E+02  0.51100000000E-03 0.  1.
        -12    1    3    3    0    0 -0.13571642642E+02 -0.12921219701E+02 -0.11134542875E+02  0.21797372493E+02  0.00000000000E+00 0.  1.
</event>
<event>
 7    1  0.2811980E-010  0.4778727E+02  0.7816164E-02  0.1312668E+00
        -11   -1    0    0    0    0  0.00000000000E+00  0.00000000000E+00  0.45593999997E+02  0.45594000000E+02  0.51100000000E-03 0.  1.
         11   -1    0    0    0    0 -0.00000000000E+00 -0.00000000000E+00 -0.45593999997E+02  0.45594000000E+02  0.51100000000E-03 0. -1.
    9900012    2    1    2    0    0 -0.25894023894E+01  0.42718162101E+02 -0.72164375706E+01  0.47787270177E+02  0.19999996043E+02 0.  0.
        -12    1    1    2    0    0  0.25894023894E+01 -0.42718162101E+02  0.72164375706E+01  0.43400729823E+02  0.00000000000E+00 0.  1.
         11    1    3    3    0    0 -0.75432064343E+00  0.43355193712E+02 -0.56302909704E+01  0.43725758977E+02  0.51100000000E-03 0. -1.
        -11    1    3    3    0    0 -0.38236334813E+00 -0.10574291349E+00 -0.23170020931E+01  0.23507195185E+01  0.51100000000E-03 0.  1.
         12    1    3    3    0    0 -0.14527183978E+01 -0.53128869808E+00  0.73085549294E+00  0.17107916810E+01  0.00000000000E+00 0. -1.
</event>
<event>
 7    1  0.2811980E-010  0.4778730E+02  0.7816164E-02  0.1312668E+00
        -11   -1    0    0    0    0  0.00000000000E+00  0.00000000000E+00  0.45593999997E+02  0.45594000000E+02  0.51100000000E-03 0. -1.
         11   -1    0    0    0    0 -0.00000000000E+00 -0.00000000000E+00 -0.45593999997E+02  0.45594000000E+02  0.51100000000E-03 0.  1.
    9900012    2    1    2    0    0  0.32184113957E+02 -0.29086357954E+02  0.13368044550E+01  0.47787303504E+02  0.20000147996E+02 0.  0.
        -12    1    1    2    0    0 -0.32184113957E+02  0.29086357954E+02 -0.13368044550E+01  0.43400696496E+02  0.00000000000E+00 0.  1.
         11    1    3    3    0    0  0.40901351733E+01 -0.96309620133E+00  0.25792353737E+01  0.49304376482E+01  0.51100000000E-03 0. -1.
        -11    1    3    3    0    0  0.25817545406E+02 -0.20727118207E+02  0.42320492668E+01  0.33377676989E+02  0.51100000000E-03 0.  1.
        -12    1    3    3    0    0  0.22764333774E+01 -0.73961435454E+01 -0.54744801855E+01  0.94791888665E+01  0.00000000000E+00 0.  1.
</event>
<event>
 7    1  0.2811980E-010  0.4778728E+02  0.7816164E-02  0.1312668E+00
        -11   -1    0    0    0    0  0.00000000000E+00  0.00000000000E+00  0.45593999997E+02  0.45594000000E+02  0.51100000000E-03 0. -1.
         11   -1    0    0    0    0 -0.00000000000E+00 -0.00000000000E+00 -0.45593999997E+02  0.45594000000E+02  0.51100000000E-03 0.  1.
    9900012    2    1    2    0    0  0.12230329434E+02 -0.40889036171E+02 -0.78821683218E+01  0.47787276336E+02  0.20000024128E+02 0.  0.
        -12    1    1    2    0    0 -0.12230329434E+02  0.40889036171E+02  0.78821683218E+01  0.43400723664E+02  0.00000000000E+00 0.  1.
         11    1    3    3    0    0  0.12849008905E+02 -0.30702398233E+02 -0.72864382749E+01  0.34070903570E+02  0.51100000000E-03 0. -1.
        -11    1    3    3    0    0 -0.24026063144E+01 -0.65749684537E+01 -0.43236880397E+01  0.82278190181E+01  0.51100000000E-03 0.  1.
         12    1    3    3    0    0  0.17839268442E+01 -0.36116694849E+01  0.37279579928E+01  0.54885537485E+01  0.00000000000E+00 0. -1.
</event>
<event>
 7    1  0.2811980E-010  0.4778727E+02  0.7816164E-02  0.1312668E+00
        -11   -1    0    0    0    0  0.00000000000E+00  0.00000000000E+00  0.45593999997E+02  0.45594000000E+02  0.51100000000E-03 0. -1.
         11   -1    0    0    0    0 -0.00000000000E+00 -0.00000000000E+00 -0.45593999997E+02  0.45594000000E+02  0.51100000000E-03 0.  1.
    9900012    2    1    2    0    0 -0.28684409313E+02  0.30939240187E+02  0.10177976101E+02  0.47787272835E+02  0.20000008163E+02 0.  0.
        -12    1    1    2    0    0  0.28684409313E+02 -0.30939240187E+02 -0.10177976101E+02  0.43400727165E+02  0.00000000000E+00 0.  1.
         11    1    3    3    0    0 -0.21784574294E+02  0.26910752375E+02  0.23057465603E+01  0.34699751268E+02  0.51100000000E-03 0. -1.
        -11    1    3    3    0    0 -0.47715315822E+01  0.41462852843E+01  0.87397262461E+01  0.10786195363E+02  0.51100000000E-03 0.  1.
        -12    1    3    3    0    0 -0.21283034365E+01 -0.11779747290E+00 -0.86749670518E+00  0.23013262038E+01  0.00000000000E+00 0.  1.
</event>
<event>
 7    1  0.2811980E-010  0.4778727E+02  0.7816164E-02  0.1312668E+00
        -11   -1    0    0    0    0  0.00000000000E+00  0.00000000000E+00  0.45593999997E+02  0.45594000000E+02  0.51100000000E-03 0.  1.
         11   -1    0    0    0    0 -0.00000000000E+00 -0.00000000000E+00 -0.45593999997E+02  0.45594000000E+02  0.51100000000E-03 0. -1.
    9900012    2    1    2    0    0  0.34553514598E+02 -0.66052017666E+01 -0.25417502426E+02  0.47787268542E+02  0.19999988591E+02 0.  0.
        -12    1    1    2    0    0 -0.34553514598E+02  0.66052017666E+01  0.25417502426E+02  0.43400731458E+02  0.00000000000E+00 0.  1.
         11    1    3    3    0    0  0.22412272667E+01  0.76648580443E+00  0.27142004315E+01  0.36024275694E+01  0.51100000000E-03 0. -1.
        -11    1    3    3    0    0  0.36057099479E+01  0.96306318819E+00 -0.11206698011E+01  0.38967340167E+01  0.51100000000E-03 0.  1.
         12    1    3    3    0    0  0.28706577384E+02 -0.83347507592E+01 -0.27011033057E+02  0.40288106956E+02  0.00000000000E+00 0. -1.
</event>
<event>
 7    1  0.2811980E-010  0.4778727E+02  0.7816164E-02  0.1312668E+00
        -11   -1    0    0    0    0  0.00000000000E+00  0.00000000000E+00  0.45593999997E+02  0.45594000000E+02  0.51100000000E-03 0.  1.
         11   -1    0    0    0    0 -0.00000000000E+00 -0.00000000000E+00 -0.45593999997E+02  0.45594000000E+02  0.51100000000E-03 0. -1.
    9900012    2    1    2    0    0 -0.14824259704E+02  0.38391226070E+02 -0.13783255304E+02  0.47787273719E+02  0.20000012194E+02 0.  0.
        -12    1    1    2    0    0  0.14824259704E+02 -0.38391226070E+02  0.13783255304E+02  0.43400726281E+02  0.00000000000E+00 0.  1.
         11    1    3    3    0    0  0.87208681352E+00  0.92804704137E+01  0.21198518846E+01  0.95593639320E+01  0.51100000000E-03 0. -1.
        -11    1    3    3    0    0 -0.98613964937E+01  0.13974002981E+02 -0.13582276683E+02  0.21840287093E+02  0.51100000000E-03 0.  1.
        -12    1    3    3    0    0 -0.58349500241E+01  0.15136752675E+02 -0.23208305053E+01  0.16387622694E+02  0.00000000000E+00 0.  1.
</event>
<event>
 7    1  0.2811980E-010  0.4778728E+02  0.7816164E-02  0.1312668E+00
        -11   -1    0    0    0    0  0.00000000000E+00  0.00000000000E+00  0.45593999997E+02  0.45594000000E+02  0.51100000000E-03 0. -1.
         11   -1    0    0    0    0 -0.00000000000E+00 -0.00000000000E+00 -0.45593999997E+02  0.45594000000E+02  0.51100000000E-03 0.  1.
    9900012    2    1    2    0    0 -0.40453028802E+02  0.15707302112E+02  0.67497072778E+00  0.47787280370E+02  0.20000042520E+02 0.  0.
        -12    1    1    2    0    0  0.40453028802E+02 -0.15707302112E+02 -0.67497072778E+00  0.43400719630E+02  0.00000000000E+00 0.  1.
         11    1    3    3    0    0 -0.21729557502E+02  0.13756282361E+02  0.35571345803E+01  0.25962707492E+02  0.51100000000E-03 0. -1.
        -11    1    3    3    0    0 -0.22167733872E+01 -0.17509916604E+01 -0.39704854362E+01  0.48728647534E+01  0.51100000000E-03 0.  1.
        -12    1    3    3    0    0 -0.16506697913E+02  0.37020114113E+01  0.10883215837E+01  0.16951708125E+02  0.00000000000E+00 0.  1.
</event>
<event>
 7    1  0.2811980E-010  0.4778727E+02  0.7816164E-02  0.1312668E+00
        -11   -1    0    0    0    0  0.00000000000E+00  0.00000000000E+00  0.45593999997E+02  0.45594000000E+02  0.51100000000E-03 0.  1.
         11   -1    0    0    0    0 -0.00000000000E+00 -0.00000000000E+00 -0.45593999997E+02  0.45594000000E+02  0.51100000000E-03 0. -1.
    9900012    2    1    2    0    0  0.21462188655E+02  0.10777288146E+02 -0.36150352086E+02  0.47787269158E+02  0.19999991400E+02 0.  0.
        -12    1    1    2    0    0 -0.21462188655E+02 -0.10777288146E+02  0.36150352086E+02  0.43400730842E+02  0.00000000000E+00 0.  1.
         11    1    3    3    0    0  0.20478804162E+02  0.67842028277E+01 -0.19290958061E+02  0.28940419677E+02  0.51100000000E-03 0. -1.
        -11    1    3    3    0    0  0.16793983606E+01  0.45258196038E+01 -0.17231295769E+02  0.17894719223E+02  0.51100000000E-03 0.  1.
        -12    1    3    3    0    0 -0.69601386720E+00 -0.53273428539E+00  0.37190174365E+00  0.95213025847E+00  0.00000000000E+00 0.  1.
</event>
<event>
 7    1  0.2811980E-010  0.4778727E+02  0.7816164E-02  0.1312668E+00
        -11   -1    0    0    0    0  0.00000000000E+00  0.00000000000E+00  0.45593999997E+02  0.45594000000E+02  0.51100000000E-03 0.  1.
         11   -1    0    0    0    0 -0.00000000000E+00 -0.00000000000E+00 -0.45593999997E+02  0.45594000000E+02  0.51100000000E-03 0. -1.
    9900012    2    1    2    0    0 -0.23281134579E+02 -0.33115865573E+02 -0.15650931531E+02  0.47787269157E+02  0.19999991396E+02 0.  0.
        -12    1    1    2    0    0  0.23281134579E+02  0.33115865573E+02  0.15650931531E+02  0.43400730843E+02  0.00000000000E+00 0.  1.
         11    1    3    3    0    0 -0.40522144255E+01  0.15742047366E+00  0.12258844958E+01  0.42365098860E+01  0.51100000000E-03 0. -1.
        -11    1    3    3    0    0 -0.69661205059E+01 -0.31947954705E+01 -0.30606227278E+01  0.82523308673E+01  0.51100000000E-03 0.  1.
         12    1    3    3    0    0 -0.12262799647E+02 -0.30078490576E+02 -0.13816193299E+02  0.35298428404E+02  0.00000000000E+00 0. -1.
</event>
<event>
 7    1  0.2811980E-010  0.4778727E+02  0.7816164E-02  0.1312668E+00
        -11   -1    0    0    0    0  0.00000000000E+00  0.00000000000E+00  0.45593999997E+02  0.45594000000E+02  0.51100000000E-03 0.  1.
         11   -1    0    0    0    0 -0.00000000000E+00 -0.00000000000E+00 -0.45593999997E+02  0.45594000000E+02  0.51100000000E-03 0. -1.
    9900012    2    1    2    0    0  0.75709580282E+01 -0.25340026759E+02 -0.34412015508E+02  0.47787272207E+02  0.20000005302E+02 0.  0.
        -12    1    1    2    0    0 -0.75709580282E+01  0.25340026759E+02  0.34412015508E+02  0.43400727793E+02  0.00000000000E+00 0.  1.
         11    1    3    3    0    0  0.22670399313E+01 -0.86554276144E+01 -0.86785698767E+01  0.12464889595E+02  0.51100000000E-03 0. -1.
        -11    1    3    3    0    0  0.14210351872E+01 -0.16682105835E+02 -0.26517968018E+02  0.31361036720E+02  0.51100000000E-03 0.  1.
        -12    1    3    3    0    0  0.38828829097E+01 -0.24933092840E-02  0.78452238626E+00  0.39613458927E+01  0.00000000000E+00 0.  1.
</event>
<event>
 7    1  0.2811980E-010  0.4778727E+02  0.7816164E-02  0.1312668E+00
        -11   -1    0    0    0    0  0.00000000000E+00  0.00000000000E+00  0.45593999997E+02  0.45594000000E+02  0.51100000000E-03 0.  1.
         11   -1    0    0    0    0 -0.00000000000E+00 -0.00000000000E+00 -0.45593999997E+02  0.45594000000E+02  0.51100000000E-03 0. -1.
    9900012    2    1    2    0    0  0.31061139961E+02  0.25458949540E+02 -0.16452076709E+02  0.47787270105E+02  0.19999995716E+02 0.  0.
        -12    1    1    2    0    0 -0.31061139961E+02 -0.25458949540E+02  0.16452076709E+02  0.43400729895E+02  0.00000000000E+00 0.  1.
         11    1    3    3    0    0  0.24019532710E+02  0.11051978381E+02 -0.97934918887E+01  0.28195685155E+02  0.51100000000E-03 0. -1.
        -11    1    3    3    0    0  0.54676972242E+01  0.31206255949E+01  0.18629224014E+00  0.62983110512E+01  0.51100000000E-03 0.  1.
         12    1    3    3    0    0  0.15739100274E+01  0.11286345564E+02 -0.68448770607E+01  0.13293273898E+02  0.00000000000E+00 0. -1.
</event>
<event>
 7    1  0.2811980E-010  0.4778727E+02  0.7816164E-02  0.1312668E+00
        -11   -1    0    0    0    0  0.00000000000E+00  0.00000000000E+00  0.45593999997E+02  0.45594000000E+02  0.51100000000E-03 0.  1.
         11   -1    0    0    0    0 -0.00000000000E+00 -0.00000000000E+00 -0.45593999997E+02  0.45594000000E+02  0.51100000000E-03 0. -1.
    9900012    2    1    2    0    0 -0.88417150619E+01  0.39629735873E+02 -0.15327474241E+02  0.47787270085E+02  0.19999995624E+02 0.  0.
        -12    1    1    2    0    0  0.88417150619E+01 -0.39629735873E+02  0.15327474241E+02  0.43400729915E+02  0.00000000000E+00 0.  1.
         11    1    3    3    0    0  0.44702401818E+01  0.10997662879E+02 -0.54370254325E+00  0.11883907135E+02  0.51100000000E-03 0. -1.
        -11    1    3    3    0    0 -0.34100683514E+01  0.14772535893E+01 -0.26057085320E+01  0.45387841481E+01  0.51100000000E-03 0.  1.
         12    1    3    3    0    0 -0.99018868923E+01  0.27154819405E+02 -0.12178063166E+02  0.31364578802E+02  0.00000000000E+00 0. -1.
</event>
<event>
 7    1  0.2811980E-010  0.4778727E+02  0.7816164E-02  0.1312668E+00
        -11   -1    0    0    0    0  0.00000000000E+00  0.00000000000E+00  0.45593999997E+02  0.45594000000E+02  0.51100000000E-03 0.  1.
         11   -1    0    0    0    0 -0.00000000000E+00 -0.00000000000E+00 -0.45593999997E+02  0.45594000000E+02  0.51100000000E-03 0. -1.
    9900012    2    1    2    0    0 -0.91487940658E+01  0.41264540673E+02 -0.98570118878E+01  0.47787269209E+02  0.19999991633E+02 0.  0.
        -12    1    1    2    0    0  0.91487940658E+01 -0.41264540673E+02  0.98570118878E+01  0.43400730791E+02  0.00000000000E+00 0.  1.
         11    1    3    3    0    0 -0.17953516784E+01  0.30427959257E+02  0.20380382150E+00  0.30481560467E+02  0.51100000000E-03 0. -1.
        -11    1    3    3    0    0 -0.61660273388E+00  0.14201579045E+01 -0.38877747633E+01  0.41847150771E+01  0.51100000000E-03 0.  1.
         12    1    3    3    0    0 -0.67368396535E+01  0.94164235110E+01 -0.61730409460E+01  0.13120993666E+02  0.00000000000E+00 0. -1.
</event>
<event>
 7    1  0.2811980E-010  0.4778727E+02  0.7816164E-02  0.1312668E+00
        -11   -1    0    0    0    0  0.00000000000E+00  0.00000000000E+00  0.45593999997E+02  0.45594000000E+02  0.51100000000E-03 0.  1.
         11   -1    0    0    0    0 -0.00000000000E+00 -0.00000000000E+00 -0.45593999997E+02  0.45594000000E+02  0.51100000000E-03 0. -1.
    9900012    2    1    2    0    0  0.40302193636E+02 -0.16087432979E+02  0.74241318571E+00  0.47787268566E+02  0.19999988698E+02 0.  0.
        -12    1    1    2    0    0 -0.40302193636E+02  0.16087432979E+02 -0.74241318571E+00  0.43400731434E+02  0.00000000000E+00 0.  1.
         11    1    3    3    0    0  0.35032740113E+02 -0.10214818568E+02  0.11870953478E+01  0.36510883224E+02  0.51100000000E-03 0. -1.
        -11    1    3    3    0    0  0.61491083369E+01 -0.56678208359E+01  0.20609275774E+01  0.86129640141E+01  0.51100000000E-03 0.  1.
         12    1    3    3    0    0 -0.87965481411E+00 -0.20479357570E+00 -0.25056097395E+01  0.26634213274E+01  0.00000000000E+00 0. -1.
</event>
<event>
 7    1  0.3367113E-010  0.4778727E+02  0.7816164E-02  0.1312668E+00
        -11   -1    0    0    0    0  0.00000000000E+00  0.00000000000E+00  0.45593999997E+02  0.45594000000E+02  0.51100000000E-03 0.  1.
         11   -1    0    0    0    0 -0.00000000000E+00 -0.00000000000E+00 -0.45593999997E+02  0.45594000000E+02  0.51100000000E-03 0. -1.
    9900012    2    1    2    0    0 -0.26395894417E+02  0.15646548513E+02 -0.30693089300E+02  0.47787268979E+02  0.19999990582E+02 0.  0.
        -12    1    1    2    0    0  0.26395894417E+02 -0.15646548513E+02  0.30693089300E+02  0.43400731021E+02  0.00000000000E+00 0.  1.
         11    1    3    3    0    0 -0.10075533063E+02  0.92397335529E+01 -0.11984465778E+02  0.18180111740E+02  0.51100000000E-03 0. -1.
        -11    1    3    3    0    0  0.11975497291E+01  0.33092849306E+01  0.34925089302E+00  0.35365899611E+01  0.51100000000E-03 0.  1.
        -12    1    3    3    0    0 -0.17517911082E+02  0.30975300293E+01 -0.19057874414E+02  0.26070567277E+02  0.00000000000E+00 0.  1.
</event>
<event>
 7    1  0.2811980E-010  0.4778727E+02  0.7816164E-02  0.1312668E+00
        -11   -1    0    0    0    0  0.00000000000E+00  0.00000000000E+00  0.45593999997E+02  0.45594000000E+02  0.51100000000E-03 0. -1.
         11   -1    0    0    0    0 -0.00000000000E+00 -0.00000000000E+00 -0.45593999997E+02  0.45594000000E+02  0.51100000000E-03 0.  1.
    9900012    2    1    2    0    0 -0.26774158093E+02  0.31769916111E+02  0.12547507719E+02  0.47787273494E+02  0.20000011167E+02 0.  0.
        -12    1    1    2    0    0  0.26774158093E+02 -0.31769916111E+02 -0.12547507719E+02  0.43400726506E+02  0.00000000000E+00 0.  1.
         11    1    3    3    0    0 -0.18802104916E+02  0.19281966548E+02  0.11252046010E+02  0.29187701569E+02  0.51100000000E-03 0. -1.
        -11    1    3    3    0    0 -0.60014911666E+01  0.61887318062E+00 -0.15643373845E+01  0.62328205453E+01  0.51100000000E-03 0.  1.
        -12    1    3    3    0    0 -0.19705620108E+01  0.11869076383E+02  0.28597990937E+01  0.12366751379E+02  0.00000000000E+00 0.  1.
</event>
<event>
 7    1  0.2811980E-010  0.4778727E+02  0.7816164E-02  0.1312668E+00
        -11   -1    0    0    0    0  0.00000000000E+00  0.00000000000E+00  0.45593999997E+02  0.45594000000E+02  0.51100000000E-03 0.  1.
         11   -1    0    0    0    0 -0.00000000000E+00 -0.00000000000E+00 -0.45593999997E+02  0.45594000000E+02  0.51100000000E-03 0. -1.
    9900012    2    1    2    0    0  0.22193348199E+02 -0.76062575076E+01 -0.36513327979E+02  0.47787274457E+02  0.20000015559E+02 0.  0.
        -12    1    1    2    0    0 -0.22193348199E+02  0.76062575076E+01  0.36513327979E+02  0.43400725543E+02  0.00000000000E+00 0.  1.
         11    1    3    3    0    0  0.19936731895E+00 -0.70772584513E+01 -0.14541508467E+02  0.16173521671E+02  0.51100000000E-03 0. -1.
        -11    1    3    3    0    0  0.15819535459E+02  0.21903014693E+00 -0.18988236765E+02  0.24715558097E+02  0.51100000000E-03 0.  1.
         12    1    3    3    0    0  0.61744454210E+01 -0.74802920322E+00 -0.29835827473E+01  0.68981946881E+01  0.00000000000E+00 0. -1.
</event>
<event>
 7    1  0.2811980E-010  0.4778727E+02  0.7816164E-02  0.1312668E+00
        -11   -1    0    0    0    0  0.00000000000E+00  0.00000000000E+00  0.45593999997E+02  0.45594000000E+02  0.51100000000E-03 0. -1.
         11   -1    0    0    0    0 -0.00000000000E+00 -0.00000000000E+00 -0.45593999997E+02  0.45594000000E+02  0.51100000000E-03 0.  1.
    9900012    2    1    2    0    0  0.77501448580E+01  0.13373170091E+02  0.40555108771E+02  0.47787271077E+02  0.20000000151E+02 0.  0.
        -12    1    1    2    0    0 -0.77501448580E+01 -0.13373170091E+02 -0.40555108771E+02  0.43400728923E+02  0.00000000000E+00 0.  1.
         11    1    3    3    0    0  0.90755388788E+01  0.10451937411E+02  0.13655997047E+02  0.19444656263E+02  0.51100000000E-03 0. -1.
        -11    1    3    3    0    0  0.43441089534E+00 -0.82734773718E+00  0.21586398995E+02  0.21606615629E+02  0.51100000000E-03 0.  1.
         12    1    3    3    0    0 -0.17598049161E+01  0.37485804179E+01  0.53127127287E+01  0.67359991857E+01  0.00000000000E+00 0. -1.
</event>
<event>
 7    1  0.2811980E-010  0.4778727E+02  0.7816164E-02  0.1312668E+00
        -11   -1    0    0    0    0  0.00000000000E+00  0.00000000000E+00  0.45593999997E+02  0.45594000000E+02  0.51100000000E-03 0.  1.
         11   -1    0    0    0    0 -0.00000000000E+00 -0.00000000000E+00 -0.45593999997E+02  0.45594000000E+02  0.51100000000E-03 0. -1.
    9900012    2    1    2    0    0 -0.19849523320E+02  0.17250536316E+02 -0.34525912324E+02  0.47787271884E+02  0.20000003828E+02 0.  0.
        -12    1    1    2    0    0  0.19849523320E+02 -0.17250536316E+02  0.34525912324E+02  0.43400728116E+02  0.00000000000E+00 0.  1.
         11    1    3    3    0    0 -0.12761027814E+02  0.82191888455E+01 -0.96960586538E+01  0.18011453296E+02  0.51100000000E-03 0. -1.
        -11    1    3    3    0    0 -0.72677034463E+01  0.51574655629E+01 -0.24273960962E+02  0.25858154332E+02  0.51100000000E-03 0.  1.
         12    1    3    3    0    0  0.17920794041E+00  0.38738819073E+01 -0.55589270735E+00  0.39176642556E+01  0.00000000000E+00 0. -1.
</event>
<event>
 7    1  0.2811980E-010  0.4778728E+02  0.7816164E-02  0.1312668E+00
        -11   -1    0    0    0    0  0.00000000000E+00  0.00000000000E+00  0.45593999997E+02  0.45594000000E+02  0.51100000000E-03 0.  1.
         11   -1    0    0    0    0 -0.00000000000E+00 -0.00000000000E+00 -0.45593999997E+02  0.45594000000E+02  0.51100000000E-03 0. -1.
    9900012    2    1    2    0    0 -0.20940906576E+02  0.17470041160E+02 -0.33762388711E+02  0.47787276529E+02  0.20000025006E+02 0.  0.
        -12    1    1    2    0    0  0.20940906576E+02 -0.17470041160E+02  0.33762388711E+02  0.43400723471E+02  0.00000000000E+00 0.  1.
         11    1    3    3    0    0 -0.21202917955E+02  0.14339206235E+02 -0.35457680888E+02  0.43731266841E+02  0.51100000000E-03 0. -1.
        -11    1    3    3    0    0  0.98682067937E+00  0.10772477507E+01  0.99836899454E+00  0.17694684739E+01  0.51100000000E-03 0.  1.
         12    1    3    3    0    0 -0.72480930001E+00  0.20535871742E+01  0.69692318273E+00  0.22865412146E+01  0.00000000000E+00 0. -1.
</event>
<event>
 7    1  0.2811980E-010  0.4778727E+02  0.7816164E-02  0.1312668E+00
        -11   -1    0    0    0    0  0.00000000000E+00  0.00000000000E+00  0.45593999997E+02  0.45594000000E+02  0.51100000000E-03 0.  1.
         11   -1    0    0    0    0 -0.00000000000E+00 -0.00000000000E+00 -0.45593999997E+02  0.45594000000E+02  0.51100000000E-03 0. -1.
    9900012    2    1    2    0    0  0.37500780857E+02  0.10348889531E+02 -0.19240975122E+02  0.47787271860E+02  0.20000003718E+02 0.  0.
        -12    1    1    2    0    0 -0.37500780857E+02 -0.10348889531E+02  0.19240975122E+02  0.43400728140E+02  0.00000000000E+00 0.  1.
         11    1    3    3    0    0  0.10773868650E+02 -0.40181200677E+00 -0.17114020982E-01  0.10781372442E+02  0.51100000000E-03 0. -1.
        -11    1    3    3    0    0  0.23888537739E+01  0.10007528856E+01  0.20011828014E+01  0.32730508026E+01  0.51100000000E-03 0.  1.
         12    1    3    3    0    0  0.24338058433E+02  0.97499486524E+01 -0.21225043903E+02  0.33732848615E+02  0.00000000000E+00 0. -1.
</event>
<event>
 7    1  0.2811980E-010  0.4778727E+02  0.7816164E-02  0.1312668E+00
        -11   -1    0    0    0    0  0.00000000000E+00  0.00000000000E+00  0.45593999997E+02  0.45594000000E+02  0.51100000000E-03 0.  1.
         11   -1    0    0    0    0 -0.00000000000E+00 -0.00000000000E+00 -0.45593999997E+02  0.45594000000E+02  0.51100000000E-03 0. -1.
    9900012    2    1    2    0    0 -0.15010267262E+02  0.39069513856E+01 -0.40534565704E+02  0.47787269485E+02  0.19999992892E+02 0.  0.
        -12    1    1    2    0    0  0.15010267262E+02 -0.39069513856E+01  0.40534565704E+02  0.43400730515E+02  0.00000000000E+00 0.  1.
         11    1    3    3    0    0 -0.15193205841E+01  0.33194460984E+01 -0.16011845104E+01  0.39863328430E+01  0.51100000000E-03 0.  1.
        -11    1    3    3    0    0  0.89003823984E+00  0.44128461630E+01 -0.14597160281E+02  0.15275551311E+02  0.51100000000E-03 0. -1.
         12    1    3    3    0    0 -0.14380984917E+02 -0.38253408758E+01 -0.24336220913E+02  0.28525385332E+02  0.00000000000E+00 0. -1.
</event>
<event>
 7    1  0.2811980E-010  0.4778726E+02  0.7816164E-02  0.1312668E+00
        -11   -1    0    0    0    0  0.00000000000E+00  0.00000000000E+00  0.45593999997E+02  0.45594000000E+02  0.51100000000E-03 0.  1.
         11   -1    0    0    0    0 -0.00000000000E+00 -0.00000000000E+00 -0.45593999997E+02  0.45594000000E+02  0.51100000000E-03 0. -1.
    9900012    2    1    2    0    0  0.12338933244E+02  0.56808701133E+01 -0.41220171451E+02  0.47787261604E+02  0.19999956958E+02 0.  0.
        -12    1    1    2    0    0 -0.12338933244E+02 -0.56808701133E+01  0.41220171451E+02  0.43400738396E+02  0.00000000000E+00 0.  1.
         11    1    3    3    0    0  0.67194668422E+01  0.39099107591E+01 -0.28020182581E+01  0.82637729499E+01  0.51100000000E-03 0. -1.
        -11    1    3    3    0    0  0.19479723305E+01  0.28755902779E+01 -0.64453531737E+01  0.73216250547E+01  0.51100000000E-03 0.  1.
         12    1    3    3    0    0  0.36714940709E+01 -0.11046309236E+01 -0.31972800020E+02  0.32201863599E+02  0.00000000000E+00 0. -1.
</event>
<event>
 7    1  0.2811980E-010  0.4778728E+02  0.7816164E-02  0.1312668E+00
        -11   -1    0    0    0    0  0.00000000000E+00  0.00000000000E+00  0.45593999997E+02  0.45594000000E+02  0.51100000000E-03 0.  1.
         11   -1    0    0    0    0 -0.00000000000E+00 -0.00000000000E+00 -0.45593999997E+02  0.45594000000E+02  0.51100000000E-03 0. -1.
    9900012    2    1    2    0    0  0.35488340876E+02 -0.12685798895E+02 -0.21523732246E+02  0.47787275564E+02  0.20000020607E+02 0.  0.
        -12    1    1    2    0    0 -0.35488340876E+02  0.12685798895E+02  0.21523732246E+02  0.43400724436E+02  0.00000000000E+00 0.  1.
         11    1    3    3    0    0  0.17532555947E+02 -0.11105114509E+02 -0.17503148851E+02  0.27149112440E+02  0.51100000000E-03 0. -1.
        -11    1    3    3    0    0  0.75919982201E+01  0.21634944463E+01  0.19130983962E+01  0.81227514383E+01  0.51100000000E-03 0.  1.
         12    1    3    3    0    0  0.10363786709E+02 -0.37441788327E+01 -0.59336817907E+01  0.12515411686E+02  0.00000000000E+00 0. -1.
</event>
<event>
 7    1  0.2811980E-010  0.4778727E+02  0.7816164E-02  0.1312668E+00
        -11   -1    0    0    0    0  0.00000000000E+00  0.00000000000E+00  0.45593999997E+02  0.45594000000E+02  0.51100000000E-03 0. -1.
         11   -1    0    0    0    0 -0.00000000000E+00 -0.00000000000E+00 -0.45593999997E+02  0.45594000000E+02  0.51100000000E-03 0.  1.
    9900012    2    1    2    0    0  0.29471736505E+02 -0.87231385653E+01  0.30642238925E+02  0.47787271834E+02  0.20000003599E+02 0.  0.
        -12    1    1    2    0    0 -0.29471736505E+02  0.87231385653E+01 -0.30642238925E+02  0.43400728166E+02  0.00000000000E+00 0.  1.
         11    1    3    3    0    0  0.18914435199E+01  0.27171100669E+01 -0.72610741741E+00  0.33893182128E+01  0.51100000000E-03 0.  1.
        -11    1    3    3    0    0  0.17985420172E+02 -0.32420543264E+01  0.22432193935E+02  0.28934228519E+02  0.51100000000E-03 0. -1.
         12    1    3    3    0    0  0.95948728130E+01 -0.81981943058E+01  0.89361524075E+01  0.15463725102E+02  0.00000000000E+00 0. -1.
</event>
<event>
 7    1  0.2811980E-010  0.4778727E+02  0.7816164E-02  0.1312668E+00
        -11   -1    0    0    0    0  0.00000000000E+00  0.00000000000E+00  0.45593999997E+02  0.45594000000E+02  0.51100000000E-03 0. -1.
         11   -1    0    0    0    0 -0.00000000000E+00 -0.00000000000E+00 -0.45593999997E+02  0.45594000000E+02  0.51100000000E-03 0.  1.
    9900012    2    1    2    0    0  0.12268663825E+02  0.15188471379E+02  0.38760978063E+02  0.47787271950E+02  0.20000004127E+02 0.  0.
        -12    1    1    2    0    0 -0.12268663825E+02 -0.15188471379E+02 -0.38760978063E+02  0.43400728050E+02  0.00000000000E+00 0.  1.
         11    1    3    3    0    0  0.14570372726E+00  0.11861570829E+02  0.23967342622E+02  0.26742318612E+02  0.51100000000E-03 0. -1.
        -11    1    3    3    0    0  0.18778013923E+01 -0.23299630620E+01  0.15456812189E+01  0.33680850095E+01  0.51100000000E-03 0.  1.
         12    1    3    3    0    0  0.10245158706E+02  0.56568636127E+01  0.13247954222E+02  0.17676868328E+02  0.00000000000E+00 0. -1.
</event>
<event>
 7    1  0.2811980E-010  0.4778728E+02  0.7816164E-02  0.1312668E+00
        -11   -1    0    0    0    0  0.00000000000E+00  0.00000000000E+00  0.45593999997E+02  0.45594000000E+02  0.51100000000E-03 0.  1.
         11   -1    0    0    0    0 -0.00000000000E+00 -0.00000000000E+00 -0.45593999997E+02  0.45594000000E+02  0.51100000000E-03 0. -1.
    9900012    2    1    2    0    0 -0.27574645662E+02 -0.28585583973E+02 -0.17496454677E+02  0.47787278568E+02  0.20000034305E+02 0.  0.
        -12    1    1    2    0    0  0.27574645662E+02  0.28585583973E+02  0.17496454677E+02  0.43400721432E+02  0.00000000000E+00 0.  1.
         11    1    3    3    0    0 -0.22334038559E+02 -0.27317867097E+02 -0.97963224304E+01  0.36620254976E+02  0.51100000000E-03 0. -1.
        -11    1    3    3    0    0  0.10174406841E+01  0.89724593226E+00 -0.68336835138E+00  0.15189563435E+01  0.51100000000E-03 0.  1.
         12    1    3    3    0    0 -0.62580477876E+01 -0.21649628086E+01 -0.70167638955E+01  0.96480672490E+01  0.00000000000E+00 0. -1.
</event>
<event>
 7    1  0.2811980E-010  0.4778727E+02  0.7816164E-02  0.1312668E+00
        -11   -1    0    0    0    0  0.00000000000E+00  0.00000000000E+00  0.45593999997E+02  0.45594000000E+02  0.51100000000E-03 0. -1.
         11   -1    0    0    0    0 -0.00000000000E+00 -0.00000000000E+00 -0.45593999997E+02  0.45594000000E+02  0.51100000000E-03 0.  1.
    9900012    2    1    2    0    0  0.10369157114E+02  0.35097822795E+02  0.23329095864E+02  0.47787270766E+02  0.19999998730E+02 0.  0.
        -12    1    1    2    0    0 -0.10369157114E+02 -0.35097822795E+02 -0.23329095864E+02  0.43400729234E+02  0.00000000000E+00 0.  1.
         11    1    3    3    0    0  0.92245569723E+01  0.92167181878E+01  0.14700782152E+02  0.19650784758E+02  0.51100000000E-03 0. -1.
        -11    1    3    3    0    0  0.23513223644E+01  0.18925296389E+02  0.89562425023E+01  0.21069168002E+02  0.51100000000E-03 0.  1.
         12    1    3    3    0    0 -0.12067222228E+01  0.69558082185E+01 -0.32792879042E+00  0.70673180052E+01  0.00000000000E+00 0. -1.
</event>
<event>
 7    1  0.2811980E-010  0.4778727E+02  0.7816164E-02  0.1312668E+00
        -11   -1    0    0    0    0  0.00000000000E+00  0.00000000000E+00  0.45593999997E+02  0.45594000000E+02  0.51100000000E-03 0.  1.
         11   -1    0    0    0    0 -0.00000000000E+00 -0.00000000000E+00 -0.45593999997E+02  0.45594000000E+02  0.51100000000E-03 0. -1.
    9900012    2    1    2    0    0  0.82509226066E+01  0.90948892261E+01 -0.41627260728E+02  0.47787267638E+02  0.19999984466E+02 0.  0.
        -12    1    1    2    0    0 -0.82509226066E+01 -0.90948892261E+01  0.41627260728E+02  0.43400732362E+02  0.00000000000E+00 0.  1.
         11    1    3    3    0    0 -0.31550507303E+00 -0.16971106544E+01 -0.76947356356E+00  0.18899253558E+01  0.51100000000E-03 0. -1.
        -11    1    3    3    0    0  0.51885320451E+01 -0.92193000379E+00 -0.26694903660E+02  0.27210084553E+02  0.51100000000E-03 0.  1.
        -12    1    3    3    0    0  0.33778956345E+01  0.11713929884E+02 -0.14162883504E+02  0.18687257728E+02  0.00000000000E+00 0.  1.
</event>
<event>
 7    1  0.2811980E-010  0.4778727E+02  0.7816164E-02  0.1312668E+00
        -11   -1    0    0    0    0  0.00000000000E+00  0.00000000000E+00  0.45593999997E+02  0.45594000000E+02  0.51100000000E-03 0.  1.
         11   -1    0    0    0    0 -0.00000000000E+00 -0.00000000000E+00 -0.45593999997E+02  0.45594000000E+02  0.51100000000E-03 0. -1.
    9900012    2    1    2    0    0  0.24493359506E+02  0.35828710553E+02 -0.48055634801E-01  0.47787268795E+02  0.19999989744E+02 0.  0.
        -12    1    1    2    0    0 -0.24493359506E+02 -0.35828710553E+02  0.48055634801E-01  0.43400731205E+02  0.00000000000E+00 0.  1.
         11    1    3    3    0    0  0.20207861205E+02  0.27138555707E+02 -0.29864537778E+01  0.33967304379E+02  0.51100000000E-03 0. -1.
        -11    1    3    3    0    0  0.40240592985E+01  0.62654113185E+01  0.62400332808E+01  0.97152687989E+01  0.51100000000E-03 0.  1.
         12    1    3    3    0    0  0.26143900199E+00  0.24247435278E+01 -0.33016351377E+01  0.41046956172E+01  0.00000000000E+00 0. -1.
</event>
<event>
 7    1  0.2811980E-010  0.4778727E+02  0.7816164E-02  0.1312668E+00
        -11   -1    0    0    0    0  0.00000000000E+00  0.00000000000E+00  0.45593999997E+02  0.45594000000E+02  0.51100000000E-03 0. -1.
         11   -1    0    0    0    0 -0.00000000000E+00 -0.00000000000E+00 -0.45593999997E+02  0.45594000000E+02  0.51100000000E-03 0.  1.
    9900012    2    1    2    0    0 -0.31056069548E+02  0.13634348763E+02  0.27078557865E+02  0.47787271688E+02  0.20000002934E+02 0.  0.
        -12    1    1    2    0    0  0.31056069548E+02 -0.13634348763E+02 -0.27078557865E+02  0.43400728312E+02  0.00000000000E+00 0.  1.
         11    1    3    3    0    0  0.10649193996E+01  0.35581295089E+01  0.66479147416E+01  0.76150580827E+01  0.51100000000E-03 0. -1.
        -11    1    3    3    0    0 -0.30928568224E+02  0.11145749104E+02  0.20110413051E+02  0.38538717789E+02  0.51100000000E-03 0.  1.
        -12    1    3    3    0    0 -0.11924207238E+01 -0.10695298501E+01  0.32023007297E+00  0.16334958165E+01  0.00000000000E+00 0.  1.
</event>
<event>
 7    1  0.2811980E-010  0.4778727E+02  0.7816164E-02  0.1312668E+00
        -11   -1    0    0    0    0  0.00000000000E+00  0.00000000000E+00  0.45593999997E+02  0.45594000000E+02  0.51100000000E-03 0. -1.
         11   -1    0    0    0    0 -0.00000000000E+00 -0.00000000000E+00 -0.45593999997E+02  0.45594000000E+02  0.51100000000E-03 0.  1.
    9900012    2    1    2    0    0 -0.20295109705E+02 -0.35357654209E+02  0.14885161155E+02  0.47787271761E+02  0.20000003266E+02 0.  0.
        -12    1    1    2    0    0  0.20295109705E+02  0.35357654209E+02 -0.14885161155E+02  0.43400728239E+02  0.00000000000E+00 0.  1.
         11    1    3    3    0    0 -0.12020434518E+02 -0.30085627480E+02  0.12008988482E+02  0.34552158131E+02  0.51100000000E-03 0. -1.
        -11    1    3    3    0    0 -0.44600723236E+01 -0.48574502296E+01 -0.21278733463E+01  0.69292794073E+01  0.51100000000E-03 0.  1.
         12    1    3    3    0    0 -0.38146028635E+01 -0.41457649905E+00  0.50040460190E+01  0.63058342224E+01  0.00000000000E+00 0. -1.
</event>
<event>
 7    1  0.2811980E-010  0.4778727E+02  0.7816164E-02  0.1312668E+00
        -11   -1    0    0    0    0  0.00000000000E+00  0.00000000000E+00  0.45593999997E+02  0.45594000000E+02  0.51100000000E-03 0.  1.
         11   -1    0    0    0    0 -0.00000000000E+00 -0.00000000000E+00 -0.45593999997E+02  0.45594000000E+02  0.51100000000E-03 0. -1.
    9900012    2    1    2    0    0  0.24515803616E+02 -0.23827340622E+02 -0.26736804961E+02  0.47787268121E+02  0.19999986672E+02 0.  0.
        -12    1    1    2    0    0 -0.24515803616E+02  0.23827340622E+02  0.26736804961E+02  0.43400731879E+02  0.00000000000E+00 0.  1.
         11    1    3    3    0    0  0.23491701261E+02 -0.26487400663E+02 -0.22139209290E+02  0.41756281088E+02  0.51100000000E-03 0. -1.
        -11    1    3    3    0    0 -0.25745677536E+00  0.24805139870E+01 -0.36767727301E+01  0.44427346985E+01  0.51100000000E-03 0.  1.
         12    1    3    3    0    0  0.12815591302E+01  0.17954605388E+00 -0.92082294181E+00  0.15882523351E+01  0.00000000000E+00 0. -1.
</event>
<event>
 7    1  0.2811980E-010  0.4778727E+02  0.7816164E-02  0.1312668E+00
        -11   -1    0    0    0    0  0.00000000000E+00  0.00000000000E+00  0.45593999997E+02  0.45594000000E+02  0.51100000000E-03 0. -1.
         11   -1    0    0    0    0 -0.00000000000E+00 -0.00000000000E+00 -0.45593999997E+02  0.45594000000E+02  0.51100000000E-03 0.  1.
    9900012    2    1    2    0    0 -0.25922477556E+02  0.23420105125E+02  0.25751644399E+02  0.47787270099E+02  0.19999995687E+02 0.  0.
        -12    1    1    2    0    0  0.25922477556E+02 -0.23420105125E+02 -0.25751644399E+02  0.43400729901E+02  0.00000000000E+00 0.  1.
         11    1    3    3    0    0 -0.11911251027E+02  0.85348488513E+01  0.17126680064E+01  0.14753127733E+02  0.51100000000E-03 0. -1.
        -11    1    3    3    0    0 -0.11324896094E+01  0.59045225613E+01  0.11361264198E+02  0.12853958294E+02  0.51100000000E-03 0.  1.
         12    1    3    3    0    0 -0.12878736919E+02  0.89807337127E+01  0.12677712195E+02  0.20180184071E+02  0.00000000000E+00 0. -1.
</event>
<event>
 7    1  0.2811980E-010  0.4778727E+02  0.7816164E-02  0.1312668E+00
        -11   -1    0    0    0    0  0.00000000000E+00  0.00000000000E+00  0.45593999997E+02  0.45594000000E+02  0.51100000000E-03 0.  1.
         11   -1    0    0    0    0 -0.00000000000E+00 -0.00000000000E+00 -0.45593999997E+02  0.45594000000E+02  0.51100000000E-03 0. -1.
    9900012    2    1    2    0    0 -0.15920746724E+02 -0.14849277323E+02 -0.37545335251E+02  0.47787269448E+02  0.19999992722E+02 0.  0.
        -12    1    1    2    0    0  0.15920746724E+02  0.14849277323E+02  0.37545335251E+02  0.43400730552E+02  0.00000000000E+00 0.  1.
         11    1    3    3    0    0 -0.88118663444E+01  0.24141107474E+00 -0.23076411457E+02  0.24702794047E+02  0.51100000000E-03 0. -1.
        -11    1    3    3    0    0 -0.61925162454E+01 -0.10656281605E+02 -0.13807831391E+02  0.18508371163E+02  0.51100000000E-03 0.  1.
         12    1    3    3    0    0 -0.91636413452E+00 -0.44344067928E+01 -0.66109240349E+00  0.45761042380E+01  0.00000000000E+00 0. -1.
</event>
<event>
 7    1  0.2811980E-010  0.4778728E+02  0.7816164E-02  0.1312668E+00
        -11   -1    0    0    0    0  0.00000000000E+00  0.00000000000E+00  0.45593999997E+02  0.45594000000E+02  0.51100000000E-03 0.  1.
         11   -1    0    0    0    0 -0.00000000000E+00 -0.00000000000E+00 -0.45593999997E+02  0.45594000000E+02  0.51100000000E-03 0. -1.
    9900012    2    1    2    0    0  0.61874857359E+01 -0.27755958886E+02 -0.32786347823E+02  0.47787276078E+02  0.20000022948E+02 0.  0.
        -12    1    1    2    0    0 -0.61874857359E+01  0.27755958886E+02  0.32786347823E+02  0.43400723922E+02  0.00000000000E+00 0.  1.
         11    1    3    3    0    0  0.13525826280E+01 -0.23737219953E+02 -0.17849185522E+02  0.29730094432E+02  0.51100000000E-03 0. -1.
        -11    1    3    3    0    0  0.46711797785E+01 -0.32829306316E+01 -0.15865383321E+02  0.16861433576E+02  0.51100000000E-03 0.  1.
        -12    1    3    3    0    0  0.16372332938E+00 -0.73580830093E+00  0.92822101988E+00  0.11957480696E+01  0.00000000000E+00 0.  1.
</event>
<event>
 7    1  0.2811980E-010  0.4778728E+02  0.7816164E-02  0.1312668E+00
        -11   -1    0    0    0    0  0.00000000000E+00  0.00000000000E+00  0.45593999997E+02  0.45594000000E+02  0.51100000000E-03 0.  1.
         11   -1    0    0    0    0 -0.00000000000E+00 -0.00000000000E+00 -0.45593999997E+02  0.45594000000E+02  0.51100000000E-03 0. -1.
    9900012    2    1    2    0    0 -0.24149822318E+01 -0.41825940714E+02 -0.11330523959E+02  0.47787283082E+02  0.20000054886E+02 0.  0.
        -12    1    1    2    0    0  0.24149822318E+01  0.41825940714E+02  0.11330523959E+02  0.43400716918E+02  0.00000000000E+00 0.  1.
         11    1    3    3    0    0 -0.32324710429E+01 -0.35722940801E+01 -0.29837314474E+01  0.56668163592E+01  0.51100000000E-03 0. -1.
        -11    1    3    3    0    0  0.43416954579E+01 -0.59844544967E+01 -0.60940829546E+01  0.95813288426E+01  0.51100000000E-03 0.  1.
        -12    1    3    3    0    0 -0.35242066468E+01 -0.32269192137E+02 -0.22527095571E+01  0.32539137881E+02  0.00000000000E+00 0.  1.
</event>
<event>
 7    1  0.2811980E-010  0.4778727E+02  0.7816164E-02  0.1312668E+00
        -11   -1    0    0    0    0  0.00000000000E+00  0.00000000000E+00  0.45593999997E+02  0.45594000000E+02  0.51100000000E-03 0.  1.
         11   -1    0    0    0    0 -0.00000000000E+00 -0.00000000000E+00 -0.45593999997E+02  0.45594000000E+02  0.51100000000E-03 0. -1.
    9900012    2    1    2    0    0  0.37559391339E+02  0.21421005485E+02  0.37490985555E+01  0.47787273120E+02  0.20000009464E+02 0.  0.
        -12    1    1    2    0    0 -0.37559391339E+02 -0.21421005485E+02 -0.37490985555E+01  0.43400726880E+02  0.00000000000E+00 0.  1.
         11    1    3    3    0    0  0.24289461691E+02  0.10423889806E+02 -0.40064712033E+01  0.26733634988E+02  0.51100000000E-03 0. -1.
        -11    1    3    3    0    0  0.51687663526E+01  0.10188788082E+02  0.48027773965E+01  0.12393313486E+02  0.51100000000E-03 0.  1.
         12    1    3    3    0    0  0.81011632950E+01  0.80832759764E+00  0.29527923622E+01  0.86603246459E+01  0.00000000000E+00 0. -1.
</event>
<event>
 7    1  0.2811980E-010  0.4778725E+02  0.7816164E-02  0.1312668E+00
        -11   -1    0    0    0    0  0.00000000000E+00  0.00000000000E+00  0.45593999997E+02  0.45594000000E+02  0.51100000000E-03 0.  1.
         11   -1    0    0    0    0 -0.00000000000E+00 -0.00000000000E+00 -0.45593999997E+02  0.45594000000E+02  0.51100000000E-03 0. -1.
    9900012    2    1    2    0    0 -0.23382962621E+02  0.70518276935E+00 -0.36556324076E+02  0.47787250541E+02  0.19999906516E+02 0.  0.
        -12    1    1    2    0    0  0.23382962621E+02 -0.70518276935E+00  0.36556324076E+02  0.43400749459E+02  0.00000000000E+00 0.  1.
         11    1    3    3    0    0 -0.15732076289E+02 -0.54316816493E+00 -0.27965213509E+02  0.32091220340E+02  0.51100000000E-03 0. -1.
        -11    1    3    3    0    0 -0.48032304145E+01 -0.42178805001E+01 -0.20605214864E+01  0.67161959014E+01  0.51100000000E-03 0.  1.
         12    1    3    3    0    0 -0.28476559173E+01  0.54662314344E+01 -0.65305890804E+01  0.89798342999E+01  0.00000000000E+00 0. -1.
</event>
<event>
 7    1  0.2811980E-010  0.4778727E+02  0.7816164E-02  0.1312668E+00
        -11   -1    0    0    0    0  0.00000000000E+00  0.00000000000E+00  0.45593999997E+02  0.45594000000E+02  0.51100000000E-03 0. -1.
         11   -1    0    0    0    0 -0.00000000000E+00 -0.00000000000E+00 -0.45593999997E+02  0.45594000000E+02  0.51100000000E-03 0.  1.
    9900012    2    1    2    0    0 -0.15443686853E+02  0.18962387814E+02  0.35854481682E+02  0.47787268763E+02  0.19999989599E+02 0.  0.
        -12    1    1    2    0    0  0.15443686853E+02 -0.18962387814E+02 -0.35854481682E+02  0.43400731237E+02  0.00000000000E+00 0.  1.
         11    1    3    3    0    0 -0.17761371007E+02  0.10751102201E+02  0.31797494659E+02  0.37975428443E+02  0.51100000000E-03 0. -1.
        -11    1    3    3    0    0  0.16677172659E+01  0.59606551509E+01  0.15499935360E+01  0.63806873399E+01  0.51100000000E-03 0.  1.
         12    1    3    3    0    0  0.64996688781E+00  0.22506304617E+01  0.25069934864E+01  0.34311529799E+01  0.00000000000E+00 0. -1.
</event>
<event>
 7    1  0.2811980E-010  0.4778727E+02  0.7816164E-02  0.1312668E+00
        -11   -1    0    0    0    0  0.00000000000E+00  0.00000000000E+00  0.45593999997E+02  0.45594000000E+02  0.51100000000E-03 0.  1.
         11   -1    0    0    0    0 -0.00000000000E+00 -0.00000000000E+00 -0.45593999997E+02  0.45594000000E+02  0.51100000000E-03 0. -1.
    9900012    2    1    2    0    0  0.30567888846E+02  0.18797231800E+02 -0.24410898759E+02  0.47787265789E+02  0.19999976038E+02 0.  0.
        -12    1    1    2    0    0 -0.30567888846E+02 -0.18797231800E+02  0.24410898759E+02  0.43400734211E+02  0.00000000000E+00 0.  1.
         11    1    3    3    0    0  0.24387021351E+02  0.18634987071E+02 -0.21584597497E+02  0.37521785710E+02  0.51100000000E-03 0. -1.
        -11    1    3    3    0    0  0.54790658262E+01 -0.22098668619E+00  0.16436588576E+01  0.57245621792E+01  0.51100000000E-03 0.  1.
        -12    1    3    3    0    0  0.70180166908E+00  0.38323141537E+00 -0.44699601198E+01  0.45409178998E+01  0.00000000000E+00 0.  1.
</event>
<event>
 7    1  0.2811980E-010  0.4778727E+02  0.7816164E-02  0.1312668E+00
        -11   -1    0    0    0    0  0.00000000000E+00  0.00000000000E+00  0.45593999997E+02  0.45594000000E+02  0.51100000000E-03 0. -1.
         11   -1    0    0    0    0 -0.00000000000E+00 -0.00000000000E+00 -0.45593999997E+02  0.45594000000E+02  0.51100000000E-03 0.  1.
    9900012    2    1    2    0    0 -0.32254082322E+02 -0.22844863932E+02  0.17927900380E+02  0.47787271359E+02  0.20000001434E+02 0.  0.
        -12    1    1    2    0    0  0.32254082322E+02  0.22844863932E+02 -0.17927900380E+02  0.43400728641E+02  0.00000000000E+00 0.  1.
         11    1    3    3    0    0 -0.17326104060E+01 -0.10368311915E+01  0.50177593555E+01  0.54087768441E+01  0.51100000000E-03 0. -1.
        -11    1    3    3    0    0 -0.14456077195E+02 -0.33404408098E+01  0.29162484743E+00  0.14839870551E+02  0.51100000000E-03 0.  1.
        -12    1    3    3    0    0 -0.16065394722E+02 -0.18467591931E+02  0.12618516177E+02  0.27538623964E+02  0.00000000000E+00 0.  1.
</event>
<event>
 7    1  0.2811980E-010  0.4778728E+02  0.7816164E-02  0.1312668E+00
        -11   -1    0    0    0    0  0.00000000000E+00  0.00000000000E+00  0.45593999997E+02  0.45594000000E+02  0.51100000000E-03 0. -1.
         11   -1    0    0    0    0 -0.00000000000E+00 -0.00000000000E+00 -0.45593999997E+02  0.45594000000E+02  0.51100000000E-03 0.  1.
    9900012    2    1    2    0    0  0.29549613243E+02 -0.31746759035E+02 -0.16081587317E+01  0.47787279655E+02  0.20000039257E+02 0.  0.
        -12    1    1    2    0    0 -0.29549613243E+02  0.31746759035E+02  0.16081587317E+01  0.43400720345E+02  0.00000000000E+00 0.  1.
         11    1    3    3    0    0  0.55988788718E+01 -0.61898917099E+01  0.68564698094E+01  0.10801545376E+02  0.51100000000E-03 0. -1.
        -11    1    3    3    0    0  0.24399212667E+02 -0.25769792988E+02 -0.81998757743E+01  0.36423093943E+02  0.51100000000E-03 0.  1.
        -12    1    3    3    0    0 -0.44847829575E+00  0.21292566327E+00 -0.26475276682E+00  0.56264033572E+00  0.00000000000E+00 0.  1.
</event>
<event>
 7    1  0.2811980E-010  0.4778727E+02  0.7816164E-02  0.1312668E+00
        -11   -1    0    0    0    0  0.00000000000E+00  0.00000000000E+00  0.45593999997E+02  0.45594000000E+02  0.51100000000E-03 0. -1.
         11   -1    0    0    0    0 -0.00000000000E+00 -0.00000000000E+00 -0.45593999997E+02  0.45594000000E+02  0.51100000000E-03 0.  1.
    9900012    2    1    2    0    0  0.16401150457E+02  0.13482936258E+02  0.37852819344E+02  0.47787271449E+02  0.20000001845E+02 0.  0.
        -12    1    1    2    0    0 -0.16401150457E+02 -0.13482936258E+02 -0.37852819344E+02  0.43400728551E+02  0.00000000000E+00 0.  1.
         11    1    3    3    0    0  0.15568229422E+02  0.17592576609E+02  0.35368238062E+02  0.42459166065E+02  0.51100000000E-03 0. -1.
        -11    1    3    3    0    0 -0.41623832018E+00 -0.30057450905E+01  0.17826976992E+01  0.35193421596E+01  0.51100000000E-03 0.  1.
         12    1    3    3    0    0  0.12491593549E+01 -0.11038952597E+01  0.70188358271E+00  0.18087632244E+01  0.00000000000E+00 0. -1.
</event>
<event>
 7    1  0.2811980E-010  0.4778725E+02  0.7816164E-02  0.1312668E+00
        -11   -1    0    0    0    0  0.00000000000E+00  0.00000000000E+00  0.45593999997E+02  0.45594000000E+02  0.51100000000E-03 0. -1.
         11   -1    0    0    0    0 -0.00000000000E+00 -0.00000000000E+00 -0.45593999997E+02  0.45594000000E+02  0.51100000000E-03 0.  1.
    9900012    2    1    2    0    0  0.19490697608E+02 -0.28654564957E+02  0.26127639375E+02  0.47787252017E+02  0.19999913248E+02 0.  0.
        -12    1    1    2    0    0 -0.19490697608E+02  0.28654564957E+02 -0.26127639375E+02  0.43400747983E+02  0.00000000000E+00 0.  1.
         11    1    3    3    0    0  0.11161113981E+02 -0.12956812134E+02  0.20612190919E+02  0.26782678371E+02  0.51100000000E-03 0. -1.
        -11    1    3    3    0    0  0.49589893120E+01 -0.90606040073E+00  0.71007531602E+00  0.50908474405E+01  0.51100000000E-03 0.  1.
         12    1    3    3    0    0  0.33705943158E+01 -0.14791692422E+02  0.48053731397E+01  0.15913726206E+02  0.00000000000E+00 0. -1.
</event>
<event>
 7    1  0.2811980E-010  0.4778727E+02  0.7816164E-02  0.1312668E+00
        -11   -1    0    0    0    0  0.00000000000E+00  0.00000000000E+00  0.45593999997E+02  0.45594000000E+02  0.51100000000E-03 0. -1.
         11   -1    0    0    0    0 -0.00000000000E+00 -0.00000000000E+00 -0.45593999997E+02  0.45594000000E+02  0.51100000000E-03 0.  1.
    9900012    2    1    2    0    0  0.43156278535E+02 -0.45921207258E+01  0.26665562212E+00  0.47787273566E+02  0.20000011496E+02 0.  0.
        -12    1    1    2    0    0 -0.43156278535E+02  0.45921207258E+01 -0.26665562212E+00  0.43400726434E+02  0.00000000000E+00 0.  1.
         11    1    3    3    0    0  0.21870688064E+02  0.20377208047E+01  0.41410343712E+01  0.22352348163E+02  0.51100000000E-03 0. -1.
        -11    1    3    3    0    0  0.16350191324E+02 -0.10206235559E+01  0.11642063922E+01  0.16423331135E+02  0.51100000000E-03 0.  1.
         12    1    3    3    0    0  0.49353991474E+01 -0.56092179746E+01 -0.50385851412E+01  0.90115942683E+01  0.00000000000E+00 0. -1.
</event>
<event>
 7    1  0.2811980E-010  0.4778732E+02  0.7816164E-02  0.1312668E+00
        -11   -1    0    0    0    0  0.00000000000E+00  0.00000000000E+00  0.45593999997E+02  0.45594000000E+02  0.51100000000E-03 0. -1.
         11   -1    0    0    0    0 -0.00000000000E+00 -0.00000000000E+00 -0.45593999997E+02  0.45594000000E+02  0.51100000000E-03 0.  1.
    9900012    2    1    2    0    0 -0.16198516336E+02 -0.18712403696E+02  0.35652107230E+02  0.47787323352E+02  0.20000238489E+02 0.  0.
        -12    1    1    2    0    0  0.16198516336E+02  0.18712403696E+02 -0.35652107230E+02  0.43400676648E+02  0.00000000000E+00 0.  1.
         11    1    3    3    0    0 -0.48256368433E+01 -0.13430078402E+02  0.14008975932E+02  0.19997629453E+02  0.51100000000E-03 0. -1.
        -11    1    3    3    0    0  0.23392534918E+01  0.71392863572E+00  0.26013955913E+01  0.35705826246E+01  0.51100000000E-03 0.  1.
        -12    1    3    3    0    0 -0.13712132984E+02 -0.59962539303E+01  0.19041735707E+02  0.24219111274E+02  0.00000000000E+00 0.  1.
</event>
<event>
 7    1  0.2811980E-010  0.4778727E+02  0.7816164E-02  0.1312668E+00
        -11   -1    0    0    0    0  0.00000000000E+00  0.00000000000E+00  0.45593999997E+02  0.45594000000E+02  0.51100000000E-03 0. -1.
         11   -1    0    0    0    0 -0.00000000000E+00 -0.00000000000E+00 -0.45593999997E+02  0.45594000000E+02  0.51100000000E-03 0.  1.
    9900012    2    1    2    0    0  0.22391001505E+02  0.12117374871E+02  0.35148763457E+02  0.47787270804E+02  0.19999998906E+02 0.  0.
        -12    1    1    2    0    0 -0.22391001505E+02 -0.12117374871E+02 -0.35148763457E+02  0.43400729196E+02  0.00000000000E+00 0.  1.
         11    1    3    3    0    0  0.21944871503E+02  0.11449176440E+02  0.20105081901E+02  0.31888482951E+02  0.51100000000E-03 0. -1.
        -11    1    3    3    0    0 -0.34940383344E+00 -0.20166765800E+01  0.38507546957E+01  0.43608920480E+01  0.51100000000E-03 0.  1.
         12    1    3    3    0    0  0.79553383543E+00  0.26848750116E+01  0.11192926860E+02  0.11537895805E+02  0.00000000000E+00 0. -1.
</event>
<event>
 7    1  0.2811980E-010  0.4778728E+02  0.7816164E-02  0.1312668E+00
        -11   -1    0    0    0    0  0.00000000000E+00  0.00000000000E+00  0.45593999997E+02  0.45594000000E+02  0.51100000000E-03 0.  1.
         11   -1    0    0    0    0 -0.00000000000E+00 -0.00000000000E+00 -0.45593999997E+02  0.45594000000E+02  0.51100000000E-03 0. -1.
    9900012    2    1    2    0    0  0.28650245078E+02 -0.27801268775E+02 -0.17025724234E+02  0.47787281409E+02  0.20000047256E+02 0.  0.
        -12    1    1    2    0    0 -0.28650245078E+02  0.27801268775E+02  0.17025724234E+02  0.43400718591E+02  0.00000000000E+00 0.  1.
         11    1    3    3    0    0  0.11614708879E+02 -0.85907752119E+01  0.22312898083E+01  0.14617849895E+02  0.51100000000E-03 0. -1.
        -11    1    3    3    0    0  0.11675805739E+02 -0.81792273140E+01 -0.13452220031E+02  0.19600674048E+02  0.51100000000E-03 0.  1.
         12    1    3    3    0    0  0.53597304598E+01 -0.11031266249E+02 -0.58047940117E+01  0.13568757466E+02  0.00000000000E+00 0. -1.
</event>
<event>
 7    1  0.2811980E-010  0.4778726E+02  0.7816164E-02  0.1312668E+00
        -11   -1    0    0    0    0  0.00000000000E+00  0.00000000000E+00  0.45593999997E+02  0.45594000000E+02  0.51100000000E-03 0.  1.
         11   -1    0    0    0    0 -0.00000000000E+00 -0.00000000000E+00 -0.45593999997E+02  0.45594000000E+02  0.51100000000E-03 0. -1.
    9900012    2    1    2    0    0  0.20884772838E+01  0.12036038204E+02 -0.41646083967E+02  0.47787259651E+02  0.19999948054E+02 0.  0.
        -12    1    1    2    0    0 -0.20884772838E+01 -0.12036038204E+02  0.41646083967E+02  0.43400740349E+02  0.00000000000E+00 0.  1.
         11    1    3    3    0    0 -0.28340754441E+01  0.12138639980E+02 -0.20953693953E+02  0.24381055242E+02  0.51100000000E-03 0. -1.
        -11    1    3    3    0    0  0.24380000518E+01  0.48245879307E+01 -0.10869743235E+02  0.12139679206E+02  0.51100000000E-03 0.  1.
         12    1    3    3    0    0  0.24845526761E+01 -0.49271897069E+01 -0.98226467795E+01  0.11266525204E+02  0.00000000000E+00 0. -1.
</event>
<event>
 7    1  0.2811980E-010  0.4778727E+02  0.7816164E-02  0.1312668E+00
        -11   -1    0    0    0    0  0.00000000000E+00  0.00000000000E+00  0.45593999997E+02  0.45594000000E+02  0.51100000000E-03 0. -1.
         11   -1    0    0    0    0 -0.00000000000E+00 -0.00000000000E+00 -0.45593999997E+02  0.45594000000E+02  0.51100000000E-03 0.  1.
    9900012    2    1    2    0    0 -0.80189237325E+01 -0.37163006575E+02  0.20933971725E+02  0.47787269964E+02  0.19999995072E+02 0.  0.
        -12    1    1    2    0    0  0.80189237325E+01  0.37163006575E+02 -0.20933971725E+02  0.43400730036E+02  0.00000000000E+00 0.  1.
         11    1    3    3    0    0 -0.45600361426E+01 -0.54749229210E+01  0.81459600262E+01  0.10822447765E+02  0.51100000000E-03 0. -1.
        -11    1    3    3    0    0 -0.56157838873E+01 -0.30533095357E+02  0.14201425462E+02  0.34139235876E+02  0.51100000000E-03 0.  1.
        -12    1    3    3    0    0  0.21568962974E+01 -0.11549882967E+01 -0.14134137633E+01  0.28255863231E+01  0.00000000000E+00 0.  1.
</event>
<event>
 7    1  0.2811980E-010  0.4778727E+02  0.7816164E-02  0.1312668E+00
        -11   -1    0    0    0    0  0.00000000000E+00  0.00000000000E+00  0.45593999997E+02  0.45594000000E+02  0.51100000000E-03 0.  1.
         11   -1    0    0    0    0 -0.00000000000E+00 -0.00000000000E+00 -0.45593999997E+02  0.45594000000E+02  0.51100000000E-03 0. -1.
    9900012    2    1    2    0    0  0.25945166698E+02  0.14253695804E+01 -0.34762622598E+02  0.47787270935E+02  0.19999999503E+02 0.  0.
        -12    1    1    2    0    0 -0.25945166698E+02 -0.14253695804E+01  0.34762622598E+02  0.43400729065E+02  0.00000000000E+00 0.  1.
         11    1    3    3    0    0  0.24722518765E+01 -0.90763894462E+00  0.17455380290E+01  0.31595476047E+01  0.51100000000E-03 0. -1.
        -11    1    3    3    0    0  0.13698733419E+01  0.68404964815E+00  0.39382446762E+00  0.15810043853E+01  0.51100000000E-03 0.  1.
         12    1    3    3    0    0  0.22103041480E+02  0.16489588768E+01 -0.36901985095E+02  0.43046718945E+02  0.00000000000E+00 0. -1.
</event>
<event>
 7    1  0.2811980E-010  0.4778727E+02  0.7816164E-02  0.1312668E+00
        -11   -1    0    0    0    0  0.00000000000E+00  0.00000000000E+00  0.45593999997E+02  0.45594000000E+02  0.51100000000E-03 0.  1.
         11   -1    0    0    0    0 -0.00000000000E+00 -0.00000000000E+00 -0.45593999997E+02  0.45594000000E+02  0.51100000000E-03 0. -1.
    9900012    2    1    2    0    0  0.31646474149E+02  0.23146859485E+02 -0.18610396475E+02  0.47787270893E+02  0.19999999308E+02 0.  0.
        -12    1    1    2    0    0 -0.31646474149E+02 -0.23146859485E+02  0.18610396475E+02  0.43400729107E+02  0.00000000000E+00 0.  1.
         11    1    3    3    0    0  0.21120196305E+02  0.10185132982E+02 -0.11466385506E+02  0.26101295421E+02  0.51100000000E-03 0. -1.
        -11    1    3    3    0    0  0.35673376106E+00 -0.15377402838E+00  0.24738962769E+01  0.25042101505E+01  0.51100000000E-03 0.  1.
         12    1    3    3    0    0  0.10169544083E+02  0.13115500531E+02 -0.96179072457E+01  0.19181765321E+02  0.00000000000E+00 0. -1.
</event>
<event>
 7    1  0.2811980E-010  0.4778727E+02  0.7816164E-02  0.1312668E+00
        -11   -1    0    0    0    0  0.00000000000E+00  0.00000000000E+00  0.45593999997E+02  0.45594000000E+02  0.51100000000E-03 0. -1.
         11   -1    0    0    0    0 -0.00000000000E+00 -0.00000000000E+00 -0.45593999997E+02  0.45594000000E+02  0.51100000000E-03 0.  1.
    9900012    2    1    2    0    0  0.27122111052E+02  0.21954516060E+02  0.25807238415E+02  0.47787271459E+02  0.20000001889E+02 0.  0.
        -12    1    1    2    0    0 -0.27122111052E+02 -0.21954516060E+02 -0.25807238415E+02  0.43400728541E+02  0.00000000000E+00 0.  1.
         11    1    3    3    0    0 -0.12293229981E+01  0.73869847146E+01  0.50108151851E+01  0.90103855238E+01  0.51100000000E-03 0. -1.
        -11    1    3    3    0    0  0.36426559176E+01  0.25120914262E+00  0.37672290504E+00  0.36706904767E+01  0.51100000000E-03 0.  1.
         12    1    3    3    0    0  0.24708778132E+02  0.14316322202E+02  0.20419700325E+02  0.35106195458E+02  0.00000000000E+00 0. -1.
</event>
<event>
 7    1  0.2811980E-010  0.4778727E+02  0.7816164E-02  0.1312668E+00
        -11   -1    0    0    0    0  0.00000000000E+00  0.00000000000E+00  0.45593999997E+02  0.45594000000E+02  0.51100000000E-03 0.  1.
         11   -1    0    0    0    0 -0.00000000000E+00 -0.00000000000E+00 -0.45593999997E+02  0.45594000000E+02  0.51100000000E-03 0. -1.
    9900012    2    1    2    0    0  0.43031497819E+02  0.53734233046E+01 -0.17434721813E+01  0.47787272151E+02  0.20000005046E+02 0.  0.
        -12    1    1    2    0    0 -0.43031497819E+02 -0.53734233046E+01  0.17434721813E+01  0.43400727849E+02  0.00000000000E+00 0.  1.
         11    1    3    3    0    0  0.26999986066E+02  0.30468567086E+01 -0.80547198985E+01  0.28340096970E+02  0.51100000000E-03 0. -1.
        -11    1    3    3    0    0  0.14344498788E+02  0.42993964736E+01  0.73124867226E+01  0.16664990784E+02  0.51100000000E-03 0.  1.
        -12    1    3    3    0    0  0.16870129648E+01 -0.19728298775E+01 -0.10012390055E+01  0.27821843963E+01  0.00000000000E+00 0.  1.
</event>
<event>
 7    1  0.2811980E-010  0.4778727E+02  0.7816164E-02  0.1312668E+00
        -11   -1    0    0    0    0  0.00000000000E+00  0.00000000000E+00  0.45593999997E+02  0.45594000000E+02  0.51100000000E-03 0.  1.
         11   -1    0    0    0    0 -0.00000000000E+00 -0.00000000000E+00 -0.45593999997E+02  0.45594000000E+02  0.51100000000E-03 0. -1.
    9900012    2    1    2    0    0  0.42440315351E+02  0.12182203360E+01  0.89977216933E+01  0.47787269320E+02  0.19999992139E+02 0.  0.
        -12    1    1    2    0    0 -0.42440315351E+02 -0.12182203360E+01 -0.89977216933E+01  0.43400730680E+02  0.00000000000E+00 0.  1.
         11    1    3    3    0    0  0.16616271850E+02 -0.29444112090E+00 -0.34882880115E+01  0.16981028805E+02  0.51100000000E-03 0. -1.
        -11    1    3    3    0    0  0.26062795938E+02  0.31074203786E+01  0.10554203999E+02  0.28289867724E+02  0.51100000000E-03 0.  1.
         12    1    3    3    0    0 -0.23875243646E+00 -0.15947589217E+01  0.19318057056E+01  0.25163727920E+01  0.00000000000E+00 0. -1.
</event>
<event>
 7    1  0.2811980E-010  0.4778727E+02  0.7816164E-02  0.1312668E+00
        -11   -1    0    0    0    0  0.00000000000E+00  0.00000000000E+00  0.45593999997E+02  0.45594000000E+02  0.51100000000E-03 0. -1.
         11   -1    0    0    0    0 -0.00000000000E+00 -0.00000000000E+00 -0.45593999997E+02  0.45594000000E+02  0.51100000000E-03 0.  1.
    9900012    2    1    2    0    0  0.11057062482E+02 -0.41164837833E+01  0.41766245672E+02  0.47787270202E+02  0.19999996157E+02 0.  0.
        -12    1    1    2    0    0 -0.11057062482E+02  0.41164837833E+01 -0.41766245672E+02  0.43400729798E+02  0.00000000000E+00 0.  1.
         11    1    3    3    0    0 -0.12054202554E-01 -0.82855549198E+01  0.15344771317E+02  0.17438823718E+02  0.51100000000E-03 0. -1.
        -11    1    3    3    0    0  0.98786769678E+01  0.46781623316E+01  0.13536433331E+02  0.17398519737E+02  0.51100000000E-03 0.  1.
        -12    1    3    3    0    0  0.11904397172E+01 -0.50909119514E+00  0.12885041023E+02  0.12949926746E+02  0.00000000000E+00 0.  1.
</event>
<event>
 7    1  0.2811980E-010  0.4778727E+02  0.7816164E-02  0.1312668E+00
        -11   -1    0    0    0    0  0.00000000000E+00  0.00000000000E+00  0.45593999997E+02  0.45594000000E+02  0.51100000000E-03 0.  1.
         11   -1    0    0    0    0 -0.00000000000E+00 -0.00000000000E+00 -0.45593999997E+02  0.45594000000E+02  0.51100000000E-03 0. -1.
    9900012    2    1    2    0    0  0.32644570084E+02  0.17471628786E+02 -0.22642817799E+02  0.47787274588E+02  0.20000016156E+02 0.  0.
        -12    1    1    2    0    0 -0.32644570084E+02 -0.17471628786E+02  0.22642817799E+02  0.43400725412E+02  0.00000000000E+00 0.  1.
         11    1    3    3    0    0  0.22819151068E+01 -0.63561856125E+00 -0.13478165657E+01  0.27253912134E+01  0.51100000000E-03 0. -1.
        -11    1    3    3    0    0  0.20844090168E+02  0.29428911841E+01 -0.71087415018E+01  0.22218706296E+02  0.51100000000E-03 0.  1.
        -12    1    3    3    0    0  0.95185648089E+01  0.15164356163E+02 -0.14186259732E+02  0.22843177079E+02  0.00000000000E+00 0.  1.
</event>
<event>
 7    1  0.2811980E-010  0.4778727E+02  0.7816164E-02  0.1312668E+00
        -11   -1    0    0    0    0  0.00000000000E+00  0.00000000000E+00  0.45593999997E+02  0.45594000000E+02  0.51100000000E-03 0. -1.
         11   -1    0    0    0    0 -0.00000000000E+00 -0.00000000000E+00 -0.45593999997E+02  0.45594000000E+02  0.51100000000E-03 0.  1.
    9900012    2    1    2    0    0 -0.19579415846E+02  0.31415780116E+01  0.38605705345E+02  0.47787268181E+02  0.19999986945E+02 0.  0.
        -12    1    1    2    0    0  0.19579415846E+02 -0.31415780116E+01 -0.38605705345E+02  0.43400731819E+02  0.00000000000E+00 0.  1.
         11    1    3    3    0    0 -0.40556802293E+01  0.18482304773E+01  0.50121066210E+01  0.67071388133E+01  0.51100000000E-03 0. -1.
        -11    1    3    3    0    0 -0.14268721092E+02  0.62182457635E+01  0.32271118056E+02  0.35828592532E+02  0.51100000000E-03 0.  1.
        -12    1    3    3    0    0 -0.12550145243E+01 -0.49248982292E+01  0.13224806683E+01  0.52515368363E+01  0.00000000000E+00 0.  1.
</event>
<event>
 7    1  0.2811980E-010  0.4778730E+02  0.7816164E-02  0.1312668E+00
        -11   -1    0    0    0    0  0.00000000000E+00  0.00000000000E+00  0.45593999997E+02  0.45594000000E+02  0.51100000000E-03 0.  1.
         11   -1    0    0    0    0 -0.00000000000E+00 -0.00000000000E+00 -0.45593999997E+02  0.45594000000E+02  0.51100000000E-03 0. -1.
    9900012    2    1    2    0    0 -0.57499358573E+01  0.28532304514E+02 -0.32194201341E+02  0.47787299968E+02  0.20000131876E+02 0.  0.
        -12    1    1    2    0    0  0.57499358573E+01 -0.28532304514E+02  0.32194201341E+02  0.43400700032E+02  0.00000000000E+00 0.  1.
         11    1    3    3    0    0 -0.23476669446E+01  0.20804128006E+02 -0.12914079404E+02  0.24598713976E+02  0.51100000000E-03 0. -1.
        -11    1    3    3    0    0  0.27122693544E+01  0.32398243020E+00 -0.75518713091E+01  0.80306992346E+01  0.51100000000E-03 0.  1.
         12    1    3    3    0    0 -0.61145382671E+01  0.74041940773E+01 -0.11728250629E+02  0.15157886758E+02  0.00000000000E+00 0. -1.
</event>
<event>
 7    1  0.2811980E-010  0.4778727E+02  0.7816164E-02  0.1312668E+00
        -11   -1    0    0    0    0  0.00000000000E+00  0.00000000000E+00  0.45593999997E+02  0.45594000000E+02  0.51100000000E-03 0. -1.
         11   -1    0    0    0    0 -0.00000000000E+00 -0.00000000000E+00 -0.45593999997E+02  0.45594000000E+02  0.51100000000E-03 0.  1.
    9900012    2    1    2    0    0 -0.48504193568E+01  0.28051395400E+02  0.32759971696E+02  0.47787273078E+02  0.20000009274E+02 0.  0.
        -12    1    1    2    0    0  0.48504193568E+01 -0.28051395400E+02 -0.32759971696E+02  0.43400726922E+02  0.00000000000E+00 0.  1.
         11    1    3    3    0    0 -0.48158149630E+01  0.30569307368E+02  0.31255644552E+02  0.43983973710E+02  0.51100000000E-03 0. -1.
        -11    1    3    3    0    0  0.49943623065E+00 -0.25492659382E+01  0.18294633385E+01  0.31772833900E+01  0.51100000000E-03 0.  1.
         12    1    3    3    0    0 -0.53404062443E+00  0.31353970392E-01 -0.32513619486E+00  0.62601597839E+00  0.00000000000E+00 0. -1.
</event>
<event>
 7    1  0.2811980E-010  0.4778727E+02  0.7816164E-02  0.1312668E+00
        -11   -1    0    0    0    0  0.00000000000E+00  0.00000000000E+00  0.45593999997E+02  0.45594000000E+02  0.51100000000E-03 0. -1.
         11   -1    0    0    0    0 -0.00000000000E+00 -0.00000000000E+00 -0.45593999997E+02  0.45594000000E+02  0.51100000000E-03 0.  1.
    9900012    2    1    2    0    0 -0.19131472825E+02 -0.24701216747E+02  0.30124070437E+02  0.47787274419E+02  0.20000015385E+02 0.  0.
        -12    1    1    2    0    0  0.19131472825E+02  0.24701216747E+02 -0.30124070437E+02  0.43400725581E+02  0.00000000000E+00 0.  1.
         11    1    3    3    0    0 -0.20872223735E+02 -0.25216225962E+02  0.26641786772E+02  0.42205361959E+02  0.51100000000E-03 0. -1.
        -11    1    3    3    0    0  0.11508759354E+00  0.14307453985E+01  0.34267757564E+01  0.37152482952E+01  0.51100000000E-03 0.  1.
         12    1    3    3    0    0  0.16256633160E+01 -0.91573618370E+00  0.55507908608E-01  0.18666641645E+01  0.00000000000E+00 0. -1.
</event>
<event>
 7    1  0.2811980E-010  0.4778727E+02  0.7816164E-02  0.1312668E+00
        -11   -1    0    0    0    0  0.00000000000E+00  0.00000000000E+00  0.45593999997E+02  0.45594000000E+02  0.51100000000E-03 0.  1.
         11   -1    0    0    0    0 -0.00000000000E+00 -0.00000000000E+00 -0.45593999997E+02  0.45594000000E+02  0.51100000000E-03 0. -1.
    9900012    2    1    2    0    0 -0.58649591567E+01 -0.41833835388E+02 -0.99577068659E+01  0.47787268956E+02  0.19999990476E+02 0.  0.
        -12    1    1    2    0    0  0.58649591567E+01  0.41833835388E+02  0.99577068659E+01  0.43400731044E+02  0.00000000000E+00 0.  1.
         11    1    3    3    0    0 -0.81322266002E+00 -0.23411651984E+02 -0.14066786994E+02  0.27324737443E+02  0.51100000000E-03 0. -1.
        -11    1    3    3    0    0 -0.52716302117E+01 -0.82419015226E+01  0.29236266010E+01  0.10211102710E+02  0.51100000000E-03 0.  1.
        -12    1    3    3    0    0  0.21989371508E+00 -0.10180281881E+02  0.11854535276E+01  0.10251428803E+02  0.00000000000E+00 0.  1.
</event>
<event>
 7    1  0.2811980E-010  0.4778727E+02  0.7816164E-02  0.1312668E+00
        -11   -1    0    0    0    0  0.00000000000E+00  0.00000000000E+00  0.45593999997E+02  0.45594000000E+02  0.51100000000E-03 0. -1.
         11   -1    0    0    0    0 -0.00000000000E+00 -0.00000000000E+00 -0.45593999997E+02  0.45594000000E+02  0.51100000000E-03 0.  1.
    9900012    2    1    2    0    0 -0.27152044370E+02 -0.10759788845E+02  0.32103225510E+02  0.47787266624E+02  0.19999979844E+02 0.  0.
        -12    1    1    2    0    0  0.27152044370E+02  0.10759788845E+02 -0.32103225510E+02  0.43400733376E+02  0.00000000000E+00 0.  1.
         11    1    3    3    0    0 -0.58367311776E+01 -0.19519740907E+01  0.69324776744E+01  0.92702147039E+01  0.51100000000E-03 0. -1.
        -11    1    3    3    0    0 -0.22485160381E+02 -0.44082522735E+01  0.15034193816E+02  0.27405147499E+02  0.51100000000E-03 0.  1.
        -12    1    3    3    0    0  0.11698471889E+01 -0.43995624805E+01  0.10136554019E+02  0.11111904421E+02  0.00000000000E+00 0.  1.
</event>
<event>
 7    1  0.2811980E-010  0.4778728E+02  0.7816164E-02  0.1312668E+00
        -11   -1    0    0    0    0  0.00000000000E+00  0.00000000000E+00  0.45593999997E+02  0.45594000000E+02  0.51100000000E-03 0. -1.
         11   -1    0    0    0    0 -0.00000000000E+00 -0.00000000000E+00 -0.45593999997E+02  0.45594000000E+02  0.51100000000E-03 0.  1.
    9900012    2    1    2    0    0 -0.20094605003E+02  0.36687373866E+02  0.11570056529E+02  0.47787276970E+02  0.20000027016E+02 0.  0.
        -12    1    1    2    0    0  0.20094605003E+02 -0.36687373866E+02 -0.11570056529E+02  0.43400723030E+02  0.00000000000E+00 0.  1.
         11    1    3    3    0    0 -0.91679187983E+01  0.17419514879E+02  0.15296097454E+02  0.24929116135E+02  0.51100000000E-03 0.  1.
        -11    1    3    3    0    0 -0.93592286289E+01  0.12879151635E+02 -0.33495618750E+01  0.16269212408E+02  0.51100000000E-03 0. -1.
        -12    1    3    3    0    0 -0.15674575761E+01  0.63887073533E+01 -0.37647904924E+00  0.65889484270E+01  0.00000000000E+00 0.  1.
</event>
<event>
 7    1  0.2811980E-010  0.4778727E+02  0.7816164E-02  0.1312668E+00
        -11   -1    0    0    0    0  0.00000000000E+00  0.00000000000E+00  0.45593999997E+02  0.45594000000E+02  0.51100000000E-03 0. -1.
         11   -1    0    0    0    0 -0.00000000000E+00 -0.00000000000E+00 -0.45593999997E+02  0.45594000000E+02  0.51100000000E-03 0.  1.
    9900012    2    1    2    0    0 -0.85018554395E+01 -0.30505688542E+01  0.42450391006E+02  0.47787271748E+02  0.20000003208E+02 0.  0.
        -12    1    1    2    0    0  0.85018554395E+01  0.30505688542E+01 -0.42450391006E+02  0.43400728252E+02  0.00000000000E+00 0.  1.
         11    1    3    3    0    0 -0.85777897191E+01  0.45103882196E+01  0.19671047890E+02  0.21928798501E+02  0.51100000000E-03 0. -1.
        -11    1    3    3    0    0 -0.40495463692E+00 -0.48348357715E+01  0.26278201850E+01  0.55177046297E+01  0.51100000000E-03 0.  1.
        -12    1    3    3    0    0  0.48088891657E+00 -0.27261213023E+01  0.20151522931E+02  0.20340768617E+02  0.00000000000E+00 0.  1.
</event>
<event>
 7    1  0.2811980E-010  0.4778727E+02  0.7816164E-02  0.1312668E+00
        -11   -1    0    0    0    0  0.00000000000E+00  0.00000000000E+00  0.45593999997E+02  0.45594000000E+02  0.51100000000E-03 0.  1.
         11   -1    0    0    0    0 -0.00000000000E+00 -0.00000000000E+00 -0.45593999997E+02  0.45594000000E+02  0.51100000000E-03 0. -1.
    9900012    2    1    2    0    0 -0.31791266814E+02 -0.13421544755E+02 -0.26321111865E+02  0.47787269141E+02  0.19999991322E+02 0.  0.
        -12    1    1    2    0    0  0.31791266814E+02  0.13421544755E+02  0.26321111865E+02  0.43400730859E+02  0.00000000000E+00 0.  1.
         11    1    3    3    0    0 -0.11204527376E+02 -0.36422244421E+01 -0.64053400662E+01  0.13410280169E+02  0.51100000000E-03 0. -1.
        -11    1    3    3    0    0 -0.75188875348E+01 -0.53189250260E+01  0.10531292093E+01  0.92700439366E+01  0.51100000000E-03 0.  1.
        -12    1    3    3    0    0 -0.13067851904E+02 -0.44603952868E+01 -0.20968901008E+02  0.25106945035E+02  0.00000000000E+00 0.  1.
</event>
<event>
 7    1  0.2811980E-010  0.4778727E+02  0.7816164E-02  0.1312668E+00
        -11   -1    0    0    0    0  0.00000000000E+00  0.00000000000E+00  0.45593999997E+02  0.45594000000E+02  0.51100000000E-03 0.  1.
         11   -1    0    0    0    0 -0.00000000000E+00 -0.00000000000E+00 -0.45593999997E+02  0.45594000000E+02  0.51100000000E-03 0. -1.
    9900012    2    1    2    0    0 -0.40991044868E+02 -0.47910279718E+01 -0.13431438284E+02  0.47787271403E+02  0.20000001634E+02 0.  0.
        -12    1    1    2    0    0  0.40991044868E+02  0.47910279718E+01  0.13431438284E+02  0.43400728597E+02  0.00000000000E+00 0.  1.
         11    1    3    3    0    0 -0.53999705008E+01 -0.17550859794E+01 -0.25819717180E+01  0.62375144424E+01  0.51100000000E-03 0.  1.
        -11    1    3    3    0    0 -0.30882100724E+02 -0.78953001680E+01 -0.13036828311E+02  0.34438333330E+02  0.51100000000E-03 0. -1.
        -12    1    3    3    0    0 -0.47089736427E+01  0.48593581755E+01  0.21873617448E+01  0.71114236302E+01  0.00000000000E+00 0.  1.
</event>
<event>
 7    1  0.2811980E-010  0.4778727E+02  0.7816164E-02  0.1312668E+00
        -11   -1    0    0    0    0  0.00000000000E+00  0.00000000000E+00  0.45593999997E+02  0.45594000000E+02  0.51100000000E-03 0.  1.
         11   -1    0    0    0    0 -0.00000000000E+00 -0.00000000000E+00 -0.45593999997E+02  0.45594000000E+02  0.51100000000E-03 0. -1.
    9900012    2    1    2    0    0 -0.16255895509E+02  0.39659005605E+02 -0.68214629036E+01  0.47787271659E+02  0.20000002803E+02 0.  0.
        -12    1    1    2    0    0  0.16255895509E+02 -0.39659005605E+02  0.68214629036E+01  0.43400728341E+02  0.00000000000E+00 0.  1.
         11    1    3    3    0    0 -0.11901845286E+02  0.34728203665E+02 -0.80148487569E+00  0.36719809766E+02  0.51100000000E-03 0. -1.
        -11    1    3    3    0    0 -0.60576886714E+01  0.43371352384E+01 -0.52015548464E+01  0.90863913187E+01  0.51100000000E-03 0.  1.
         12    1    3    3    0    0  0.17036384485E+01  0.59366670168E+00 -0.81842318146E+00  0.19810705742E+01  0.00000000000E+00 0. -1.
</event>
<event>
 7    1  0.2811980E-010  0.4778727E+02  0.7816164E-02  0.1312668E+00
        -11   -1    0    0    0    0  0.00000000000E+00  0.00000000000E+00  0.45593999997E+02  0.45594000000E+02  0.51100000000E-03 0.  1.
         11   -1    0    0    0    0 -0.00000000000E+00 -0.00000000000E+00 -0.45593999997E+02  0.45594000000E+02  0.51100000000E-03 0. -1.
    9900012    2    1    2    0    0 -0.32090917186E+02  0.60671844750E+00 -0.29213493149E+02  0.47787271262E+02  0.20000000990E+02 0.  0.
        -12    1    1    2    0    0  0.32090917186E+02 -0.60671844750E+00  0.29213493149E+02  0.43400728738E+02  0.00000000000E+00 0.  1.
         11    1    3    3    0    0 -0.14478765991E+02  0.77367350626E+01 -0.14232039371E+02  0.21726543190E+02  0.51100000000E-03 0. -1.
        -11    1    3    3    0    0 -0.53517571085E+01 -0.39335760231E+01 -0.27294639123E+00  0.66474675231E+01  0.51100000000E-03 0.  1.
         12    1    3    3    0    0 -0.12260394086E+02 -0.31964405920E+01 -0.14708507387E+02  0.19413260549E+02  0.00000000000E+00 0. -1.
</event>
<event>
 7    1  0.2811980E-010  0.4778728E+02  0.7816164E-02  0.1312668E+00
        -11   -1    0    0    0    0  0.00000000000E+00  0.00000000000E+00  0.45593999997E+02  0.45594000000E+02  0.51100000000E-03 0. -1.
         11   -1    0    0    0    0 -0.00000000000E+00 -0.00000000000E+00 -0.45593999997E+02  0.45594000000E+02  0.51100000000E-03 0.  1.
    9900012    2    1    2    0    0  0.22294822870E+02  0.23783311201E+02  0.28651652366E+02  0.47787283395E+02  0.20000056312E+02 0.  0.
        -12    1    1    2    0    0 -0.22294822870E+02 -0.23783311201E+02 -0.28651652366E+02  0.43400716605E+02  0.00000000000E+00 0.  1.
         11    1    3    3    0    0  0.12518786884E+02  0.11221618175E+02  0.40066616169E+01  0.17282883934E+02  0.51100000000E-03 0. -1.
        -11    1    3    3    0    0  0.86631828017E+01  0.13807570800E+02  0.22131874917E+02  0.27486717433E+02  0.51100000000E-03 0.  1.
        -12    1    3    3    0    0  0.11128531848E+01 -0.12458777734E+01  0.25131158324E+01  0.30176820284E+01  0.00000000000E+00 0.  1.
</event>
<event>
 7    1  0.2811980E-010  0.4778727E+02  0.7816164E-02  0.1312668E+00
        -11   -1    0    0    0    0  0.00000000000E+00  0.00000000000E+00  0.45593999997E+02  0.45594000000E+02  0.51100000000E-03 0.  1.
         11   -1    0    0    0    0 -0.00000000000E+00 -0.00000000000E+00 -0.45593999997E+02  0.45594000000E+02  0.51100000000E-03 0. -1.
    9900012    2    1    2    0    0 -0.24111482008E+00 -0.33413276691E+02 -0.27696903493E+02  0.47787266611E+02  0.19999979787E+02 0.  0.
        -12    1    1    2    0    0  0.24111482008E+00  0.33413276691E+02  0.27696903493E+02  0.43400733389E+02  0.00000000000E+00 0.  1.
         11    1    3    3    0    0 -0.67882169364E+01 -0.48375488377E+01 -0.68901558304E+01  0.10814620454E+02  0.51100000000E-03 0. -1.
        -11    1    3    3    0    0  0.43023694815E+01 -0.40125216893E+01 -0.44489638510E+01  0.73759062542E+01  0.51100000000E-03 0.  1.
         12    1    3    3    0    0  0.22447326349E+01 -0.24563206164E+02 -0.16357783811E+02  0.29596739903E+02  0.00000000000E+00 0. -1.
</event>
<event>
 7    1  0.2811980E-010  0.4778727E+02  0.7816164E-02  0.1312668E+00
        -11   -1    0    0    0    0  0.00000000000E+00  0.00000000000E+00  0.45593999997E+02  0.45594000000E+02  0.51100000000E-03 0. -1.
         11   -1    0    0    0    0 -0.00000000000E+00 -0.00000000000E+00 -0.45593999997E+02  0.45594000000E+02  0.51100000000E-03 0.  1.
    9900012    2    1    2    0    0 -0.23074947757E+02  0.11978934083E+02  0.34751623704E+02  0.47787269294E+02  0.19999992018E+02 0.  0.
        -12    1    1    2    0    0  0.23074947757E+02 -0.11978934083E+02 -0.34751623704E+02  0.43400730706E+02  0.00000000000E+00 0.  1.
         11    1    3    3    0    0 -0.30623627284E+01 -0.22342224457E+01  0.63397739698E+01  0.73866467133E+01  0.51100000000E-03 0. -1.
        -11    1    3    3    0    0 -0.21627204058E+02  0.94104417184E+01  0.22267990812E+02  0.32436950901E+02  0.51100000000E-03 0.  1.
        -12    1    3    3    0    0  0.16146190293E+01  0.48027148101E+01  0.61438589226E+01  0.79636716794E+01  0.00000000000E+00 0.  1.
</event>
<event>
 7    1  0.2811980E-010  0.4778728E+02  0.7816164E-02  0.1312668E+00
        -11   -1    0    0    0    0  0.00000000000E+00  0.00000000000E+00  0.45593999997E+02  0.45594000000E+02  0.51100000000E-03 0. -1.
         11   -1    0    0    0    0 -0.00000000000E+00 -0.00000000000E+00 -0.45593999997E+02  0.45594000000E+02  0.51100000000E-03 0.  1.
    9900012    2    1    2    0    0 -0.25373947878E+02  0.35202803182E+02 -0.74018921312E+00  0.47787280387E+02  0.20000042598E+02 0.  0.
        -12    1    1    2    0    0  0.25373947878E+02 -0.35202803182E+02  0.74018921312E+00  0.43400719613E+02  0.00000000000E+00 0.  1.
         11    1    3    3    0    0 -0.18358269496E+02  0.25727398447E+02 -0.93749610938E+01  0.32966877097E+02  0.51100000000E-03 0. -1.
        -11    1    3    3    0    0 -0.60044956435E+01  0.65093997744E+01  0.69849207211E+01  0.11278979169E+02  0.51100000000E-03 0.  1.
         12    1    3    3    0    0 -0.10111827386E+01  0.29660049612E+01  0.16498511596E+01  0.35414241217E+01  0.00000000000E+00 0. -1.
</event>
<event>
 7    1  0.2811980E-010  0.4778727E+02  0.7816164E-02  0.1312668E+00
        -11   -1    0    0    0    0  0.00000000000E+00  0.00000000000E+00  0.45593999997E+02  0.45594000000E+02  0.51100000000E-03 0.  1.
         11   -1    0    0    0    0 -0.00000000000E+00 -0.00000000000E+00 -0.45593999997E+02  0.45594000000E+02  0.51100000000E-03 0. -1.
    9900012    2    1    2    0    0 -0.41136422946E+01  0.42217498383E+00 -0.43203274776E+02  0.47787271481E+02  0.20000001989E+02 0.  0.
        -12    1    1    2    0    0  0.41136422946E+01 -0.42217498383E+00  0.43203274776E+02  0.43400728519E+02  0.00000000000E+00 0.  1.
         11    1    3    3    0    0 -0.68306802443E+01 -0.44444807210E+01 -0.12578597696E+02  0.14987752391E+02  0.51100000000E-03 0. -1.
        -11    1    3    3    0    0  0.43677010888E+01  0.51635544600E+01 -0.97982058094E+01  0.11905626603E+02  0.51100000000E-03 0.  1.
         12    1    3    3    0    0 -0.16506631391E+01 -0.29689875524E+00 -0.20826471270E+02  0.20893892486E+02  0.00000000000E+00 0. -1.
</event>
<event>
 7    1  0.2811980E-010  0.4778727E+02  0.7816164E-02  0.1312668E+00
        -11   -1    0    0    0    0  0.00000000000E+00  0.00000000000E+00  0.45593999997E+02  0.45594000000E+02  0.51100000000E-03 0.  1.
         11   -1    0    0    0    0 -0.00000000000E+00 -0.00000000000E+00 -0.45593999997E+02  0.45594000000E+02  0.51100000000E-03 0. -1.
    9900012    2    1    2    0    0 -0.58962929546E+01 -0.37677493807E+02  0.20718667110E+02  0.47787274465E+02  0.20000015595E+02 0.  0.
        -12    1    1    2    0    0  0.58962929546E+01  0.37677493807E+02 -0.20718667110E+02  0.43400725535E+02  0.00000000000E+00 0.  1.
         11    1    3    3    0    0  0.35847664815E+01 -0.11371582603E+02  0.14570488882E+02  0.18827176850E+02  0.51100000000E-03 0. -1.
        -11    1    3    3    0    0 -0.48667663418E+01 -0.19239813284E+02  0.38829600330E+01  0.20222097040E+02  0.51100000000E-03 0.  1.
         12    1    3    3    0    0 -0.46142930943E+01 -0.70660979200E+01  0.22652181952E+01  0.87380005749E+01  0.00000000000E+00 0. -1.
</event>
<event>
 7    1  0.2811980E-010  0.4778727E+02  0.7816164E-02  0.1312668E+00
        -11   -1    0    0    0    0  0.00000000000E+00  0.00000000000E+00  0.45593999997E+02  0.45594000000E+02  0.51100000000E-03 0.  1.
         11   -1    0    0    0    0 -0.00000000000E+00 -0.00000000000E+00 -0.45593999997E+02  0.45594000000E+02  0.51100000000E-03 0. -1.
    9900012    2    1    2    0    0 -0.42925275434E+02  0.84336253959E+00 -0.63508136256E+01  0.47787269992E+02  0.19999995204E+02 0.  0.
        -12    1    1    2    0    0  0.42925275434E+02 -0.84336253959E+00  0.63508136256E+01  0.43400730008E+02  0.00000000000E+00 0.  1.
         11    1    3    3    0    0 -0.96128136188E+01  0.44599625549E+01 -0.75160241564E+01  0.12991846329E+02  0.51100000000E-03 0. -1.
        -11    1    3    3    0    0 -0.21768751208E+02 -0.65918983167E+01 -0.55067152106E+00  0.22751590976E+02  0.51100000000E-03 0.  1.
         12    1    3    3    0    0 -0.11543710608E+02  0.29752983014E+01  0.17158820519E+01  0.12043832687E+02  0.00000000000E+00 0. -1.
</event>
<event>
 7    1  0.2811980E-010  0.4778727E+02  0.7816164E-02  0.1312668E+00
        -11   -1    0    0    0    0  0.00000000000E+00  0.00000000000E+00  0.45593999997E+02  0.45594000000E+02  0.51100000000E-03 0.  1.
         11   -1    0    0    0    0 -0.00000000000E+00 -0.00000000000E+00 -0.45593999997E+02  0.45594000000E+02  0.51100000000E-03 0. -1.
    9900012    2    1    2    0    0  0.18276801238E+02 -0.39037611666E+02 -0.50642442949E+01  0.47787272375E+02  0.20000006069E+02 0.  0.
        -12    1    1    2    0    0 -0.18276801238E+02  0.39037611666E+02  0.50642442949E+01  0.43400727625E+02  0.00000000000E+00 0.  1.
         11    1    3    3    0    0  0.15051649876E+02 -0.29552971552E+02 -0.96559237047E+01  0.34542251728E+02  0.51100000000E-03 0. -1.
        -11    1    3    3    0    0  0.22905471673E+01 -0.65979441783E+01  0.65975914905E+01  0.96076889751E+01  0.51100000000E-03 0.  1.
         12    1    3    3    0    0  0.93460419481E+00 -0.28866959351E+01 -0.20059120807E+01  0.36373316728E+01  0.00000000000E+00 0. -1.
</event>
<event>
 7    1  0.2811980E-010  0.4778727E+02  0.7816164E-02  0.1312668E+00
        -11   -1    0    0    0    0  0.00000000000E+00  0.00000000000E+00  0.45593999997E+02  0.45594000000E+02  0.51100000000E-03 0. -1.
         11   -1    0    0    0    0 -0.00000000000E+00 -0.00000000000E+00 -0.45593999997E+02  0.45594000000E+02  0.51100000000E-03 0.  1.
    9900012    2    1    2    0    0  0.60535472385E+01 -0.34945846527E+02  0.25015302079E+02  0.47787274641E+02  0.20000016396E+02 0.  0.
        -12    1    1    2    0    0 -0.60535472385E+01  0.34945846527E+02 -0.25015302079E+02  0.43400725359E+02  0.00000000000E+00 0.  1.
         11    1    3    3    0    0  0.10448016217E+01 -0.43593273829E+00  0.10805830359E+01  0.15650264342E+01  0.51100000000E-03 0. -1.
        -11    1    3    3    0    0  0.30766014842E+01 -0.22030344302E+02  0.25102537979E+02  0.33540109720E+02  0.51100000000E-03 0.  1.
        -12    1    3    3    0    0  0.19321441326E+01 -0.12479569487E+02 -0.11678189367E+01  0.12682138486E+02  0.00000000000E+00 0.  1.
</event>
<event>
 7    1  0.2811980E-010  0.4778729E+02  0.7816164E-02  0.1312668E+00
        -11   -1    0    0    0    0  0.00000000000E+00  0.00000000000E+00  0.45593999997E+02  0.45594000000E+02  0.51100000000E-03 0.  1.
         11   -1    0    0    0    0 -0.00000000000E+00 -0.00000000000E+00 -0.45593999997E+02  0.45594000000E+02  0.51100000000E-03 0. -1.
    9900012    2    1    2    0    0  0.63297552107E+01  0.21153346982E+02 -0.37364314142E+02  0.47787287323E+02  0.20000074220E+02 0.  0.
        -12    1    1    2    0    0 -0.63297552107E+01 -0.21153346982E+02  0.37364314142E+02  0.43400712677E+02  0.00000000000E+00 0.  1.
         11    1    3    3    0    0  0.13042951531E+02  0.13263391920E+02 -0.25799101413E+02  0.31806128086E+02  0.51100000000E-03 0. -1.
        -11    1    3    3    0    0 -0.40433184523E+01  0.27705538837E+01 -0.33381338718E+01  0.59302218286E+01  0.51100000000E-03 0.  1.
         12    1    3    3    0    0 -0.26698778683E+01  0.51194011787E+01 -0.82270788570E+01  0.10050937408E+02  0.00000000000E+00 0. -1.
</event>
<event>
 7    1  0.2811980E-010  0.4778727E+02  0.7816164E-02  0.1312668E+00
        -11   -1    0    0    0    0  0.00000000000E+00  0.00000000000E+00  0.45593999997E+02  0.45594000000E+02  0.51100000000E-03 0.  1.
         11   -1    0    0    0    0 -0.00000000000E+00 -0.00000000000E+00 -0.45593999997E+02  0.45594000000E+02  0.51100000000E-03 0. -1.
    9900012    2    1    2    0    0 -0.31959305724E+02  0.26310556889E+02 -0.13037654980E+02  0.47787273352E+02  0.20000010522E+02 0.  0.
        -12    1    1    2    0    0  0.31959305724E+02 -0.26310556889E+02  0.13037654980E+02  0.43400726648E+02  0.00000000000E+00 0.  1.
         11    1    3    3    0    0 -0.25383079991E+02  0.17481162169E+02 -0.17419770520E+02  0.35402544906E+02  0.51100000000E-03 0. -1.
        -11    1    3    3    0    0 -0.23085136594E+01  0.21188935395E+01  0.29510470472E+01  0.43043726701E+01  0.51100000000E-03 0.  1.
         12    1    3    3    0    0 -0.42677120736E+01  0.67105011802E+01  0.14310684927E+01  0.80803557758E+01  0.00000000000E+00 0. -1.
</event>
<event>
 7    1  0.2811980E-010  0.4778725E+02  0.7816164E-02  0.1312668E+00
        -11   -1    0    0    0    0  0.00000000000E+00  0.00000000000E+00  0.45593999997E+02  0.45594000000E+02  0.51100000000E-03 0.  1.
         11   -1    0    0    0    0 -0.00000000000E+00 -0.00000000000E+00 -0.45593999997E+02  0.45594000000E+02  0.51100000000E-03 0. -1.
    9900012    2    1    2    0    0 -0.14444380333E+02 -0.14133376553E+02 -0.38408759367E+02  0.47787248255E+02  0.19999896092E+02 0.  0.
        -12    1    1    2    0    0  0.14444380333E+02  0.14133376553E+02  0.38408759367E+02  0.43400751745E+02  0.00000000000E+00 0.  1.
         11    1    3    3    0    0 -0.27782186507E+00 -0.87009459468E+01 -0.47819790975E+01  0.99323194526E+01  0.51100000000E-03 0. -1.
        -11    1    3    3    0    0 -0.51340621717E+00 -0.19977673465E+01 -0.94319042599E+00  0.22680980480E+01  0.51100000000E-03 0.  1.
         12    1    3    3    0    0 -0.13653152250E+02 -0.34346632598E+01 -0.32683589843E+02  0.35586830754E+02  0.00000000000E+00 0. -1.
</event>
<event>
 7    1  0.2811980E-010  0.4778727E+02  0.7816164E-02  0.1312668E+00
        -11   -1    0    0    0    0  0.00000000000E+00  0.00000000000E+00  0.45593999997E+02  0.45594000000E+02  0.51100000000E-03 0.  1.
         11   -1    0    0    0    0 -0.00000000000E+00 -0.00000000000E+00 -0.45593999997E+02  0.45594000000E+02  0.51100000000E-03 0. -1.
    9900012    2    1    2    0    0  0.43349312302E+02  0.66494790245E+00 -0.20046046817E+01  0.47787268754E+02  0.19999989557E+02 0.  0.
        -12    1    1    2    0    0 -0.43349312302E+02 -0.66494790245E+00  0.20046046817E+01  0.43400731246E+02  0.00000000000E+00 0.  1.
         11    1    3    3    0    0  0.11723116473E+02  0.23077085653E+01  0.23233524203E+01  0.12171891611E+02  0.51100000000E-03 0. -1.
        -11    1    3    3    0    0  0.73504703946E+01 -0.53598736467E+01  0.36372609527E+01  0.97973122860E+01  0.51100000000E-03 0.  1.
        -12    1    3    3    0    0  0.24275725434E+02  0.37171129839E+01 -0.79652180547E+01  0.25818064857E+02  0.00000000000E+00 0.  1.
</event>
<event>
 7    1  0.2811980E-010  0.4778728E+02  0.7816164E-02  0.1312668E+00
        -11   -1    0    0    0    0  0.00000000000E+00  0.00000000000E+00  0.45593999997E+02  0.45594000000E+02  0.51100000000E-03 0.  1.
         11   -1    0    0    0    0 -0.00000000000E+00 -0.00000000000E+00 -0.45593999997E+02  0.45594000000E+02  0.51100000000E-03 0. -1.
    9900012    2    1    2    0    0 -0.25915834518E+02  0.21550681336E+02 -0.27341552876E+02  0.47787275831E+02  0.20000021822E+02 0.  0.
        -12    1    1    2    0    0  0.25915834518E+02 -0.21550681336E+02  0.27341552876E+02  0.43400724169E+02  0.00000000000E+00 0.  1.
         11    1    3    3    0    0 -0.16134649677E+02  0.20494769779E+02 -0.26441583773E+02  0.37141888229E+02  0.51100000000E-03 0. -1.
        -11    1    3    3    0    0 -0.91034727164E+01  0.81538929236E-01 -0.16347760500E+01  0.92494517184E+01  0.51100000000E-03 0.  1.
         12    1    3    3    0    0 -0.67771212384E+00  0.97437262750E+00  0.73480694759E+00  0.13959358833E+01  0.00000000000E+00 0. -1.
</event>
<event>
 7    1  0.2811980E-010  0.4778727E+02  0.7816164E-02  0.1312668E+00
        -11   -1    0    0    0    0  0.00000000000E+00  0.00000000000E+00  0.45593999997E+02  0.45594000000E+02  0.51100000000E-03 0.  1.
         11   -1    0    0    0    0 -0.00000000000E+00 -0.00000000000E+00 -0.45593999997E+02  0.45594000000E+02  0.51100000000E-03 0. -1.
    9900012    2    1    2    0    0  0.99642283946E+01  0.13566403856E+02 -0.40003625149E+02  0.47787272055E+02  0.20000004608E+02 0.  0.
        -12    1    1    2    0    0 -0.99642283946E+01 -0.13566403856E+02  0.40003625149E+02  0.43400727945E+02  0.00000000000E+00 0.  1.
         11    1    3    3    0    0  0.41198439995E+01  0.57859517318E-01 -0.88238016208E+01  0.97383744849E+01  0.51100000000E-03 0. -1.
        -11    1    3    3    0    0 -0.50055987963E+01  0.55347036737E+01 -0.63302826675E+01  0.97857775868E+01  0.51100000000E-03 0.  1.
        -12    1    3    3    0    0  0.10849983191E+02  0.79738406646E+01 -0.24849540861E+02  0.28263119983E+02  0.00000000000E+00 0.  1.
</event>
<event>
 7    1  0.2811980E-010  0.4778727E+02  0.7816164E-02  0.1312668E+00
        -11   -1    0    0    0    0  0.00000000000E+00  0.00000000000E+00  0.45593999997E+02  0.45594000000E+02  0.51100000000E-03 0.  1.
         11   -1    0    0    0    0 -0.00000000000E+00 -0.00000000000E+00 -0.45593999997E+02  0.45594000000E+02  0.51100000000E-03 0. -1.
    9900012    2    1    2    0    0  0.13464080235E+02  0.17597744882E+02 -0.37318377931E+02  0.47787269442E+02  0.19999992696E+02 0.  0.
        -12    1    1    2    0    0 -0.13464080235E+02 -0.17597744882E+02  0.37318377931E+02  0.43400730558E+02  0.00000000000E+00 0.  1.
         11    1    3    3    0    0  0.11823691318E+02  0.12395314823E+02 -0.14323349996E+02  0.22329394557E+02  0.51100000000E-03 0. -1.
        -11    1    3    3    0    0  0.27905006626E+01  0.17216800785E+01 -0.21057987278E+02  0.21311731621E+02  0.51100000000E-03 0.  1.
         12    1    3    3    0    0 -0.11501117454E+01  0.34807499809E+01 -0.19370406577E+01  0.41461432641E+01  0.00000000000E+00 0. -1.
</event>
<event>
 7    1  0.2811980E-010  0.4778728E+02  0.7816164E-02  0.1312668E+00
        -11   -1    0    0    0    0  0.00000000000E+00  0.00000000000E+00  0.45593999997E+02  0.45594000000E+02  0.51100000000E-03 0. -1.
         11   -1    0    0    0    0 -0.00000000000E+00 -0.00000000000E+00 -0.45593999997E+02  0.45594000000E+02  0.51100000000E-03 0.  1.
    9900012    2    1    2    0    0 -0.18682284007E+02  0.65768382022E+01  0.38617875946E+02  0.47787275593E+02  0.20000020738E+02 0.  0.
        -12    1    1    2    0    0  0.18682284007E+02 -0.65768382022E+01 -0.38617875946E+02  0.43400724407E+02  0.00000000000E+00 0.  1.
         11    1    3    3    0    0 -0.16073538318E+02 -0.24756582979E+01  0.19234559934E+02  0.25188406345E+02  0.51100000000E-03 0. -1.
        -11    1    3    3    0    0 -0.22993051737E+01  0.81369627499E+01  0.19812527302E+02  0.21541429976E+02  0.51100000000E-03 0.  1.
        -12    1    3    3    0    0 -0.30944051524E+00  0.91553375027E+00 -0.42921129020E+00  0.10574392711E+01  0.00000000000E+00 0.  1.
</event>
<event>
 7    1  0.2811980E-010  0.4778727E+02  0.7816164E-02  0.1312668E+00
        -11   -1    0    0    0    0  0.00000000000E+00  0.00000000000E+00  0.45593999997E+02  0.45594000000E+02  0.51100000000E-03 0. -1.
         11   -1    0    0    0    0 -0.00000000000E+00 -0.00000000000E+00 -0.45593999997E+02  0.45594000000E+02  0.51100000000E-03 0.  1.
    9900012    2    1    2    0    0 -0.35181430145E+02 -0.13012264534E+02 -0.21830517503E+02  0.47787267866E+02  0.19999985507E+02 0.  0.
        -12    1    1    2    0    0  0.35181430145E+02  0.13012264534E+02  0.21830517503E+02  0.43400732134E+02  0.00000000000E+00 0.  1.
         11    1    3    3    0    0 -0.36152974750E+01 -0.52766462121E+01 -0.36992604383E+00  0.64070442967E+01  0.51100000000E-03 0. -1.
        -11    1    3    3    0    0 -0.16212884767E+02  0.29506511142E+01 -0.78936805418E+01  0.18272223926E+02  0.51100000000E-03 0.  1.
        -12    1    3    3    0    0 -0.15353247903E+02 -0.10686269436E+02 -0.13566910917E+02  0.23107999642E+02  0.00000000000E+00 0.  1.
</event>
<event>
 7    1  0.2811980E-010  0.4778727E+02  0.7816164E-02  0.1312668E+00
        -11   -1    0    0    0    0  0.00000000000E+00  0.00000000000E+00  0.45593999997E+02  0.45594000000E+02  0.51100000000E-03 0.  1.
         11   -1    0    0    0    0 -0.00000000000E+00 -0.00000000000E+00 -0.45593999997E+02  0.45594000000E+02  0.51100000000E-03 0. -1.
    9900012    2    1    2    0    0  0.93544892255E+01  0.73649968604E+01 -0.41735756806E+02  0.47787273697E+02  0.20000012095E+02 0.  0.
        -12    1    1    2    0    0 -0.93544892255E+01 -0.73649968604E+01  0.41735756806E+02  0.43400726303E+02  0.00000000000E+00 0.  1.
         11    1    3    3    0    0  0.67603333346E+01  0.19065799543E+01 -0.17709070932E+02  0.19051203308E+02  0.51100000000E-03 0. -1.
        -11    1    3    3    0    0  0.19764772938E+01 -0.32129785490E+01 -0.69273089646E+00  0.38353057251E+01  0.51100000000E-03 0.  1.
        -12    1    3    3    0    0  0.61767859708E+00  0.86713954550E+01 -0.23333954977E+02  0.24900764664E+02  0.00000000000E+00 0.  1.
</event>
<event>
 7    1  0.2811980E-010  0.4778727E+02  0.7816164E-02  0.1312668E+00
        -11   -1    0    0    0    0  0.00000000000E+00  0.00000000000E+00  0.45593999997E+02  0.45594000000E+02  0.51100000000E-03 0.  1.
         11   -1    0    0    0    0 -0.00000000000E+00 -0.00000000000E+00 -0.45593999997E+02  0.45594000000E+02  0.51100000000E-03 0. -1.
    9900012    2    1    2    0    0 -0.29179873317E+01 -0.30564486404E+02 -0.30674431075E+02  0.47787271885E+02  0.20000003831E+02 0.  0.
        -12    1    1    2    0    0  0.29179873317E+01  0.30564486404E+02  0.30674431075E+02  0.43400728115E+02  0.00000000000E+00 0.  1.
         11    1    3    3    0    0 -0.86752307669E+01 -0.10152602694E+02 -0.11421409671E+02  0.17572238601E+02  0.51100000000E-03 0. -1.
        -11    1    3    3    0    0  0.51718633035E+01 -0.20658695258E+02 -0.15327804928E+02  0.26238739756E+02  0.51100000000E-03 0.  1.
        -12    1    3    3    0    0  0.58538013171E+00  0.24681154841E+00 -0.39252164759E+01  0.39762935281E+01  0.00000000000E+00 0.  1.
</event>
<event>
 7    1  0.2811980E-010  0.4778727E+02  0.7816164E-02  0.1312668E+00
        -11   -1    0    0    0    0  0.00000000000E+00  0.00000000000E+00  0.45593999997E+02  0.45594000000E+02  0.51100000000E-03 0. -1.
         11   -1    0    0    0    0 -0.00000000000E+00 -0.00000000000E+00 -0.45593999997E+02  0.45594000000E+02  0.51100000000E-03 0.  1.
    9900012    2    1    2    0    0 -0.18144930501E+02 -0.35046948827E+02  0.18058133255E+02  0.47787270725E+02  0.19999998542E+02 0.  0.
        -12    1    1    2    0    0  0.18144930501E+02  0.35046948827E+02 -0.18058133255E+02  0.43400729275E+02  0.00000000000E+00 0.  1.
         11    1    3    3    0    0 -0.13546016055E+02 -0.13114137230E+02  0.86978676984E+01  0.20763623215E+02  0.51100000000E-03 0.  1.
        -11    1    3    3    0    0 -0.61715150392E+01 -0.41487305709E+01  0.36153177725E+01  0.82686205673E+01  0.51100000000E-03 0. -1.
         12    1    3    3    0    0  0.15726005933E+01 -0.17784081026E+02  0.57449477846E+01  0.18755026942E+02  0.00000000000E+00 0. -1.
</event>
<event>
 7    1  0.2811980E-010  0.4778727E+02  0.7816164E-02  0.1312668E+00
        -11   -1    0    0    0    0  0.00000000000E+00  0.00000000000E+00  0.45593999997E+02  0.45594000000E+02  0.51100000000E-03 0.  1.
         11   -1    0    0    0    0 -0.00000000000E+00 -0.00000000000E+00 -0.45593999997E+02  0.45594000000E+02  0.51100000000E-03 0. -1.
    9900012    2    1    2    0    0 -0.92688373547E+01 -0.13866545521E+02 -0.40067826516E+02  0.47787272445E+02  0.20000006385E+02 0.  0.
        -12    1    1    2    0    0  0.92688373547E+01  0.13866545521E+02  0.40067826516E+02  0.43400727555E+02  0.00000000000E+00 0.  1.
         11    1    3    3    0    0 -0.28707640536E+00 -0.56032879032E+01 -0.22678673208E+02  0.23362394289E+02  0.51100000000E-03 0. -1.
        -11    1    3    3    0    0 -0.76071928103E+01  0.10978489397E+01 -0.75154949725E+01  0.10749759053E+02  0.51100000000E-03 0.  1.
        -12    1    3    3    0    0 -0.13745681391E+01 -0.93611065577E+01 -0.98736583353E+01  0.13675119103E+02  0.00000000000E+00 0.  1.
</event>
<event>
 7    1 -0.2811980E-010  0.4778727E+02  0.7816164E-02  0.1312668E+00
        -11   -1    0    0    0    0  0.00000000000E+00  0.00000000000E+00  0.45593999997E+02  0.45594000000E+02  0.51100000000E-03 0.  1.
         11   -1    0    0    0    0 -0.00000000000E+00 -0.00000000000E+00 -0.45593999997E+02  0.45594000000E+02  0.51100000000E-03 0. -1.
    9900012    2    1    2    0    0  0.22830615332E+02 -0.19438653365E+02 -0.31377141464E+02  0.47787271348E+02  0.20000001382E+02 0.  0.
        -12    1    1    2    0    0 -0.22830615332E+02  0.19438653365E+02  0.31377141464E+02  0.43400728652E+02  0.00000000000E+00 0.  1.
         11    1    3    3    0    0  0.26700771194E+01 -0.75724432935E+01 -0.13298066818E+02  0.15534149176E+02  0.51100000000E-03 0. -1.
        -11    1    3    3    0    0 -0.22658767800E+00 -0.59611717850E-01  0.15627021394E+01  0.15801689057E+01  0.51100000000E-03 0.  1.
        -12    1    3    3    0    0  0.20387125891E+02 -0.11806598354E+02 -0.19641776786E+02  0.30672953266E+02  0.00000000000E+00 0.  1.
</event>
<event>
 7    1  0.2811980E-010  0.4778727E+02  0.7816164E-02  0.1312668E+00
        -11   -1    0    0    0    0  0.00000000000E+00  0.00000000000E+00  0.45593999997E+02  0.45594000000E+02  0.51100000000E-03 0.  1.
         11   -1    0    0    0    0 -0.00000000000E+00 -0.00000000000E+00 -0.45593999997E+02  0.45594000000E+02  0.51100000000E-03 0. -1.
    9900012    2    1    2    0    0  0.14076094940E+02  0.26613919405E+02 -0.31259979793E+02  0.47787268537E+02  0.19999988568E+02 0.  0.
        -12    1    1    2    0    0 -0.14076094940E+02 -0.26613919405E+02  0.31259979793E+02  0.43400731463E+02  0.00000000000E+00 0.  1.
         11    1    3    3    0    0  0.83048481907E+01  0.14449875100E+02 -0.25777529373E+02  0.30696097711E+02  0.51100000000E-03 0. -1.
        -11    1    3    3    0    0 -0.73779343935E-01 -0.13261944144E+01 -0.11689796437E+01  0.17693921795E+01  0.51100000000E-03 0.  1.
         12    1    3    3    0    0  0.58450260935E+01  0.13490238720E+02 -0.43134707763E+01  0.15321778646E+02  0.00000000000E+00 0. -1.
</event>
<event>
 7    1  0.2811980E-010  0.4778727E+02  0.7816164E-02  0.1312668E+00
        -11   -1    0    0    0    0  0.00000000000E+00  0.00000000000E+00  0.45593999997E+02  0.45594000000E+02  0.51100000000E-03 0.  1.
         11   -1    0    0    0    0 -0.00000000000E+00 -0.00000000000E+00 -0.45593999997E+02  0.45594000000E+02  0.51100000000E-03 0. -1.
    9900012    2    1    2    0    0 -0.63187295470E+00 -0.10071778104E+02 -0.42211175081E+02  0.47787270982E+02  0.19999999715E+02 0.  0.
        -12    1    1    2    0    0  0.63187295470E+00  0.10071778104E+02  0.42211175081E+02  0.43400729018E+02  0.00000000000E+00 0.  1.
         11    1    3    3    0    0  0.23990251502E+01 -0.60071230063E+01 -0.21017394887E+02  0.21990264587E+02  0.51100000000E-03 0. -1.
        -11    1    3    3    0    0 -0.33522271760E+01  0.24180180610E+01 -0.56564932075E+00  0.41718338651E+01  0.51100000000E-03 0.  1.
        -12    1    3    3    0    0  0.32132907109E+00 -0.64826731588E+01 -0.20628130873E+02  0.21625172530E+02  0.00000000000E+00 0.  1.
</event>
<event>
 7    1  0.2811980E-010  0.4778727E+02  0.7816164E-02  0.1312668E+00
        -11   -1    0    0    0    0  0.00000000000E+00  0.00000000000E+00  0.45593999997E+02  0.45594000000E+02  0.51100000000E-03 0.  1.
         11   -1    0    0    0    0 -0.00000000000E+00 -0.00000000000E+00 -0.45593999997E+02  0.45594000000E+02  0.51100000000E-03 0. -1.
    9900012    2    1    2    0    0 -0.11082766693E+02  0.13021985038E+02 -0.39890142757E+02  0.47787270731E+02  0.19999998572E+02 0.  0.
        -12    1    1    2    0    0  0.11082766693E+02 -0.13021985038E+02  0.39890142757E+02  0.43400729269E+02  0.00000000000E+00 0.  1.
         11    1    3    3    0    0 -0.23826799249E+00  0.75161707060E+01 -0.25123440180E+02  0.26224737186E+02  0.51100000000E-03 0. -1.
        -11    1    3    3    0    0 -0.12623274557E+02  0.53896948044E+01 -0.11796246784E+02  0.18098268124E+02  0.51100000000E-03 0.  1.
         12    1    3    3    0    0  0.17787758570E+01  0.11611952750E+00 -0.29704557927E+01  0.34642654215E+01  0.00000000000E+00 0. -1.
</event>
<event>
 7    1  0.2811980E-010  0.4778727E+02  0.7816164E-02  0.1312668E+00
        -11   -1    0    0    0    0  0.00000000000E+00  0.00000000000E+00  0.45593999997E+02  0.45594000000E+02  0.51100000000E-03 0. -1.
         11   -1    0    0    0    0 -0.00000000000E+00 -0.00000000000E+00 -0.45593999997E+02  0.45594000000E+02  0.51100000000E-03 0.  1.
    9900012    2    1    2    0    0  0.41210641120E+02  0.13236196209E+02  0.31795199417E+01  0.47787272141E+02  0.20000005000E+02 0.  0.
        -12    1    1    2    0    0 -0.41210641120E+02 -0.13236196209E+02 -0.31795199417E+01  0.43400727859E+02  0.00000000000E+00 0.  1.
         11    1    3    3    0    0  0.23424756938E+02  0.40880835882E+01  0.17065751589E+01  0.23839967787E+02  0.51100000000E-03 0. -1.
        -11    1    3    3    0    0 -0.17618605641E+01  0.11269203517E+01  0.18825044556E+01  0.28138808456E+01  0.51100000000E-03 0.  1.
        -12    1    3    3    0    0  0.19547744746E+02  0.80211922695E+01 -0.40955967283E+00  0.21133423509E+02  0.00000000000E+00 0.  1.
</event>
<event>
 7    1  0.2811980E-010  0.4778727E+02  0.7816164E-02  0.1312668E+00
        -11   -1    0    0    0    0  0.00000000000E+00  0.00000000000E+00  0.45593999997E+02  0.45594000000E+02  0.51100000000E-03 0.  1.
         11   -1    0    0    0    0 -0.00000000000E+00 -0.00000000000E+00 -0.45593999997E+02  0.45594000000E+02  0.51100000000E-03 0. -1.
    9900012    2    1    2    0    0 -0.37416832192E+02  0.23709065284E+01 -0.21862814712E+02  0.47787271939E+02  0.20000004079E+02 0.  0.
        -12    1    1    2    0    0  0.37416832192E+02 -0.23709065284E+01  0.21862814712E+02  0.43400728061E+02  0.00000000000E+00 0.  1.
         11    1    3    3    0    0 -0.11278079766E+01 -0.38111404834E+01 -0.27658247789E+01  0.48421616645E+01  0.51100000000E-03 0.  1.
        -11    1    3    3    0    0 -0.35269391050E+02  0.81894620781E+01 -0.18157175630E+02  0.40505311519E+02  0.51100000000E-03 0. -1.
         12    1    3    3    0    0 -0.10196331656E+01 -0.20074150662E+01 -0.93981430359E+00  0.24397987552E+01  0.00000000000E+00 0. -1.
</event>
<event>
 7    1  0.2811980E-010  0.4778725E+02  0.7816164E-02  0.1312668E+00
        -11   -1    0    0    0    0  0.00000000000E+00  0.00000000000E+00  0.45593999997E+02  0.45594000000E+02  0.51100000000E-03 0.  1.
         11   -1    0    0    0    0 -0.00000000000E+00 -0.00000000000E+00 -0.45593999997E+02  0.45594000000E+02  0.51100000000E-03 0. -1.
    9900012    2    1    2    0    0 -0.11702478814E+02 -0.35052328476E+02 -0.22759854692E+02  0.47787254297E+02  0.19999923641E+02 0.  0.
        -12    1    1    2    0    0  0.11702478814E+02  0.35052328476E+02  0.22759854692E+02  0.43400745703E+02  0.00000000000E+00 0.  1.
         11    1    3    3    0    0 -0.88583063462E+01 -0.27069171128E+02 -0.23300905747E+02  0.36798666087E+02  0.51100000000E-03 0. -1.
        -11    1    3    3    0    0  0.16387552263E+01 -0.57073596581E+01  0.61880972878E-01  0.59382912083E+01  0.51100000000E-03 0.  1.
         12    1    3    3    0    0 -0.44829276942E+01 -0.22757976896E+01  0.47917008187E+00  0.50502970014E+01  0.00000000000E+00 0. -1.
</event>
<event>
 7    1  0.2811980E-010  0.4778727E+02  0.7816164E-02  0.1312668E+00
        -11   -1    0    0    0    0  0.00000000000E+00  0.00000000000E+00  0.45593999997E+02  0.45594000000E+02  0.51100000000E-03 0.  1.
         11   -1    0    0    0    0 -0.00000000000E+00 -0.00000000000E+00 -0.45593999997E+02  0.45594000000E+02  0.51100000000E-03 0. -1.
    9900012    2    1    2    0    0 -0.31478074537E+02 -0.23694247494E+02 -0.18202649064E+02  0.47787274501E+02  0.20000015761E+02 0.  0.
        -12    1    1    2    0    0  0.31478074537E+02  0.23694247494E+02  0.18202649064E+02  0.43400725499E+02  0.00000000000E+00 0.  1.
         11    1    3    3    0    0 -0.22323972728E+02 -0.17683588760E+02 -0.56883546446E+01  0.29041805189E+02  0.51100000000E-03 0. -1.
        -11    1    3    3    0    0 -0.63641502805E+01  0.81872311913E+00 -0.72548930435E+01  0.96853595531E+01  0.51100000000E-03 0.  1.
        -12    1    3    3    0    0 -0.27899515289E+01 -0.68293818531E+01 -0.52594013756E+01  0.90601097597E+01  0.00000000000E+00 0.  1.
</event>
<event>
 7    1  0.2811980E-010  0.4778727E+02  0.7816164E-02  0.1312668E+00
        -11   -1    0    0    0    0  0.00000000000E+00  0.00000000000E+00  0.45593999997E+02  0.45594000000E+02  0.51100000000E-03 0.  1.
         11   -1    0    0    0    0 -0.00000000000E+00 -0.00000000000E+00 -0.45593999997E+02  0.45594000000E+02  0.51100000000E-03 0. -1.
    9900012    2    1    2    0    0  0.41774494516E+02  0.27544057485E+01 -0.11442397141E+02  0.47787267340E+02  0.19999983108E+02 0.  0.
        -12    1    1    2    0    0 -0.41774494516E+02 -0.27544057485E+01  0.11442397141E+02  0.43400732660E+02  0.00000000000E+00 0.  1.
         11    1    3    3    0    0  0.84587798758E+01  0.69128636388E+01 -0.44226567574E+01  0.11785522209E+02  0.51100000000E-03 0. -1.
        -11    1    3    3    0    0  0.31553821997E+02 -0.47889404968E+01 -0.91161934935E+01  0.33191604628E+02  0.51100000000E-03 0.  1.
        -12    1    3    3    0    0  0.17618926436E+01  0.63048260654E+00  0.20964531099E+01  0.28101405031E+01  0.00000000000E+00 0.  1.
</event>
<event>
 7    1  0.2811980E-010  0.4778727E+02  0.7816164E-02  0.1312668E+00
        -11   -1    0    0    0    0  0.00000000000E+00  0.00000000000E+00  0.45593999997E+02  0.45594000000E+02  0.51100000000E-03 0.  1.
         11   -1    0    0    0    0 -0.00000000000E+00 -0.00000000000E+00 -0.45593999997E+02  0.45594000000E+02  0.51100000000E-03 0. -1.
    9900012    2    1    2    0    0 -0.73456751394E+01 -0.68640042310E+01 -0.42220253211E+02  0.47787270990E+02  0.19999999753E+02 0.  0.
        -12    1    1    2    0    0  0.73456751394E+01  0.68640042310E+01  0.42220253211E+02  0.43400729010E+02  0.00000000000E+00 0.  1.
         11    1    3    3    0    0  0.22778098791E+01 -0.52642339546E+01 -0.32890592257E+02  0.33386998012E+02  0.51100000000E-03 0. -1.
        -11    1    3    3    0    0 -0.65706165555E+01 -0.17314338041E+01 -0.31147783225E+01  0.74748049605E+01  0.51100000000E-03 0.  1.
        -12    1    3    3    0    0 -0.30528684630E+01  0.13166352768E+00 -0.62148826322E+01  0.69254680180E+01  0.00000000000E+00 0.  1.
</event>
<event>
 7    1  0.2811980E-010  0.4778727E+02  0.7816164E-02  0.1312668E+00
        -11   -1    0    0    0    0  0.00000000000E+00  0.00000000000E+00  0.45593999997E+02  0.45594000000E+02  0.51100000000E-03 0.  1.
         11   -1    0    0    0    0 -0.00000000000E+00 -0.00000000000E+00 -0.45593999997E+02  0.45594000000E+02  0.51100000000E-03 0. -1.
    9900012    2    1    2    0    0  0.13435664778E+02  0.26433757893E+02 -0.31691684568E+02  0.47787268265E+02  0.19999987327E+02 0.  0.
        -12    1    1    2    0    0 -0.13435664778E+02 -0.26433757893E+02  0.31691684568E+02  0.43400731735E+02  0.00000000000E+00 0.  1.
         11    1    3    3    0    0  0.18173897620E+01  0.16945682661E+02 -0.80655578096E+01  0.18855033530E+02  0.51100000000E-03 0. -1.
        -11    1    3    3    0    0  0.61315994055E+01  0.68132481947E+01 -0.19550829305E+02  0.21592864307E+02  0.51100000000E-03 0.  1.
        -12    1    3    3    0    0  0.54866756104E+01  0.26748270379E+01 -0.40752974535E+01  0.73393704274E+01  0.00000000000E+00 0.  1.
</event>
<event>
 7    1  0.2811980E-010  0.4778727E+02  0.7816164E-02  0.1312668E+00
        -11   -1    0    0    0    0  0.00000000000E+00  0.00000000000E+00  0.45593999997E+02  0.45594000000E+02  0.51100000000E-03 0. -1.
         11   -1    0    0    0    0 -0.00000000000E+00 -0.00000000000E+00 -0.45593999997E+02  0.45594000000E+02  0.51100000000E-03 0.  1.
    9900012    2    1    2    0    0 -0.39882800654E+02  0.66766075227E+01  0.15760976849E+02  0.47787271121E+02  0.20000000349E+02 0.  0.
        -12    1    1    2    0    0  0.39882800654E+02 -0.66766075227E+01 -0.15760976849E+02  0.43400728879E+02  0.00000000000E+00 0.  1.
         11    1    3    3    0    0 -0.15735292182E+02 -0.49554569237E+01  0.57669319454E+01  0.17476083019E+02  0.51100000000E-03 0. -1.
        -11    1    3    3    0    0 -0.23634714721E+02  0.81365088316E+01  0.79516516741E+01  0.26230350370E+02  0.51100000000E-03 0.  1.
        -12    1    3    3    0    0 -0.51279375050E+00  0.34955556149E+01  0.20423932295E+01  0.40808377316E+01  0.00000000000E+00 0.  1.
</event>
<event>
 7    1  0.2811980E-010  0.4778727E+02  0.7816164E-02  0.1312668E+00
        -11   -1    0    0    0    0  0.00000000000E+00  0.00000000000E+00  0.45593999997E+02  0.45594000000E+02  0.51100000000E-03 0.  1.
         11   -1    0    0    0    0 -0.00000000000E+00 -0.00000000000E+00 -0.45593999997E+02  0.45594000000E+02  0.51100000000E-03 0. -1.
    9900012    2    1    2    0    0  0.28264950364E+02 -0.11358395985E+02 -0.30914438254E+02  0.47787273381E+02  0.20000010654E+02 0.  0.
        -12    1    1    2    0    0 -0.28264950364E+02  0.11358395985E+02  0.30914438254E+02  0.43400726619E+02  0.00000000000E+00 0.  1.
         11    1    3    3    0    0  0.11067206035E+01  0.11929026949E+00 -0.37428174844E-01  0.11137602040E+01  0.51100000000E-03 0. -1.
        -11    1    3    3    0    0  0.89807149913E+01  0.38019409391E+01 -0.33322712731E+01  0.10305922024E+02  0.51100000000E-03 0.  1.
        -12    1    3    3    0    0  0.18177514769E+02 -0.15279627194E+02 -0.27544738806E+02  0.36367591153E+02  0.00000000000E+00 0.  1.
</event>
<event>
 7    1  0.3375281E-010  0.4778728E+02  0.7816164E-02  0.1312668E+00
        -11   -1    0    0    0    0  0.00000000000E+00  0.00000000000E+00  0.45593999997E+02  0.45594000000E+02  0.51100000000E-03 0. -1.
         11   -1    0    0    0    0 -0.00000000000E+00 -0.00000000000E+00 -0.45593999997E+02  0.45594000000E+02  0.51100000000E-03 0.  1.
    9900012    2    1    2    0    0 -0.38072087529E+02 -0.12388281721E+00  0.20835633205E+02  0.47787276426E+02  0.20000024534E+02 0.  0.
        -12    1    1    2    0    0  0.38072087529E+02  0.12388281721E+00 -0.20835633205E+02  0.43400723574E+02  0.00000000000E+00 0.  1.
         11    1    3    3    0    0 -0.29503610286E+02  0.17421057602E+01  0.11770291597E+02  0.31812540246E+02  0.51100000000E-03 0. -1.
        -11    1    3    3    0    0  0.79934250587E+00  0.17927158498E-02 -0.15195355135E+01  0.17169566371E+01  0.51100000000E-03 0.  1.
        -12    1    3    3    0    0 -0.93678197486E+01 -0.18677812933E+01  0.10584877121E+02  0.14257779542E+02  0.00000000000E+00 0.  1.
</event>
<event>
 7    1  0.2811980E-010  0.4778727E+02  0.7816164E-02  0.1312668E+00
        -11   -1    0    0    0    0  0.00000000000E+00  0.00000000000E+00  0.45593999997E+02  0.45594000000E+02  0.51100000000E-03 0.  1.
         11   -1    0    0    0    0 -0.00000000000E+00 -0.00000000000E+00 -0.45593999997E+02  0.45594000000E+02  0.51100000000E-03 0. -1.
    9900012    2    1    2    0    0 -0.24392281597E+02  0.95435869183E+01 -0.34605780735E+02  0.47787268289E+02  0.19999987436E+02 0.  0.
        -12    1    1    2    0    0  0.24392281597E+02 -0.95435869183E+01  0.34605780735E+02  0.43400731711E+02  0.00000000000E+00 0.  1.
         11    1    3    3    0    0 -0.42402967953E+01  0.38044664334E+01 -0.17847846287E+02  0.18734985965E+02  0.51100000000E-03 0. -1.
        -11    1    3    3    0    0 -0.11827228578E+02  0.22931409473E+01 -0.26862271382E+01  0.12343324015E+02  0.51100000000E-03 0.  1.
        -12    1    3    3    0    0 -0.83247562241E+01  0.34459795377E+01 -0.14071707310E+02  0.16708958309E+02  0.00000000000E+00 0.  1.
</event>
<event>
 7    1  0.2811980E-010  0.4778727E+02  0.7816164E-02  0.1312668E+00
        -11   -1    0    0    0    0  0.00000000000E+00  0.00000000000E+00  0.45593999997E+02  0.45594000000E+02  0.51100000000E-03 0.  1.
         11   -1    0    0    0    0 -0.00000000000E+00 -0.00000000000E+00 -0.45593999997E+02  0.45594000000E+02  0.51100000000E-03 0. -1.
    9900012    2    1    2    0    0  0.11341876119E+02  0.33672521021E+02 -0.24922806193E+02  0.47787273113E+02  0.20000009430E+02 0.  0.
        -12    1    1    2    0    0 -0.11341876119E+02 -0.33672521021E+02  0.24922806193E+02  0.43400726887E+02  0.00000000000E+00 0.  1.
         11    1    3    3    0    0  0.46388610110E+01  0.11549787016E+02 -0.17783920523E+02  0.21706783295E+02  0.51100000000E-03 0. -1.
        -11    1    3    3    0    0 -0.16712204317E+01  0.10460254369E+02 -0.17063318180E+01  0.10729467262E+02  0.51100000000E-03 0.  1.
         12    1    3    3    0    0  0.83742355399E+01  0.11662479637E+02 -0.54325538516E+01  0.15351022556E+02  0.00000000000E+00 0. -1.
</event>
<event>
 7    1  0.3324840E-010  0.4778727E+02  0.7816164E-02  0.1312668E+00
        -11   -1    0    0    0    0  0.00000000000E+00  0.00000000000E+00  0.45593999997E+02  0.45594000000E+02  0.51100000000E-03 0. -1.
         11   -1    0    0    0    0 -0.00000000000E+00 -0.00000000000E+00 -0.45593999997E+02  0.45594000000E+02  0.51100000000E-03 0.  1.
    9900012    2    1    2    0    0 -0.32911514046E+02 -0.21974764491E+02  0.17820359784E+02  0.47787271273E+02  0.20000001043E+02 0.  0.
        -12    1    1    2    0    0  0.32911514046E+02  0.21974764491E+02 -0.17820359784E+02  0.43400728727E+02  0.00000000000E+00 0.  1.
         11    1    3    3    0    0 -0.71939426259E+01 -0.59305477172E+01  0.56569640903E+01  0.10905294572E+02  0.51100000000E-03 0. -1.
        -11    1    3    3    0    0 -0.52154219675E+01 -0.12679343423E+02  0.73469920101E+01  0.15554570640E+02  0.51100000000E-03 0.  1.
        -12    1    3    3    0    0 -0.20502149452E+02 -0.33648733500E+01  0.48164036831E+01  0.21327406060E+02  0.00000000000E+00 0.  1.
</event>
<event>
 7    1  0.2811980E-010  0.4778728E+02  0.7816164E-02  0.1312668E+00
        -11   -1    0    0    0    0  0.00000000000E+00  0.00000000000E+00  0.45593999997E+02  0.45594000000E+02  0.51100000000E-03 0.  1.
         11   -1    0    0    0    0 -0.00000000000E+00 -0.00000000000E+00 -0.45593999997E+02  0.45594000000E+02  0.51100000000E-03 0. -1.
    9900012    2    1    2    0    0 -0.12790799055E+02 -0.30364105961E+02 -0.28249592118E+02  0.47787275051E+02  0.20000018268E+02 0.  0.
        -12    1    1    2    0    0  0.12790799055E+02  0.30364105961E+02  0.28249592118E+02  0.43400724949E+02  0.00000000000E+00 0.  1.
         11    1    3    3    0    0 -0.64579139726E+01 -0.13840983669E+02 -0.91541824673E+01  0.17806643106E+02  0.51100000000E-03 0. -1.
        -11    1    3    3    0    0 -0.29783860577E+00 -0.56735176735E+01 -0.16290248820E+02  0.17252527858E+02  0.51100000000E-03 0.  1.
        -12    1    3    3    0    0 -0.60350464769E+01 -0.10849604618E+02 -0.28051608304E+01  0.12728104086E+02  0.00000000000E+00 0.  1.
</event>
<event>
 7    1  0.2811980E-010  0.4778727E+02  0.7816164E-02  0.1312668E+00
        -11   -1    0    0    0    0  0.00000000000E+00  0.00000000000E+00  0.45593999997E+02  0.45594000000E+02  0.51100000000E-03 0.  1.
         11   -1    0    0    0    0 -0.00000000000E+00 -0.00000000000E+00 -0.45593999997E+02  0.45594000000E+02  0.51100000000E-03 0. -1.
    9900012    2    1    2    0    0 -0.19132097308E+02 -0.30403687072E+02  0.24355733616E+02  0.47787273106E+02  0.20000009398E+02 0.  0.
        -12    1    1    2    0    0  0.19132097308E+02  0.30403687072E+02 -0.24355733616E+02  0.43400726894E+02  0.00000000000E+00 0.  1.
         11    1    3    3    0    0 -0.12449208536E+02 -0.12928533474E+02  0.10399357191E+02  0.20743104908E+02  0.51100000000E-03 0. -1.
        -11    1    3    3    0    0 -0.37242051963E+00 -0.63508300608E+01 -0.19311893781E+01  0.66484007235E+01  0.51100000000E-03 0.  1.
        -12    1    3    3    0    0 -0.63104682519E+01 -0.11124323537E+02  0.15887565803E+02  0.20395767474E+02  0.00000000000E+00 0.  1.
</event>
<event>
 7    1  0.2811980E-010  0.4778727E+02  0.7816164E-02  0.1312668E+00
        -11   -1    0    0    0    0  0.00000000000E+00  0.00000000000E+00  0.45593999997E+02  0.45594000000E+02  0.51100000000E-03 0.  1.
         11   -1    0    0    0    0 -0.00000000000E+00 -0.00000000000E+00 -0.45593999997E+02  0.45594000000E+02  0.51100000000E-03 0. -1.
    9900012    2    1    2    0    0  0.43359918873E+02  0.14218343184E+01 -0.12324500876E+01  0.47787272924E+02  0.20000008571E+02 0.  0.
        -12    1    1    2    0    0 -0.43359918873E+02 -0.14218343184E+01  0.12324500876E+01  0.43400727076E+02  0.00000000000E+00 0.  1.
         11    1    3    3    0    0  0.20963766135E+02  0.75883419769E+01  0.23176424806E+01  0.22415037173E+02  0.51100000000E-03 0. -1.
        -11    1    3    3    0    0  0.16974663763E+02 -0.67134801270E+01 -0.62456376809E+01  0.19292952485E+02  0.51100000000E-03 0.  1.
        -12    1    3    3    0    0  0.54214889751E+01  0.54697246844E+00  0.26955451127E+01  0.60792832672E+01  0.00000000000E+00 0.  1.
</event>
<event>
 7    1  0.2811980E-010  0.4778728E+02  0.7816164E-02  0.1312668E+00
        -11   -1    0    0    0    0  0.00000000000E+00  0.00000000000E+00  0.45593999997E+02  0.45594000000E+02  0.51100000000E-03 0. -1.
         11   -1    0    0    0    0 -0.00000000000E+00 -0.00000000000E+00 -0.45593999997E+02  0.45594000000E+02  0.51100000000E-03 0.  1.
    9900012    2    1    2    0    0  0.26185541667E+02  0.19643870582E+02  0.28496634076E+02  0.47787281141E+02  0.20000046033E+02 0.  0.
        -12    1    1    2    0    0 -0.26185541667E+02 -0.19643870582E+02 -0.28496634076E+02  0.43400718859E+02  0.00000000000E+00 0.  1.
         11    1    3    3    0    0  0.13478216188E+02  0.18427309781E+02  0.22363018382E+02  0.31958295462E+02  0.51100000000E-03 0. -1.
        -11    1    3    3    0    0  0.44813798058E+01  0.44953603995E+00 -0.13290647412E+01  0.46958770174E+01  0.51100000000E-03 0.  1.
         12    1    3    3    0    0  0.82259456729E+01  0.76702476080E+00  0.74626804353E+01  0.11133108662E+02  0.00000000000E+00 0. -1.
</event>
<event>
 7    1  0.2811980E-010  0.4778727E+02  0.7816164E-02  0.1312668E+00
        -11   -1    0    0    0    0  0.00000000000E+00  0.00000000000E+00  0.45593999997E+02  0.45594000000E+02  0.51100000000E-03 0.  1.
         11   -1    0    0    0    0 -0.00000000000E+00 -0.00000000000E+00 -0.45593999997E+02  0.45594000000E+02  0.51100000000E-03 0. -1.
    9900012    2    1    2    0    0 -0.81624050205E+01 -0.64724603649E+01 -0.42132006664E+02  0.47787267466E+02  0.19999983686E+02 0.  0.
        -12    1    1    2    0    0  0.81624050205E+01  0.64724603649E+01  0.42132006664E+02  0.43400732534E+02  0.00000000000E+00 0.  1.
         11    1    3    3    0    0  0.62323457001E+01 -0.35809122823E+01 -0.92272321316E+01  0.11696447271E+02  0.51100000000E-03 0. -1.
        -11    1    3    3    0    0 -0.14342386454E+01  0.32778678287E+00 -0.31511429169E+01  0.34776697099E+01  0.51100000000E-03 0.  1.
         12    1    3    3    0    0 -0.12960512075E+02 -0.32193348654E+01 -0.29753631616E+02  0.32613150485E+02  0.00000000000E+00 0. -1.
</event>
<event>
 7    1  0.2811980E-010  0.4778728E+02  0.7816164E-02  0.1312668E+00
        -11   -1    0    0    0    0  0.00000000000E+00  0.00000000000E+00  0.45593999997E+02  0.45594000000E+02  0.51100000000E-03 0. -1.
         11   -1    0    0    0    0 -0.00000000000E+00 -0.00000000000E+00 -0.45593999997E+02  0.45594000000E+02  0.51100000000E-03 0.  1.
    9900012    2    1    2    0    0 -0.16960280833E+02 -0.36799983215E+02 -0.15547764070E+02  0.47787275834E+02  0.20000021838E+02 0.  0.
        -12    1    1    2    0    0  0.16960280833E+02  0.36799983215E+02  0.15547764070E+02  0.43400724166E+02  0.00000000000E+00 0.  1.
         11    1    3    3    0    0 -0.74729698751E+01 -0.19356544747E+02 -0.43207112602E+01  0.21194094681E+02  0.51100000000E-03 0. -1.
        -11    1    3    3    0    0 -0.72622702835E+01 -0.12194360086E+02 -0.14273594420E+02  0.20129045817E+02  0.51100000000E-03 0.  1.
        -12    1    3    3    0    0 -0.22250406745E+01 -0.52490783821E+01  0.30465416102E+01  0.64641353364E+01  0.00000000000E+00 0.  1.
</event>
<event>
 7    1  0.2811980E-010  0.4778727E+02  0.7816164E-02  0.1312668E+00
        -11   -1    0    0    0    0  0.00000000000E+00  0.00000000000E+00  0.45593999997E+02  0.45594000000E+02  0.51100000000E-03 0. -1.
         11   -1    0    0    0    0 -0.00000000000E+00 -0.00000000000E+00 -0.45593999997E+02  0.45594000000E+02  0.51100000000E-03 0.  1.
    9900012    2    1    2    0    0  0.38015444958E+02 -0.19684923144E+02  0.71381450085E+01  0.47787269952E+02  0.19999995019E+02 0.  0.
        -12    1    1    2    0    0 -0.38015444958E+02  0.19684923144E+02 -0.71381450085E+01  0.43400730048E+02  0.00000000000E+00 0.  1.
         11    1    3    3    0    0  0.26724653596E+01 -0.17763023726E+01 -0.25206671627E+01  0.40805740312E+01  0.51100000000E-03 0.  1.
        -11    1    3    3    0    0  0.25520945631E+02 -0.81662482935E+01 -0.67174697705E-01  0.26795723349E+02  0.51100000000E-03 0. -1.
        -12    1    3    3    0    0  0.98220339672E+01 -0.97423724777E+01  0.97259868689E+01  0.16910972572E+02  0.00000000000E+00 0.  1.
</event>
<event>
 7    1  0.4046113E-010  0.4778727E+02  0.7816164E-02  0.1312668E+00
        -11   -1    0    0    0    0  0.00000000000E+00  0.00000000000E+00  0.45593999997E+02  0.45594000000E+02  0.51100000000E-03 0. -1.
         11   -1    0    0    0    0 -0.00000000000E+00 -0.00000000000E+00 -0.45593999997E+02  0.45594000000E+02  0.51100000000E-03 0.  1.
    9900012    2    1    2    0    0  0.21193332160E+02  0.83486996315E+00  0.37865141597E+02  0.47787270927E+02  0.19999999467E+02 0.  0.
        -12    1    1    2    0    0 -0.21193332160E+02 -0.83486996315E+00 -0.37865141597E+02  0.43400729073E+02  0.00000000000E+00 0.  1.
         11    1    3    3    0    0  0.82607360734E+01 -0.14183388522E+01  0.21253925901E+02  0.22846899396E+02  0.51100000000E-03 0. -1.
        -11    1    3    3    0    0  0.55731984201E+01  0.68962288898E+01  0.42736607102E+01  0.98429004698E+01  0.51100000000E-03 0.  1.
        -12    1    3    3    0    0  0.73593976662E+01 -0.46430200745E+01  0.12337554986E+02  0.15097471062E+02  0.00000000000E+00 0.  1.
</event>
<event>
 7    1  0.2811980E-010  0.4778727E+02  0.7816164E-02  0.1312668E+00
        -11   -1    0    0    0    0  0.00000000000E+00  0.00000000000E+00  0.45593999997E+02  0.45594000000E+02  0.51100000000E-03 0. -1.
         11   -1    0    0    0    0 -0.00000000000E+00 -0.00000000000E+00 -0.45593999997E+02  0.45594000000E+02  0.51100000000E-03 0.  1.
    9900012    2    1    2    0    0  0.19332624530E+02  0.26969448068E+02  0.27973595224E+02  0.47787268093E+02  0.19999986543E+02 0.  0.
        -12    1    1    2    0    0 -0.19332624530E+02 -0.26969448068E+02 -0.27973595224E+02  0.43400731907E+02  0.00000000000E+00 0.  1.
         11    1    3    3    0    0  0.59713313577E+00  0.37205989195E+01  0.59908594377E+01  0.70774162917E+01  0.51100000000E-03 0. -1.
        -11    1    3    3    0    0 -0.44957635167E+00 -0.49765884671E+00  0.63993885670E+01  0.64344352912E+01  0.51100000000E-03 0.  1.
        -12    1    3    3    0    0  0.19185067746E+02  0.23746507995E+02  0.15583347219E+02  0.34275416510E+02  0.00000000000E+00 0.  1.
</event>
<event>
 7    1  0.2811980E-010  0.4778728E+02  0.7816164E-02  0.1312668E+00
        -11   -1    0    0    0    0  0.00000000000E+00  0.00000000000E+00  0.45593999997E+02  0.45594000000E+02  0.51100000000E-03 0.  1.
         11   -1    0    0    0    0 -0.00000000000E+00 -0.00000000000E+00 -0.45593999997E+02  0.45594000000E+02  0.51100000000E-03 0. -1.
    9900012    2    1    2    0    0  0.67425244303E+01 -0.27171003042E+02 -0.33164704909E+02  0.47787277728E+02  0.20000030475E+02 0.  0.
        -12    1    1    2    0    0 -0.67425244303E+01  0.27171003042E+02  0.33164704909E+02  0.43400722272E+02  0.00000000000E+00 0.  1.
         11    1    3    3    0    0  0.55110141605E+01 -0.27662014040E+02 -0.23271209937E+02  0.36566480689E+02  0.51100000000E-03 0. -1.
        -11    1    3    3    0    0 -0.21059087885E+00  0.72864160552E+00 -0.97193628841E+01  0.97489118491E+01  0.51100000000E-03 0.  1.
        -12    1    3    3    0    0  0.14421011487E+01 -0.23763060782E+00 -0.17413208806E+00  0.14718851901E+01  0.00000000000E+00 0.  1.
</event>
<event>
 7    1  0.2811980E-010  0.4778728E+02  0.7816164E-02  0.1312668E+00
        -11   -1    0    0    0    0  0.00000000000E+00  0.00000000000E+00  0.45593999997E+02  0.45594000000E+02  0.51100000000E-03 0.  1.
         11   -1    0    0    0    0 -0.00000000000E+00 -0.00000000000E+00 -0.45593999997E+02  0.45594000000E+02  0.51100000000E-03 0. -1.
    9900012    2    1    2    0    0 -0.30704927433E+02 -0.49633807355E+01 -0.30268715385E+02  0.47787275950E+02  0.20000022367E+02 0.  0.
        -12    1    1    2    0    0  0.30704927433E+02  0.49633807355E+01  0.30268715385E+02  0.43400724050E+02  0.00000000000E+00 0.  1.
         11    1    3    3    0    0 -0.21618124765E+02 -0.42657934510E+01 -0.11547430697E+02  0.24877368592E+02  0.51100000000E-03 0. -1.
        -11    1    3    3    0    0 -0.68569364182E+01 -0.39963507961E+01 -0.16596948685E+02  0.18396931882E+02  0.51100000000E-03 0.  1.
        -12    1    3    3    0    0 -0.22298662500E+01  0.32987635116E+01 -0.21243360027E+01  0.45129754764E+01  0.00000000000E+00 0.  1.
</event>
<event>
 7    1  0.2811980E-010  0.4778727E+02  0.7816164E-02  0.1312668E+00
        -11   -1    0    0    0    0  0.00000000000E+00  0.00000000000E+00  0.45593999997E+02  0.45594000000E+02  0.51100000000E-03 0.  1.
         11   -1    0    0    0    0 -0.00000000000E+00 -0.00000000000E+00 -0.45593999997E+02  0.45594000000E+02  0.51100000000E-03 0. -1.
    9900012    2    1    2    0    0 -0.31119282562E+02  0.22762311105E+02 -0.19927134444E+02  0.47787271422E+02  0.20000001720E+02 0.  0.
        -12    1    1    2    0    0  0.31119282562E+02 -0.22762311105E+02  0.19927134444E+02  0.43400728578E+02  0.00000000000E+00 0.  1.
         11    1    3    3    0    0 -0.17890182254E+02  0.22659612754E+02 -0.14818310671E+02  0.32451486909E+02  0.51100000000E-03 0. -1.
        -11    1    3    3    0    0 -0.77720220710E+01  0.64031062744E-01  0.12660531824E+00  0.77733169379E+01  0.51100000000E-03 0.  1.
         12    1    3    3    0    0 -0.54570782370E+01  0.38667288440E-01 -0.52354290913E+01  0.75624675744E+01  0.00000000000E+00 0. -1.
</event>
<event>
 7    1  0.2811980E-010  0.4778726E+02  0.7816164E-02  0.1312668E+00
        -11   -1    0    0    0    0  0.00000000000E+00  0.00000000000E+00  0.45593999997E+02  0.45594000000E+02  0.51100000000E-03 0.  1.
         11   -1    0    0    0    0 -0.00000000000E+00 -0.00000000000E+00 -0.45593999997E+02  0.45594000000E+02  0.51100000000E-03 0. -1.
    9900012    2    1    2    0    0  0.33912924091E+02  0.35085813130E+01 -0.26855674726E+02  0.47787264658E+02  0.19999970882E+02 0.  0.
        -12    1    1    2    0    0 -0.33912924091E+02 -0.35085813130E+01  0.26855674726E+02  0.43400735342E+02  0.00000000000E+00 0.  1.
         11    1    3    3    0    0  0.27468288399E+02 -0.21319249968E+00 -0.13153469280E+02  0.30455969414E+02  0.51100000000E-03 0. -1.
        -11    1    3    3    0    0 -0.14015644496E+01  0.21494619557E+01 -0.40347107803E+01  0.47815751534E+01  0.51100000000E-03 0.  1.
        -12    1    3    3    0    0  0.78462001415E+01  0.15723118571E+01 -0.96674946658E+01  0.12549720091E+02  0.00000000000E+00 0.  1.
</event>
<event>
 7    1  0.2811980E-010  0.4778727E+02  0.7816164E-02  0.1312668E+00
        -11   -1    0    0    0    0  0.00000000000E+00  0.00000000000E+00  0.45593999997E+02  0.45594000000E+02  0.51100000000E-03 0.  1.
         11   -1    0    0    0    0 -0.00000000000E+00 -0.00000000000E+00 -0.45593999997E+02  0.45594000000E+02  0.51100000000E-03 0. -1.
    9900012    2    1    2    0    0 -0.18617883281E+02  0.29955370744E+02 -0.25291764050E+02  0.47787272552E+02  0.20000006873E+02 0.  0.
        -12    1    1    2    0    0  0.18617883281E+02 -0.29955370744E+02  0.25291764050E+02  0.43400727448E+02  0.00000000000E+00 0.  1.
         11    1    3    3    0    0  0.10503506052E+01  0.22480844417E+01 -0.77091130251E+01  0.80986137052E+01  0.51100000000E-03 0. -1.
        -11    1    3    3    0    0 -0.12604992978E+02  0.22402899852E+02 -0.86393637319E+01  0.27118524585E+02  0.51100000000E-03 0.  1.
        -12    1    3    3    0    0 -0.70632409083E+01  0.53043864504E+01 -0.89432872929E+01  0.12570134261E+02  0.00000000000E+00 0.  1.
</event>
<event>
 7    1  0.2811980E-010  0.4778727E+02  0.7816164E-02  0.1312668E+00
        -11   -1    0    0    0    0  0.00000000000E+00  0.00000000000E+00  0.45593999997E+02  0.45594000000E+02  0.51100000000E-03 0. -1.
         11   -1    0    0    0    0 -0.00000000000E+00 -0.00000000000E+00 -0.45593999997E+02  0.45594000000E+02  0.51100000000E-03 0.  1.
    9900012    2    1    2    0    0  0.13309492100E+02 -0.38245499822E+02  0.15612896749E+02  0.47787269805E+02  0.19999994350E+02 0.  0.
        -12    1    1    2    0    0 -0.13309492100E+02  0.38245499822E+02 -0.15612896749E+02  0.43400730195E+02  0.00000000000E+00 0.  1.
         11    1    3    3    0    0  0.48762016807E+01 -0.99376552548E+01  0.11894802625E+02  0.16248712704E+02  0.51100000000E-03 0. -1.
        -11    1    3    3    0    0  0.81193118974E+01 -0.12641820926E+02  0.49551504830E+01  0.15820631422E+02  0.51100000000E-03 0.  1.
         12    1    3    3    0    0  0.31397852161E+00 -0.15666023641E+02 -0.12370563595E+01  0.15717925679E+02  0.00000000000E+00 0. -1.
</event>
<event>
 7    1  0.2811980E-010  0.4778722E+02  0.7816164E-02  0.1312668E+00
        -11   -1    0    0    0    0  0.00000000000E+00  0.00000000000E+00  0.45593999997E+02  0.45594000000E+02  0.51100000000E-03 0.  1.
         11   -1    0    0    0    0 -0.00000000000E+00 -0.00000000000E+00 -0.45593999997E+02  0.45594000000E+02  0.51100000000E-03 0. -1.
    9900012    2    1    2    0    0 -0.87342125479E+01 -0.42382004179E+02  0.33327310020E+01  0.47787218406E+02  0.19999759997E+02 0.  0.
        -12    1    1    2    0    0  0.87342125479E+01  0.42382004179E+02 -0.33327310020E+01  0.43400781594E+02  0.00000000000E+00 0.  1.
         11    1    3    3    0    0 -0.12771936569E+02 -0.41139470899E+02  0.45078153258E+01  0.43311647727E+02  0.51100000000E-03 0. -1.
        -11    1    3    3    0    0  0.15522096539E+01 -0.42656318025E-01 -0.31240786587E+00  0.15839107635E+01  0.51100000000E-03 0.  1.
         12    1    3    3    0    0  0.24855143672E+01 -0.11998769622E+01 -0.86267645796E+00  0.28916599152E+01  0.00000000000E+00 0. -1.
</event>
<event>
 7    1  0.2811980E-010  0.4778727E+02  0.7816164E-02  0.1312668E+00
        -11   -1    0    0    0    0  0.00000000000E+00  0.00000000000E+00  0.45593999997E+02  0.45594000000E+02  0.51100000000E-03 0.  1.
         11   -1    0    0    0    0 -0.00000000000E+00 -0.00000000000E+00 -0.45593999997E+02  0.45594000000E+02  0.51100000000E-03 0. -1.
    9900012    2    1    2    0    0  0.26615533742E+02  0.88328205808E+01 -0.33124277712E+02  0.47787272705E+02  0.20000007573E+02 0.  0.
        -12    1    1    2    0    0 -0.26615533742E+02 -0.88328205808E+01  0.33124277712E+02  0.43400727295E+02  0.00000000000E+00 0.  1.
         11    1    3    3    0    0  0.11861237172E+01  0.34951002440E+01  0.10400996832E+00  0.36923479689E+01  0.51100000000E-03 0. -1.
        -11    1    3    3    0    0  0.19263019128E+02 -0.16359778098E+01 -0.19105569722E+02  0.27180197276E+02  0.51100000000E-03 0.  1.
         12    1    3    3    0    0  0.61663908967E+01  0.69736981466E+01 -0.14122717958E+02  0.16914727460E+02  0.00000000000E+00 0. -1.
</event>
<event>
 7    1  0.2811980E-010  0.4778727E+02  0.7816164E-02  0.1312668E+00
        -11   -1    0    0    0    0  0.00000000000E+00  0.00000000000E+00  0.45593999997E+02  0.45594000000E+02  0.51100000000E-03 0. -1.
         11   -1    0    0    0    0 -0.00000000000E+00 -0.00000000000E+00 -0.45593999997E+02  0.45594000000E+02  0.51100000000E-03 0.  1.
    9900012    2    1    2    0    0  0.34231771978E+01  0.34851227619E+02  0.25637808336E+02  0.47787269304E+02  0.19999992063E+02 0.  0.
        -12    1    1    2    0    0 -0.34231771978E+01 -0.34851227619E+02 -0.25637808336E+02  0.43400730696E+02  0.00000000000E+00 0.  1.
         11    1    3    3    0    0  0.28468254349E+01  0.29529844831E+02  0.15669649626E+02  0.33550768553E+02  0.51100000000E-03 0. -1.
        -11    1    3    3    0    0  0.34708326936E+01  0.48862931497E+01  0.95568039053E+01  0.11280737630E+02  0.51100000000E-03 0.  1.
         12    1    3    3    0    0 -0.28944809307E+01  0.43508963792E+00  0.41135480547E+00  0.29557631210E+01  0.00000000000E+00 0. -1.
</event>
<event>
 7    1  0.2811980E-010  0.4778727E+02  0.7816164E-02  0.1312668E+00
        -11   -1    0    0    0    0  0.00000000000E+00  0.00000000000E+00  0.45593999997E+02  0.45594000000E+02  0.51100000000E-03 0. -1.
         11   -1    0    0    0    0 -0.00000000000E+00 -0.00000000000E+00 -0.45593999997E+02  0.45594000000E+02  0.51100000000E-03 0.  1.
    9900012    2    1    2    0    0 -0.43309670701E+02 -0.60207355961E+00  0.27446337773E+01  0.47787273239E+02  0.20000010008E+02 0.  0.
        -12    1    1    2    0    0  0.43309670701E+02  0.60207355961E+00 -0.27446337773E+01  0.43400726761E+02  0.00000000000E+00 0.  1.
         11    1    3    3    0    0 -0.82390094150E+01 -0.18373128189E+01  0.34585639508E+01  0.91224261793E+01  0.51100000000E-03 0. -1.
        -11    1    3    3    0    0 -0.33997779618E+02 -0.11204746818E+01  0.29885131054E+01  0.34147264800E+02  0.51100000000E-03 0.  1.
        -12    1    3    3    0    0 -0.10728816680E+01  0.23557139411E+01 -0.37024432790E+01  0.45175822604E+01  0.00000000000E+00 0.  1.
</event>
<event>
 7    1  0.2811980E-010  0.4778727E+02  0.7816164E-02  0.1312668E+00
        -11   -1    0    0    0    0  0.00000000000E+00  0.00000000000E+00  0.45593999997E+02  0.45594000000E+02  0.51100000000E-03 0. -1.
         11   -1    0    0    0    0 -0.00000000000E+00 -0.00000000000E+00 -0.45593999997E+02  0.45594000000E+02  0.51100000000E-03 0.  1.
    9900012    2    1    2    0    0  0.20462301783E+02 -0.29375974765E+02  0.24535069541E+02  0.47787270455E+02  0.19999997312E+02 0.  0.
        -12    1    1    2    0    0 -0.20462301783E+02  0.29375974765E+02 -0.24535069541E+02  0.43400729545E+02  0.00000000000E+00 0.  1.
         11    1    3    3    0    0  0.21309992136E+01 -0.12421020379E+02  0.17763029409E+02  0.21779534406E+02  0.51100000000E-03 0. -1.
        -11    1    3    3    0    0  0.16301871527E+02 -0.14637459306E+02  0.67565470553E+01  0.22927214366E+02  0.51100000000E-03 0.  1.
         12    1    3    3    0    0  0.20294310423E+01 -0.23174950800E+01  0.15493077070E-01  0.30805216826E+01  0.00000000000E+00 0. -1.
</event>
<event>
 7    1  0.2811980E-010  0.4778728E+02  0.7816164E-02  0.1312668E+00
        -11   -1    0    0    0    0  0.00000000000E+00  0.00000000000E+00  0.45593999997E+02  0.45594000000E+02  0.51100000000E-03 0.  1.
         11   -1    0    0    0    0 -0.00000000000E+00 -0.00000000000E+00 -0.45593999997E+02  0.45594000000E+02  0.51100000000E-03 0. -1.
    9900012    2    1    2    0    0 -0.93858639720E+01 -0.26396427739E+02 -0.33147501284E+02  0.47787277871E+02  0.20000031127E+02 0.  0.
        -12    1    1    2    0    0  0.93858639720E+01  0.26396427739E+02  0.33147501284E+02  0.43400722129E+02  0.00000000000E+00 0.  1.
         11    1    3    3    0    0 -0.11977480007E+02 -0.20137062434E+02 -0.23685993544E+02  0.33316476422E+02  0.51100000000E-03 0. -1.
        -11    1    3    3    0    0  0.17576776554E+00  0.72407729563E+00  0.12514619601E+01  0.14564819038E+01  0.51100000000E-03 0.  1.
         12    1    3    3    0    0  0.24158482692E+01 -0.69834426002E+01 -0.10712969701E+02  0.13014319545E+02  0.00000000000E+00 0. -1.
</event>
<event>
 7    1  0.2811980E-010  0.4778728E+02  0.7816164E-02  0.1312668E+00
        -11   -1    0    0    0    0  0.00000000000E+00  0.00000000000E+00  0.45593999997E+02  0.45594000000E+02  0.51100000000E-03 0.  1.
         11   -1    0    0    0    0 -0.00000000000E+00 -0.00000000000E+00 -0.45593999997E+02  0.45594000000E+02  0.51100000000E-03 0. -1.
    9900012    2    1    2    0    0 -0.12755799436E+02  0.40979705974E+02 -0.64479498999E+01  0.47787276747E+02  0.20000026001E+02 0.  0.
        -12    1    1    2    0    0  0.12755799436E+02 -0.40979705974E+02  0.64479498999E+01  0.43400723253E+02  0.00000000000E+00 0.  1.
         11    1    3    3    0    0 -0.11285003291E+02  0.14569114264E+02 -0.36742231081E+01  0.18791229482E+02  0.51100000000E-03 0. -1.
        -11    1    3    3    0    0  0.29984535062E+01  0.15644615373E+01  0.86334479534E+00  0.34905053827E+01  0.51100000000E-03 0.  1.
        -12    1    3    3    0    0 -0.44692496505E+01  0.24846130173E+02 -0.36370715872E+01  0.25505541882E+02  0.00000000000E+00 0.  1.
</event>
<event>
 7    1  0.2811980E-010  0.4778727E+02  0.7816164E-02  0.1312668E+00
        -11   -1    0    0    0    0  0.00000000000E+00  0.00000000000E+00  0.45593999997E+02  0.45594000000E+02  0.51100000000E-03 0.  1.
         11   -1    0    0    0    0 -0.00000000000E+00 -0.00000000000E+00 -0.45593999997E+02  0.45594000000E+02  0.51100000000E-03 0. -1.
    9900012    2    1    2    0    0 -0.40742310768E+02 -0.13816291433E+02  0.57269445297E+01  0.47787266259E+02  0.19999978180E+02 0.  0.
        -12    1    1    2    0    0  0.40742310768E+02  0.13816291433E+02 -0.57269445297E+01  0.43400733741E+02  0.00000000000E+00 0.  1.
         11    1    3    3    0    0 -0.11676331162E+02 -0.10335973116E+02  0.78696392486E+01  0.17467119734E+02  0.51100000000E-03 0. -1.
        -11    1    3    3    0    0 -0.13633926219E+02  0.30069932223E+00  0.22824485957E+01  0.13826927933E+02  0.51100000000E-03 0.  1.
         12    1    3    3    0    0 -0.15432053387E+02 -0.37810176394E+01 -0.44251433146E+01  0.16493218591E+02  0.00000000000E+00 0. -1.
</event>
<event>
 7    1  0.2811980E-010  0.4778727E+02  0.7816164E-02  0.1312668E+00
        -11   -1    0    0    0    0  0.00000000000E+00  0.00000000000E+00  0.45593999997E+02  0.45594000000E+02  0.51100000000E-03 0. -1.
         11   -1    0    0    0    0 -0.00000000000E+00 -0.00000000000E+00 -0.45593999997E+02  0.45594000000E+02  0.51100000000E-03 0.  1.
    9900012    2    1    2    0    0 -0.14808320486E+02  0.26991216275E+02  0.30591033488E+02  0.47787269113E+02  0.19999991196E+02 0.  0.
        -12    1    1    2    0    0  0.14808320486E+02 -0.26991216275E+02 -0.30591033488E+02  0.43400730887E+02  0.00000000000E+00 0.  1.
         11    1    3    3    0    0 -0.13225049172E+02  0.14321604876E+02  0.78004884843E+01  0.20996616696E+02  0.51100000000E-03 0. -1.
        -11    1    3    3    0    0  0.14106465165E+01  0.12295923234E+01  0.57663364180E+01  0.60623804585E+01  0.51100000000E-03 0.  1.
         12    1    3    3    0    0 -0.29939178301E+01  0.11440019076E+02  0.17024208586E+02  0.20728271959E+02  0.00000000000E+00 0. -1.
</event>
<event>
 7    1  0.2811980E-010  0.4778727E+02  0.7816164E-02  0.1312668E+00
        -11   -1    0    0    0    0  0.00000000000E+00  0.00000000000E+00  0.45593999997E+02  0.45594000000E+02  0.51100000000E-03 0.  1.
         11   -1    0    0    0    0 -0.00000000000E+00 -0.00000000000E+00 -0.45593999997E+02  0.45594000000E+02  0.51100000000E-03 0. -1.
    9900012    2    1    2    0    0 -0.24251586880E+01 -0.35413903919E+02 -0.24971933465E+02  0.47787269057E+02  0.19999990938E+02 0.  0.
        -12    1    1    2    0    0  0.24251586880E+01  0.35413903919E+02  0.24971933465E+02  0.43400730943E+02  0.00000000000E+00 0.  1.
         11    1    3    3    0    0 -0.40558200699E+01 -0.37891894274E+01  0.15158392466E+01  0.57537293853E+01  0.51100000000E-03 0. -1.
        -11    1    3    3    0    0  0.40016711053E+01 -0.17376669441E+02 -0.17708704014E+02  0.25130861716E+02  0.51100000000E-03 0.  1.
         12    1    3    3    0    0 -0.23710097234E+01 -0.14248045051E+02 -0.87790686971E+01  0.16902677955E+02  0.00000000000E+00 0. -1.
</event>
<event>
 7    1  0.2811980E-010  0.4778727E+02  0.7816164E-02  0.1312668E+00
        -11   -1    0    0    0    0  0.00000000000E+00  0.00000000000E+00  0.45593999997E+02  0.45594000000E+02  0.51100000000E-03 0.  1.
         11   -1    0    0    0    0 -0.00000000000E+00 -0.00000000000E+00 -0.45593999997E+02  0.45594000000E+02  0.51100000000E-03 0. -1.
    9900012    2    1    2    0    0 -0.29984212397E+02 -0.11616682728E+02 -0.29148294865E+02  0.47787269543E+02  0.19999993153E+02 0.  0.
        -12    1    1    2    0    0  0.29984212397E+02  0.11616682728E+02  0.29148294865E+02  0.43400730457E+02  0.00000000000E+00 0.  1.
         11    1    3    3    0    0 -0.13696972590E+02 -0.39491202777E+01 -0.22340030953E+02  0.26500558340E+02  0.51100000000E-03 0. -1.
        -11    1    3    3    0    0 -0.93699205913E+01 -0.18303260381E-01 -0.93001678996E+00  0.94159799484E+01  0.51100000000E-03 0.  1.
        -12    1    3    3    0    0 -0.69173192161E+01 -0.76492591896E+01 -0.58782471224E+01  0.11870731255E+02  0.00000000000E+00 0.  1.
</event>
<event>
 7    1  0.2811980E-010  0.4778727E+02  0.7816164E-02  0.1312668E+00
        -11   -1    0    0    0    0  0.00000000000E+00  0.00000000000E+00  0.45593999997E+02  0.45594000000E+02  0.51100000000E-03 0.  1.
         11   -1    0    0    0    0 -0.00000000000E+00 -0.00000000000E+00 -0.45593999997E+02  0.45594000000E+02  0.51100000000E-03 0. -1.
    9900012    2    1    2    0    0 -0.53291795206E+00  0.29718857941E+02 -0.31624810738E+02  0.47787272206E+02  0.20000005297E+02 0.  0.
        -12    1    1    2    0    0  0.53291795206E+00 -0.29718857941E+02  0.31624810738E+02  0.43400727794E+02  0.00000000000E+00 0.  1.
         11    1    3    3    0    0 -0.33720821313E+00  0.25691194824E+02 -0.27007942732E+02  0.37277073004E+02  0.51100000000E-03 0. -1.
        -11    1    3    3    0    0  0.22119853192E+01 -0.19789003374E+01 -0.13348458850E+01  0.32543416225E+01  0.51100000000E-03 0.  1.
         12    1    3    3    0    0 -0.24076950581E+01  0.60065634541E+01 -0.32820221203E+01  0.72558575798E+01  0.00000000000E+00 0. -1.
</event>
<event>
 7    1  0.2811980E-010  0.4778727E+02  0.7816164E-02  0.1312668E+00
        -11   -1    0    0    0    0  0.00000000000E+00  0.00000000000E+00  0.45593999997E+02  0.45594000000E+02  0.51100000000E-03 0.  1.
         11   -1    0    0    0    0 -0.00000000000E+00 -0.00000000000E+00 -0.45593999997E+02  0.45594000000E+02  0.51100000000E-03 0. -1.
    9900012    2    1    2    0    0  0.37078156111E+02 -0.16620390218E+02 -0.15251102236E+02  0.47787272460E+02  0.20000006454E+02 0.  0.
        -12    1    1    2    0    0 -0.37078156111E+02  0.16620390218E+02  0.15251102236E+02  0.43400727540E+02  0.00000000000E+00 0.  1.
         11    1    3    3    0    0 -0.88009962366E+00  0.83069068213E+00 -0.30347616670E+01  0.32671701813E+01  0.51100000000E-03 0. -1.
        -11    1    3    3    0    0  0.28913522529E+02 -0.99835820549E+01 -0.57423144672E+01  0.31122947665E+02  0.51100000000E-03 0.  1.
        -12    1    3    3    0    0  0.90447332058E+01 -0.74674988453E+01 -0.64740261019E+01  0.13397154613E+02  0.00000000000E+00 0.  1.
</event>
<event>
 7    1  0.2811980E-010  0.4778727E+02  0.7816164E-02  0.1312668E+00
        -11   -1    0    0    0    0  0.00000000000E+00  0.00000000000E+00  0.45593999997E+02  0.45594000000E+02  0.51100000000E-03 0.  1.
         11   -1    0    0    0    0 -0.00000000000E+00 -0.00000000000E+00 -0.45593999997E+02  0.45594000000E+02  0.51100000000E-03 0. -1.
    9900012    2    1    2    0    0 -0.10942833557E+02  0.41556240987E+02 -0.60791922041E+01  0.47787270178E+02  0.19999996048E+02 0.  0.
        -12    1    1    2    0    0  0.10942833557E+02 -0.41556240987E+02  0.60791922041E+01  0.43400729822E+02  0.00000000000E+00 0.  1.
         11    1    3    3    0    0 -0.17438223833E+00  0.22287460979E+02  0.11210159687E+00  0.22288425092E+02  0.51100000000E-03 0. -1.
        -11    1    3    3    0    0 -0.12835984696E+02  0.14464014925E+02 -0.36353246388E+01  0.19677037794E+02  0.51100000000E-03 0.  1.
         12    1    3    3    0    0  0.20675333776E+01  0.48047650837E+01 -0.25559691623E+01  0.58218072912E+01  0.00000000000E+00 0. -1.
</event>
<event>
 7    1  0.2811980E-010  0.4778727E+02  0.7816164E-02  0.1312668E+00
        -11   -1    0    0    0    0  0.00000000000E+00  0.00000000000E+00  0.45593999997E+02  0.45594000000E+02  0.51100000000E-03 0.  1.
         11   -1    0    0    0    0 -0.00000000000E+00 -0.00000000000E+00 -0.45593999997E+02  0.45594000000E+02  0.51100000000E-03 0. -1.
    9900012    2    1    2    0    0 -0.41376735757E+02 -0.21040198840E+01  0.12929129996E+02  0.47787267702E+02  0.19999984761E+02 0.  0.
        -12    1    1    2    0    0  0.41376735757E+02  0.21040198840E+01 -0.12929129996E+02  0.43400732298E+02  0.00000000000E+00 0.  1.
         11    1    3    3    0    0 -0.19197201577E+02 -0.71780306876E+01  0.19370835520E+01  0.20586621041E+02  0.51100000000E-03 0. -1.
        -11    1    3    3    0    0 -0.30359544395E+00  0.26423837902E+01  0.23667407887E+01  0.35603124175E+01  0.51100000000E-03 0.  1.
         12    1    3    3    0    0 -0.21875938736E+02  0.24316270134E+01  0.86253056554E+01  0.23640334244E+02  0.00000000000E+00 0. -1.
</event>
<event>
 7    1  0.2811980E-010  0.4778727E+02  0.7816164E-02  0.1312668E+00
        -11   -1    0    0    0    0  0.00000000000E+00  0.00000000000E+00  0.45593999997E+02  0.45594000000E+02  0.51100000000E-03 0.  1.
         11   -1    0    0    0    0 -0.00000000000E+00 -0.00000000000E+00 -0.45593999997E+02  0.45594000000E+02  0.51100000000E-03 0. -1.
    9900012    2    1    2    0    0  0.60401367649E+01 -0.63098072690E+01 -0.42512664313E+02  0.47787267899E+02  0.19999985657E+02 0.  0.
        -12    1    1    2    0    0 -0.60401367649E+01  0.63098072690E+01  0.42512664313E+02  0.43400732101E+02  0.00000000000E+00 0.  1.
         11    1    3    3    0    0  0.98149358170E+00 -0.49883351128E+01 -0.14016069545E+01  0.52736438223E+01  0.51100000000E-03 0. -1.
        -11    1    3    3    0    0  0.12393461804E+01  0.22386386096E+01 -0.31258839301E+02  0.31363394531E+02  0.51100000000E-03 0.  1.
        -12    1    3    3    0    0  0.38192970028E+01 -0.35601107659E+01 -0.98522180576E+01  0.11150229545E+02  0.00000000000E+00 0.  1.
</event>
<event>
 7    1  0.2811980E-010  0.4778727E+02  0.7816164E-02  0.1312668E+00
        -11   -1    0    0    0    0  0.00000000000E+00  0.00000000000E+00  0.45593999997E+02  0.45594000000E+02  0.51100000000E-03 0. -1.
         11   -1    0    0    0    0 -0.00000000000E+00 -0.00000000000E+00 -0.45593999997E+02  0.45594000000E+02  0.51100000000E-03 0.  1.
    9900012    2    1    2    0    0  0.37704560129E+02  0.81722860985E+01  0.19879718189E+02  0.47787270630E+02  0.19999998108E+02 0.  0.
        -12    1    1    2    0    0 -0.37704560129E+02 -0.81722860985E+01 -0.19879718189E+02  0.43400729370E+02  0.00000000000E+00 0.  1.
         11    1    3    3    0    0  0.14159844345E+02  0.10472984073E+02  0.91722970113E+01  0.19857382003E+02  0.51100000000E-03 0. -1.
        -11    1    3    3    0    0  0.21992712539E+02 -0.38180207060E+01  0.12061203389E+02  0.25371821266E+02  0.51100000000E-03 0.  1.
         12    1    3    3    0    0  0.15520032456E+01  0.15173227312E+01 -0.13537822115E+01  0.25580673605E+01  0.00000000000E+00 0. -1.
</event>
<event>
 7    1  0.2811980E-010  0.4778726E+02  0.7816164E-02  0.1312668E+00
        -11   -1    0    0    0    0  0.00000000000E+00  0.00000000000E+00  0.45593999997E+02  0.45594000000E+02  0.51100000000E-03 0.  1.
         11   -1    0    0    0    0 -0.00000000000E+00 -0.00000000000E+00 -0.45593999997E+02  0.45594000000E+02  0.51100000000E-03 0. -1.
    9900012    2    1    2    0    0 -0.13705819576E+02  0.40778129827E+02  0.57375049673E+01  0.47787258927E+02  0.19999944751E+02 0.  0.
        -12    1    1    2    0    0  0.13705819576E+02 -0.40778129827E+02 -0.57375049673E+01  0.43400741073E+02  0.00000000000E+00 0.  1.
         11    1    3    3    0    0 -0.55054773424E+00  0.19021820681E+02 -0.20608522893E+01  0.19141052146E+02  0.51100000000E-03 0. -1.
        -11    1    3    3    0    0 -0.13271876064E+02  0.17487101770E+02  0.28942449521E+01  0.22143127075E+02  0.51100000000E-03 0.  1.
        -12    1    3    3    0    0  0.11660422237E+00  0.42692073765E+01  0.49041123045E+01  0.65030797061E+01  0.00000000000E+00 0.  1.
</event>
<event>
 7    1  0.2811980E-010  0.4778727E+02  0.7816164E-02  0.1312668E+00
        -11   -1    0    0    0    0  0.00000000000E+00  0.00000000000E+00  0.45593999997E+02  0.45594000000E+02  0.51100000000E-03 0. -1.
         11   -1    0    0    0    0 -0.00000000000E+00 -0.00000000000E+00 -0.45593999997E+02  0.45594000000E+02  0.51100000000E-03 0.  1.
    9900012    2    1    2    0    0 -0.31439547536E+01 -0.14579461035E+02  0.40757555381E+02  0.47787268944E+02  0.19999990423E+02 0.  0.
        -12    1    1    2    0    0  0.31439547536E+01  0.14579461035E+02 -0.40757555381E+02  0.43400731056E+02  0.00000000000E+00 0.  1.
         11    1    3    3    0    0 -0.10515464909E+02 -0.99058186686E+01  0.17451800886E+02  0.22655365814E+02  0.51100000000E-03 0. -1.
        -11    1    3    3    0    0  0.71619235472E+01 -0.34258735721E+01  0.17926369569E+02  0.19605725817E+02  0.51100000000E-03 0.  1.
        -12    1    3    3    0    0  0.20958660775E+00 -0.12477687946E+01  0.53793849264E+01  0.55261773133E+01  0.00000000000E+00 0.  1.
</event>
<event>
 7    1  0.2811980E-010  0.4778727E+02  0.7816164E-02  0.1312668E+00
        -11   -1    0    0    0    0  0.00000000000E+00  0.00000000000E+00  0.45593999997E+02  0.45594000000E+02  0.51100000000E-03 0.  1.
         11   -1    0    0    0    0 -0.00000000000E+00 -0.00000000000E+00 -0.45593999997E+02  0.45594000000E+02  0.51100000000E-03 0. -1.
    9900012    2    1    2    0    0 -0.15861536485E+02  0.40383796001E+02 -0.10880611249E+01  0.47787271941E+02  0.20000004086E+02 0.  0.
        -12    1    1    2    0    0  0.15861536485E+02 -0.40383796001E+02  0.10880611249E+01  0.43400728059E+02  0.00000000000E+00 0.  1.
         11    1    3    3    0    0  0.11829332905E+01  0.74934553336E+01  0.63964197363E+01  0.99229728262E+01  0.51100000000E-03 0.  1.
        -11    1    3    3    0    0 -0.91083017249E+01  0.15182131068E+02 -0.31978146009E+01  0.17991227933E+02  0.51100000000E-03 0. -1.
        -12    1    3    3    0    0 -0.79361680504E+01  0.17708209599E+02 -0.42866662602E+01  0.19873071181E+02  0.00000000000E+00 0.  1.
</event>
<event>
 7    1  0.2811980E-010  0.4778728E+02  0.7816164E-02  0.1312668E+00
        -11   -1    0    0    0    0  0.00000000000E+00  0.00000000000E+00  0.45593999997E+02  0.45594000000E+02  0.51100000000E-03 0. -1.
         11   -1    0    0    0    0 -0.00000000000E+00 -0.00000000000E+00 -0.45593999997E+02  0.45594000000E+02  0.51100000000E-03 0.  1.
    9900012    2    1    2    0    0  0.96969938120E+01 -0.41716205386E+02  0.70249133443E+01  0.47787275486E+02  0.20000020252E+02 0.  0.
        -12    1    1    2    0    0 -0.96969938120E+01  0.41716205386E+02 -0.70249133443E+01  0.43400724514E+02  0.00000000000E+00 0.  1.
         11    1    3    3    0    0  0.38642566033E+01 -0.22424166309E+02  0.13798115962E+00  0.22755103885E+02  0.51100000000E-03 0. -1.
        -11    1    3    3    0    0  0.68988139171E+01 -0.40075395419E+01 -0.55737151929E+00  0.79977915648E+01  0.51100000000E-03 0.  1.
        -12    1    3    3    0    0 -0.10660767084E+01 -0.15284499535E+02  0.74443037040E+01  0.17034380037E+02  0.00000000000E+00 0.  1.
</event>
<event>
 7    1  0.2811980E-010  0.4778727E+02  0.7816164E-02  0.1312668E+00
        -11   -1    0    0    0    0  0.00000000000E+00  0.00000000000E+00  0.45593999997E+02  0.45594000000E+02  0.51100000000E-03 0. -1.
         11   -1    0    0    0    0 -0.00000000000E+00 -0.00000000000E+00 -0.45593999997E+02  0.45594000000E+02  0.51100000000E-03 0.  1.
    9900012    2    1    2    0    0  0.24408221964E+02 -0.72625485810E+01  0.35144237042E+02  0.47787270645E+02  0.19999998178E+02 0.  0.
        -12    1    1    2    0    0 -0.24408221964E+02  0.72625485810E+01 -0.35144237042E+02  0.43400729355E+02  0.00000000000E+00 0.  1.
         11    1    3    3    0    0  0.15714490202E+02 -0.79497576256E+01  0.18754997351E+02  0.25727296293E+02  0.51100000000E-03 0. -1.
        -11    1    3    3    0    0  0.65244060581E+01  0.55237451913E+01  0.13617121795E+02  0.16078110635E+02  0.51100000000E-03 0.  1.
         12    1    3    3    0    0  0.21693257031E+01 -0.48365361468E+01  0.27721178952E+01  0.59818637171E+01  0.00000000000E+00 0. -1.
</event>
<event>
 7    1  0.2811980E-010  0.4778726E+02  0.7816164E-02  0.1312668E+00
        -11   -1    0    0    0    0  0.00000000000E+00  0.00000000000E+00  0.45593999997E+02  0.45594000000E+02  0.51100000000E-03 0. -1.
         11   -1    0    0    0    0 -0.00000000000E+00 -0.00000000000E+00 -0.45593999997E+02  0.45594000000E+02  0.51100000000E-03 0.  1.
    9900012    2    1    2    0    0  0.87721018274E+00 -0.41515583875E+02 -0.12621845004E+02  0.47787260680E+02  0.19999952744E+02 0.  0.
        -12    1    1    2    0    0 -0.87721018274E+00  0.41515583875E+02  0.12621845004E+02  0.43400739320E+02  0.00000000000E+00 0.  1.
         11    1    3    3    0    0  0.91579608026E+00 -0.28371617302E+02 -0.13814998166E+01  0.28419991077E+02  0.51100000000E-03 0. -1.
        -11    1    3    3    0    0 -0.65064040695E+00  0.25834354746E-01  0.11198451789E+01  0.12953971742E+01  0.51100000000E-03 0.  1.
         12    1    3    3    0    0  0.61205450942E+00 -0.13169800928E+02 -0.12360190366E+02  0.18071872429E+02  0.00000000000E+00 0. -1.
</event>
<event>
 7    1  0.2811980E-010  0.4778727E+02  0.7816164E-02  0.1312668E+00
        -11   -1    0    0    0    0  0.00000000000E+00  0.00000000000E+00  0.45593999997E+02  0.45594000000E+02  0.51100000000E-03 0. -1.
         11   -1    0    0    0    0 -0.00000000000E+00 -0.00000000000E+00 -0.45593999997E+02  0.45594000000E+02  0.51100000000E-03 0.  1.
    9900012    2    1    2    0    0 -0.14989918211E+01 -0.39716315613E+02 -0.17435317531E+02  0.47787274203E+02  0.20000014400E+02 0.  0.
        -12    1    1    2    0    0  0.14989918211E+01  0.39716315613E+02  0.17435317531E+02  0.43400725797E+02  0.00000000000E+00 0.  1.
         11    1    3    3    0    0 -0.87325301072E+01 -0.99084494123E+01 -0.29406908312E+01  0.13530783963E+02  0.51100000000E-03 0. -1.
        -11    1    3    3    0    0  0.33335965319E+01 -0.22029044929E+02 -0.94760217646E+01  0.24211292305E+02  0.51100000000E-03 0.  1.
        -12    1    3    3    0    0  0.38999417543E+01 -0.77788212712E+01 -0.50186049351E+01  0.10045197935E+02  0.00000000000E+00 0.  1.
</event>
<event>
 7    1  0.2811980E-010  0.4778727E+02  0.7816164E-02  0.1312668E+00
        -11   -1    0    0    0    0  0.00000000000E+00  0.00000000000E+00  0.45593999997E+02  0.45594000000E+02  0.51100000000E-03 0.  1.
         11   -1    0    0    0    0 -0.00000000000E+00 -0.00000000000E+00 -0.45593999997E+02  0.45594000000E+02  0.51100000000E-03 0. -1.
    9900012    2    1    2    0    0  0.39776736769E+02  0.10082908639E+02  0.14133986255E+02  0.47787269568E+02  0.19999993267E+02 0.  0.
        -12    1    1    2    0    0 -0.39776736769E+02 -0.10082908639E+02 -0.14133986255E+02  0.43400730432E+02  0.00000000000E+00 0.  1.
         11    1    3    3    0    0  0.19379422155E+02 -0.17287794118E+00  0.80419346013E+01  0.20982483224E+02  0.51100000000E-03 0. -1.
        -11    1    3    3    0    0  0.80168644641E+00  0.32223532474E+01 -0.26260608350E+01  0.42334923384E+01  0.51100000000E-03 0.  1.
         12    1    3    3    0    0  0.19595628167E+02  0.70334333326E+01  0.87181124886E+01  0.22571294005E+02  0.00000000000E+00 0. -1.
</event>
<event>
 7    1  0.2811980E-010  0.4778726E+02  0.7816164E-02  0.1312668E+00
        -11   -1    0    0    0    0  0.00000000000E+00  0.00000000000E+00  0.45593999997E+02  0.45594000000E+02  0.51100000000E-03 0.  1.
         11   -1    0    0    0    0 -0.00000000000E+00 -0.00000000000E+00 -0.45593999997E+02  0.45594000000E+02  0.51100000000E-03 0. -1.
    9900012    2    1    2    0    0 -0.12882118918E+02  0.74893416289E+01 -0.40762545104E+02  0.47787259117E+02  0.19999945616E+02 0.  0.
        -12    1    1    2    0    0  0.12882118918E+02 -0.74893416289E+01  0.40762545104E+02  0.43400740883E+02  0.00000000000E+00 0.  1.
         11    1    3    3    0    0 -0.55476613152E+01  0.11663136634E+02 -0.14216673774E+02  0.19207267262E+02  0.51100000000E-03 0. -1.
        -11    1    3    3    0    0 -0.44004696195E+01 -0.52650512827E+01 -0.13259214179E+02  0.14929556550E+02  0.51100000000E-03 0.  1.
         12    1    3    3    0    0 -0.29339879830E+01  0.10912562774E+01 -0.13286657151E+02  0.13650435304E+02  0.00000000000E+00 0. -1.
</event>
<event>
 7    1  0.2811980E-010  0.4778727E+02  0.7816164E-02  0.1312668E+00
        -11   -1    0    0    0    0  0.00000000000E+00  0.00000000000E+00  0.45593999997E+02  0.45594000000E+02  0.51100000000E-03 0.  1.
         11   -1    0    0    0    0 -0.00000000000E+00 -0.00000000000E+00 -0.45593999997E+02  0.45594000000E+02  0.51100000000E-03 0. -1.
    9900012    2    1    2    0    0 -0.66863069610E+01 -0.11550597247E+02 -0.41297704356E+02  0.47787269792E+02  0.19999994289E+02 0.  0.
        -12    1    1    2    0    0  0.66863069610E+01  0.11550597247E+02  0.41297704356E+02  0.43400730208E+02  0.00000000000E+00 0.  1.
         11    1    3    3    0    0  0.53472748066E+01 -0.25247923718E+01 -0.14938677229E+02  0.16066486922E+02  0.51100000000E-03 0. -1.
        -11    1    3    3    0    0 -0.71679242110E+01 -0.10613363385E+01 -0.17109842304E+02  0.18580965429E+02  0.51100000000E-03 0.  1.
         12    1    3    3    0    0 -0.48656575566E+01 -0.79644685366E+01 -0.92491848220E+01  0.13139817442E+02  0.00000000000E+00 0. -1.
</event>
<event>
 7    1  0.2811980E-010  0.4778727E+02  0.7816164E-02  0.1312668E+00
        -11   -1    0    0    0    0  0.00000000000E+00  0.00000000000E+00  0.45593999997E+02  0.45594000000E+02  0.51100000000E-03 0.  1.
         11   -1    0    0    0    0 -0.00000000000E+00 -0.00000000000E+00 -0.45593999997E+02  0.45594000000E+02  0.51100000000E-03 0. -1.
    9900012    2    1    2    0    0  0.11413062678E+02 -0.62346178216E+01 -0.41406458770E+02  0.47787270894E+02  0.19999999313E+02 0.  0.
        -12    1    1    2    0    0 -0.11413062678E+02  0.62346178216E+01  0.41406458770E+02  0.43400729106E+02  0.00000000000E+00 0.  1.
         11    1    3    3    0    0  0.40041495209E+01 -0.48334148677E+01 -0.73663737499E+01  0.96777360552E+01  0.51100000000E-03 0. -1.
        -11    1    3    3    0    0  0.10169492734E+02  0.10626116872E+01 -0.32554179332E+02  0.34122167550E+02  0.51100000000E-03 0.  1.
        -12    1    3    3    0    0 -0.27605795762E+01 -0.24638146412E+01 -0.14859056882E+01  0.39873672890E+01  0.00000000000E+00 0.  1.
</event>
<event>
 7    1  0.2811980E-010  0.4778727E+02  0.7816164E-02  0.1312668E+00
        -11   -1    0    0    0    0  0.00000000000E+00  0.00000000000E+00  0.45593999997E+02  0.45594000000E+02  0.51100000000E-03 0.  1.
         11   -1    0    0    0    0 -0.00000000000E+00 -0.00000000000E+00 -0.45593999997E+02  0.45594000000E+02  0.51100000000E-03 0. -1.
    9900012    2    1    2    0    0  0.14184888851E+02  0.19208677952E+02 -0.36241398959E+02  0.47787269834E+02  0.19999994483E+02 0.  0.
        -12    1    1    2    0    0 -0.14184888851E+02 -0.19208677952E+02  0.36241398959E+02  0.43400730166E+02  0.00000000000E+00 0.  1.
         11    1    3    3    0    0  0.10930521613E+02  0.14192752526E+02 -0.94658832870E+01  0.20261132092E+02  0.51100000000E-03 0. -1.
        -11    1    3    3    0    0  0.26770685390E+01  0.31397412517E+01 -0.21606361750E+02  0.21996807483E+02  0.51100000000E-03 0.  1.
         12    1    3    3    0    0  0.57729869842E+00  0.18761841744E+01 -0.51691539223E+01  0.55293302592E+01  0.00000000000E+00 0. -1.
</event>
<event>
 7    1  0.2811980E-010  0.4778728E+02  0.7816164E-02  0.1312668E+00
        -11   -1    0    0    0    0  0.00000000000E+00  0.00000000000E+00  0.45593999997E+02  0.45594000000E+02  0.51100000000E-03 0.  1.
         11   -1    0    0    0    0 -0.00000000000E+00 -0.00000000000E+00 -0.45593999997E+02  0.45594000000E+02  0.51100000000E-03 0. -1.
    9900012    2    1    2    0    0 -0.38505308681E+01 -0.10147736309E+02 -0.42021655570E+02  0.47787277921E+02  0.20000031352E+02 0.  0.
        -12    1    1    2    0    0  0.38505308681E+01  0.10147736309E+02  0.42021655570E+02  0.43400722079E+02  0.00000000000E+00 0.  1.
         11    1    3    3    0    0  0.21828720498E+01  0.17089176146E+01 -0.18365212961E+02  0.18573270502E+02  0.51100000000E-03 0. -1.
        -11    1    3    3    0    0 -0.59429260809E+01 -0.12850609482E+02 -0.24229680935E+02  0.28063035704E+02  0.51100000000E-03 0.  1.
         12    1    3    3    0    0 -0.90476837094E-01  0.99395555798E+00  0.57323832591E+00  0.11509717145E+01  0.00000000000E+00 0. -1.
</event>
<event>
 7    1  0.2811980E-010  0.4778727E+02  0.7816164E-02  0.1312668E+00
        -11   -1    0    0    0    0  0.00000000000E+00  0.00000000000E+00  0.45593999997E+02  0.45594000000E+02  0.51100000000E-03 0. -1.
         11   -1    0    0    0    0 -0.00000000000E+00 -0.00000000000E+00 -0.45593999997E+02  0.45594000000E+02  0.51100000000E-03 0.  1.
    9900012    2    1    2    0    0  0.39169989989E+02  0.99946317090E+01  0.15793754598E+02  0.47787268865E+02  0.19999990063E+02 0.  0.
        -12    1    1    2    0    0 -0.39169989989E+02 -0.99946317090E+01 -0.15793754598E+02  0.43400731135E+02  0.00000000000E+00 0.  1.
         11    1    3    3    0    0  0.33729473619E+02  0.39285507415E+01  0.77570377079E+01  0.34832205440E+02  0.51100000000E-03 0. -1.
        -11    1    3    3    0    0  0.45605334589E+01  0.73223625345E+01  0.68769380142E+01  0.11032122880E+02  0.51100000000E-03 0.  1.
         12    1    3    3    0    0  0.87998291090E+00 -0.12562815670E+01  0.11597788758E+01  0.19229405451E+01  0.00000000000E+00 0. -1.
</event>
<event>
 7    1  0.2811980E-010  0.4778727E+02  0.7816164E-02  0.1312668E+00
        -11   -1    0    0    0    0  0.00000000000E+00  0.00000000000E+00  0.45593999997E+02  0.45594000000E+02  0.51100000000E-03 0. -1.
         11   -1    0    0    0    0 -0.00000000000E+00 -0.00000000000E+00 -0.45593999997E+02  0.45594000000E+02  0.51100000000E-03 0.  1.
    9900012    2    1    2    0    0 -0.32031831380E+02  0.20491513307E+02  0.20920865383E+02  0.47787274804E+02  0.20000017140E+02 0.  0.
        -12    1    1    2    0    0  0.32031831380E+02 -0.20491513307E+02 -0.20920865383E+02  0.43400725196E+02  0.00000000000E+00 0.  1.
         11    1    3    3    0    0 -0.23830898781E+02  0.14296362182E+02  0.12901105714E+02  0.30638802804E+02  0.51100000000E-03 0. -1.
        -11    1    3    3    0    0 -0.14858673240E+01 -0.29574812126E+01  0.37962320250E+01  0.50364545740E+01  0.51100000000E-03 0.  1.
        -12    1    3    3    0    0 -0.67150652750E+01  0.91526323375E+01  0.42235276447E+01  0.12112017426E+02  0.00000000000E+00 0.  1.
</event>
<event>
 7    1  0.2811980E-010  0.4778727E+02  0.7816164E-02  0.1312668E+00
        -11   -1    0    0    0    0  0.00000000000E+00  0.00000000000E+00  0.45593999997E+02  0.45594000000E+02  0.51100000000E-03 0.  1.
         11   -1    0    0    0    0 -0.00000000000E+00 -0.00000000000E+00 -0.45593999997E+02  0.45594000000E+02  0.51100000000E-03 0. -1.
    9900012    2    1    2    0    0 -0.19451627961E+02  0.12903149471E+02 -0.36589149850E+02  0.47787274392E+02  0.20000015261E+02 0.  0.
        -12    1    1    2    0    0  0.19451627961E+02 -0.12903149471E+02  0.36589149850E+02  0.43400725608E+02  0.00000000000E+00 0.  1.
         11    1    3    3    0    0 -0.16737883698E+01  0.55388664944E+01 -0.77709536451E+01  0.96885669923E+01  0.51100000000E-03 0. -1.
        -11    1    3    3    0    0 -0.52983838163E+01  0.76394484413E+01 -0.21981219394E+02  0.23866462868E+02  0.51100000000E-03 0.  1.
        -12    1    3    3    0    0 -0.12479455775E+02 -0.27516546489E+00 -0.68369768109E+01  0.14232244531E+02  0.00000000000E+00 0.  1.
</event>
<event>
 7    1  0.2811980E-010  0.4778727E+02  0.7816164E-02  0.1312668E+00
        -11   -1    0    0    0    0  0.00000000000E+00  0.00000000000E+00  0.45593999997E+02  0.45594000000E+02  0.51100000000E-03 0.  1.
         11   -1    0    0    0    0 -0.00000000000E+00 -0.00000000000E+00 -0.45593999997E+02  0.45594000000E+02  0.51100000000E-03 0. -1.
    9900012    2    1    2    0    0 -0.26186552813E+02 -0.28695751968E+02 -0.19350494783E+02  0.47787269850E+02  0.19999994553E+02 0.  0.
        -12    1    1    2    0    0  0.26186552813E+02  0.28695751968E+02  0.19350494783E+02  0.43400730150E+02  0.00000000000E+00 0.  1.
         11    1    3    3    0    0  0.19137797193E+01 -0.18201657364E+01 -0.12662741274E+01  0.29289941190E+01  0.51100000000E-03 0.  1.
        -11    1    3    3    0    0 -0.22300509924E+02 -0.21757975634E+02 -0.80328255525E+01  0.32175278292E+02  0.51100000000E-03 0. -1.
        -12    1    3    3    0    0 -0.57998226088E+01 -0.51176105971E+01 -0.10051395103E+02  0.12682997439E+02  0.00000000000E+00 0.  1.
</event>
<event>
 7    1  0.2811980E-010  0.4778727E+02  0.7816164E-02  0.1312668E+00
        -11   -1    0    0    0    0  0.00000000000E+00  0.00000000000E+00  0.45593999997E+02  0.45594000000E+02  0.51100000000E-03 0. -1.
         11   -1    0    0    0    0 -0.00000000000E+00 -0.00000000000E+00 -0.45593999997E+02  0.45594000000E+02  0.51100000000E-03 0.  1.
    9900012    2    1    2    0    0  0.29523606175E+02 -0.31763696896E+02  0.17456723237E+01  0.47787272656E+02  0.20000007350E+02 0.  0.
        -12    1    1    2    0    0 -0.29523606175E+02  0.31763696896E+02 -0.17456723237E+01  0.43400727344E+02  0.00000000000E+00 0.  1.
         11    1    3    3    0    0  0.73856679748E+01 -0.34310052156E+01  0.66247787679E+01  0.10497979911E+02  0.51100000000E-03 0. -1.
        -11    1    3    3    0    0  0.20131830716E+02 -0.27621993136E+02 -0.27683515270E+01  0.34291819480E+02  0.51100000000E-03 0.  1.
        -12    1    3    3    0    0  0.20061074843E+01 -0.71069854436E+00 -0.21107549172E+01  0.29974732659E+01  0.00000000000E+00 0.  1.
</event>
<event>
 7    1  0.2811980E-010  0.4778728E+02  0.7816164E-02  0.1312668E+00
        -11   -1    0    0    0    0  0.00000000000E+00  0.00000000000E+00  0.45593999997E+02  0.45594000000E+02  0.51100000000E-03 0.  1.
         11   -1    0    0    0    0 -0.00000000000E+00 -0.00000000000E+00 -0.45593999997E+02  0.45594000000E+02  0.51100000000E-03 0. -1.
    9900012    2    1    2    0    0 -0.21259990699E+02 -0.31432747348E+01 -0.37706170904E+02  0.47787277600E+02  0.20000029890E+02 0.  0.
        -12    1    1    2    0    0  0.21259990699E+02  0.31432747348E+01  0.37706170904E+02  0.43400722400E+02  0.00000000000E+00 0.  1.
         11    1    3    3    0    0 -0.18721814383E+02  0.14981421280E+01 -0.22402214314E+02  0.29233712902E+02  0.51100000000E-03 0. -1.
        -11    1    3    3    0    0 -0.10595745335E+01 -0.73347987142E+01 -0.11094285812E+02  0.13341857004E+02  0.51100000000E-03 0.  1.
        -12    1    3    3    0    0 -0.14786017826E+01  0.26933818514E+01 -0.42096707779E+01  0.52117076940E+01  0.00000000000E+00 0.  1.
</event>
<event>
 7    1  0.2811980E-010  0.4778727E+02  0.7816164E-02  0.1312668E+00
        -11   -1    0    0    0    0  0.00000000000E+00  0.00000000000E+00  0.45593999997E+02  0.45594000000E+02  0.51100000000E-03 0. -1.
         11   -1    0    0    0    0 -0.00000000000E+00 -0.00000000000E+00 -0.45593999997E+02  0.45594000000E+02  0.51100000000E-03 0.  1.
    9900012    2    1    2    0    0 -0.36787806356E+01  0.15191974645E+02  0.40488195846E+02  0.47787268169E+02  0.19999986892E+02 0.  0.
        -12    1    1    2    0    0  0.36787806356E+01 -0.15191974645E+02 -0.40488195846E+02  0.43400731831E+02  0.00000000000E+00 0.  1.
         11    1    3    3    0    0  0.41422879750E+01  0.18091811617E+01  0.18696928999E+01  0.48915680456E+01  0.51100000000E-03 0. -1.
        -11    1    3    3    0    0  0.20965780437E+01  0.21646170392E+01  0.29741624295E+01  0.42340109634E+01  0.51100000000E-03 0.  1.
         12    1    3    3    0    0 -0.99176466542E+01  0.11218176444E+02  0.35644340517E+02  0.38661689160E+02  0.00000000000E+00 0. -1.
</event>
<event>
 7    1  0.2811980E-010  0.4778728E+02  0.7816164E-02  0.1312668E+00
        -11   -1    0    0    0    0  0.00000000000E+00  0.00000000000E+00  0.45593999997E+02  0.45594000000E+02  0.51100000000E-03 0. -1.
         11   -1    0    0    0    0 -0.00000000000E+00 -0.00000000000E+00 -0.45593999997E+02  0.45594000000E+02  0.51100000000E-03 0.  1.
    9900012    2    1    2    0    0  0.22113645417E+02  0.32479461162E+02  0.18430794307E+02  0.47787275469E+02  0.20000020175E+02 0.  0.
        -12    1    1    2    0    0 -0.22113645417E+02 -0.32479461162E+02 -0.18430794307E+02  0.43400724531E+02  0.00000000000E+00 0.  1.
         11    1    3    3    0    0  0.21592116125E+01  0.18933939489E+02  0.53920064643E+01  0.19804797230E+02  0.51100000000E-03 0. -1.
        -11    1    3    3    0    0  0.12344104566E+01  0.12165093252E+01  0.29055183024E+01  0.33831495652E+01  0.51100000000E-03 0.  1.
         12    1    3    3    0    0  0.18720023348E+02  0.12329012347E+02  0.10133269541E+02  0.24599328674E+02  0.00000000000E+00 0. -1.
</event>
<event>
 7    1  0.2811980E-010  0.4778725E+02  0.7816164E-02  0.1312668E+00
        -11   -1    0    0    0    0  0.00000000000E+00  0.00000000000E+00  0.45593999997E+02  0.45594000000E+02  0.51100000000E-03 0.  1.
         11   -1    0    0    0    0 -0.00000000000E+00 -0.00000000000E+00 -0.45593999997E+02  0.45594000000E+02  0.51100000000E-03 0. -1.
    9900012    2    1    2    0    0  0.38006563097E+02  0.28087562391E+01 -0.20766241902E+02  0.47787254006E+02  0.19999922315E+02 0.  0.
        -12    1    1    2    0    0 -0.38006563097E+02 -0.28087562391E+01  0.20766241902E+02  0.43400745994E+02  0.00000000000E+00 0.  1.
         11    1    3    3    0    0  0.66239715346E+01  0.24806776170E+01 -0.45968097322E+01  0.84357228680E+01  0.51100000000E-03 0. -1.
        -11    1    3    3    0    0 -0.11005715712E+01 -0.21948400027E+01 -0.37529675883E+01  0.44847905638E+01  0.51100000000E-03 0.  1.
        -12    1    3    3    0    0  0.32483163134E+02  0.25229186248E+01 -0.12416464582E+02  0.34866740574E+02  0.00000000000E+00 0.  1.
</event>
<event>
 7    1  0.2811980E-010  0.4778727E+02  0.7816164E-02  0.1312668E+00
        -11   -1    0    0    0    0  0.00000000000E+00  0.00000000000E+00  0.45593999997E+02  0.45594000000E+02  0.51100000000E-03 0. -1.
         11   -1    0    0    0    0 -0.00000000000E+00 -0.00000000000E+00 -0.45593999997E+02  0.45594000000E+02  0.51100000000E-03 0.  1.
    9900012    2    1    2    0    0 -0.29124689278E+01  0.94253347175E+01  0.42264688168E+02  0.47787271023E+02  0.19999999903E+02 0.  0.
        -12    1    1    2    0    0  0.29124689278E+01 -0.94253347175E+01 -0.42264688168E+02  0.43400728977E+02  0.00000000000E+00 0.  1.
         11    1    3    3    0    0  0.42257853448E+01  0.44719533167E+01  0.16335321523E+02  0.17455611068E+02  0.51100000000E-03 0. -1.
        -11    1    3    3    0    0 -0.94045428259E+01  0.51399355501E+01  0.25930107979E+02  0.28057705952E+02  0.51100000000E-03 0.  1.
        -12    1    3    3    0    0  0.22662885533E+01 -0.18655414933E+00 -0.74133425627E-03  0.22739540028E+01  0.00000000000E+00 0.  1.
</event>
<event>
 7    1  0.2811980E-010  0.4778728E+02  0.7816164E-02  0.1312668E+00
        -11   -1    0    0    0    0  0.00000000000E+00  0.00000000000E+00  0.45593999997E+02  0.45594000000E+02  0.51100000000E-03 0.  1.
         11   -1    0    0    0    0 -0.00000000000E+00 -0.00000000000E+00 -0.45593999997E+02  0.45594000000E+02  0.51100000000E-03 0. -1.
    9900012    2    1    2    0    0 -0.75707791562E+01 -0.23269512171E+02 -0.35844608552E+02  0.47787275859E+02  0.20000021953E+02 0.  0.
        -12    1    1    2    0    0  0.75707791562E+01  0.23269512171E+02  0.35844608552E+02  0.43400724141E+02  0.00000000000E+00 0.  1.
         11    1    3    3    0    0 -0.90284780972E+01 -0.17691824011E+02 -0.14548910834E+02  0.24620821682E+02  0.51100000000E-03 0. -1.
        -11    1    3    3    0    0  0.39049446007E+01 -0.12752787309E+01 -0.11020365291E+02  0.11761096020E+02  0.51100000000E-03 0.  1.
        -12    1    3    3    0    0 -0.24472456597E+01 -0.43024094291E+01 -0.10275332427E+02  0.11405358158E+02  0.00000000000E+00 0.  1.
</event>
<event>
 7    1  0.2811980E-010  0.4778728E+02  0.7816164E-02  0.1312668E+00
        -11   -1    0    0    0    0  0.00000000000E+00  0.00000000000E+00  0.45593999997E+02  0.45594000000E+02  0.51100000000E-03 0. -1.
         11   -1    0    0    0    0 -0.00000000000E+00 -0.00000000000E+00 -0.45593999997E+02  0.45594000000E+02  0.51100000000E-03 0.  1.
    9900012    2    1    2    0    0  0.12493261929E+02 -0.33283991402E+02  0.24894116914E+02  0.47787277262E+02  0.20000028349E+02 0.  0.
        -12    1    1    2    0    0 -0.12493261929E+02  0.33283991402E+02 -0.24894116914E+02  0.43400722738E+02  0.00000000000E+00 0.  1.
         11    1    3    3    0    0  0.60568891188E+01 -0.12488367413E+02  0.17614397293E+02  0.22425704419E+02  0.51100000000E-03 0. -1.
        -11    1    3    3    0    0 -0.26832103780E+01 -0.72501440632E+01  0.72089046688E+00  0.77642701006E+01  0.51100000000E-03 0.  1.
        -12    1    3    3    0    0  0.91195831881E+01 -0.13545479925E+02  0.65588291539E+01  0.17597302742E+02  0.00000000000E+00 0.  1.
</event>
<event>
 7    1  0.2811980E-010  0.4778727E+02  0.7816164E-02  0.1312668E+00
        -11   -1    0    0    0    0  0.00000000000E+00  0.00000000000E+00  0.45593999997E+02  0.45594000000E+02  0.51100000000E-03 0.  1.
         11   -1    0    0    0    0 -0.00000000000E+00 -0.00000000000E+00 -0.45593999997E+02  0.45594000000E+02  0.51100000000E-03 0. -1.
    9900012    2    1    2    0    0 -0.30708926836E+02 -0.11793945893E+02 -0.28310558531E+02  0.47787273376E+02  0.20000010629E+02 0.  0.
        -12    1    1    2    0    0  0.30708926836E+02  0.11793945893E+02  0.28310558531E+02  0.43400726624E+02  0.00000000000E+00 0.  1.
         11    1    3    3    0    0 -0.13775789795E+01 -0.36807303168E+01 -0.75863302981E+01  0.85438812704E+01  0.51100000000E-03 0. -1.
        -11    1    3    3    0    0 -0.21973140987E+02 -0.23939339184E+01 -0.80756077641E+01  0.23532218031E+02  0.51100000000E-03 0.  1.
        -12    1    3    3    0    0 -0.73582068703E+01 -0.57192816574E+01 -0.12648620469E+02  0.15711174074E+02  0.00000000000E+00 0.  1.
</event>
<event>
 7    1  0.2811980E-010  0.4778727E+02  0.7816164E-02  0.1312668E+00
        -11   -1    0    0    0    0  0.00000000000E+00  0.00000000000E+00  0.45593999997E+02  0.45594000000E+02  0.51100000000E-03 0. -1.
         11   -1    0    0    0    0 -0.00000000000E+00 -0.00000000000E+00 -0.45593999997E+02  0.45594000000E+02  0.51100000000E-03 0.  1.
    9900012    2    1    2    0    0  0.21887854724E+02 -0.36577127907E+02 -0.81644857093E+01  0.47787270775E+02  0.19999998773E+02 0.  0.
        -12    1    1    2    0    0 -0.21887854724E+02  0.36577127907E+02  0.81644857093E+01  0.43400729225E+02  0.00000000000E+00 0.  1.
         11    1    3    3    0    0  0.26469073046E+01  0.14542769957E+01  0.17920355399E+01  0.35117561842E+01  0.51100000000E-03 0. -1.
        -11    1    3    3    0    0  0.69455188151E+00 -0.51338044922E+01  0.14473591812E+00  0.51825958388E+01  0.51100000000E-03 0.  1.
         12    1    3    3    0    0  0.18546395538E+02 -0.32897600410E+02 -0.10101257167E+02  0.39092918752E+02  0.00000000000E+00 0. -1.
</event>
<event>
 7    1  0.2811980E-010  0.4778727E+02  0.7816164E-02  0.1312668E+00
        -11   -1    0    0    0    0  0.00000000000E+00  0.00000000000E+00  0.45593999997E+02  0.45594000000E+02  0.51100000000E-03 0.  1.
         11   -1    0    0    0    0 -0.00000000000E+00 -0.00000000000E+00 -0.45593999997E+02  0.45594000000E+02  0.51100000000E-03 0. -1.
    9900012    2    1    2    0    0  0.42159154371E+02 -0.60534299382E+01 -0.83417627553E+01  0.47787270546E+02  0.19999997728E+02 0.  0.
        -12    1    1    2    0    0 -0.42159154371E+02  0.60534299382E+01  0.83417627553E+01  0.43400729454E+02  0.00000000000E+00 0.  1.
         11    1    3    3    0    0  0.11094320313E+02 -0.44647821045E+01  0.52284107377E+01  0.13051992244E+02  0.51100000000E-03 0. -1.
        -11    1    3    3    0    0  0.26988876833E+02  0.88455641789E+00 -0.12880484306E+02  0.29918034511E+02  0.51100000000E-03 0.  1.
        -12    1    3    3    0    0  0.40759572248E+01 -0.24732042515E+01 -0.68968918716E+00  0.48172437911E+01  0.00000000000E+00 0.  1.
</event>
<event>
 7    1  0.2811980E-010  0.4778726E+02  0.7816164E-02  0.1312668E+00
        -11   -1    0    0    0    0  0.00000000000E+00  0.00000000000E+00  0.45593999997E+02  0.45594000000E+02  0.51100000000E-03 0. -1.
         11   -1    0    0    0    0 -0.00000000000E+00 -0.00000000000E+00 -0.45593999997E+02  0.45594000000E+02  0.51100000000E-03 0.  1.
    9900012    2    1    2    0    0  0.80191117147E+01 -0.32070970182E+01  0.42532723903E+02  0.47787260069E+02  0.19999949957E+02 0.  0.
        -12    1    1    2    0    0 -0.80191117147E+01  0.32070970182E+01 -0.42532723903E+02  0.43400739931E+02  0.00000000000E+00 0.  1.
         11    1    3    3    0    0  0.39370690173E+01 -0.98061749468E+01  0.31014385279E+02  0.32765128934E+02  0.51100000000E-03 0. -1.
        -11    1    3    3    0    0 -0.13160748267E+01  0.42182758105E+00  0.22894028839E+01  0.26742021770E+01  0.51100000000E-03 0.  1.
         12    1    3    3    0    0  0.53981175241E+01  0.61772503475E+01  0.92289357399E+01  0.12347928958E+02  0.00000000000E+00 0. -1.
</event>
<event>
 7    1  0.2811980E-010  0.4778727E+02  0.7816164E-02  0.1312668E+00
        -11   -1    0    0    0    0  0.00000000000E+00  0.00000000000E+00  0.45593999997E+02  0.45594000000E+02  0.51100000000E-03 0.  1.
         11   -1    0    0    0    0 -0.00000000000E+00 -0.00000000000E+00 -0.45593999997E+02  0.45594000000E+02  0.51100000000E-03 0. -1.
    9900012    2    1    2    0    0  0.29655616415E+02  0.63542074977E+01 -0.31044995866E+02  0.47787270672E+02  0.19999998304E+02 0.  0.
        -12    1    1    2    0    0 -0.29655616415E+02 -0.63542074977E+01  0.31044995866E+02  0.43400729328E+02  0.00000000000E+00 0.  1.
         11    1    3    3    0    0  0.14255851532E+02  0.10915603523E+02 -0.17212296309E+02  0.24872531992E+02  0.51100000000E-03 0. -1.
        -11    1    3    3    0    0  0.44564824941E+01  0.22030015657E+01 -0.17643273252E+01  0.52750642926E+01  0.51100000000E-03 0.  1.
         12    1    3    3    0    0  0.10943282388E+02 -0.67643975913E+01 -0.12068372232E+02  0.17639674388E+02  0.00000000000E+00 0. -1.
</event>
<event>
 7    1  0.2811980E-010  0.4778727E+02  0.7816164E-02  0.1312668E+00
        -11   -1    0    0    0    0  0.00000000000E+00  0.00000000000E+00  0.45593999997E+02  0.45594000000E+02  0.51100000000E-03 0.  1.
         11   -1    0    0    0    0 -0.00000000000E+00 -0.00000000000E+00 -0.45593999997E+02  0.45594000000E+02  0.51100000000E-03 0. -1.
    9900012    2    1    2    0    0  0.10860149893E+02  0.35963843157E+02 -0.21732061719E+02  0.47787269857E+02  0.19999994587E+02 0.  0.
        -12    1    1    2    0    0 -0.10860149893E+02 -0.35963843157E+02  0.21732061719E+02  0.43400730143E+02  0.00000000000E+00 0.  1.
         11    1    3    3    0    0  0.11173769303E+02  0.19807396632E+02 -0.87068144657E+01  0.24351482505E+02  0.51100000000E-03 0. -1.
        -11    1    3    3    0    0 -0.46488666924E+01  0.34806876730E+01 -0.21932317712E+01  0.62078510021E+01  0.51100000000E-03 0.  1.
        -12    1    3    3    0    0  0.43352472820E+01  0.12675758852E+02 -0.10832015483E+02  0.17227936350E+02  0.00000000000E+00 0.  1.
</event>
<event>
 7    1  0.2811980E-010  0.4778727E+02  0.7816164E-02  0.1312668E+00
        -11   -1    0    0    0    0  0.00000000000E+00  0.00000000000E+00  0.45593999997E+02  0.45594000000E+02  0.51100000000E-03 0.  1.
         11   -1    0    0    0    0 -0.00000000000E+00 -0.00000000000E+00 -0.45593999997E+02  0.45594000000E+02  0.51100000000E-03 0. -1.
    9900012    2    1    2    0    0 -0.28272967044E+02  0.15882465615E+01 -0.32889814908E+02  0.47787272849E+02  0.20000008227E+02 0.  0.
        -12    1    1    2    0    0  0.28272967044E+02 -0.15882465615E+01  0.32889814908E+02  0.43400727151E+02  0.00000000000E+00 0.  1.
         11    1    3    3    0    0 -0.17427050080E+02 -0.80245398890E+01 -0.18219057765E+02  0.26458068354E+02  0.51100000000E-03 0. -1.
        -11    1    3    3    0    0 -0.52121565165E+01  0.11853489200E+01 -0.50816131296E+01  0.73752572751E+01  0.51100000000E-03 0.  1.
         12    1    3    3    0    0 -0.56337604466E+01  0.84274375304E+01 -0.95891440132E+01  0.13953947220E+02  0.00000000000E+00 0. -1.
</event>
<event>
 7    1  0.2811980E-010  0.4778727E+02  0.7816164E-02  0.1312668E+00
        -11   -1    0    0    0    0  0.00000000000E+00  0.00000000000E+00  0.45593999997E+02  0.45594000000E+02  0.51100000000E-03 0.  1.
         11   -1    0    0    0    0 -0.00000000000E+00 -0.00000000000E+00 -0.45593999997E+02  0.45594000000E+02  0.51100000000E-03 0. -1.
    9900012    2    1    2    0    0  0.96414350640E+01 -0.10019317684E+02 -0.41113009094E+02  0.47787268281E+02  0.19999987402E+02 0.  0.
        -12    1    1    2    0    0 -0.96414350640E+01  0.10019317684E+02  0.41113009094E+02  0.43400731719E+02  0.00000000000E+00 0.  1.
         11    1    3    3    0    0  0.60184122732E+01 -0.15569561659E+02 -0.24046825002E+02  0.29272552494E+02  0.51100000000E-03 0. -1.
        -11    1    3    3    0    0  0.31165869309E+01  0.39808099588E+01 -0.15227453794E+02  0.16044790785E+02  0.51100000000E-03 0.  1.
         12    1    3    3    0    0  0.50643585999E+00  0.15694340161E+01 -0.18387302974E+01  0.24699250025E+01  0.00000000000E+00 0. -1.
</event>
<event>
 7    1  0.2811980E-010  0.4778727E+02  0.7816164E-02  0.1312668E+00
        -11   -1    0    0    0    0  0.00000000000E+00  0.00000000000E+00  0.45593999997E+02  0.45594000000E+02  0.51100000000E-03 0. -1.
         11   -1    0    0    0    0 -0.00000000000E+00 -0.00000000000E+00 -0.45593999997E+02  0.45594000000E+02  0.51100000000E-03 0.  1.
    9900012    2    1    2    0    0 -0.27374135855E+00  0.22673648391E+01  0.43340598035E+02  0.47787270562E+02  0.19999997803E+02 0.  0.
        -12    1    1    2    0    0  0.27374135855E+00 -0.22673648391E+01 -0.43340598035E+02  0.43400729438E+02  0.00000000000E+00 0.  1.
         11    1    3    3    0    0  0.31707078278E+01  0.25803585857E+01  0.44817224381E+01  0.60660922210E+01  0.51100000000E-03 0. -1.
        -11    1    3    3    0    0 -0.49571212737E+01  0.50823468610E+01  0.32407852165E+02  0.33176379898E+02  0.51100000000E-03 0.  1.
        -12    1    3    3    0    0  0.15126720874E+01 -0.53953406076E+01  0.64510234327E+01  0.85447984438E+01  0.00000000000E+00 0.  1.
</event>
<event>
 7    1  0.2811980E-010  0.4778727E+02  0.7816164E-02  0.1312668E+00
        -11   -1    0    0    0    0  0.00000000000E+00  0.00000000000E+00  0.45593999997E+02  0.45594000000E+02  0.51100000000E-03 0.  1.
         11   -1    0    0    0    0 -0.00000000000E+00 -0.00000000000E+00 -0.45593999997E+02  0.45594000000E+02  0.51100000000E-03 0. -1.
    9900012    2    1    2    0    0  0.23384640463E+02  0.24903994887E+02  0.26768881847E+02  0.47787269519E+02  0.19999993046E+02 0.  0.
        -12    1    1    2    0    0 -0.23384640463E+02 -0.24903994887E+02 -0.26768881847E+02  0.43400730481E+02  0.00000000000E+00 0.  1.
         11    1    3    3    0    0  0.45837204296E+01  0.16714129724E+02  0.10966773077E+02  0.20509576724E+02  0.51100000000E-03 0. -1.
        -11    1    3    3    0    0  0.87137872764E+01  0.15223911466E+01  0.22739729966E+01  0.91333847479E+01  0.51100000000E-03 0.  1.
        -12    1    3    3    0    0  0.10087132757E+02  0.66674740163E+01  0.13528135774E+02  0.18144308048E+02  0.00000000000E+00 0.  1.
</event>
<event>
 7    1  0.2811980E-010  0.4778727E+02  0.7816164E-02  0.1312668E+00
        -11   -1    0    0    0    0  0.00000000000E+00  0.00000000000E+00  0.45593999997E+02  0.45594000000E+02  0.51100000000E-03 0.  1.
         11   -1    0    0    0    0 -0.00000000000E+00 -0.00000000000E+00 -0.45593999997E+02  0.45594000000E+02  0.51100000000E-03 0. -1.
    9900012    2    1    2    0    0 -0.25566169284E+02  0.10788374335E+02 -0.33370725878E+02  0.47787269842E+02  0.19999994518E+02 0.  0.
        -12    1    1    2    0    0  0.25566169284E+02 -0.10788374335E+02  0.33370725878E+02  0.43400730158E+02  0.00000000000E+00 0.  1.
         11    1    3    3    0    0 -0.12971499769E+02  0.13424949687E+02 -0.25443219164E+02  0.31557035381E+02  0.51100000000E-03 0. -1.
        -11    1    3    3    0    0 -0.73380350931E+01  0.18087607925E+00 -0.15569023247E+01  0.75035605078E+01  0.51100000000E-03 0.  1.
         12    1    3    3    0    0 -0.52566344218E+01 -0.28174514307E+01 -0.63706043891E+01  0.87266739535E+01  0.00000000000E+00 0. -1.
</event>
<event>
 7    1  0.2811980E-010  0.4778723E+02  0.7816164E-02  0.1312668E+00
        -11   -1    0    0    0    0  0.00000000000E+00  0.00000000000E+00  0.45593999997E+02  0.45594000000E+02  0.51100000000E-03 0.  1.
         11   -1    0    0    0    0 -0.00000000000E+00 -0.00000000000E+00 -0.45593999997E+02  0.45594000000E+02  0.51100000000E-03 0. -1.
    9900012    2    1    2    0    0 -0.48526722515E+00 -0.40975688998E+02  0.14296292613E+02  0.47787233237E+02  0.19999827620E+02 0.  0.
        -12    1    1    2    0    0  0.48526722515E+00  0.40975688998E+02 -0.14296292613E+02  0.43400766763E+02  0.00000000000E+00 0.  1.
         11    1    3    3    0    0 -0.41387065793E+00 -0.31027334319E+02  0.44018036662E+01  0.31340750464E+02  0.51100000000E-03 0. -1.
        -11    1    3    3    0    0 -0.26698690040E+01 -0.70777712990E+01  0.22744471412E+01  0.78991238197E+01  0.51100000000E-03 0.  1.
         12    1    3    3    0    0  0.25984724368E+01 -0.28705833794E+01  0.76200418060E+01  0.85473589528E+01  0.00000000000E+00 0. -1.
</event>
<event>
 7    1  0.2811980E-010  0.4778727E+02  0.7816164E-02  0.1312668E+00
        -11   -1    0    0    0    0  0.00000000000E+00  0.00000000000E+00  0.45593999997E+02  0.45594000000E+02  0.51100000000E-03 0. -1.
         11   -1    0    0    0    0 -0.00000000000E+00 -0.00000000000E+00 -0.45593999997E+02  0.45594000000E+02  0.51100000000E-03 0.  1.
    9900012    2    1    2    0    0 -0.18605313355E+02  0.34361558993E+02  0.18887798442E+02  0.47787270150E+02  0.19999995924E+02 0.  0.
        -12    1    1    2    0    0  0.18605313355E+02 -0.34361558993E+02 -0.18887798442E+02  0.43400729850E+02  0.00000000000E+00 0.  1.
         11    1    3    3    0    0 -0.10330118448E+02  0.18408110714E+02  0.11888227675E+02  0.24226015865E+02  0.51100000000E-03 0. -1.
        -11    1    3    3    0    0 -0.74334164718E+01  0.26107903559E+01 -0.10616365257E+01  0.79497785566E+01  0.51100000000E-03 0.  1.
        -12    1    3    3    0    0 -0.84177843561E+00  0.13342657923E+02  0.80612072930E+01  0.15611475728E+02  0.00000000000E+00 0.  1.
</event>
<event>
 7    1  0.2811980E-010  0.4778727E+02  0.7816164E-02  0.1312668E+00
        -11   -1    0    0    0    0  0.00000000000E+00  0.00000000000E+00  0.45593999997E+02  0.45594000000E+02  0.51100000000E-03 0. -1.
         11   -1    0    0    0    0 -0.00000000000E+00 -0.00000000000E+00 -0.45593999997E+02  0.45594000000E+02  0.51100000000E-03 0.  1.
    9900012    2    1    2    0    0 -0.23386754753E+02 -0.13140290886E+02  0.34117677602E+02  0.47787268815E+02  0.19999989833E+02 0.  0.
        -12    1    1    2    0    0  0.23386754753E+02  0.13140290886E+02 -0.34117677602E+02  0.43400731185E+02  0.00000000000E+00 0.  1.
         11    1    3    3    0    0 -0.61028325942E+01 -0.56779112317E+01  0.20690544428E+02  0.22306543224E+02  0.51100000000E-03 0. -1.
        -11    1    3    3    0    0 -0.18757080521E+02 -0.69790472174E+01  0.11799358358E+02  0.23232736121E+02  0.51100000000E-03 0.  1.
        -12    1    3    3    0    0  0.14731583618E+01 -0.48333243708E+00  0.16277748165E+01  0.22479894699E+01  0.00000000000E+00 0.  1.
</event>
<event>
 7    1  0.2811980E-010  0.4778727E+02  0.7816164E-02  0.1312668E+00
        -11   -1    0    0    0    0  0.00000000000E+00  0.00000000000E+00  0.45593999997E+02  0.45594000000E+02  0.51100000000E-03 0.  1.
         11   -1    0    0    0    0 -0.00000000000E+00 -0.00000000000E+00 -0.45593999997E+02  0.45594000000E+02  0.51100000000E-03 0. -1.
    9900012    2    1    2    0    0 -0.28585263239E+02  0.31975778147E+02 -0.66374582795E+01  0.47787268267E+02  0.19999987337E+02 0.  0.
        -12    1    1    2    0    0  0.28585263239E+02 -0.31975778147E+02  0.66374582795E+01  0.43400731733E+02  0.00000000000E+00 0.  1.
         11    1    3    3    0    0 -0.26126259830E+02  0.17730380735E+02 -0.69113288586E+01  0.32322040786E+02  0.51100000000E-03 0. -1.
        -11    1    3    3    0    0  0.16366025589E+01  0.25520266884E+01 -0.39485787112E+00  0.30573225466E+01  0.51100000000E-03 0.  1.
         12    1    3    3    0    0 -0.40956059678E+01  0.11693370724E+02  0.66872845026E+00  0.12407904935E+02  0.00000000000E+00 0. -1.
</event>
<event>
 7    1  0.2811980E-010  0.4778727E+02  0.7816164E-02  0.1312668E+00
        -11   -1    0    0    0    0  0.00000000000E+00  0.00000000000E+00  0.45593999997E+02  0.45594000000E+02  0.51100000000E-03 0.  1.
         11   -1    0    0    0    0 -0.00000000000E+00 -0.00000000000E+00 -0.45593999997E+02  0.45594000000E+02  0.51100000000E-03 0. -1.
    9900012    2    1    2    0    0 -0.18647811805E+02 -0.22163625176E+02 -0.32321140946E+02  0.47787270535E+02  0.19999997677E+02 0.  0.
        -12    1    1    2    0    0  0.18647811805E+02  0.22163625176E+02  0.32321140946E+02  0.43400729465E+02  0.00000000000E+00 0.  1.
         11    1    3    3    0    0 -0.34427636349E+01 -0.12955165328E+02 -0.16233821474E+02  0.21052930675E+02  0.51100000000E-03 0. -1.
        -11    1    3    3    0    0 -0.15701877457E+02 -0.69933909481E+01 -0.92283356182E+01  0.19509450304E+02  0.51100000000E-03 0.  1.
         12    1    3    3    0    0  0.49682928733E+00 -0.22150688997E+01 -0.68589838542E+01  0.72248895551E+01  0.00000000000E+00 0. -1.
</event>
<event>
 7    1  0.2811980E-010  0.4778727E+02  0.7816164E-02  0.1312668E+00
        -11   -1    0    0    0    0  0.00000000000E+00  0.00000000000E+00  0.45593999997E+02  0.45594000000E+02  0.51100000000E-03 0.  1.
         11   -1    0    0    0    0 -0.00000000000E+00 -0.00000000000E+00 -0.45593999997E+02  0.45594000000E+02  0.51100000000E-03 0. -1.
    9900012    2    1    2    0    0 -0.15715621447E+02 -0.25227110350E+02 -0.31626505011E+02  0.47787266443E+02  0.19999979020E+02 0.  0.
        -12    1    1    2    0    0  0.15715621447E+02  0.25227110350E+02  0.31626505011E+02  0.43400733557E+02  0.00000000000E+00 0.  1.
         11    1    3    3    0    0 -0.11308779752E+02 -0.16840166811E+02 -0.17842839468E+02  0.27015673936E+02  0.51100000000E-03 0. -1.
        -11    1    3    3    0    0 -0.51358291627E+01  0.17103560471E+01 -0.46228943480E+01  0.71185118818E+01  0.51100000000E-03 0.  1.
        -12    1    3    3    0    0  0.72898746735E+00 -0.10097299586E+02 -0.91607711951E+01  0.13653080625E+02  0.00000000000E+00 0.  1.
</event>
<event>
 7    1  0.2811980E-010  0.4778729E+02  0.7816164E-02  0.1312668E+00
        -11   -1    0    0    0    0  0.00000000000E+00  0.00000000000E+00  0.45593999997E+02  0.45594000000E+02  0.51100000000E-03 0.  1.
         11   -1    0    0    0    0 -0.00000000000E+00 -0.00000000000E+00 -0.45593999997E+02  0.45594000000E+02  0.51100000000E-03 0. -1.
    9900012    2    1    2    0    0 -0.12845573478E+02  0.77521122051E+01 -0.40724900212E+02  0.47787291493E+02  0.20000093234E+02 0.  0.
        -12    1    1    2    0    0  0.12845573478E+02 -0.77521122051E+01  0.40724900212E+02  0.43400708507E+02  0.00000000000E+00 0.  1.
         11    1    3    3    0    0 -0.11597235508E+02  0.74169540958E+01 -0.19955120310E+02  0.24242811436E+02  0.51100000000E-03 0. -1.
        -11    1    3    3    0    0  0.47510252839E+01 -0.20397118163E+00 -0.11975262532E+02  0.12884904287E+02  0.51100000000E-03 0.  1.
         12    1    3    3    0    0 -0.59993632544E+01  0.53912929088E+00 -0.87945173695E+01  0.10659575771E+02  0.00000000000E+00 0. -1.
</event>
<event>
 7    1  0.2811980E-010  0.4778727E+02  0.7816164E-02  0.1312668E+00
        -11   -1    0    0    0    0  0.00000000000E+00  0.00000000000E+00  0.45593999997E+02  0.45594000000E+02  0.51100000000E-03 0. -1.
         11   -1    0    0    0    0 -0.00000000000E+00 -0.00000000000E+00 -0.45593999997E+02  0.45594000000E+02  0.51100000000E-03 0.  1.
    9900012    2    1    2    0    0  0.12488272569E+02  0.39092239222E+02  0.14123143379E+02  0.47787270766E+02  0.19999998730E+02 0.  0.
        -12    1    1    2    0    0 -0.12488272569E+02 -0.39092239222E+02 -0.14123143379E+02  0.43400729234E+02  0.00000000000E+00 0.  1.
         11    1    3    3    0    0  0.13274231158E+02  0.30068200325E+02  0.95538665383E+01  0.34228325254E+02  0.51100000000E-03 0. -1.
        -11    1    3    3    0    0 -0.19198006569E-01 -0.10207950437E+01  0.32406221056E+01  0.33976496254E+01  0.51100000000E-03 0.  1.
        -12    1    3    3    0    0 -0.76676058214E+00  0.10044833940E+02  0.13286547353E+01  0.10161295886E+02  0.00000000000E+00 0.  1.
</event>
<event>
 7    1  0.2811980E-010  0.4778727E+02  0.7816164E-02  0.1312668E+00
        -11   -1    0    0    0    0  0.00000000000E+00  0.00000000000E+00  0.45593999997E+02  0.45594000000E+02  0.51100000000E-03 0.  1.
         11   -1    0    0    0    0 -0.00000000000E+00 -0.00000000000E+00 -0.45593999997E+02  0.45594000000E+02  0.51100000000E-03 0. -1.
    9900012    2    1    2    0    0  0.42679811992E+02  0.45197572420E+01 -0.64520356782E+01  0.47787270495E+02  0.19999997495E+02 0.  0.
        -12    1    1    2    0    0 -0.42679811992E+02 -0.45197572420E+01  0.64520356782E+01  0.43400729505E+02  0.00000000000E+00 0.  1.
         11    1    3    3    0    0  0.88809680457E+01 -0.43460774301E+01 -0.63728033643E+01  0.11763188574E+02  0.51100000000E-03 0. -1.
        -11    1    3    3    0    0  0.23372910862E+02  0.18928343371E+01  0.66869863489E+00  0.23458962938E+02  0.51100000000E-03 0.  1.
         12    1    3    3    0    0  0.10425933084E+02  0.69730003351E+01 -0.74793094878E+00  0.12565118983E+02  0.00000000000E+00 0. -1.
</event>
<event>
 7    1  0.2811980E-010  0.4778727E+02  0.7816164E-02  0.1312668E+00
        -11   -1    0    0    0    0  0.00000000000E+00  0.00000000000E+00  0.45593999997E+02  0.45594000000E+02  0.51100000000E-03 0.  1.
         11   -1    0    0    0    0 -0.00000000000E+00 -0.00000000000E+00 -0.45593999997E+02  0.45594000000E+02  0.51100000000E-03 0. -1.
    9900012    2    1    2    0    0  0.37029750498E+02  0.19837956314E+02 -0.10903048460E+02  0.47787269610E+02  0.19999993458E+02 0.  0.
        -12    1    1    2    0    0 -0.37029750498E+02 -0.19837956314E+02  0.10903048460E+02  0.43400730390E+02  0.00000000000E+00 0.  1.
         11    1    3    3    0    0  0.70553161268E+01  0.78126659908E+01 -0.10953480415E+02  0.15191904719E+02  0.51100000000E-03 0. -1.
        -11    1    3    3    0    0  0.27680852619E+02  0.12288466100E+02 -0.11369970656E-01  0.30285906464E+02  0.51100000000E-03 0.  1.
         12    1    3    3    0    0  0.22935817521E+01 -0.26317577631E+00  0.61801925602E-01  0.23094584258E+01  0.00000000000E+00 0. -1.
</event>
<event>
 7    1  0.2811980E-010  0.4778727E+02  0.7816164E-02  0.1312668E+00
        -11   -1    0    0    0    0  0.00000000000E+00  0.00000000000E+00  0.45593999997E+02  0.45594000000E+02  0.51100000000E-03 0. -1.
         11   -1    0    0    0    0 -0.00000000000E+00 -0.00000000000E+00 -0.45593999997E+02  0.45594000000E+02  0.51100000000E-03 0.  1.
    9900012    2    1    2    0    0 -0.91061489170E+01 -0.14198413214E+02  0.39988831009E+02  0.47787268539E+02  0.19999988576E+02 0.  0.
        -12    1    1    2    0    0  0.91061489170E+01  0.14198413214E+02 -0.39988831009E+02  0.43400731461E+02  0.00000000000E+00 0.  1.
         11    1    3    3    0    0 -0.13620158863E+01 -0.16582879774E+02  0.24140827132E+02  0.29319388189E+02  0.51100000000E-03 0. -1.
        -11    1    3    3    0    0 -0.27911827041E+01  0.30018878376E+01  0.98232161966E+01  0.10644134919E+02  0.51100000000E-03 0.  1.
        -12    1    3    3    0    0 -0.49529503265E+01 -0.61742127709E+00  0.60247876804E+01  0.78237454307E+01  0.00000000000E+00 0.  1.
</event>
<event>
 7    1  0.2811980E-010  0.4778727E+02  0.7816164E-02  0.1312668E+00
        -11   -1    0    0    0    0  0.00000000000E+00  0.00000000000E+00  0.45593999997E+02  0.45594000000E+02  0.51100000000E-03 0.  1.
         11   -1    0    0    0    0 -0.00000000000E+00 -0.00000000000E+00 -0.45593999997E+02  0.45594000000E+02  0.51100000000E-03 0. -1.
    9900012    2    1    2    0    0  0.22497367907E+02  0.18214618944E+02 -0.32337585385E+02  0.47787270345E+02  0.19999996813E+02 0.  0.
        -12    1    1    2    0    0 -0.22497367907E+02 -0.18214618944E+02  0.32337585385E+02  0.43400729655E+02  0.00000000000E+00 0.  1.
         11    1    3    3    0    0  0.86034161988E+01  0.88042868047E+01 -0.16154660946E+02  0.20310275896E+02  0.51100000000E-03 0. -1.
        -11    1    3    3    0    0  0.95598673683E+00 -0.24270650043E+01 -0.74364116345E+01  0.78806581854E+01  0.51100000000E-03 0.  1.
        -12    1    3    3    0    0  0.12937964971E+02  0.11837397143E+02 -0.87465128044E+01  0.19596336264E+02  0.00000000000E+00 0.  1.
</event>
<event>
 7    1  0.2811980E-010  0.4778727E+02  0.7816164E-02  0.1312668E+00
        -11   -1    0    0    0    0  0.00000000000E+00  0.00000000000E+00  0.45593999997E+02  0.45594000000E+02  0.51100000000E-03 0.  1.
         11   -1    0    0    0    0 -0.00000000000E+00 -0.00000000000E+00 -0.45593999997E+02  0.45594000000E+02  0.51100000000E-03 0. -1.
    9900012    2    1    2    0    0  0.17090226523E+02  0.11404665639E+02 -0.38229322128E+02  0.47787270613E+02  0.19999998033E+02 0.  0.
        -12    1    1    2    0    0 -0.17090226523E+02 -0.11404665639E+02  0.38229322128E+02  0.43400729387E+02  0.00000000000E+00 0.  1.
         11    1    3    3    0    0 -0.84150128081E+00  0.15669887449E+00 -0.41272104073E+01  0.42150379536E+01  0.51100000000E-03 0. -1.
        -11    1    3    3    0    0 -0.18877497577E+01  0.11257461389E+01  0.66154199794E+00  0.22953303887E+01  0.51100000000E-03 0.  1.
        -12    1    3    3    0    0  0.19819477562E+02  0.10122220626E+02 -0.34763653718E+02  0.41276902271E+02  0.00000000000E+00 0.  1.
</event>
<event>
 7    1  0.2811980E-010  0.4778727E+02  0.7816164E-02  0.1312668E+00
        -11   -1    0    0    0    0  0.00000000000E+00  0.00000000000E+00  0.45593999997E+02  0.45594000000E+02  0.51100000000E-03 0.  1.
         11   -1    0    0    0    0 -0.00000000000E+00 -0.00000000000E+00 -0.45593999997E+02  0.45594000000E+02  0.51100000000E-03 0. -1.
    9900012    2    1    2    0    0  0.28152316425E+02  0.32986690027E+02 -0.17170767312E+01  0.47787274297E+02  0.20000014830E+02 0.  0.
        -12    1    1    2    0    0 -0.28152316425E+02 -0.32986690027E+02  0.17170767312E+01  0.43400725703E+02  0.00000000000E+00 0.  1.
         11    1    3    3    0    0  0.18210459133E+02  0.84843821484E+01 -0.58046787489E+01  0.20911715805E+02  0.51100000000E-03 0. -1.
        -11    1    3    3    0    0  0.95345546714E+01  0.21626262255E+02  0.32850768582E+01  0.23861992417E+02  0.51100000000E-03 0.  1.
         12    1    3    3    0    0  0.40730262083E+00  0.28760456236E+01  0.80252515951E+00  0.30135660746E+01  0.00000000000E+00 0. -1.
</event>
<event>
 7    1  0.2811980E-010  0.4778729E+02  0.7816164E-02  0.1312668E+00
        -11   -1    0    0    0    0  0.00000000000E+00  0.00000000000E+00  0.45593999997E+02  0.45594000000E+02  0.51100000000E-03 0.  1.
         11   -1    0    0    0    0 -0.00000000000E+00 -0.00000000000E+00 -0.45593999997E+02  0.45594000000E+02  0.51100000000E-03 0. -1.
    9900012    2    1    2    0    0 -0.15972431238E+02  0.17347865889E+02 -0.36435619399E+02  0.47787292960E+02  0.20000099922E+02 0.  0.
        -12    1    1    2    0    0  0.15972431238E+02 -0.17347865889E+02  0.36435619399E+02  0.43400707040E+02  0.00000000000E+00 0.  1.
         11    1    3    3    0    0 -0.69625031069E+01  0.79814155713E+00 -0.23625784799E+02  0.24643278741E+02  0.51100000000E-03 0. -1.
        -11    1    3    3    0    0 -0.22654931320E+01  0.77589718360E+01 -0.41797811349E+01  0.90997073403E+01  0.51100000000E-03 0.  1.
         12    1    3    3    0    0 -0.67444349990E+01  0.87907524958E+01 -0.86300534649E+01  0.14044306879E+02  0.00000000000E+00 0. -1.
</event>
<event>
 7    1  0.2811980E-010  0.4778727E+02  0.7816164E-02  0.1312668E+00
        -11   -1    0    0    0    0  0.00000000000E+00  0.00000000000E+00  0.45593999997E+02  0.45594000000E+02  0.51100000000E-03 0. -1.
         11   -1    0    0    0    0 -0.00000000000E+00 -0.00000000000E+00 -0.45593999997E+02  0.45594000000E+02  0.51100000000E-03 0.  1.
    9900012    2    1    2    0    0  0.21373058417E+02  0.34478022789E+02  0.15429897592E+02  0.47787269347E+02  0.19999992261E+02 0.  0.
        -12    1    1    2    0    0 -0.21373058417E+02 -0.34478022789E+02 -0.15429897592E+02  0.43400730653E+02  0.00000000000E+00 0.  1.
         11    1    3    3    0    0  0.19007048072E+02  0.35531475512E+02  0.12106759206E+02  0.42075256948E+02  0.51100000000E-03 0. -1.
        -11    1    3    3    0    0 -0.43498299745E+00 -0.14222436274E+01  0.22348106842E+01  0.26844675821E+01  0.51100000000E-03 0.  1.
         12    1    3    3    0    0  0.28009933423E+01  0.36879090407E+00  0.10883277014E+01  0.30275448172E+01  0.00000000000E+00 0. -1.
</event>
<event>
 7    1  0.2811980E-010  0.4778727E+02  0.7816164E-02  0.1312668E+00
        -11   -1    0    0    0    0  0.00000000000E+00  0.00000000000E+00  0.45593999997E+02  0.45594000000E+02  0.51100000000E-03 0.  1.
         11   -1    0    0    0    0 -0.00000000000E+00 -0.00000000000E+00 -0.45593999997E+02  0.45594000000E+02  0.51100000000E-03 0. -1.
    9900012    2    1    2    0    0 -0.17520885119E+02  0.24392603691E+02 -0.31331175840E+02  0.47787272936E+02  0.20000008622E+02 0.  0.
        -12    1    1    2    0    0  0.17520885119E+02 -0.24392603691E+02  0.31331175840E+02  0.43400727064E+02  0.00000000000E+00 0.  1.
         11    1    3    3    0    0 -0.77247185753E+01  0.59716036113E+01 -0.11148122139E+02  0.14819310181E+02  0.51100000000E-03 0. -1.
        -11    1    3    3    0    0 -0.10390522968E+02  0.52348157554E+01 -0.45126868476E+01  0.12479206962E+02  0.51100000000E-03 0.  1.
        -12    1    3    3    0    0  0.59435642468E+00  0.13186184324E+02 -0.15670366854E+02  0.20488755793E+02  0.00000000000E+00 0.  1.
</event>
<event>
 7    1  0.2811980E-010  0.4778727E+02  0.7816164E-02  0.1312668E+00
        -11   -1    0    0    0    0  0.00000000000E+00  0.00000000000E+00  0.45593999997E+02  0.45594000000E+02  0.51100000000E-03 0. -1.
         11   -1    0    0    0    0 -0.00000000000E+00 -0.00000000000E+00 -0.45593999997E+02  0.45594000000E+02  0.51100000000E-03 0.  1.
    9900012    2    1    2    0    0  0.34255720408E+02 -0.51627435166E+01  0.26144117533E+02  0.47787272093E+02  0.20000004782E+02 0.  0.
        -12    1    1    2    0    0 -0.34255720408E+02  0.51627435166E+01 -0.26144117533E+02  0.43400727907E+02  0.00000000000E+00 0.  1.
         11    1    3    3    0    0  0.10895649330E+02 -0.38858195293E+01  0.13440880610E+02  0.17733359511E+02  0.51100000000E-03 0. -1.
        -11    1    3    3    0    0 -0.95460161906E-01 -0.27098479007E+01  0.43270720417E+01  0.51064607120E+01  0.51100000000E-03 0.  1.
        -12    1    3    3    0    0  0.23455531240E+02  0.14329239134E+01  0.83761648810E+01  0.24947451870E+02  0.00000000000E+00 0.  1.
</event>
<event>
 7    1  0.2811980E-010  0.4778727E+02  0.7816164E-02  0.1312668E+00
        -11   -1    0    0    0    0  0.00000000000E+00  0.00000000000E+00  0.45593999997E+02  0.45594000000E+02  0.51100000000E-03 0.  1.
         11   -1    0    0    0    0 -0.00000000000E+00 -0.00000000000E+00 -0.45593999997E+02  0.45594000000E+02  0.51100000000E-03 0. -1.
    9900012    2    1    2    0    0  0.42315696926E+02 -0.95789497514E+01  0.11175203874E+01  0.47787270323E+02  0.19999996710E+02 0.  0.
        -12    1    1    2    0    0 -0.42315696926E+02  0.95789497514E+01 -0.11175203874E+01  0.43400729677E+02  0.00000000000E+00 0.  1.
         11    1    3    3    0    0  0.16274648634E+02 -0.72147578086E+01  0.54858678078E+01  0.18628249093E+02  0.51100000000E-03 0. -1.
        -11    1    3    3    0    0  0.11440210997E+01 -0.56651125441E+00 -0.39953979925E+01  0.41943920486E+01  0.51100000000E-03 0.  1.
        -12    1    3    3    0    0  0.24897027192E+02 -0.17976806884E+01 -0.37294942789E+00  0.24964629181E+02  0.00000000000E+00 0.  1.
</event>
<event>
 7    1  0.2811980E-010  0.4778727E+02  0.7816164E-02  0.1312668E+00
        -11   -1    0    0    0    0  0.00000000000E+00  0.00000000000E+00  0.45593999997E+02  0.45594000000E+02  0.51100000000E-03 0.  1.
         11   -1    0    0    0    0 -0.00000000000E+00 -0.00000000000E+00 -0.45593999997E+02  0.45594000000E+02  0.51100000000E-03 0. -1.
    9900012    2    1    2    0    0  0.38287649811E+02  0.36213119899E+01 -0.20113812510E+02  0.47787268644E+02  0.19999989055E+02 0.  0.
        -12    1    1    2    0    0 -0.38287649811E+02 -0.36213119899E+01  0.20113812510E+02  0.43400731356E+02  0.00000000000E+00 0.  1.
         11    1    3    3    0    0  0.65233457353E+01 -0.40255691273E+01  0.41042121289E+00  0.76764374690E+01  0.51100000000E-03 0. -1.
        -11    1    3    3    0    0  0.16265196368E+02  0.80290619185E+01 -0.66938274420E+01  0.19334678024E+02  0.51100000000E-03 0.  1.
         12    1    3    3    0    0  0.15499107707E+02 -0.38218080131E+00 -0.13830406281E+02  0.20776153151E+02  0.00000000000E+00 0. -1.
</event>
<event>
 7    1  0.2811980E-010  0.4778726E+02  0.7816164E-02  0.1312668E+00
        -11   -1    0    0    0    0  0.00000000000E+00  0.00000000000E+00  0.45593999997E+02  0.45594000000E+02  0.51100000000E-03 0.  1.
         11   -1    0    0    0    0 -0.00000000000E+00 -0.00000000000E+00 -0.45593999997E+02  0.45594000000E+02  0.51100000000E-03 0. -1.
    9900012    2    1    2    0    0  0.17602890810E+02 -0.23511855460E+02 -0.31952382671E+02  0.47787264172E+02  0.19999968668E+02 0.  0.
        -12    1    1    2    0    0 -0.17602890810E+02  0.23511855460E+02  0.31952382671E+02  0.43400735828E+02  0.00000000000E+00 0.  1.
         11    1    3    3    0    0  0.18139478938E+02 -0.14876462095E+02 -0.28794178069E+02  0.37141008488E+02  0.51100000000E-03 0. -1.
        -11    1    3    3    0    0 -0.25683311624E+01 -0.40570525126E+01 -0.29449111913E+01  0.56328058937E+01  0.51100000000E-03 0.  1.
         12    1    3    3    0    0  0.20317430345E+01 -0.45783408528E+01 -0.21329341032E+00  0.50134497904E+01  0.00000000000E+00 0. -1.
</event>
<event>
 7    1  0.2811980E-010  0.4778727E+02  0.7816164E-02  0.1312668E+00
        -11   -1    0    0    0    0  0.00000000000E+00  0.00000000000E+00  0.45593999997E+02  0.45594000000E+02  0.51100000000E-03 0. -1.
         11   -1    0    0    0    0 -0.00000000000E+00 -0.00000000000E+00 -0.45593999997E+02  0.45594000000E+02  0.51100000000E-03 0.  1.
    9900012    2    1    2    0    0 -0.41809336144E+02 -0.11049369122E+02 -0.36761554226E+01  0.47787271141E+02  0.20000000439E+02 0.  0.
        -12    1    1    2    0    0  0.41809336144E+02  0.11049369122E+02  0.36761554226E+01  0.43400728859E+02  0.00000000000E+00 0.  1.
         11    1    3    3    0    0 -0.77790219572E+01 -0.39395965498E+01  0.62829485905E+01  0.10747513519E+02  0.51100000000E-03 0. -1.
        -11    1    3    3    0    0 -0.60647155655E+01 -0.38185238486E+01 -0.41720312552E+01  0.82926319301E+01  0.51100000000E-03 0.  1.
         12    1    3    3    0    0 -0.27965598622E+02 -0.32912487232E+01 -0.57870727579E+01  0.28747125692E+02  0.00000000000E+00 0. -1.
</event>
<event>
 7    1  0.2811980E-010  0.4778728E+02  0.7816164E-02  0.1312668E+00
        -11   -1    0    0    0    0  0.00000000000E+00  0.00000000000E+00  0.45593999997E+02  0.45594000000E+02  0.51100000000E-03 0.  1.
         11   -1    0    0    0    0 -0.00000000000E+00 -0.00000000000E+00 -0.45593999997E+02  0.45594000000E+02  0.51100000000E-03 0. -1.
    9900012    2    1    2    0    0  0.14857909122E+02  0.37782368676E+02 -0.15341383722E+02  0.47787275343E+02  0.20000019600E+02 0.  0.
        -12    1    1    2    0    0 -0.14857909122E+02 -0.37782368676E+02  0.15341383722E+02  0.43400724657E+02  0.00000000000E+00 0.  1.
         11    1    3    3    0    0  0.41558978672E+01  0.31738254660E+01  0.14459765776E+00  0.52312105593E+01  0.51100000000E-03 0.  1.
        -11    1    3    3    0    0  0.13308212802E+02  0.22976845740E+02 -0.15277668002E+02  0.30634149376E+02  0.51100000000E-03 0. -1.
        -12    1    3    3    0    0 -0.26062015470E+01  0.11631697470E+02 -0.20831337730E+00  0.11921915408E+02  0.00000000000E+00 0.  1.
</event>
<event>
 7    1  0.2811980E-010  0.4778727E+02  0.7816164E-02  0.1312668E+00
        -11   -1    0    0    0    0  0.00000000000E+00  0.00000000000E+00  0.45593999997E+02  0.45594000000E+02  0.51100000000E-03 0. -1.
         11   -1    0    0    0    0 -0.00000000000E+00 -0.00000000000E+00 -0.45593999997E+02  0.45594000000E+02  0.51100000000E-03 0.  1.
    9900012    2    1    2    0    0  0.34782286035E+02 -0.29511887121E+01  0.25789652893E+02  0.47787272668E+02  0.20000007403E+02 0.  0.
        -12    1    1    2    0    0 -0.34782286035E+02  0.29511887121E+01 -0.25789652893E+02  0.43400727332E+02  0.00000000000E+00 0.  1.
         11    1    3    3    0    0  0.89504724636E+01 -0.49264584018E+01  0.12396493184E+02  0.16064059052E+02  0.51100000000E-03 0. -1.
        -11    1    3    3    0    0  0.24066986667E+02  0.55525690933E+01  0.12270661372E+02  0.27579340122E+02  0.51100000000E-03 0.  1.
        -12    1    3    3    0    0  0.17648269037E+01 -0.35772994036E+01  0.11224983370E+01  0.41438734946E+01  0.00000000000E+00 0.  1.
</event>
<event>
 7    1  0.2811980E-010  0.4778722E+02  0.7816164E-02  0.1312668E+00
        -11   -1    0    0    0    0  0.00000000000E+00  0.00000000000E+00  0.45593999997E+02  0.45594000000E+02  0.51100000000E-03 0.  1.
         11   -1    0    0    0    0 -0.00000000000E+00 -0.00000000000E+00 -0.45593999997E+02  0.45594000000E+02  0.51100000000E-03 0. -1.
    9900012    2    1    2    0    0  0.27665307236E+02  0.11346544240E+02 -0.31456553233E+02  0.47787216229E+02  0.19999750073E+02 0.  0.
        -12    1    1    2    0    0 -0.27665307236E+02 -0.11346544240E+02  0.31456553233E+02  0.43400783771E+02  0.00000000000E+00 0.  1.
         11    1    3    3    0    0  0.91255306860E+01  0.24373061288E+01 -0.18936488078E+02  0.21161435501E+02  0.51100000000E-03 0. -1.
        -11    1    3    3    0    0  0.19912303015E+01  0.12874339717E+01 -0.72968675557E+01  0.76724677080E+01  0.51100000000E-03 0.  1.
         12    1    3    3    0    0  0.16548546249E+02  0.76218041396E+01 -0.52231975990E+01  0.18953313020E+02  0.00000000000E+00 0. -1.
</event>
<event>
 7    1  0.2811980E-010  0.4778727E+02  0.7816164E-02  0.1312668E+00
        -11   -1    0    0    0    0  0.00000000000E+00  0.00000000000E+00  0.45593999997E+02  0.45594000000E+02  0.51100000000E-03 0.  1.
         11   -1    0    0    0    0 -0.00000000000E+00 -0.00000000000E+00 -0.45593999997E+02  0.45594000000E+02  0.51100000000E-03 0. -1.
    9900012    2    1    2    0    0  0.21145482638E+01  0.29253649953E+02 -0.31990247567E+02  0.47787270866E+02  0.19999999187E+02 0.  0.
        -12    1    1    2    0    0 -0.21145482638E+01 -0.29253649953E+02  0.31990247567E+02  0.43400729134E+02  0.00000000000E+00 0.  1.
         11    1    3    3    0    0  0.43206102968E-01  0.14515007255E+02 -0.57893336416E+01  0.15627017843E+02  0.51100000000E-03 0. -1.
        -11    1    3    3    0    0  0.54582753763E+01  0.29391856269E+01 -0.10943423769E+02  0.12577364839E+02  0.51100000000E-03 0.  1.
        -12    1    3    3    0    0 -0.33869332155E+01  0.11799457071E+02 -0.15257490157E+02  0.19582888185E+02  0.00000000000E+00 0.  1.
</event>
<event>
 7    1  0.2811980E-010  0.4778729E+02  0.7816164E-02  0.1312668E+00
        -11   -1    0    0    0    0  0.00000000000E+00  0.00000000000E+00  0.45593999997E+02  0.45594000000E+02  0.51100000000E-03 0. -1.
         11   -1    0    0    0    0 -0.00000000000E+00 -0.00000000000E+00 -0.45593999997E+02  0.45594000000E+02  0.51100000000E-03 0.  1.
    9900012    2    1    2    0    0  0.29804590372E+02 -0.23351070805E+02  0.21214047443E+02  0.47787286596E+02  0.20000070907E+02 0.  0.
        -12    1    1    2    0    0 -0.29804590372E+02  0.23351070805E+02 -0.21214047443E+02  0.43400713404E+02  0.00000000000E+00 0.  1.
         11    1    3    3    0    0  0.24259448752E+02 -0.18180475329E+02  0.22562555333E+02  0.37790467586E+02  0.51100000000E-03 0. -1.
        -11    1    3    3    0    0  0.16493758820E+00  0.10532336177E+01 -0.14124673462E+01  0.17696241767E+01  0.51100000000E-03 0.  1.
         12    1    3    3    0    0  0.53802040320E+01 -0.62238290939E+01  0.63959456513E-01  0.82271948335E+01  0.00000000000E+00 0. -1.
</event>
<event>
 7    1  0.2811980E-010  0.4778727E+02  0.7816164E-02  0.1312668E+00
        -11   -1    0    0    0    0  0.00000000000E+00  0.00000000000E+00  0.45593999997E+02  0.45594000000E+02  0.51100000000E-03 0. -1.
         11   -1    0    0    0    0 -0.00000000000E+00 -0.00000000000E+00 -0.45593999997E+02  0.45594000000E+02  0.51100000000E-03 0.  1.
    9900012    2    1    2    0    0  0.42006832627E+02  0.75283604250E+01 -0.78976495152E+01  0.47787273440E+02  0.20000010924E+02 0.  0.
        -12    1    1    2    0    0 -0.42006832627E+02 -0.75283604250E+01  0.78976495152E+01  0.43400726560E+02  0.00000000000E+00 0.  1.
         11    1    3    3    0    0  0.59910578193E+01 -0.32146864076E+01  0.80122347523E-01  0.67995148610E+01  0.51100000000E-03 0. -1.
        -11    1    3    3    0    0  0.22243822141E+02  0.84175436066E+01  0.19332198382E+01  0.23861684832E+02  0.51100000000E-03 0.  1.
        -12    1    3    3    0    0  0.13771952667E+02  0.23255032260E+01 -0.99109917010E+01  0.17126073747E+02  0.00000000000E+00 0.  1.
</event>
<event>
 7    1  0.2811980E-010  0.4778726E+02  0.7816164E-02  0.1312668E+00
        -11   -1    0    0    0    0  0.00000000000E+00  0.00000000000E+00  0.45593999997E+02  0.45594000000E+02  0.51100000000E-03 0.  1.
         11   -1    0    0    0    0 -0.00000000000E+00 -0.00000000000E+00 -0.45593999997E+02  0.45594000000E+02  0.51100000000E-03 0. -1.
    9900012    2    1    2    0    0 -0.10736109979E+02 -0.28810680703E+02 -0.30631760712E+02  0.47787261016E+02  0.19999954277E+02 0.  0.
        -12    1    1    2    0    0  0.10736109979E+02  0.28810680703E+02  0.30631760712E+02  0.43400738984E+02  0.00000000000E+00 0.  1.
         11    1    3    3    0    0 -0.32402170806E+01 -0.38425130744E+01 -0.49044674146E+01  0.70226572135E+01  0.51100000000E-03 0. -1.
        -11    1    3    3    0    0 -0.47844658002E+01 -0.22054435291E+02 -0.10254304122E+02  0.24787899917E+02  0.51100000000E-03 0.  1.
        -12    1    3    3    0    0 -0.27114270978E+01 -0.29137323376E+01 -0.15472989175E+02  0.15976703886E+02  0.00000000000E+00 0.  1.
</event>
<event>
 7    1  0.2811980E-010  0.4778727E+02  0.7816164E-02  0.1312668E+00
        -11   -1    0    0    0    0  0.00000000000E+00  0.00000000000E+00  0.45593999997E+02  0.45594000000E+02  0.51100000000E-03 0.  1.
         11   -1    0    0    0    0 -0.00000000000E+00 -0.00000000000E+00 -0.45593999997E+02  0.45594000000E+02  0.51100000000E-03 0. -1.
    9900012    2    1    2    0    0 -0.76718278617E+01 -0.25013584039E+02 -0.34627830260E+02  0.47787274687E+02  0.20000016606E+02 0.  0.
        -12    1    1    2    0    0  0.76718278617E+01  0.25013584039E+02  0.34627830260E+02  0.43400725313E+02  0.00000000000E+00 0.  1.
         11    1    3    3    0    0 -0.70809369316E+01 -0.21319018778E+02 -0.27678010696E+02  0.35647054658E+02  0.51100000000E-03 0. -1.
        -11    1    3    3    0    0 -0.69635574734E+00  0.26653704491E+01 -0.49291597261E-01  0.27552751007E+01  0.51100000000E-03 0.  1.
         12    1    3    3    0    0  0.10546481724E+00 -0.63599357102E+01 -0.69005279672E+01  0.93849449275E+01  0.00000000000E+00 0. -1.
</event>
<event>
 7    1  0.2811980E-010  0.4778727E+02  0.7816164E-02  0.1312668E+00
        -11   -1    0    0    0    0  0.00000000000E+00  0.00000000000E+00  0.45593999997E+02  0.45594000000E+02  0.51100000000E-03 0.  1.
         11   -1    0    0    0    0 -0.00000000000E+00 -0.00000000000E+00 -0.45593999997E+02  0.45594000000E+02  0.51100000000E-03 0. -1.
    9900012    2    1    2    0    0  0.20267934194E+02 -0.23185305617E+02 -0.30582281418E+02  0.47787268558E+02  0.19999988661E+02 0.  0.
        -12    1    1    2    0    0 -0.20267934194E+02  0.23185305617E+02  0.30582281418E+02  0.43400731442E+02  0.00000000000E+00 0.  1.
         11    1    3    3    0    0  0.86365386107E+01 -0.22642461453E+02 -0.17138984280E+02  0.29681907659E+02  0.51100000000E-03 0. -1.
        -11    1    3    3    0    0  0.73472486016E+01  0.46080537270E+00 -0.61734185408E+01  0.96075751543E+01  0.51100000000E-03 0.  1.
         12    1    3    3    0    0  0.42841469812E+01 -0.10036495365E+01 -0.72698785967E+01  0.84977857445E+01  0.00000000000E+00 0. -1.
</event>
<event>
 7    1  0.2811980E-010  0.4778727E+02  0.7816164E-02  0.1312668E+00
        -11   -1    0    0    0    0  0.00000000000E+00  0.00000000000E+00  0.45593999997E+02  0.45594000000E+02  0.51100000000E-03 0.  1.
         11   -1    0    0    0    0 -0.00000000000E+00 -0.00000000000E+00 -0.45593999997E+02  0.45594000000E+02  0.51100000000E-03 0. -1.
    9900012    2    1    2    0    0 -0.27035426370E+01  0.33270467257E+02 -0.27737881002E+02  0.47787272163E+02  0.20000005102E+02 0.  0.
        -12    1    1    2    0    0  0.27035426370E+01 -0.33270467257E+02  0.27737881002E+02  0.43400727837E+02  0.00000000000E+00 0.  1.
         11    1    3    3    0    0 -0.36783804718E+01  0.18720852319E+02 -0.95178176120E+01  0.21321108011E+02  0.51100000000E-03 0. -1.
        -11    1    3    3    0    0  0.60525662465E+01  0.11958049639E+02 -0.13936796483E+02  0.19335532209E+02  0.51100000000E-03 0.  1.
        -12    1    3    3    0    0 -0.50777284117E+01  0.25915652988E+01 -0.42832669069E+01  0.71306319438E+01  0.00000000000E+00 0.  1.
</event>
<event>
 7    1  0.2811980E-010  0.4778727E+02  0.7816164E-02  0.1312668E+00
        -11   -1    0    0    0    0  0.00000000000E+00  0.00000000000E+00  0.45593999997E+02  0.45594000000E+02  0.51100000000E-03 0.  1.
         11   -1    0    0    0    0 -0.00000000000E+00 -0.00000000000E+00 -0.45593999997E+02  0.45594000000E+02  0.51100000000E-03 0. -1.
    9900012    2    1    2    0    0 -0.29416509794E+02  0.22030253273E+02 -0.23085932227E+02  0.47787269885E+02  0.19999994713E+02 0.  0.
        -12    1    1    2    0    0  0.29416509794E+02 -0.22030253273E+02  0.23085932227E+02  0.43400730115E+02  0.00000000000E+00 0.  1.
         11    1    3    3    0    0 -0.19727402995E+02  0.38715169243E+01 -0.10623776089E+02  0.22738154958E+02  0.51100000000E-03 0. -1.
        -11    1    3    3    0    0 -0.10577519832E+01  0.44909601171E+01  0.39246068129E-01  0.46140115460E+01  0.51100000000E-03 0.  1.
         12    1    3    3    0    0 -0.86313548153E+01  0.13667776232E+02 -0.12501402206E+02  0.20435103381E+02  0.00000000000E+00 0. -1.
</event>
<event>
 7    1  0.2811980E-010  0.4778727E+02  0.7816164E-02  0.1312668E+00
        -11   -1    0    0    0    0  0.00000000000E+00  0.00000000000E+00  0.45593999997E+02  0.45594000000E+02  0.51100000000E-03 0. -1.
         11   -1    0    0    0    0 -0.00000000000E+00 -0.00000000000E+00 -0.45593999997E+02  0.45594000000E+02  0.51100000000E-03 0.  1.
    9900012    2    1    2    0    0 -0.41473242542E+02 -0.99715278962E+01  0.80101193870E+01  0.47787271572E+02  0.20000002404E+02 0.  0.
        -12    1    1    2    0    0  0.41473242542E+02  0.99715278962E+01 -0.80101193870E+01  0.43400728428E+02  0.00000000000E+00 0.  1.
         11    1    3    3    0    0 -0.14827712024E+02 -0.44161986833E+01  0.88930949959E+01  0.17845195251E+02  0.51100000000E-03 0. -1.
        -11    1    3    3    0    0 -0.27706868603E+02 -0.39313336002E+01 -0.69608345793E+00  0.27993043495E+02  0.51100000000E-03 0.  1.
         12    1    3    3    0    0  0.10613380851E+01 -0.16239956127E+01 -0.18689215101E+00  0.19490328260E+01  0.00000000000E+00 0. -1.
</event>
<event>
 7    1  0.2811980E-010  0.4778727E+02  0.7816164E-02  0.1312668E+00
        -11   -1    0    0    0    0  0.00000000000E+00  0.00000000000E+00  0.45593999997E+02  0.45594000000E+02  0.51100000000E-03 0.  1.
         11   -1    0    0    0    0 -0.00000000000E+00 -0.00000000000E+00 -0.45593999997E+02  0.45594000000E+02  0.51100000000E-03 0. -1.
    9900012    2    1    2    0    0  0.25723698729E+02  0.33546028352E+02 -0.98274508847E+01  0.47787268608E+02  0.19999988891E+02 0.  0.
        -12    1    1    2    0    0 -0.25723698729E+02 -0.33546028352E+02  0.98274508847E+01  0.43400731392E+02  0.00000000000E+00 0.  1.
         11    1    3    3    0    0  0.22861124535E+02  0.26625484078E+02 -0.63093301276E+01  0.35656066305E+02  0.51100000000E-03 0. -1.
        -11    1    3    3    0    0 -0.27861934807E+00 -0.19677528053E+01  0.20002463711E+00  0.19974208271E+01  0.51100000000E-03 0.  1.
        -12    1    3    3    0    0  0.31411935417E+01  0.88882970792E+01 -0.37181453942E+01  0.10133781476E+02  0.00000000000E+00 0.  1.
</event>
<event>
 7    1  0.2811980E-010  0.4778727E+02  0.7816164E-02  0.1312668E+00
        -11   -1    0    0    0    0  0.00000000000E+00  0.00000000000E+00  0.45593999997E+02  0.45594000000E+02  0.51100000000E-03 0.  1.
         11   -1    0    0    0    0 -0.00000000000E+00 -0.00000000000E+00 -0.45593999997E+02  0.45594000000E+02  0.51100000000E-03 0. -1.
    9900012    2    1    2    0    0  0.35145933953E+02 -0.16072493318E+01 -0.25412669783E+02  0.47787266027E+02  0.19999977126E+02 0.  0.
        -12    1    1    2    0    0 -0.35145933953E+02  0.16072493318E+01  0.25412669783E+02  0.43400733973E+02  0.00000000000E+00 0.  1.
         11    1    3    3    0    0  0.26171427459E+02  0.81501953699E+00 -0.18688578945E+02  0.32169408688E+02  0.51100000000E-03 0. -1.
        -11    1    3    3    0    0  0.43294568051E+01 -0.26477471738E+01  0.22182464224E+01  0.55385357970E+01  0.51100000000E-03 0.  1.
         12    1    3    3    0    0  0.46450496892E+01  0.22547830497E+00 -0.89423372604E+01  0.10079321543E+02  0.00000000000E+00 0. -1.
</event>
<event>
 7    1  0.2811980E-010  0.4778727E+02  0.7816164E-02  0.1312668E+00
        -11   -1    0    0    0    0  0.00000000000E+00  0.00000000000E+00  0.45593999997E+02  0.45594000000E+02  0.51100000000E-03 0. -1.
         11   -1    0    0    0    0 -0.00000000000E+00 -0.00000000000E+00 -0.45593999997E+02  0.45594000000E+02  0.51100000000E-03 0.  1.
    9900012    2    1    2    0    0 -0.30696242654E+02 -0.11345748902E+02  0.28506805705E+02  0.47787270712E+02  0.19999998485E+02 0.  0.
        -12    1    1    2    0    0  0.30696242654E+02  0.11345748902E+02 -0.28506805705E+02  0.43400729288E+02  0.00000000000E+00 0.  1.
         11    1    3    3    0    0 -0.89000051400E+01  0.19792202707E+01  0.16790191255E+01  0.92707340517E+01  0.51100000000E-03 0. -1.
        -11    1    3    3    0    0 -0.12459118904E+02 -0.39995821745E+01  0.19318951102E+02  0.23333413238E+02  0.51100000000E-03 0.  1.
         12    1    3    3    0    0 -0.93371186105E+01 -0.93253869984E+01  0.75088354775E+01  0.15183123422E+02  0.00000000000E+00 0. -1.
</event>
<event>
 7    1  0.2811980E-010  0.4778727E+02  0.7816164E-02  0.1312668E+00
        -11   -1    0    0    0    0  0.00000000000E+00  0.00000000000E+00  0.45593999997E+02  0.45594000000E+02  0.51100000000E-03 0.  1.
         11   -1    0    0    0    0 -0.00000000000E+00 -0.00000000000E+00 -0.45593999997E+02  0.45594000000E+02  0.51100000000E-03 0. -1.
    9900012    2    1    2    0    0 -0.39081128318E+02 -0.18696688821E+02  0.25927696883E+01  0.47787271687E+02  0.20000002929E+02 0.  0.
        -12    1    1    2    0    0  0.39081128318E+02  0.18696688821E+02 -0.25927696883E+01  0.43400728313E+02  0.00000000000E+00 0.  1.
         11    1    3    3    0    0 -0.24213879924E+02 -0.68516633701E+01 -0.39411819576E+01  0.25471360140E+02  0.51100000000E-03 0. -1.
        -11    1    3    3    0    0 -0.10882778067E+02 -0.33437982655E+01  0.61026359765E+01  0.12917353112E+02  0.51100000000E-03 0.  1.
         12    1    3    3    0    0 -0.39844703272E+01 -0.85012271854E+01  0.43131566943E+00  0.93985584348E+01  0.00000000000E+00 0. -1.
</event>
<event>
 7    1  0.2811980E-010  0.4778727E+02  0.7816164E-02  0.1312668E+00
        -11   -1    0    0    0    0  0.00000000000E+00  0.00000000000E+00  0.45593999997E+02  0.45594000000E+02  0.51100000000E-03 0.  1.
         11   -1    0    0    0    0 -0.00000000000E+00 -0.00000000000E+00 -0.45593999997E+02  0.45594000000E+02  0.51100000000E-03 0. -1.
    9900012    2    1    2    0    0 -0.31620630164E+02  0.77062138379E+00 -0.29718094473E+02  0.47787271339E+02  0.20000001342E+02 0.  0.
        -12    1    1    2    0    0  0.31620630164E+02 -0.77062138379E+00  0.29718094473E+02  0.43400728661E+02  0.00000000000E+00 0.  1.
         11    1    3    3    0    0 -0.18695539297E+02 -0.19413853614E+01 -0.23793109089E+02  0.30321678831E+02  0.51100000000E-03 0. -1.
        -11    1    3    3    0    0 -0.35290367414E+01  0.55726796215E+01 -0.27070274898E+01  0.71299969549E+01  0.51100000000E-03 0.  1.
         12    1    3    3    0    0 -0.93960541250E+01 -0.28606728763E+01 -0.32179578932E+01  0.10335595553E+02  0.00000000000E+00 0. -1.
</event>
<event>
 7    1  0.2811980E-010  0.4778727E+02  0.7816164E-02  0.1312668E+00
        -11   -1    0    0    0    0  0.00000000000E+00  0.00000000000E+00  0.45593999997E+02  0.45594000000E+02  0.51100000000E-03 0. -1.
         11   -1    0    0    0    0 -0.00000000000E+00 -0.00000000000E+00 -0.45593999997E+02  0.45594000000E+02  0.51100000000E-03 0.  1.
    9900012    2    1    2    0    0  0.54103207650E+01  0.36428910624E+02  0.22962713588E+02  0.47787270567E+02  0.19999997821E+02 0.  0.
        -12    1    1    2    0    0 -0.54103207650E+01 -0.36428910624E+02 -0.22962713588E+02  0.43400729433E+02  0.00000000000E+00 0.  1.
         11    1    3    3    0    0  0.45054751205E+01  0.11126128446E+02  0.83596210839E+01  0.14627826400E+02  0.51100000000E-03 0. -1.
        -11    1    3    3    0    0 -0.48499887459E+01  0.64353374530E+01  0.10110069992E+02  0.12928630031E+02  0.51100000000E-03 0.  1.
        -12    1    3    3    0    0  0.57548343904E+01  0.18867444725E+02  0.44930225119E+01  0.20230814136E+02  0.00000000000E+00 0.  1.
</event>
<event>
 7    1  0.2811980E-010  0.4778727E+02  0.7816164E-02  0.1312668E+00
        -11   -1    0    0    0    0  0.00000000000E+00  0.00000000000E+00  0.45593999997E+02  0.45594000000E+02  0.51100000000E-03 0. -1.
         11   -1    0    0    0    0 -0.00000000000E+00 -0.00000000000E+00 -0.45593999997E+02  0.45594000000E+02  0.51100000000E-03 0.  1.
    9900012    2    1    2    0    0  0.96786703856E+00 -0.35160499859E+02  0.25424907112E+02  0.47787269377E+02  0.19999992399E+02 0.  0.
        -12    1    1    2    0    0 -0.96786703856E+00  0.35160499859E+02 -0.25424907112E+02  0.43400730623E+02  0.00000000000E+00 0.  1.
         11    1    3    3    0    0  0.12784200924E+01 -0.17781579270E+02  0.11899395063E+02  0.21433957227E+02  0.51100000000E-03 0. -1.
        -11    1    3    3    0    0 -0.43596456417E+01  0.24702739144E+00  0.14242792870E+01  0.45930495753E+01  0.51100000000E-03 0.  1.
        -12    1    3    3    0    0  0.40490925878E+01 -0.17625947980E+02  0.12101232762E+02  0.21760262575E+02  0.00000000000E+00 0.  1.
</event>
<event>
 7    1  0.2811980E-010  0.4778727E+02  0.7816164E-02  0.1312668E+00
        -11   -1    0    0    0    0  0.00000000000E+00  0.00000000000E+00  0.45593999997E+02  0.45594000000E+02  0.51100000000E-03 0.  1.
         11   -1    0    0    0    0 -0.00000000000E+00 -0.00000000000E+00 -0.45593999997E+02  0.45594000000E+02  0.51100000000E-03 0. -1.
    9900012    2    1    2    0    0  0.15011105288E+02  0.63711064217E+00 -0.40717124314E+02  0.47787269542E+02  0.19999993148E+02 0.  0.
        -12    1    1    2    0    0 -0.15011105288E+02 -0.63711064217E+00  0.40717124314E+02  0.43400730458E+02  0.00000000000E+00 0.  1.
         11    1    3    3    0    0  0.56124427239E+01  0.45765772361E+01 -0.79197068874E+01  0.10731557668E+02  0.51100000000E-03 0. -1.
        -11    1    3    3    0    0 -0.19983991226E+01  0.26025296014E+01 -0.28280689575E+01  0.43318279823E+01  0.51100000000E-03 0.  1.
        -12    1    3    3    0    0  0.11397061686E+02 -0.65419961954E+01 -0.29969348469E+02  0.32723883892E+02  0.00000000000E+00 0.  1.
</event>
<event>
 7    1  0.2811980E-010  0.4778727E+02  0.7816164E-02  0.1312668E+00
        -11   -1    0    0    0    0  0.00000000000E+00  0.00000000000E+00  0.45593999997E+02  0.45594000000E+02  0.51100000000E-03 0.  1.
         11   -1    0    0    0    0 -0.00000000000E+00 -0.00000000000E+00 -0.45593999997E+02  0.45594000000E+02  0.51100000000E-03 0. -1.
    9900012    2    1    2    0    0  0.84801572621E+01 -0.25283614022E+02 -0.34241045446E+02  0.47787269609E+02  0.19999993457E+02 0.  0.
        -12    1    1    2    0    0 -0.84801572621E+01  0.25283614022E+02  0.34241045446E+02  0.43400730391E+02  0.00000000000E+00 0.  1.
         11    1    3    3    0    0  0.10019790221E+02 -0.20535058033E+02 -0.20369070434E+02  0.30610191687E+02  0.51100000000E-03 0. -1.
        -11    1    3    3    0    0 -0.37716120106E+00 -0.23691460682E+01 -0.14295357792E+02  0.14495252958E+02  0.51100000000E-03 0.  1.
        -12    1    3    3    0    0 -0.11624717579E+01 -0.23794099209E+01  0.42338277998E+00  0.26818249641E+01  0.00000000000E+00 0.  1.
</event>
<event>
 7    1  0.2811980E-010  0.4778727E+02  0.7816164E-02  0.1312668E+00
        -11   -1    0    0    0    0  0.00000000000E+00  0.00000000000E+00  0.45593999997E+02  0.45594000000E+02  0.51100000000E-03 0.  1.
         11   -1    0    0    0    0 -0.00000000000E+00 -0.00000000000E+00 -0.45593999997E+02  0.45594000000E+02  0.51100000000E-03 0. -1.
    9900012    2    1    2    0    0  0.16029503706E+02  0.35375190029E+02 -0.19371995539E+02  0.47787271092E+02  0.20000000215E+02 0.  0.
        -12    1    1    2    0    0 -0.16029503706E+02 -0.35375190029E+02  0.19371995539E+02  0.43400728908E+02  0.00000000000E+00 0.  1.
         11    1    3    3    0    0  0.10892341549E+02  0.14321715380E+02 -0.11128996282E+01  0.18027567270E+02  0.51100000000E-03 0. -1.
        -11    1    3    3    0    0  0.11174697217E+01  0.16689573241E+02 -0.96710044509E+01  0.19321462701E+02  0.51100000000E-03 0.  1.
         12    1    3    3    0    0  0.40196924347E+01  0.43639014082E+01 -0.85880914596E+01  0.10438241120E+02  0.00000000000E+00 0. -1.
</event>
<event>
 7    1  0.2811980E-010  0.4778729E+02  0.7816164E-02  0.1312668E+00
        -11   -1    0    0    0    0  0.00000000000E+00  0.00000000000E+00  0.45593999997E+02  0.45594000000E+02  0.51100000000E-03 0.  1.
         11   -1    0    0    0    0 -0.00000000000E+00 -0.00000000000E+00 -0.45593999997E+02  0.45594000000E+02  0.51100000000E-03 0. -1.
    9900012    2    1    2    0    0 -0.17903701574E+02  0.26269338738E+02 -0.29546585571E+02  0.47787292556E+02  0.20000098079E+02 0.  0.
        -12    1    1    2    0    0  0.17903701574E+02 -0.26269338738E+02  0.29546585571E+02  0.43400707444E+02  0.00000000000E+00 0.  1.
         11    1    3    3    0    0 -0.10990004223E+02  0.26936870589E+02 -0.20365783157E+02  0.35512537417E+02  0.51100000000E-03 0. -1.
        -11    1    3    3    0    0 -0.52561713213E+01 -0.13011809575E+01 -0.38167455978E+01  0.66247985677E+01  0.51100000000E-03 0.  1.
         12    1    3    3    0    0 -0.16575260289E+01  0.63364910652E+00 -0.53640568163E+01  0.56499565711E+01  0.00000000000E+00 0. -1.
</event>
<event>
 7    1  0.2811980E-010  0.4778727E+02  0.7816164E-02  0.1312668E+00
        -11   -1    0    0    0    0  0.00000000000E+00  0.00000000000E+00  0.45593999997E+02  0.45594000000E+02  0.51100000000E-03 0. -1.
         11   -1    0    0    0    0 -0.00000000000E+00 -0.00000000000E+00 -0.45593999997E+02  0.45594000000E+02  0.51100000000E-03 0.  1.
    9900012    2    1    2    0    0 -0.14358494520E+02 -0.32635829911E+02  0.24745902958E+02  0.47787268761E+02  0.19999989588E+02 0.  0.
        -12    1    1    2    0    0  0.14358494520E+02  0.32635829911E+02 -0.24745902958E+02  0.43400731239E+02  0.00000000000E+00 0.  1.
         11    1    3    3    0    0 -0.75994664269E+01 -0.22848818031E+02  0.26288822558E+02  0.35650000941E+02  0.51100000000E-03 0. -1.
        -11    1    3    3    0    0 -0.63345450127E+01 -0.93610361708E+01 -0.10351411076E+01  0.11350197183E+02  0.51100000000E-03 0.  1.
         12    1    3    3    0    0 -0.42448308006E+00 -0.42597570985E+00 -0.50777849217E+00  0.78707063708E+00  0.00000000000E+00 0. -1.
</event>
<event>
 7    1  0.2811980E-010  0.4778727E+02  0.7816164E-02  0.1312668E+00
        -11   -1    0    0    0    0  0.00000000000E+00  0.00000000000E+00  0.45593999997E+02  0.45594000000E+02  0.51100000000E-03 0.  1.
         11   -1    0    0    0    0 -0.00000000000E+00 -0.00000000000E+00 -0.45593999997E+02  0.45594000000E+02  0.51100000000E-03 0. -1.
    9900012    2    1    2    0    0  0.43167114668E+02  0.43498879164E+01 -0.11410533214E+01  0.47787270556E+02  0.19999997772E+02 0.  0.
        -12    1    1    2    0    0 -0.43167114668E+02 -0.43498879164E+01  0.11410533214E+01  0.43400729444E+02  0.00000000000E+00 0.  1.
         11    1    3    3    0    0  0.31195130190E+01  0.81636756226E+00 -0.24852220755E+01  0.40711357749E+01  0.51100000000E-03 0. -1.
        -11    1    3    3    0    0  0.34840294508E+02  0.82310337700E+01 -0.21833572216E+01  0.35865904245E+02  0.51100000000E-03 0.  1.
        -12    1    3    3    0    0  0.52073071406E+01 -0.46975134159E+01  0.35275259757E+01  0.78502305353E+01  0.00000000000E+00 0.  1.
</event>
<event>
 7    1  0.2811980E-010  0.4778727E+02  0.7816164E-02  0.1312668E+00
        -11   -1    0    0    0    0  0.00000000000E+00  0.00000000000E+00  0.45593999997E+02  0.45594000000E+02  0.51100000000E-03 0.  1.
         11   -1    0    0    0    0 -0.00000000000E+00 -0.00000000000E+00 -0.45593999997E+02  0.45594000000E+02  0.51100000000E-03 0. -1.
    9900012    2    1    2    0    0  0.20731658480E+02 -0.37872218060E+02 -0.44177418107E+01  0.47787274121E+02  0.20000014029E+02 0.  0.
        -12    1    1    2    0    0 -0.20731658480E+02  0.37872218060E+02  0.44177418107E+01  0.43400725879E+02  0.00000000000E+00 0.  1.
         11    1    3    3    0    0  0.18820863386E+02 -0.32590012680E+02 -0.45121084477E+01  0.37903732639E+02  0.51100000000E-03 0. -1.
        -11    1    3    3    0    0  0.33155397481E+01  0.50779315929E+00 -0.15613442728E+01  0.36997910634E+01  0.51100000000E-03 0.  1.
         12    1    3    3    0    0 -0.14047446538E+01 -0.57899985395E+01  0.16557109099E+01  0.61837504192E+01  0.00000000000E+00 0. -1.
</event>
<event>
 7    1  0.2811980E-010  0.4778727E+02  0.7816164E-02  0.1312668E+00
        -11   -1    0    0    0    0  0.00000000000E+00  0.00000000000E+00  0.45593999997E+02  0.45594000000E+02  0.51100000000E-03 0.  1.
         11   -1    0    0    0    0 -0.00000000000E+00 -0.00000000000E+00 -0.45593999997E+02  0.45594000000E+02  0.51100000000E-03 0. -1.
    9900012    2    1    2    0    0  0.15987421610E+02  0.42857715412E+01 -0.40120539981E+02  0.47787271713E+02  0.20000003049E+02 0.  0.
        -12    1    1    2    0    0 -0.15987421610E+02 -0.42857715412E+01  0.40120539981E+02  0.43400728287E+02  0.00000000000E+00 0.  1.
         11    1    3    3    0    0  0.35831412298E+01  0.37639634782E+01 -0.13648962698E+02  0.14604811027E+02  0.51100000000E-03 0. -1.
        -11    1    3    3    0    0  0.12366860344E+01 -0.50486348845E+01 -0.16218144236E+02  0.17030745999E+02  0.51100000000E-03 0.  1.
        -12    1    3    3    0    0  0.11167594346E+02  0.55704429474E+01 -0.10253433047E+02  0.16151714687E+02  0.00000000000E+00 0.  1.
</event>
<event>
 7    1  0.2811980E-010  0.4778727E+02  0.7816164E-02  0.1312668E+00
        -11   -1    0    0    0    0  0.00000000000E+00  0.00000000000E+00  0.45593999997E+02  0.45594000000E+02  0.51100000000E-03 0.  1.
         11   -1    0    0    0    0 -0.00000000000E+00 -0.00000000000E+00 -0.45593999997E+02  0.45594000000E+02  0.51100000000E-03 0. -1.
    9900012    2    1    2    0    0  0.23472759322E+02 -0.63966574870E+01 -0.35940727713E+02  0.47787267682E+02  0.19999984669E+02 0.  0.
        -12    1    1    2    0    0 -0.23472759322E+02  0.63966574870E+01  0.35940727713E+02  0.43400732318E+02  0.00000000000E+00 0.  1.
         11    1    3    3    0    0  0.90669006476E+00 -0.40920598355E+00 -0.33110229995E+01  0.34572257628E+01  0.51100000000E-03 0. -1.
        -11    1    3    3    0    0  0.73644707115E+01  0.38552042541E+00 -0.25186640973E+02  0.26244064827E+02  0.51100000000E-03 0.  1.
        -12    1    3    3    0    0  0.15201598546E+02 -0.63729719289E+01 -0.74430637408E+01  0.18085977093E+02  0.00000000000E+00 0.  1.
</event>
<event>
 7    1  0.2811980E-010  0.4778727E+02  0.7816164E-02  0.1312668E+00
        -11   -1    0    0    0    0  0.00000000000E+00  0.00000000000E+00  0.45593999997E+02  0.45594000000E+02  0.51100000000E-03 0.  1.
         11   -1    0    0    0    0 -0.00000000000E+00 -0.00000000000E+00 -0.45593999997E+02  0.45594000000E+02  0.51100000000E-03 0. -1.
    9900012    2    1    2    0    0  0.24319461959E+02 -0.34399715661E+02 -0.10432962653E+02  0.47787269853E+02  0.19999994569E+02 0.  0.
        -12    1    1    2    0    0 -0.24319461959E+02  0.34399715661E+02  0.10432962653E+02  0.43400730147E+02  0.00000000000E+00 0.  1.
         11    1    3    3    0    0  0.25519810377E+01 -0.75605765758E+01  0.44804244629E+01  0.91514550212E+01  0.51100000000E-03 0.  1.
        -11    1    3    3    0    0  0.15589469051E+02 -0.24451923411E+02 -0.11637324573E+02  0.31246686661E+02  0.51100000000E-03 0. -1.
        -12    1    3    3    0    0  0.61780118704E+01 -0.23872156740E+01 -0.32760625430E+01  0.73891281712E+01  0.00000000000E+00 0.  1.
</event>
<event>
 7    1  0.2811980E-010  0.4778727E+02  0.7816164E-02  0.1312668E+00
        -11   -1    0    0    0    0  0.00000000000E+00  0.00000000000E+00  0.45593999997E+02  0.45594000000E+02  0.51100000000E-03 0. -1.
         11   -1    0    0    0    0 -0.00000000000E+00 -0.00000000000E+00 -0.45593999997E+02  0.45594000000E+02  0.51100000000E-03 0.  1.
    9900012    2    1    2    0    0  0.39095596888E+02 -0.99988425900E+01  0.15974375426E+02  0.47787271671E+02  0.20000002859E+02 0.  0.
        -12    1    1    2    0    0 -0.39095596888E+02  0.99988425900E+01 -0.15974375426E+02  0.43400728329E+02  0.00000000000E+00 0.  1.
         11    1    3    3    0    0  0.39186167896E+02 -0.11566813606E+02  0.13369663115E+02  0.42989473403E+02  0.51100000000E-03 0. -1.
        -11    1    3    3    0    0  0.61269374968E+00  0.88128092966E+00  0.33797407393E+01  0.35460819835E+01  0.51100000000E-03 0.  1.
         12    1    3    3    0    0 -0.70326475686E+00  0.68669008671E+00 -0.77502842892E+00  0.12517162854E+01  0.00000000000E+00 0. -1.
</event>
<event>
 7    1  0.2811980E-010  0.4778727E+02  0.7816164E-02  0.1312668E+00
        -11   -1    0    0    0    0  0.00000000000E+00  0.00000000000E+00  0.45593999997E+02  0.45594000000E+02  0.51100000000E-03 0.  1.
         11   -1    0    0    0    0 -0.00000000000E+00 -0.00000000000E+00 -0.45593999997E+02  0.45594000000E+02  0.51100000000E-03 0. -1.
    9900012    2    1    2    0    0  0.13445261248E+02  0.34072602751E+02 -0.23278873967E+02  0.47787270958E+02  0.19999999605E+02 0.  0.
        -12    1    1    2    0    0 -0.13445261248E+02 -0.34072602751E+02  0.23278873967E+02  0.43400729042E+02  0.00000000000E+00 0.  1.
         11    1    3    3    0    0  0.23139302818E+01 -0.10800970027E+00 -0.43051697618E+01  0.48888062330E+01  0.51100000000E-03 0. -1.
        -11    1    3    3    0    0  0.96530948006E+01  0.24709617055E+02 -0.67667092420E+01  0.27377650894E+02  0.51100000000E-03 0.  1.
        -12    1    3    3    0    0  0.14782361655E+01  0.94709953959E+01 -0.12206994963E+02  0.15520813831E+02  0.00000000000E+00 0.  1.
</event>
<event>
 7    1  0.2811980E-010  0.4778727E+02  0.7816164E-02  0.1312668E+00
        -11   -1    0    0    0    0  0.00000000000E+00  0.00000000000E+00  0.45593999997E+02  0.45594000000E+02  0.51100000000E-03 0.  1.
         11   -1    0    0    0    0 -0.00000000000E+00 -0.00000000000E+00 -0.45593999997E+02  0.45594000000E+02  0.51100000000E-03 0. -1.
    9900012    2    1    2    0    0  0.19364770433E+02 -0.80438660301E+01 -0.37999015125E+02  0.47787271145E+02  0.20000000459E+02 0.  0.
        -12    1    1    2    0    0 -0.19364770433E+02  0.80438660301E+01  0.37999015125E+02  0.43400728855E+02  0.00000000000E+00 0.  1.
         11    1    3    3    0    0  0.91136908751E+01 -0.10686771067E+02 -0.27858090454E+02  0.31198391645E+02  0.51100000000E-03 0. -1.
        -11    1    3    3    0    0  0.62436165887E+01  0.64455227161E+00 -0.92765393671E+00  0.63449773700E+01  0.51100000000E-03 0.  1.
         12    1    3    3    0    0  0.40074629694E+01  0.19983527656E+01 -0.92132707343E+01  0.10243902130E+02  0.00000000000E+00 0. -1.
</event>
<event>
 7    1  0.2811980E-010  0.4778727E+02  0.7816164E-02  0.1312668E+00
        -11   -1    0    0    0    0  0.00000000000E+00  0.00000000000E+00  0.45593999997E+02  0.45594000000E+02  0.51100000000E-03 0.  1.
         11   -1    0    0    0    0 -0.00000000000E+00 -0.00000000000E+00 -0.45593999997E+02  0.45594000000E+02  0.51100000000E-03 0. -1.
    9900012    2    1    2    0    0  0.10370297058E+02 -0.13029681375E+01 -0.42123419289E+02  0.47787271439E+02  0.20000001800E+02 0.  0.
        -12    1    1    2    0    0 -0.10370297058E+02  0.13029681375E+01  0.42123419289E+02  0.43400728561E+02  0.00000000000E+00 0.  1.
         11    1    3    3    0    0  0.25625232056E+01  0.45868178866E+01 -0.30412164041E+02  0.30862682084E+02  0.51100000000E-03 0. -1.
        -11    1    3    3    0    0  0.37223701696E+01 -0.60122162079E+01 -0.38186619956E+01  0.80364770333E+01  0.51100000000E-03 0.  1.
        -12    1    3    3    0    0  0.40854036831E+01  0.12243018374E+00 -0.78925932516E+01  0.88881123215E+01  0.00000000000E+00 0.  1.
</event>
<event>
 7    1  0.2811980E-010  0.4778727E+02  0.7816164E-02  0.1312668E+00
        -11   -1    0    0    0    0  0.00000000000E+00  0.00000000000E+00  0.45593999997E+02  0.45594000000E+02  0.51100000000E-03 0.  1.
         11   -1    0    0    0    0 -0.00000000000E+00 -0.00000000000E+00 -0.45593999997E+02  0.45594000000E+02  0.51100000000E-03 0. -1.
    9900012    2    1    2    0    0  0.51583905855E+01 -0.42626419604E+02 -0.63247807644E+01  0.47787268515E+02  0.19999988469E+02 0.  0.
        -12    1    1    2    0    0 -0.51583905855E+01  0.42626419604E+02  0.63247807644E+01  0.43400731485E+02  0.00000000000E+00 0.  1.
         11    1    3    3    0    0 -0.19128844509E+01 -0.26909961611E+02 -0.26844639685E+01  0.27111095660E+02  0.51100000000E-03 0. -1.
        -11    1    3    3    0    0  0.33146919789E+01 -0.50811519561E+01  0.38049693008E+01  0.71612205494E+01  0.51100000000E-03 0.  1.
         12    1    3    3    0    0  0.37565830576E+01 -0.10635306037E+02 -0.74452860968E+01  0.13514952306E+02  0.00000000000E+00 0. -1.
</event>
<event>
 7    1  0.2811980E-010  0.4778727E+02  0.7816164E-02  0.1312668E+00
        -11   -1    0    0    0    0  0.00000000000E+00  0.00000000000E+00  0.45593999997E+02  0.45594000000E+02  0.51100000000E-03 0. -1.
         11   -1    0    0    0    0 -0.00000000000E+00 -0.00000000000E+00 -0.45593999997E+02  0.45594000000E+02  0.51100000000E-03 0.  1.
    9900012    2    1    2    0    0 -0.25860677808E+02  0.26253773481E+02  0.22925710284E+02  0.47787268777E+02  0.19999989660E+02 0.  0.
        -12    1    1    2    0    0  0.25860677808E+02 -0.26253773481E+02 -0.22925710284E+02  0.43400731223E+02  0.00000000000E+00 0.  1.
         11    1    3    3    0    0 -0.13908781256E+02  0.15033407738E+02  0.22005202046E+02  0.30061378238E+02  0.51100000000E-03 0. -1.
        -11    1    3    3    0    0 -0.73789510358E+00  0.16457864862E+01 -0.20009679514E+01  0.26938773813E+01  0.51100000000E-03 0.  1.
         12    1    3    3    0    0 -0.11214001448E+02  0.95745792570E+01  0.29214761900E+01  0.15032013157E+02  0.00000000000E+00 0. -1.
</event>
<event>
 7    1  0.2811980E-010  0.4778727E+02  0.7816164E-02  0.1312668E+00
        -11   -1    0    0    0    0  0.00000000000E+00  0.00000000000E+00  0.45593999997E+02  0.45594000000E+02  0.51100000000E-03 0.  1.
         11   -1    0    0    0    0 -0.00000000000E+00 -0.00000000000E+00 -0.45593999997E+02  0.45594000000E+02  0.51100000000E-03 0. -1.
    9900012    2    1    2    0    0  0.19027361491E+02 -0.27047361291E+02 -0.28107350971E+02  0.47787269399E+02  0.19999992496E+02 0.  0.
        -12    1    1    2    0    0 -0.19027361491E+02  0.27047361291E+02  0.28107350971E+02  0.43400730601E+02  0.00000000000E+00 0.  1.
         11    1    3    3    0    0  0.69164145325E+01 -0.15061728468E+02 -0.10557569397E+02  0.19650819990E+02  0.51100000000E-03 0.  1.
        -11    1    3    3    0    0  0.12235433850E+02 -0.26778489706E+01 -0.11717984713E+02  0.17151906093E+02  0.51100000000E-03 0. -1.
        -12    1    3    3    0    0 -0.12448689231E+00 -0.93077838526E+01 -0.58317968610E+01  0.10984543316E+02  0.00000000000E+00 0.  1.
</event>
<event>
 7    1  0.2811980E-010  0.4778727E+02  0.7816164E-02  0.1312668E+00
        -11   -1    0    0    0    0  0.00000000000E+00  0.00000000000E+00  0.45593999997E+02  0.45594000000E+02  0.51100000000E-03 0.  1.
         11   -1    0    0    0    0 -0.00000000000E+00 -0.00000000000E+00 -0.45593999997E+02  0.45594000000E+02  0.51100000000E-03 0. -1.
    9900012    2    1    2    0    0  0.15520318604E+02  0.17094634443E+02 -0.36749374033E+02  0.47787270650E+02  0.19999998200E+02 0.  0.
        -12    1    1    2    0    0 -0.15520318604E+02 -0.17094634443E+02  0.36749374033E+02  0.43400729350E+02  0.00000000000E+00 0.  1.
         11    1    3    3    0    0  0.56912916545E+01 -0.47821811119E+00 -0.14162331674E+01  0.58843189839E+01  0.51100000000E-03 0. -1.
        -11    1    3    3    0    0  0.47913580406E+00  0.81972697891E+01 -0.20140675008E+02  0.21750209037E+02  0.51100000000E-03 0.  1.
        -12    1    3    3    0    0  0.93498911454E+01  0.93755827654E+01 -0.15192465858E+02  0.20152742629E+02  0.00000000000E+00 0.  1.
</event>
<event>
 7    1  0.2811980E-010  0.4778727E+02  0.7816164E-02  0.1312668E+00
        -11   -1    0    0    0    0  0.00000000000E+00  0.00000000000E+00  0.45593999997E+02  0.45594000000E+02  0.51100000000E-03 0.  1.
         11   -1    0    0    0    0 -0.00000000000E+00 -0.00000000000E+00 -0.45593999997E+02  0.45594000000E+02  0.51100000000E-03 0. -1.
    9900012    2    1    2    0    0  0.19696058675E+02  0.26639151525E+02 -0.28036481513E+02  0.47787269396E+02  0.19999992485E+02 0.  0.
        -12    1    1    2    0    0 -0.19696058675E+02 -0.26639151525E+02  0.28036481513E+02  0.43400730604E+02  0.00000000000E+00 0.  1.
         11    1    3    3    0    0  0.13574936173E+02  0.78800348472E+01 -0.19697429024E+02  0.25186554979E+02  0.51100000000E-03 0. -1.
        -11    1    3    3    0    0  0.51722627272E+01  0.18483539936E+02 -0.92051287286E+01  0.21286802142E+02  0.51100000000E-03 0.  1.
        -12    1    3    3    0    0  0.94885977478E+00  0.27557674185E+00  0.86607623951E+00  0.13139122746E+01  0.00000000000E+00 0.  1.
</event>
<event>
 7    1  0.2811980E-010  0.4778726E+02  0.7816164E-02  0.1312668E+00
        -11   -1    0    0    0    0  0.00000000000E+00  0.00000000000E+00  0.45593999997E+02  0.45594000000E+02  0.51100000000E-03 0.  1.
         11   -1    0    0    0    0 -0.00000000000E+00 -0.00000000000E+00 -0.45593999997E+02  0.45594000000E+02  0.51100000000E-03 0. -1.
    9900012    2    1    2    0    0  0.19076829991E+01  0.39811121590E+02 -0.17177289526E+02  0.47787263461E+02  0.19999965424E+02 0.  0.
        -12    1    1    2    0    0 -0.19076829991E+01 -0.39811121590E+02  0.17177289526E+02  0.43400736539E+02  0.00000000000E+00 0.  1.
         11    1    3    3    0    0  0.82160627066E+01  0.17687942923E+02 -0.80297084874E+01  0.21091306975E+02  0.51100000000E-03 0. -1.
        -11    1    3    3    0    0 -0.56879269713E+01  0.21569369416E+02 -0.55272279506E+01  0.22981306736E+02  0.51100000000E-03 0.  1.
        -12    1    3    3    0    0 -0.62045273628E+00  0.55380925088E+00 -0.36203530878E+01  0.37146497499E+01  0.00000000000E+00 0.  1.
</event>
<event>
 7    1  0.2811980E-010  0.4778727E+02  0.7816164E-02  0.1312668E+00
        -11   -1    0    0    0    0  0.00000000000E+00  0.00000000000E+00  0.45593999997E+02  0.45594000000E+02  0.51100000000E-03 0.  1.
         11   -1    0    0    0    0 -0.00000000000E+00 -0.00000000000E+00 -0.45593999997E+02  0.45594000000E+02  0.51100000000E-03 0. -1.
    9900012    2    1    2    0    0 -0.30160835965E+02 -0.27208959107E+02  0.15284636891E+02  0.47787267210E+02  0.19999982519E+02 0.  0.
        -12    1    1    2    0    0  0.30160835965E+02  0.27208959107E+02 -0.15284636891E+02  0.43400732790E+02  0.00000000000E+00 0.  1.
         11    1    3    3    0    0  0.98797303688E+00  0.72783993142E+00 -0.19810152395E+01  0.23302925412E+01  0.51100000000E-03 0. -1.
        -11    1    3    3    0    0 -0.13756521199E+02 -0.13792095575E+02  0.99616405131E+01  0.21879169496E+02  0.51100000000E-03 0.  1.
         12    1    3    3    0    0 -0.17392287803E+02 -0.14144703463E+02  0.73040116169E+01  0.23577805174E+02  0.00000000000E+00 0. -1.
</event>
<event>
 7    1  0.2811980E-010  0.4778727E+02  0.7816164E-02  0.1312668E+00
        -11   -1    0    0    0    0  0.00000000000E+00  0.00000000000E+00  0.45593999997E+02  0.45594000000E+02  0.51100000000E-03 0.  1.
         11   -1    0    0    0    0 -0.00000000000E+00 -0.00000000000E+00 -0.45593999997E+02  0.45594000000E+02  0.51100000000E-03 0. -1.
    9900012    2    1    2    0    0  0.16942689469E+02  0.52243509311E+01 -0.39614077090E+02  0.47787266449E+02  0.19999979046E+02 0.  0.
        -12    1    1    2    0    0 -0.16942689469E+02 -0.52243509311E+01  0.39614077090E+02  0.43400733551E+02  0.00000000000E+00 0.  1.
         11    1    3    3    0    0  0.12456815462E+02  0.81222566773E+01 -0.25890858815E+02  0.29857660247E+02  0.51100000000E-03 0. -1.
        -11    1    3    3    0    0  0.40361149453E+01 -0.21770860669E+01 -0.42634441279E+00  0.46056158561E+01  0.51100000000E-03 0.  1.
         12    1    3    3    0    0  0.44975906246E+00 -0.72081967931E+00 -0.13296873862E+02  0.13323990345E+02  0.00000000000E+00 0. -1.
</event>
<event>
 7    1  0.2811980E-010  0.4778727E+02  0.7816164E-02  0.1312668E+00
        -11   -1    0    0    0    0  0.00000000000E+00  0.00000000000E+00  0.45593999997E+02  0.45594000000E+02  0.51100000000E-03 0.  1.
         11   -1    0    0    0    0 -0.00000000000E+00 -0.00000000000E+00 -0.45593999997E+02  0.45594000000E+02  0.51100000000E-03 0. -1.
    9900012    2    1    2    0    0 -0.36092220453E+02 -0.20198994042E+02 -0.13152013336E+02  0.47787271984E+02  0.20000004283E+02 0.  0.
        -12    1    1    2    0    0  0.36092220453E+02  0.20198994042E+02  0.13152013336E+02  0.43400728016E+02  0.00000000000E+00 0.  1.
         11    1    3    3    0    0 -0.11497761034E+02 -0.78411870205E+01  0.18198343896E+01  0.14035473635E+02  0.51100000000E-03 0. -1.
        -11    1    3    3    0    0 -0.20530042900E+02 -0.39464781363E+01 -0.10183723344E+02  0.23254366742E+02  0.51100000000E-03 0.  1.
        -12    1    3    3    0    0 -0.40644165197E+01 -0.84113288851E+01 -0.47881243815E+01  0.10497431607E+02  0.00000000000E+00 0.  1.
</event>
<event>
 7    1  0.2811980E-010  0.4778727E+02  0.7816164E-02  0.1312668E+00
        -11   -1    0    0    0    0  0.00000000000E+00  0.00000000000E+00  0.45593999997E+02  0.45594000000E+02  0.51100000000E-03 0. -1.
         11   -1    0    0    0    0 -0.00000000000E+00 -0.00000000000E+00 -0.45593999997E+02  0.45594000000E+02  0.51100000000E-03 0.  1.
    9900012    2    1    2    0    0  0.21668834608E+02  0.36077020777E+02  0.10608179430E+02  0.47787270833E+02  0.19999999036E+02 0.  0.
        -12    1    1    2    0    0 -0.21668834608E+02 -0.36077020777E+02 -0.10608179430E+02  0.43400729167E+02  0.00000000000E+00 0.  1.
         11    1    3    3    0    0  0.11473830159E+02  0.21256613237E+02  0.12774322459E+01  0.24189341005E+02  0.51100000000E-03 0. -1.
        -11    1    3    3    0    0  0.94477693549E+01  0.31874209647E+01  0.50769965267E+01  0.11189097023E+02  0.51100000000E-03 0.  1.
        -12    1    3    3    0    0  0.74723509407E+00  0.11632986575E+02  0.42537506576E+01  0.12408832806E+02  0.00000000000E+00 0.  1.
</event>
<event>
 7    1  0.2811980E-010  0.4778727E+02  0.7816164E-02  0.1312668E+00
        -11   -1    0    0    0    0  0.00000000000E+00  0.00000000000E+00  0.45593999997E+02  0.45594000000E+02  0.51100000000E-03 0.  1.
         11   -1    0    0    0    0 -0.00000000000E+00 -0.00000000000E+00 -0.45593999997E+02  0.45594000000E+02  0.51100000000E-03 0. -1.
    9900012    2    1    2    0    0 -0.40289945223E+02  0.14552943832E+02 -0.69681650153E+01  0.47787272080E+02  0.20000004723E+02 0.  0.
        -12    1    1    2    0    0  0.40289945223E+02 -0.14552943832E+02  0.69681650153E+01  0.43400727920E+02  0.00000000000E+00 0.  1.
         11    1    3    3    0    0 -0.10316412702E+02  0.83946389885E+01 -0.68118436701E+01  0.14943210808E+02  0.51100000000E-03 0. -1.
        -11    1    3    3    0    0 -0.69823147484E+01 -0.20855193204E+01  0.36076079526E+01  0.81312327160E+01  0.51100000000E-03 0.  1.
        -12    1    3    3    0    0 -0.22991217773E+02  0.82438241641E+01 -0.37639292978E+01  0.24712828557E+02  0.00000000000E+00 0.  1.
</event>
<event>
 7    1  0.2811980E-010  0.4778727E+02  0.7816164E-02  0.1312668E+00
        -11   -1    0    0    0    0  0.00000000000E+00  0.00000000000E+00  0.45593999997E+02  0.45594000000E+02  0.51100000000E-03 0. -1.
         11   -1    0    0    0    0 -0.00000000000E+00 -0.00000000000E+00 -0.45593999997E+02  0.45594000000E+02  0.51100000000E-03 0.  1.
    9900012    2    1    2    0    0 -0.23304639266E+02  0.25258229283E+02  0.26505449969E+02  0.47787271482E+02  0.20000001995E+02 0.  0.
        -12    1    1    2    0    0  0.23304639266E+02 -0.25258229283E+02 -0.26505449969E+02  0.43400728518E+02  0.00000000000E+00 0.  1.
         11    1    3    3    0    0 -0.18690295981E+02  0.19061558012E+02  0.12726350804E+02  0.29574146864E+02  0.51100000000E-03 0. -1.
        -11    1    3    3    0    0 -0.50405325190E+00  0.76644656122E+00 -0.13440392990E+01  0.16272528723E+01  0.51100000000E-03 0.  1.
         12    1    3    3    0    0 -0.41102900327E+01  0.54302247102E+01  0.15123138464E+02  0.16585871746E+02  0.00000000000E+00 0. -1.
</event>
<event>
 7    1  0.2811980E-010  0.4778727E+02  0.7816164E-02  0.1312668E+00
        -11   -1    0    0    0    0  0.00000000000E+00  0.00000000000E+00  0.45593999997E+02  0.45594000000E+02  0.51100000000E-03 0. -1.
         11   -1    0    0    0    0 -0.00000000000E+00 -0.00000000000E+00 -0.45593999997E+02  0.45594000000E+02  0.51100000000E-03 0.  1.
    9900012    2    1    2    0    0 -0.42534057844E+02 -0.63527333604E+01  0.58412278865E+01  0.47787271423E+02  0.20000001724E+02 0.  0.
        -12    1    1    2    0    0  0.42534057844E+02  0.63527333604E+01 -0.58412278865E+01  0.43400728577E+02  0.00000000000E+00 0.  1.
         11    1    3    3    0    0 -0.26443532783E+02 -0.31994780122E+01  0.43613351370E+01  0.26991078712E+02  0.51100000000E-03 0. -1.
        -11    1    3    3    0    0 -0.48398176594E+00  0.35743767848E+01  0.11921487767E+01  0.37988980924E+01  0.51100000000E-03 0.  1.
        -12    1    3    3    0    0 -0.15606543295E+02 -0.67276321330E+01  0.28774397276E+00  0.16997294618E+02  0.00000000000E+00 0.  1.
</event>
<event>
 7    1  0.2811980E-010  0.4778727E+02  0.7816164E-02  0.1312668E+00
        -11   -1    0    0    0    0  0.00000000000E+00  0.00000000000E+00  0.45593999997E+02  0.45594000000E+02  0.51100000000E-03 0.  1.
         11   -1    0    0    0    0 -0.00000000000E+00 -0.00000000000E+00 -0.45593999997E+02  0.45594000000E+02  0.51100000000E-03 0. -1.
    9900012    2    1    2    0    0 -0.42654405655E+02 -0.25236426044E+01  0.76063368802E+01  0.47787268964E+02  0.19999990513E+02 0.  0.
        -12    1    1    2    0    0  0.42654405655E+02  0.25236426044E+01 -0.76063368802E+01  0.43400731036E+02  0.00000000000E+00 0.  1.
         11    1    3    3    0    0 -0.25075539581E+02 -0.87280012575E+01  0.44638477434E+01  0.26923718692E+02  0.51100000000E-03 0. -1.
        -11    1    3    3    0    0 -0.75360912221E+01  0.40342441623E+01  0.57016709859E+01  0.10275059570E+02  0.51100000000E-03 0.  1.
         12    1    3    3    0    0 -0.10042774851E+02  0.21701144908E+01 -0.25591818491E+01  0.10588490702E+02  0.00000000000E+00 0. -1.
</event>
<event>
 7    1  0.2811980E-010  0.4778727E+02  0.7816164E-02  0.1312668E+00
        -11   -1    0    0    0    0  0.00000000000E+00  0.00000000000E+00  0.45593999997E+02  0.45594000000E+02  0.51100000000E-03 0.  1.
         11   -1    0    0    0    0 -0.00000000000E+00 -0.00000000000E+00 -0.45593999997E+02  0.45594000000E+02  0.51100000000E-03 0. -1.
    9900012    2    1    2    0    0  0.29241863832E+02  0.12918571280E+02 -0.29353828025E+02  0.47787270697E+02  0.19999998415E+02 0.  0.
        -12    1    1    2    0    0 -0.29241863832E+02 -0.12918571280E+02  0.29353828025E+02  0.43400729303E+02  0.00000000000E+00 0.  1.
         11    1    3    3    0    0  0.27297386989E+02  0.88299602249E+01 -0.28036009131E+02  0.40114004315E+02  0.51100000000E-03 0. -1.
        -11    1    3    3    0    0 -0.85833241923E+00  0.37565853842E+01 -0.25213311018E+01  0.46049732981E+01  0.51100000000E-03 0.  1.
         12    1    3    3    0    0  0.28028092631E+01  0.33202567113E+00  0.12035122074E+01  0.30682930833E+01  0.00000000000E+00 0. -1.
</event>
<event>
 7    1  0.2811980E-010  0.4778728E+02  0.7816164E-02  0.1312668E+00
        -11   -1    0    0    0    0  0.00000000000E+00  0.00000000000E+00  0.45593999997E+02  0.45594000000E+02  0.51100000000E-03 0.  1.
         11   -1    0    0    0    0 -0.00000000000E+00 -0.00000000000E+00 -0.45593999997E+02  0.45594000000E+02  0.51100000000E-03 0. -1.
    9900012    2    1    2    0    0 -0.24880390625E+01  0.17031782235E+01 -0.43295855099E+02  0.47787283149E+02  0.20000055190E+02 0.  0.
        -12    1    1    2    0    0  0.24880390625E+01 -0.17031782235E+01  0.43295855099E+02  0.43400716851E+02  0.00000000000E+00 0.  1.
         11    1    3    3    0    0 -0.90328498831E+01  0.31158003347E+01 -0.22994309566E+02  0.24900579539E+02  0.51100000000E-03 0. -1.
        -11    1    3    3    0    0  0.51673283891E+01 -0.20453402418E+00 -0.41475181737E+01  0.66291043219E+01  0.51100000000E-03 0.  1.
         12    1    3    3    0    0  0.13774824315E+01 -0.12080880871E+01 -0.16154027359E+02  0.16257599288E+02  0.00000000000E+00 0. -1.
</event>
<event>
 7    1  0.4237575E-010  0.4778727E+02  0.7816164E-02  0.1312668E+00
        -11   -1    0    0    0    0  0.00000000000E+00  0.00000000000E+00  0.45593999997E+02  0.45594000000E+02  0.51100000000E-03 0. -1.
         11   -1    0    0    0    0 -0.00000000000E+00 -0.00000000000E+00 -0.45593999997E+02  0.45594000000E+02  0.51100000000E-03 0.  1.
    9900012    2    1    2    0    0  0.20972290282E+02 -0.21873594755E+01  0.37934179411E+02  0.47787268800E+02  0.19999989766E+02 0.  0.
        -12    1    1    2    0    0 -0.20972290282E+02  0.21873594755E+01 -0.37934179411E+02  0.43400731200E+02  0.00000000000E+00 0.  1.
         11    1    3    3    0    0  0.41926252686E+01  0.89995221172E+00  0.70052028423E+01  0.82134577218E+01  0.51100000000E-03 0. -1.
        -11    1    3    3    0    0  0.14901965795E+02  0.49021515128E+01  0.24740740008E+02  0.29295117177E+02  0.51100000000E-03 0.  1.
        -12    1    3    3    0    0  0.18776992184E+01 -0.79894632000E+01  0.61882365602E+01  0.10278693901E+02  0.00000000000E+00 0.  1.
</event>
<event>
 7    1  0.2811980E-010  0.4778727E+02  0.7816164E-02  0.1312668E+00
        -11   -1    0    0    0    0  0.00000000000E+00  0.00000000000E+00  0.45593999997E+02  0.45594000000E+02  0.51100000000E-03 0. -1.
         11   -1    0    0    0    0 -0.00000000000E+00 -0.00000000000E+00 -0.45593999997E+02  0.45594000000E+02  0.51100000000E-03 0.  1.
    9900012    2    1    2    0    0 -0.14252493678E+02 -0.36815500516E+02  0.18030774237E+02  0.47787268740E+02  0.19999989494E+02 0.  0.
        -12    1    1    2    0    0  0.14252493678E+02  0.36815500516E+02 -0.18030774237E+02  0.43400731260E+02  0.00000000000E+00 0.  1.
         11    1    3    3    0    0 -0.44065538777E+00  0.24813840047E+00  0.47734639877E+01  0.48001779695E+01  0.51100000000E-03 0. -1.
        -11    1    3    3    0    0 -0.15354502804E+02 -0.31091816458E+02  0.10503388744E+02  0.36232347183E+02  0.51100000000E-03 0.  1.
        -12    1    3    3    0    0  0.15426645136E+01 -0.59718224579E+01  0.27539215057E+01  0.67547435873E+01  0.00000000000E+00 0.  1.
</event>
<event>
 7    1  0.2811980E-010  0.4778727E+02  0.7816164E-02  0.1312668E+00
        -11   -1    0    0    0    0  0.00000000000E+00  0.00000000000E+00  0.45593999997E+02  0.45594000000E+02  0.51100000000E-03 0.  1.
         11   -1    0    0    0    0 -0.00000000000E+00 -0.00000000000E+00 -0.45593999997E+02  0.45594000000E+02  0.51100000000E-03 0. -1.
    9900012    2    1    2    0    0 -0.40791295332E+02  0.11904296822E+02 -0.88306997978E+01  0.47787270552E+02  0.19999997755E+02 0.  0.
        -12    1    1    2    0    0  0.40791295332E+02 -0.11904296822E+02  0.88306997978E+01  0.43400729448E+02  0.00000000000E+00 0.  1.
         11    1    3    3    0    0 -0.15480831744E+02 -0.46375276903E+01 -0.48696522476E+01  0.16878279765E+02  0.51100000000E-03 0. -1.
        -11    1    3    3    0    0 -0.12869453186E+02  0.69648436092E+01 -0.41404444698E+01  0.15207733312E+02  0.51100000000E-03 0.  1.
         12    1    3    3    0    0 -0.12441010402E+02  0.95769809030E+01  0.17939691958E+00  0.15701257475E+02  0.00000000000E+00 0. -1.
</event>
<event>
 7    1  0.2811980E-010  0.4778727E+02  0.7816164E-02  0.1312668E+00
        -11   -1    0    0    0    0  0.00000000000E+00  0.00000000000E+00  0.45593999997E+02  0.45594000000E+02  0.51100000000E-03 0.  1.
         11   -1    0    0    0    0 -0.00000000000E+00 -0.00000000000E+00 -0.45593999997E+02  0.45594000000E+02  0.51100000000E-03 0. -1.
    9900012    2    1    2    0    0  0.29076112867E+02  0.17978864579E+02 -0.26738799116E+02  0.47787270868E+02  0.19999999197E+02 0.  0.
        -12    1    1    2    0    0 -0.29076112867E+02 -0.17978864579E+02  0.26738799116E+02  0.43400729132E+02  0.00000000000E+00 0.  1.
         11    1    3    3    0    0  0.26007969114E+02  0.12386141829E+02 -0.24023820474E+02  0.37509664318E+02  0.51100000000E-03 0. -1.
        -11    1    3    3    0    0  0.45362759564E+01  0.63151961463E+01 -0.88974802316E+00  0.78263116297E+01  0.51100000000E-03 0.  1.
         12    1    3    3    0    0 -0.14681322033E+01 -0.72247339648E+00 -0.18252306187E+01  0.24512949203E+01  0.00000000000E+00 0. -1.
</event>
<event>
 7    1  0.2811980E-010  0.4778725E+02  0.7816164E-02  0.1312668E+00
        -11   -1    0    0    0    0  0.00000000000E+00  0.00000000000E+00  0.45593999997E+02  0.45594000000E+02  0.51100000000E-03 0. -1.
         11   -1    0    0    0    0 -0.00000000000E+00 -0.00000000000E+00 -0.45593999997E+02  0.45594000000E+02  0.51100000000E-03 0.  1.
    9900012    2    1    2    0    0  0.40068578874E+01 -0.38933812656E+02  0.18754420256E+02  0.47787251652E+02  0.19999911582E+02 0.  0.
        -12    1    1    2    0    0 -0.40068578874E+01  0.38933812656E+02 -0.18754420256E+02  0.43400748348E+02  0.00000000000E+00 0.  1.
         11    1    3    3    0    0  0.27581436103E+01 -0.19145879015E+02  0.45563599949E+01  0.19872907591E+02  0.51100000000E-03 0. -1.
        -11    1    3    3    0    0  0.46945315041E+01 -0.14665666351E+02  0.15226723139E+02  0.21655795838E+02  0.51100000000E-03 0.  1.
        -12    1    3    3    0    0 -0.34458172270E+01 -0.51222672893E+01 -0.10286628784E+01  0.62585482232E+01  0.00000000000E+00 0.  1.
</event>
<event>
 7    1  0.2811980E-010  0.4778727E+02  0.7816164E-02  0.1312668E+00
        -11   -1    0    0    0    0  0.00000000000E+00  0.00000000000E+00  0.45593999997E+02  0.45594000000E+02  0.51100000000E-03 0.  1.
         11   -1    0    0    0    0 -0.00000000000E+00 -0.00000000000E+00 -0.45593999997E+02  0.45594000000E+02  0.51100000000E-03 0. -1.
    9900012    2    1    2    0    0  0.34868325609E+02 -0.39224990054E+01 -0.25542852097E+02  0.47787269333E+02  0.19999992196E+02 0.  0.
        -12    1    1    2    0    0 -0.34868325609E+02  0.39224990054E+01  0.25542852097E+02  0.43400730667E+02  0.00000000000E+00 0.  1.
         11    1    3    3    0    0  0.23554756148E+02 -0.10024074943E+02 -0.14437157332E+02  0.29389456064E+02  0.51100000000E-03 0. -1.
        -11    1    3    3    0    0  0.50133264697E+01  0.65710249403E+01 -0.72656691092E+01  0.11004624434E+02  0.51100000000E-03 0.  1.
        -12    1    3    3    0    0  0.63002429915E+01 -0.46944900222E+00 -0.38400256551E+01  0.73931888350E+01  0.00000000000E+00 0.  1.
</event>
<event>
 7    1  0.2811980E-010  0.4778730E+02  0.7816164E-02  0.1312668E+00
        -11   -1    0    0    0    0  0.00000000000E+00  0.00000000000E+00  0.45593999997E+02  0.45594000000E+02  0.51100000000E-03 0.  1.
         11   -1    0    0    0    0 -0.00000000000E+00 -0.00000000000E+00 -0.45593999997E+02  0.45594000000E+02  0.51100000000E-03 0. -1.
    9900012    2    1    2    0    0 -0.34537663850E+02 -0.25858279993E+02 -0.47032190809E+01  0.47787295649E+02  0.20000112183E+02 0.  0.
        -12    1    1    2    0    0  0.34537663850E+02  0.25858279993E+02  0.47032190809E+01  0.43400704351E+02  0.00000000000E+00 0.  1.
         11    1    3    3    0    0 -0.15553210437E+02 -0.14058256706E+02  0.42157312300E+01  0.21384791947E+02  0.51100000000E-03 0. -1.
        -11    1    3    3    0    0 -0.99488839152E+01 -0.38612034977E+01 -0.96015032890E+01  0.14355418812E+02  0.51100000000E-03 0.  1.
        -12    1    3    3    0    0 -0.90355694977E+01 -0.79388197887E+01  0.68255297809E+00  0.12047084890E+02  0.00000000000E+00 0.  1.
</event>
<event>
 7    1  0.2811980E-010  0.4778727E+02  0.7816164E-02  0.1312668E+00
        -11   -1    0    0    0    0  0.00000000000E+00  0.00000000000E+00  0.45593999997E+02  0.45594000000E+02  0.51100000000E-03 0.  1.
         11   -1    0    0    0    0 -0.00000000000E+00 -0.00000000000E+00 -0.45593999997E+02  0.45594000000E+02  0.51100000000E-03 0. -1.
    9900012    2    1    2    0    0 -0.23754178782E+02 -0.45604906535E+01 -0.36035601905E+02  0.47787266259E+02  0.19999978180E+02 0.  0.
        -12    1    1    2    0    0  0.23754178782E+02  0.45604906535E+01  0.36035601905E+02  0.43400733741E+02  0.00000000000E+00 0.  1.
         11    1    3    3    0    0 -0.12594429673E+02 -0.89313000346E+01 -0.21050652828E+02  0.26105895193E+02  0.51100000000E-03 0. -1.
        -11    1    3    3    0    0 -0.12840636871E+02  0.42630608132E+01 -0.11293505682E+02  0.17623816658E+02  0.51100000000E-03 0.  1.
        -12    1    3    3    0    0  0.16808877624E+01  0.10774856792E+00 -0.36914433957E+01  0.40575544072E+01  0.00000000000E+00 0.  1.
</event>
<event>
 7    1  0.2811980E-010  0.4778727E+02  0.7816164E-02  0.1312668E+00
        -11   -1    0    0    0    0  0.00000000000E+00  0.00000000000E+00  0.45593999997E+02  0.45594000000E+02  0.51100000000E-03 0.  1.
         11   -1    0    0    0    0 -0.00000000000E+00 -0.00000000000E+00 -0.45593999997E+02  0.45594000000E+02  0.51100000000E-03 0. -1.
    9900012    2    1    2    0    0 -0.12588495788E+02 -0.26851293215E+00 -0.41534091873E+02  0.47787272896E+02  0.20000008442E+02 0.  0.
        -12    1    1    2    0    0  0.12588495788E+02  0.26851293215E+00  0.41534091873E+02  0.43400727104E+02  0.00000000000E+00 0.  1.
         11    1    3    3    0    0 -0.56426670314E+01  0.24887529628E+01 -0.23736996986E+02  0.24525060829E+02  0.51100000000E-03 0. -1.
        -11    1    3    3    0    0  0.16548862270E+01 -0.18455920111E+01  0.91948830545E+00  0.26439208196E+01  0.51100000000E-03 0.  1.
        -12    1    3    3    0    0 -0.86007149839E+01 -0.91167388386E+00 -0.18716583193E+02  0.20618291247E+02  0.00000000000E+00 0.  1.
</event>
<event>
 7    1  0.2811980E-010  0.4778727E+02  0.7816164E-02  0.1312668E+00
        -11   -1    0    0    0    0  0.00000000000E+00  0.00000000000E+00  0.45593999997E+02  0.45594000000E+02  0.51100000000E-03 0.  1.
         11   -1    0    0    0    0 -0.00000000000E+00 -0.00000000000E+00 -0.45593999997E+02  0.45594000000E+02  0.51100000000E-03 0. -1.
    9900012    2    1    2    0    0 -0.12273823307E+02 -0.39667154256E+02 -0.12629086811E+02  0.47787266147E+02  0.19999977670E+02 0.  0.
        -12    1    1    2    0    0  0.12273823307E+02  0.39667154256E+02  0.12629086811E+02  0.43400733853E+02  0.00000000000E+00 0.  1.
         11    1    3    3    0    0 -0.60379634905E+01 -0.14646841375E+02 -0.56022110221E+01  0.16803920197E+02  0.51100000000E-03 0. -1.
        -11    1    3    3    0    0 -0.11180855176E+02 -0.15691642471E+02 -0.67687268307E+01  0.20421920308E+02  0.51100000000E-03 0.  1.
        -12    1    3    3    0    0  0.49449953588E+01 -0.93286704099E+01 -0.25814895772E+00  0.10561425642E+02  0.00000000000E+00 0.  1.
</event>
<event>
 7    1  0.2811980E-010  0.4778726E+02  0.7816164E-02  0.1312668E+00
        -11   -1    0    0    0    0  0.00000000000E+00  0.00000000000E+00  0.45593999997E+02  0.45594000000E+02  0.51100000000E-03 0.  1.
         11   -1    0    0    0    0 -0.00000000000E+00 -0.00000000000E+00 -0.45593999997E+02  0.45594000000E+02  0.51100000000E-03 0. -1.
    9900012    2    1    2    0    0  0.34207629559E+02  0.13530598361E+02 -0.23030086902E+02  0.47787263661E+02  0.19999966335E+02 0.  0.
        -12    1    1    2    0    0 -0.34207629559E+02 -0.13530598361E+02  0.23030086902E+02  0.43400736339E+02  0.00000000000E+00 0.  1.
         11    1    3    3    0    0  0.11109685622E+01  0.43728078805E+00 -0.74851843678E+01  0.75798054668E+01  0.51100000000E-03 0. -1.
        -11    1    3    3    0    0  0.29047194857E+02  0.82317080562E+01 -0.15368990937E+02  0.33877816182E+02  0.51100000000E-03 0.  1.
        -12    1    3    3    0    0  0.40494661390E+01  0.48616095170E+01 -0.17591159810E+00  0.63296420118E+01  0.00000000000E+00 0.  1.
</event>
<event>
 7    1  0.2811980E-010  0.4778726E+02  0.7816164E-02  0.1312668E+00
        -11   -1    0    0    0    0  0.00000000000E+00  0.00000000000E+00  0.45593999997E+02  0.45594000000E+02  0.51100000000E-03 0.  1.
         11   -1    0    0    0    0 -0.00000000000E+00 -0.00000000000E+00 -0.45593999997E+02  0.45594000000E+02  0.51100000000E-03 0. -1.
    9900012    2    1    2    0    0 -0.28418691207E+01  0.37511773430E+02 -0.21642888036E+02  0.47787263041E+02  0.19999963511E+02 0.  0.
        -12    1    1    2    0    0  0.28418691207E+01 -0.37511773430E+02  0.21642888036E+02  0.43400736959E+02  0.00000000000E+00 0.  1.
         11    1    3    3    0    0 -0.84241706437E+01  0.17265961373E+02 -0.13736227060E+02  0.23617027909E+02  0.51100000000E-03 0. -1.
        -11    1    3    3    0    0  0.35160267938E+01  0.16353477428E+02 -0.20670113601E+01  0.16854412023E+02  0.51100000000E-03 0.  1.
         12    1    3    3    0    0  0.20662747292E+01  0.38923346296E+01 -0.58396496167E+01  0.73158231097E+01  0.00000000000E+00 0. -1.
</event>
<event>
 7    1  0.2811980E-010  0.4778727E+02  0.7816164E-02  0.1312668E+00
        -11   -1    0    0    0    0  0.00000000000E+00  0.00000000000E+00  0.45593999997E+02  0.45594000000E+02  0.51100000000E-03 0.  1.
         11   -1    0    0    0    0 -0.00000000000E+00 -0.00000000000E+00 -0.45593999997E+02  0.45594000000E+02  0.51100000000E-03 0. -1.
    9900012    2    1    2    0    0 -0.35067853065E+02  0.14764615657E+02 -0.20877617976E+02  0.47787272743E+02  0.20000007746E+02 0.  0.
        -12    1    1    2    0    0  0.35067853065E+02 -0.14764615657E+02  0.20877617976E+02  0.43400727257E+02  0.00000000000E+00 0.  1.
         11    1    3    3    0    0 -0.38984022058E+01  0.53936930499E+01 -0.97754945479E+01  0.11825808995E+02  0.51100000000E-03 0. -1.
        -11    1    3    3    0    0 -0.23675951099E+02  0.39136510898E+01 -0.41020858005E+01  0.24345316459E+02  0.51100000000E-03 0.  1.
        -12    1    3    3    0    0 -0.74934997597E+01  0.54572715170E+01 -0.70000376273E+01  0.11616147289E+02  0.00000000000E+00 0.  1.
</event>
<event>
 7    1  0.2811980E-010  0.4778727E+02  0.7816164E-02  0.1312668E+00
        -11   -1    0    0    0    0  0.00000000000E+00  0.00000000000E+00  0.45593999997E+02  0.45594000000E+02  0.51100000000E-03 0.  1.
         11   -1    0    0    0    0 -0.00000000000E+00 -0.00000000000E+00 -0.45593999997E+02  0.45594000000E+02  0.51100000000E-03 0. -1.
    9900012    2    1    2    0    0  0.32875996724E+02 -0.25972661186E+02 -0.11323136678E+02  0.47787265975E+02  0.19999976886E+02 0.  0.
        -12    1    1    2    0    0 -0.32875996724E+02  0.25972661186E+02  0.11323136678E+02  0.43400734025E+02  0.00000000000E+00 0.  1.
         11    1    3    3    0    0  0.20638723974E+02 -0.16839209869E+02 -0.12663986105E+02  0.29493939388E+02  0.51100000000E-03 0. -1.
        -11    1    3    3    0    0  0.19730345599E+01 -0.92418533832E+00  0.43004844068E+01  0.48209076229E+01  0.51100000000E-03 0.  1.
         12    1    3    3    0    0  0.10264238190E+02 -0.82092659788E+01 -0.29596349798E+01  0.13472418964E+02  0.00000000000E+00 0. -1.
</event>
<event>
 7    1  0.2811980E-010  0.4778727E+02  0.7816164E-02  0.1312668E+00
        -11   -1    0    0    0    0  0.00000000000E+00  0.00000000000E+00  0.45593999997E+02  0.45594000000E+02  0.51100000000E-03 0.  1.
         11   -1    0    0    0    0 -0.00000000000E+00 -0.00000000000E+00 -0.45593999997E+02  0.45594000000E+02  0.51100000000E-03 0. -1.
    9900012    2    1    2    0    0 -0.29224104013E+02 -0.20037447296E+02 -0.25061443013E+02  0.47787268723E+02  0.19999989414E+02 0.  0.
        -12    1    1    2    0    0  0.29224104013E+02  0.20037447296E+02  0.25061443013E+02  0.43400731277E+02  0.00000000000E+00 0.  1.
         11    1    3    3    0    0 -0.21264393193E+02 -0.12098300819E+02 -0.11788936080E+02  0.27157362072E+02  0.51100000000E-03 0. -1.
        -11    1    3    3    0    0  0.12387145090E+01 -0.32379107594E+01  0.40428971065E+00  0.34902621896E+01  0.51100000000E-03 0.  1.
        -12    1    3    3    0    0 -0.91984253291E+01 -0.47012357181E+01 -0.13676796643E+02  0.17139644461E+02  0.00000000000E+00 0.  1.
</event>
<event>
 7    1  0.2811980E-010  0.4778727E+02  0.7816164E-02  0.1312668E+00
        -11   -1    0    0    0    0  0.00000000000E+00  0.00000000000E+00  0.45593999997E+02  0.45594000000E+02  0.51100000000E-03 0.  1.
         11   -1    0    0    0    0 -0.00000000000E+00 -0.00000000000E+00 -0.45593999997E+02  0.45594000000E+02  0.51100000000E-03 0. -1.
    9900012    2    1    2    0    0 -0.31039180442E+02  0.29345631864E+02  0.76828990629E+01  0.47787265329E+02  0.19999973939E+02 0.  0.
        -12    1    1    2    0    0  0.31039180442E+02 -0.29345631864E+02 -0.76828990629E+01  0.43400734671E+02  0.00000000000E+00 0.  1.
         11    1    3    3    0    0 -0.20479393850E+02  0.89637907771E+01  0.62918824242E+01  0.23223757281E+02  0.51100000000E-03 0. -1.
        -11    1    3    3    0    0 -0.54740142639E+01  0.15572237537E+02 -0.22740216582E+01  0.16662250413E+02  0.51100000000E-03 0.  1.
        -12    1    3    3    0    0 -0.50857723278E+01  0.48096035503E+01  0.36650382969E+01  0.79012576340E+01  0.00000000000E+00 0.  1.
</event>
<event>
 7    1  0.2811980E-010  0.4778727E+02  0.7816164E-02  0.1312668E+00
        -11   -1    0    0    0    0  0.00000000000E+00  0.00000000000E+00  0.45593999997E+02  0.45594000000E+02  0.51100000000E-03 0. -1.
         11   -1    0    0    0    0 -0.00000000000E+00 -0.00000000000E+00 -0.45593999997E+02  0.45594000000E+02  0.51100000000E-03 0.  1.
    9900012    2    1    2    0    0 -0.23311575527E+01 -0.27098365841E+02  0.33821110950E+02  0.47787271058E+02  0.20000000062E+02 0.  0.
        -12    1    1    2    0    0  0.23311575527E+01  0.27098365841E+02 -0.33821110950E+02  0.43400728942E+02  0.00000000000E+00 0.  1.
         11    1    3    3    0    0  0.52981103203E+01 -0.40242812733E+01  0.13872858770E+02  0.15385740913E+02  0.51100000000E-03 0. -1.
        -11    1    3    3    0    0 -0.78468217239E+01 -0.15503537198E+02  0.16894340354E+02  0.24235325727E+02  0.51100000000E-03 0.  1.
        -12    1    3    3    0    0  0.21755385095E+00 -0.75705473695E+01  0.30539118255E+01  0.81662044176E+01  0.00000000000E+00 0.  1.
</event>
<event>
 7    1  0.2811980E-010  0.4778728E+02  0.7816164E-02  0.1312668E+00
        -11   -1    0    0    0    0  0.00000000000E+00  0.00000000000E+00  0.45593999997E+02  0.45594000000E+02  0.51100000000E-03 0.  1.
         11   -1    0    0    0    0 -0.00000000000E+00 -0.00000000000E+00 -0.45593999997E+02  0.45594000000E+02  0.51100000000E-03 0. -1.
    9900012    2    1    2    0    0  0.13687253666E+02 -0.11047510961E+02 -0.39676623809E+02  0.47787275487E+02  0.20000020255E+02 0.  0.
        -12    1    1    2    0    0 -0.13687253666E+02  0.11047510961E+02  0.39676623809E+02  0.43400724513E+02  0.00000000000E+00 0.  1.
         11    1    3    3    0    0  0.16365738590E+02 -0.79874899189E+01 -0.23695485319E+02  0.29885003255E+02  0.51100000000E-03 0. -1.
        -11    1    3    3    0    0 -0.27372016049E+01  0.16680494226E+01 -0.49102729940E+01  0.58639101834E+01  0.51100000000E-03 0.  1.
         12    1    3    3    0    0  0.58716680733E-01 -0.47280704649E+01 -0.11070865496E+02  0.12038362048E+02  0.00000000000E+00 0. -1.
</event>
<event>
 7    1  0.2811980E-010  0.4778728E+02  0.7816164E-02  0.1312668E+00
        -11   -1    0    0    0    0  0.00000000000E+00  0.00000000000E+00  0.45593999997E+02  0.45594000000E+02  0.51100000000E-03 0. -1.
         11   -1    0    0    0    0 -0.00000000000E+00 -0.00000000000E+00 -0.45593999997E+02  0.45594000000E+02  0.51100000000E-03 0.  1.
    9900012    2    1    2    0    0 -0.15284080800E+02  0.39399317204E+02 -0.98850066305E+01  0.47787277908E+02  0.20000031293E+02 0.  0.
        -12    1    1    2    0    0  0.15284080800E+02 -0.39399317204E+02  0.98850066305E+01  0.43400722092E+02  0.00000000000E+00 0.  1.
         11    1    3    3    0    0  0.59645863291E+00  0.26288172882E+01 -0.53368921931E+01  0.59790351878E+01  0.51100000000E-03 0.  1.
        -11    1    3    3    0    0 -0.13215525058E+02  0.17263840579E+02 -0.73081510381E+00  0.21753721177E+02  0.51100000000E-03 0. -1.
         12    1    3    3    0    0 -0.26650143754E+01  0.19506659337E+02 -0.38172993336E+01  0.20054521543E+02  0.00000000000E+00 0. -1.
</event>
<event>
 7    1  0.2811980E-010  0.4778727E+02  0.7816164E-02  0.1312668E+00
        -11   -1    0    0    0    0  0.00000000000E+00  0.00000000000E+00  0.45593999997E+02  0.45594000000E+02  0.51100000000E-03 0.  1.
         11   -1    0    0    0    0 -0.00000000000E+00 -0.00000000000E+00 -0.45593999997E+02  0.45594000000E+02  0.51100000000E-03 0. -1.
    9900012    2    1    2    0    0  0.26698963545E+02 -0.23545241331E+02 -0.24827619389E+02  0.47787265810E+02  0.19999976134E+02 0.  0.
        -12    1    1    2    0    0 -0.26698963545E+02  0.23545241331E+02  0.24827619389E+02  0.43400734190E+02  0.00000000000E+00 0.  1.
         11    1    3    3    0    0  0.14693904852E+02 -0.10988537588E+02 -0.80531566241E+01  0.20037767590E+02  0.51100000000E-03 0. -1.
        -11    1    3    3    0    0 -0.32656714136E+00  0.23428430951E+01 -0.37442013648E+01  0.44288377693E+01  0.51100000000E-03 0.  1.
        -12    1    3    3    0    0  0.12331625834E+02 -0.14899546838E+02 -0.13030261400E+02  0.23320660450E+02  0.00000000000E+00 0.  1.
</event>
<event>
 7    1  0.2811980E-010  0.4778727E+02  0.7816164E-02  0.1312668E+00
        -11   -1    0    0    0    0  0.00000000000E+00  0.00000000000E+00  0.45593999997E+02  0.45594000000E+02  0.51100000000E-03 0. -1.
         11   -1    0    0    0    0 -0.00000000000E+00 -0.00000000000E+00 -0.45593999997E+02  0.45594000000E+02  0.51100000000E-03 0.  1.
    9900012    2    1    2    0    0 -0.63593174638E+01  0.25568715808E+02  0.34488014205E+02  0.47787271083E+02  0.20000000177E+02 0.  0.
        -12    1    1    2    0    0  0.63593174638E+01 -0.25568715808E+02 -0.34488014205E+02  0.43400728917E+02  0.00000000000E+00 0.  1.
         11    1    3    3    0    0  0.11098584684E+00  0.35993772843E+01  0.69590164000E+01  0.78355436448E+01  0.51100000000E-03 0. -1.
        -11    1    3    3    0    0  0.55912007862E+01  0.44828225932E+01  0.10566473336E+02  0.12767442330E+02  0.51100000000E-03 0.  1.
        -12    1    3    3    0    0 -0.12061504097E+02  0.17486515931E+02  0.16962524469E+02  0.27184285108E+02  0.00000000000E+00 0.  1.
</event>
<event>
 7    1  0.2811980E-010  0.4778728E+02  0.7816164E-02  0.1312668E+00
        -11   -1    0    0    0    0  0.00000000000E+00  0.00000000000E+00  0.45593999997E+02  0.45594000000E+02  0.51100000000E-03 0.  1.
         11   -1    0    0    0    0 -0.00000000000E+00 -0.00000000000E+00 -0.45593999997E+02  0.45594000000E+02  0.51100000000E-03 0. -1.
    9900012    2    1    2    0    0 -0.32964646122E+02 -0.12550520641E+02 -0.25287139479E+02  0.47787275520E+02  0.20000020407E+02 0.  0.
        -12    1    1    2    0    0  0.32964646122E+02  0.12550520641E+02  0.25287139479E+02  0.43400724480E+02  0.00000000000E+00 0.  1.
         11    1    3    3    0    0 -0.29255690726E+01 -0.14423068011E+01 -0.83995744625E+01  0.90106633895E+01  0.51100000000E-03 0. -1.
        -11    1    3    3    0    0 -0.83326006078E+01 -0.25412208709E+01  0.17815937452E+01  0.88918003204E+01  0.51100000000E-03 0.  1.
        -12    1    3    3    0    0 -0.21706476442E+02 -0.85669929689E+01 -0.18669158762E+02  0.29884811810E+02  0.00000000000E+00 0.  1.
</event>
<event>
 7    1  0.2811980E-010  0.4778728E+02  0.7816164E-02  0.1312668E+00
        -11   -1    0    0    0    0  0.00000000000E+00  0.00000000000E+00  0.45593999997E+02  0.45594000000E+02  0.51100000000E-03 0.  1.
         11   -1    0    0    0    0 -0.00000000000E+00 -0.00000000000E+00 -0.45593999997E+02  0.45594000000E+02  0.51100000000E-03 0. -1.
    9900012    2    1    2    0    0  0.29454483291E+02  0.31858762417E+02 -0.10369967252E+01  0.47787277761E+02  0.20000030622E+02 0.  0.
        -12    1    1    2    0    0 -0.29454483291E+02 -0.31858762417E+02  0.10369967252E+01  0.43400722239E+02  0.00000000000E+00 0.  1.
         11    1    3    3    0    0  0.80642134510E+01  0.89158405028E+01  0.26255561824E+01  0.12305173545E+02  0.51100000000E-03 0. -1.
        -11    1    3    3    0    0  0.89073119842E+01  0.47004649451E+01  0.55904524873E+01  0.11519016310E+02  0.51100000000E-03 0.  1.
        -12    1    3    3    0    0  0.12482957856E+02  0.18242456969E+02 -0.92530053949E+01  0.23963087905E+02  0.00000000000E+00 0.  1.
</event>
<event>
 7    1  0.2811980E-010  0.4778727E+02  0.7816164E-02  0.1312668E+00
        -11   -1    0    0    0    0  0.00000000000E+00  0.00000000000E+00  0.45593999997E+02  0.45594000000E+02  0.51100000000E-03 0.  1.
         11   -1    0    0    0    0 -0.00000000000E+00 -0.00000000000E+00 -0.45593999997E+02  0.45594000000E+02  0.51100000000E-03 0. -1.
    9900012    2    1    2    0    0 -0.75053417580E+01  0.45229306816E+00 -0.42744457923E+02  0.47787269511E+02  0.19999993006E+02 0.  0.
        -12    1    1    2    0    0  0.75053417580E+01 -0.45229306816E+00  0.42744457923E+02  0.43400730489E+02  0.00000000000E+00 0.  1.
         11    1    3    3    0    0 -0.96607697633E+01 -0.40560022251E+01 -0.16742960726E+02  0.19751160994E+02  0.51100000000E-03 0. -1.
        -11    1    3    3    0    0  0.43649182506E+01 -0.61081690823E+00 -0.15882488213E+02  0.16482689123E+02  0.51100000000E-03 0.  1.
        -12    1    3    3    0    0 -0.22094902453E+01  0.51191122015E+01 -0.10119008984E+02  0.11553419394E+02  0.00000000000E+00 0.  1.
</event>
<event>
 7    1  0.2811980E-010  0.4778727E+02  0.7816164E-02  0.1312668E+00
        -11   -1    0    0    0    0  0.00000000000E+00  0.00000000000E+00  0.45593999997E+02  0.45594000000E+02  0.51100000000E-03 0.  1.
         11   -1    0    0    0    0 -0.00000000000E+00 -0.00000000000E+00 -0.45593999997E+02  0.45594000000E+02  0.51100000000E-03 0. -1.
    9900012    2    1    2    0    0  0.38472037895E+01  0.94257301678E+01 -0.42189784771E+02  0.47787270684E+02  0.19999998355E+02 0.  0.
        -12    1    1    2    0    0 -0.38472037895E+01 -0.94257301678E+01  0.42189784771E+02  0.43400729316E+02  0.00000000000E+00 0.  1.
         11    1    3    3    0    0 -0.58100735667E+01  0.28887273759E+01 -0.60981721218E+01  0.89044597923E+01  0.51100000000E-03 0.  1.
        -11    1    3    3    0    0  0.21652353115E+01 -0.19433344230E+01 -0.10609374672E+02  0.11001073758E+02  0.51100000000E-03 0. -1.
         12    1    3    3    0    0  0.74920420447E+01  0.84803372149E+01 -0.25482237976E+02  0.27881737133E+02  0.00000000000E+00 0. -1.
</event>
<event>
 7    1  0.2811980E-010  0.4778727E+02  0.7816164E-02  0.1312668E+00
        -11   -1    0    0    0    0  0.00000000000E+00  0.00000000000E+00  0.45593999997E+02  0.45594000000E+02  0.51100000000E-03 0.  1.
         11   -1    0    0    0    0 -0.00000000000E+00 -0.00000000000E+00 -0.45593999997E+02  0.45594000000E+02  0.51100000000E-03 0. -1.
    9900012    2    1    2    0    0 -0.19356271464E+02  0.97369599906E+01 -0.37605181161E+02  0.47787270916E+02  0.19999999415E+02 0.  0.
        -12    1    1    2    0    0  0.19356271464E+02 -0.97369599906E+01  0.37605181161E+02  0.43400729084E+02  0.00000000000E+00 0.  1.
         11    1    3    3    0    0 -0.20881087628E+01  0.85627236647E+01 -0.99366948635E+01  0.13282256579E+02  0.51100000000E-03 0. -1.
        -11    1    3    3    0    0 -0.17821027338E+02  0.66602331592E+00 -0.19985078230E+02  0.26784994952E+02  0.51100000000E-03 0.  1.
        -12    1    3    3    0    0  0.55286463754E+00  0.50821301000E+00 -0.76834080677E+01  0.77200193851E+01  0.00000000000E+00 0.  1.
</event>
<event>
 7    1  0.2811980E-010  0.4778727E+02  0.7816164E-02  0.1312668E+00
        -11   -1    0    0    0    0  0.00000000000E+00  0.00000000000E+00  0.45593999997E+02  0.45594000000E+02  0.51100000000E-03 0.  1.
         11   -1    0    0    0    0 -0.00000000000E+00 -0.00000000000E+00 -0.45593999997E+02  0.45594000000E+02  0.51100000000E-03 0. -1.
    9900012    2    1    2    0    0  0.11575414213E+02 -0.21254930828E+02 -0.36025842046E+02  0.47787267358E+02  0.19999983193E+02 0.  0.
        -12    1    1    2    0    0 -0.11575414213E+02  0.21254930828E+02  0.36025842046E+02  0.43400732642E+02  0.00000000000E+00 0.  1.
         11    1    3    3    0    0  0.78982900255E+01 -0.11510648933E+02 -0.17916873520E+02  0.22713264432E+02  0.51100000000E-03 0.  1.
        -11    1    3    3    0    0  0.86705009212E+01 -0.85552079819E+01 -0.13390675479E+02  0.18101915917E+02  0.51100000000E-03 0. -1.
        -12    1    3    3    0    0 -0.49933767335E+01 -0.11890739131E+01 -0.47182930472E+01  0.69720870084E+01  0.00000000000E+00 0.  1.
</event>
<event>
 7    1  0.2811980E-010  0.4778727E+02  0.7816164E-02  0.1312668E+00
        -11   -1    0    0    0    0  0.00000000000E+00  0.00000000000E+00  0.45593999997E+02  0.45594000000E+02  0.51100000000E-03 0.  1.
         11   -1    0    0    0    0 -0.00000000000E+00 -0.00000000000E+00 -0.45593999997E+02  0.45594000000E+02  0.51100000000E-03 0. -1.
    9900012    2    1    2    0    0  0.22129947595E+02  0.22697451051E+02 -0.29643120273E+02  0.47787269081E+02  0.19999991048E+02 0.  0.
        -12    1    1    2    0    0 -0.22129947595E+02 -0.22697451051E+02  0.29643120273E+02  0.43400730919E+02  0.00000000000E+00 0.  1.
         11    1    3    3    0    0  0.26151109592E+01 -0.91362861363E+00 -0.11931532729E+02  0.12248877341E+02  0.51100000000E-03 0.  1.
        -11    1    3    3    0    0  0.13286349733E+02  0.16268480885E+02 -0.13875885902E+02  0.25174009799E+02  0.51100000000E-03 0. -1.
        -12    1    3    3    0    0  0.62284869031E+01  0.73425987802E+01 -0.38357016418E+01  0.10364381942E+02  0.00000000000E+00 0.  1.
</event>
<event>
 7    1  0.2811980E-010  0.4778726E+02  0.7816164E-02  0.1312668E+00
        -11   -1    0    0    0    0  0.00000000000E+00  0.00000000000E+00  0.45593999997E+02  0.45594000000E+02  0.51100000000E-03 0.  1.
         11   -1    0    0    0    0 -0.00000000000E+00 -0.00000000000E+00 -0.45593999997E+02  0.45594000000E+02  0.51100000000E-03 0. -1.
    9900012    2    1    2    0    0  0.18592339268E+02  0.22867693030E+02 -0.31859341645E+02  0.47787261366E+02  0.19999955870E+02 0.  0.
        -12    1    1    2    0    0 -0.18592339268E+02 -0.22867693030E+02  0.31859341645E+02  0.43400738634E+02  0.00000000000E+00 0.  1.
         11    1    3    3    0    0  0.16032779879E+02  0.50696601870E+01 -0.19210434297E+02  0.25530222702E+02  0.51100000000E-03 0. -1.
        -11    1    3    3    0    0  0.30201356960E+01  0.16809482260E+02 -0.11122698129E+02  0.20381224875E+02  0.51100000000E-03 0.  1.
         12    1    3    3    0    0 -0.46057630736E+00  0.98855058315E+00 -0.15262092192E+01  0.18758137890E+01  0.00000000000E+00 0. -1.
</event>
<event>
 7    1  0.2811980E-010  0.4778729E+02  0.7816164E-02  0.1312668E+00
        -11   -1    0    0    0    0  0.00000000000E+00  0.00000000000E+00  0.45593999997E+02  0.45594000000E+02  0.51100000000E-03 0.  1.
         11   -1    0    0    0    0 -0.00000000000E+00 -0.00000000000E+00 -0.45593999997E+02  0.45594000000E+02  0.51100000000E-03 0. -1.
    9900012    2    1    2    0    0  0.26226521600E+02 -0.70591847551E+01 -0.33852012456E+02  0.47787294107E+02  0.20000105152E+02 0.  0.
        -12    1    1    2    0    0 -0.26226521600E+02  0.70591847551E+01  0.33852012456E+02  0.43400705893E+02  0.00000000000E+00 0.  1.
         11    1    3    3    0    0  0.23789988144E+02 -0.13579148582E+01 -0.19223085879E+02  0.30615919056E+02  0.51100000000E-03 0. -1.
        -11    1    3    3    0    0  0.25977078915E+01 -0.70675489464E+01 -0.11408398494E+02  0.13669304695E+02  0.51100000000E-03 0.  1.
         12    1    3    3    0    0 -0.16117443569E+00  0.13662790496E+01 -0.32205280837E+01  0.35020703560E+01  0.00000000000E+00 0. -1.
</event>
<event>
 7    1  0.2811980E-010  0.4778727E+02  0.7816164E-02  0.1312668E+00
        -11   -1    0    0    0    0  0.00000000000E+00  0.00000000000E+00  0.45593999997E+02  0.45594000000E+02  0.51100000000E-03 0.  1.
         11   -1    0    0    0    0 -0.00000000000E+00 -0.00000000000E+00 -0.45593999997E+02  0.45594000000E+02  0.51100000000E-03 0. -1.
    9900012    2    1    2    0    0 -0.38941036579E+02 -0.18632561408E+02 -0.44773191907E+01  0.47787273490E+02  0.20000011148E+02 0.  0.
        -12    1    1    2    0    0  0.38941036579E+02  0.18632561408E+02  0.44773191907E+01  0.43400726510E+02  0.00000000000E+00 0.  1.
         11    1    3    3    0    0 -0.13963329868E+02  0.24372752734E-01  0.15834313371E+01  0.14052844199E+02  0.51100000000E-03 0. -1.
        -11    1    3    3    0    0 -0.81015713779E+01 -0.12301438624E+02 -0.54028914339E+01  0.15689234753E+02  0.51100000000E-03 0.  1.
        -12    1    3    3    0    0 -0.16876135334E+02 -0.63554955364E+01 -0.65785909395E+00  0.18045194538E+02  0.00000000000E+00 0.  1.
</event>
<event>
 7    1  0.2811980E-010  0.4778727E+02  0.7816164E-02  0.1312668E+00
        -11   -1    0    0    0    0  0.00000000000E+00  0.00000000000E+00  0.45593999997E+02  0.45594000000E+02  0.51100000000E-03 0. -1.
         11   -1    0    0    0    0 -0.00000000000E+00 -0.00000000000E+00 -0.45593999997E+02  0.45594000000E+02  0.51100000000E-03 0.  1.
    9900012    2    1    2    0    0 -0.58565152835E+01  0.42595808800E+02 -0.59094573139E+01  0.47787269772E+02  0.19999994199E+02 0.  0.
        -12    1    1    2    0    0  0.58565152835E+01 -0.42595808800E+02  0.59094573139E+01  0.43400730228E+02  0.00000000000E+00 0.  1.
         11    1    3    3    0    0 -0.99920017655E+01  0.27889692432E+02 -0.38397769350E+01  0.29873381637E+02  0.51100000000E-03 0. -1.
        -11    1    3    3    0    0 -0.29147407520E+01  0.37051402432E+01 -0.85698599629E+00  0.47914719171E+01  0.51100000000E-03 0.  1.
         12    1    3    3    0    0  0.70502272340E+01  0.11000976124E+02 -0.12126943826E+01  0.13122416218E+02  0.00000000000E+00 0. -1.
</event>
<event>
 7    1  0.2811980E-010  0.4778727E+02  0.7816164E-02  0.1312668E+00
        -11   -1    0    0    0    0  0.00000000000E+00  0.00000000000E+00  0.45593999997E+02  0.45594000000E+02  0.51100000000E-03 0.  1.
         11   -1    0    0    0    0 -0.00000000000E+00 -0.00000000000E+00 -0.45593999997E+02  0.45594000000E+02  0.51100000000E-03 0. -1.
    9900012    2    1    2    0    0  0.37766020443E+01  0.17973448252E+01 -0.43198726819E+02  0.47787272239E+02  0.20000005446E+02 0.  0.
        -12    1    1    2    0    0 -0.37766020443E+01 -0.17973448252E+01  0.43198726819E+02  0.43400727761E+02  0.00000000000E+00 0.  1.
         11    1    3    3    0    0 -0.26308140013E+01 -0.53250931236E+01 -0.24240037416E+02  0.24957107470E+02  0.51100000000E-03 0. -1.
        -11    1    3    3    0    0  0.34851754542E+01  0.84481585157E+00 -0.12201366512E+01  0.37879935954E+01  0.51100000000E-03 0.  1.
         12    1    3    3    0    0  0.29222405914E+01  0.62776220972E+01 -0.17738552752E+02  0.19042171173E+02  0.00000000000E+00 0. -1.
</event>
<event>
 7    1  0.2811980E-010  0.4778728E+02  0.7816164E-02  0.1312668E+00
        -11   -1    0    0    0    0  0.00000000000E+00  0.00000000000E+00  0.45593999997E+02  0.45594000000E+02  0.51100000000E-03 0. -1.
         11   -1    0    0    0    0 -0.00000000000E+00 -0.00000000000E+00 -0.45593999997E+02  0.45594000000E+02  0.51100000000E-03 0.  1.
    9900012    2    1    2    0    0  0.39542805412E+02 -0.64085188965E+01  0.16700905280E+02  0.47787276372E+02  0.20000024290E+02 0.  0.
        -12    1    1    2    0    0 -0.39542805412E+02  0.64085188965E+01 -0.16700905280E+02  0.43400723628E+02  0.00000000000E+00 0.  1.
         11    1    3    3    0    0  0.28398813685E+02 -0.56406142651E+01  0.44790048432E+01  0.29297962944E+02  0.51100000000E-03 0. -1.
        -11    1    3    3    0    0  0.58620614168E+01  0.34503822849E+01  0.80786039268E+01  0.10560906383E+02  0.51100000000E-03 0.  1.
        -12    1    3    3    0    0  0.52819303100E+01 -0.42182869162E+01  0.41432965097E+01  0.79284070453E+01  0.00000000000E+00 0.  1.
</event>
<event>
 7    1  0.2811980E-010  0.4778727E+02  0.7816164E-02  0.1312668E+00
        -11   -1    0    0    0    0  0.00000000000E+00  0.00000000000E+00  0.45593999997E+02  0.45594000000E+02  0.51100000000E-03 0.  1.
         11   -1    0    0    0    0 -0.00000000000E+00 -0.00000000000E+00 -0.45593999997E+02  0.45594000000E+02  0.51100000000E-03 0. -1.
    9900012    2    1    2    0    0  0.39544397617E+01 -0.11903949860E+02 -0.41548541798E+02  0.47787274872E+02  0.20000017451E+02 0.  0.
        -12    1    1    2    0    0 -0.39544397617E+01  0.11903949860E+02  0.41548541798E+02  0.43400725128E+02  0.00000000000E+00 0.  1.
         11    1    3    3    0    0 -0.10699523933E+01 -0.32847723760E+01 -0.21936346185E+02  0.22206706463E+02  0.51100000000E-03 0. -1.
        -11    1    3    3    0    0  0.30915122710E+00 -0.23277802798E+01  0.16772656079E+01  0.28857158025E+01  0.51100000000E-03 0.  1.
        -12    1    3    3    0    0  0.47152409279E+01 -0.62913972046E+01 -0.21289461220E+02  0.22694852607E+02  0.00000000000E+00 0.  1.
</event>
<event>
 7    1  0.2811980E-010  0.4778726E+02  0.7816164E-02  0.1312668E+00
        -11   -1    0    0    0    0  0.00000000000E+00  0.00000000000E+00  0.45593999997E+02  0.45594000000E+02  0.51100000000E-03 0.  1.
         11   -1    0    0    0    0 -0.00000000000E+00 -0.00000000000E+00 -0.45593999997E+02  0.45594000000E+02  0.51100000000E-03 0. -1.
    9900012    2    1    2    0    0  0.14795182489E+02 -0.31354535058E+02  0.26107851637E+02  0.47787260251E+02  0.19999950791E+02 0.  0.
        -12    1    1    2    0    0 -0.14795182489E+02  0.31354535058E+02 -0.26107851637E+02  0.43400739749E+02  0.00000000000E+00 0.  1.
         11    1    3    3    0    0  0.10334383101E+02 -0.10613817125E+02  0.71608168659E+01  0.16453871474E+02  0.51100000000E-03 0. -1.
        -11    1    3    3    0    0  0.30623443809E+01 -0.22345387389E+02  0.15814790222E+02  0.27546358756E+02  0.51100000000E-03 0.  1.
        -12    1    3    3    0    0  0.13984550074E+01  0.16046694556E+01  0.31322445490E+01  0.37870300215E+01  0.00000000000E+00 0.  1.
</event>
<event>
 7    1  0.2811980E-010  0.4778725E+02  0.7816164E-02  0.1312668E+00
        -11   -1    0    0    0    0  0.00000000000E+00  0.00000000000E+00  0.45593999997E+02  0.45594000000E+02  0.51100000000E-03 0.  1.
         11   -1    0    0    0    0 -0.00000000000E+00 -0.00000000000E+00 -0.45593999997E+02  0.45594000000E+02  0.51100000000E-03 0. -1.
    9900012    2    1    2    0    0 -0.16615004778E+02 -0.15379505148E+02 -0.37027526331E+02  0.47787248065E+02  0.19999895225E+02 0.  0.
        -12    1    1    2    0    0  0.16615004778E+02  0.15379505148E+02  0.37027526331E+02  0.43400751935E+02  0.00000000000E+00 0.  1.
         11    1    3    3    0    0 -0.15908915406E+02 -0.65800248064E+01 -0.25620589457E+02  0.30867538292E+02  0.51100000000E-03 0. -1.
        -11    1    3    3    0    0 -0.29044445033E+01 -0.77410696112E+01 -0.41249978756E+01  0.92398898442E+01  0.51100000000E-03 0.  1.
         12    1    3    3    0    0  0.21983551304E+01 -0.10584107303E+01 -0.72819389988E+01  0.76798199286E+01  0.00000000000E+00 0. -1.
</event>
<event>
 7    1  0.2811980E-010  0.4778727E+02  0.7816164E-02  0.1312668E+00
        -11   -1    0    0    0    0  0.00000000000E+00  0.00000000000E+00  0.45593999997E+02  0.45594000000E+02  0.51100000000E-03 0.  1.
         11   -1    0    0    0    0 -0.00000000000E+00 -0.00000000000E+00 -0.45593999997E+02  0.45594000000E+02  0.51100000000E-03 0. -1.
    9900012    2    1    2    0    0 -0.27855422294E+02  0.13520670056E+02 -0.30412009689E+02  0.47787269554E+02  0.19999993203E+02 0.  0.
        -12    1    1    2    0    0  0.27855422294E+02 -0.13520670056E+02  0.30412009689E+02  0.43400730446E+02  0.00000000000E+00 0.  1.
         11    1    3    3    0    0 -0.81961625094E+01  0.50919679143E+01 -0.57691458387E+01  0.11242253381E+02  0.51100000000E-03 0. -1.
        -11    1    3    3    0    0 -0.13127118465E+02  0.12804631634E+02 -0.12930203841E+02  0.22438137225E+02  0.51100000000E-03 0.  1.
        -12    1    3    3    0    0 -0.65321413204E+01 -0.43759294931E+01 -0.11712660009E+02  0.14106878948E+02  0.00000000000E+00 0.  1.
</event>
<event>
 7    1  0.2811980E-010  0.4778727E+02  0.7816164E-02  0.1312668E+00
        -11   -1    0    0    0    0  0.00000000000E+00  0.00000000000E+00  0.45593999997E+02  0.45594000000E+02  0.51100000000E-03 0.  1.
         11   -1    0    0    0    0 -0.00000000000E+00 -0.00000000000E+00 -0.45593999997E+02  0.45594000000E+02  0.51100000000E-03 0. -1.
    9900012    2    1    2    0    0 -0.26197258760E+02 -0.10910401020E+02 -0.32837331407E+02  0.47787267853E+02  0.19999985450E+02 0.  0.
        -12    1    1    2    0    0  0.26197258760E+02  0.10910401020E+02  0.32837331407E+02  0.43400732147E+02  0.00000000000E+00 0.  1.
         11    1    3    3    0    0 -0.43229428058E+00 -0.71296681091E+01 -0.70418807342E+01  0.10030310575E+02  0.51100000000E-03 0. -1.
        -11    1    3    3    0    0 -0.25796131264E+02 -0.28826591368E+01 -0.26098401857E+02  0.36808649684E+02  0.51100000000E-03 0.  1.
         12    1    3    3    0    0  0.31166784316E-01 -0.89807377448E+00  0.30295118384E+00  0.94830759390E+00  0.00000000000E+00 0. -1.
</event>
<event>
 7    1  0.2811980E-010  0.4778727E+02  0.7816164E-02  0.1312668E+00
        -11   -1    0    0    0    0  0.00000000000E+00  0.00000000000E+00  0.45593999997E+02  0.45594000000E+02  0.51100000000E-03 0.  1.
         11   -1    0    0    0    0 -0.00000000000E+00 -0.00000000000E+00 -0.45593999997E+02  0.45594000000E+02  0.51100000000E-03 0. -1.
    9900012    2    1    2    0    0  0.21489601150E+02  0.27623144163E+02 -0.25666757226E+02  0.47787268698E+02  0.19999989302E+02 0.  0.
        -12    1    1    2    0    0 -0.21489601150E+02 -0.27623144163E+02  0.25666757226E+02  0.43400731302E+02  0.00000000000E+00 0.  1.
         11    1    3    3    0    0  0.79336360512E+01  0.11355435515E+02 -0.98274497487E+00  0.13887198590E+02  0.51100000000E-03 0. -1.
        -11    1    3    3    0    0  0.85918918099E+01  0.56648316571E+01 -0.17077233710E+02  0.19938476221E+02  0.51100000000E-03 0.  1.
        -12    1    3    3    0    0  0.49640732892E+01  0.10602876991E+02 -0.76067785420E+01  0.13961593888E+02  0.00000000000E+00 0.  1.
</event>
<event>
 7    1  0.2811980E-010  0.4778728E+02  0.7816164E-02  0.1312668E+00
        -11   -1    0    0    0    0  0.00000000000E+00  0.00000000000E+00  0.45593999997E+02  0.45594000000E+02  0.51100000000E-03 0.  1.
         11   -1    0    0    0    0 -0.00000000000E+00 -0.00000000000E+00 -0.45593999997E+02  0.45594000000E+02  0.51100000000E-03 0. -1.
    9900012    2    1    2    0    0  0.25353253796E+02  0.15933784518E+02 -0.31415750223E+02  0.47787281928E+02  0.20000049622E+02 0.  0.
        -12    1    1    2    0    0 -0.25353253796E+02 -0.15933784518E+02  0.31415750223E+02  0.43400718072E+02  0.00000000000E+00 0.  1.
         11    1    3    3    0    0  0.24268831693E+02  0.11213428350E+02 -0.20997076116E+02  0.33994034371E+02  0.51100000000E-03 0. -1.
        -11    1    3    3    0    0  0.78024914615E+00  0.24023295679E+01 -0.11079482811E+02  0.11363754472E+02  0.51100000000E-03 0.  1.
         12    1    3    3    0    0  0.30417295657E+00  0.23180266000E+01  0.66080870413E+00  0.24294930848E+01  0.00000000000E+00 0. -1.
</event>
<event>
 7    1  0.2811980E-010  0.4778727E+02  0.7816164E-02  0.1312668E+00
        -11   -1    0    0    0    0  0.00000000000E+00  0.00000000000E+00  0.45593999997E+02  0.45594000000E+02  0.51100000000E-03 0.  1.
         11   -1    0    0    0    0 -0.00000000000E+00 -0.00000000000E+00 -0.45593999997E+02  0.45594000000E+02  0.51100000000E-03 0. -1.
    9900012    2    1    2    0    0 -0.23797115076E+02 -0.12500073513E+02 -0.34074457125E+02  0.47787272447E+02  0.20000006394E+02 0.  0.
        -12    1    1    2    0    0  0.23797115076E+02  0.12500073513E+02  0.34074457125E+02  0.43400727553E+02  0.00000000000E+00 0.  1.
         11    1    3    3    0    0  0.24044134627E+00 -0.29665392687E+01 -0.52517163171E+00  0.30222463132E+01  0.51100000000E-03 0. -1.
        -11    1    3    3    0    0 -0.21379198974E+02 -0.11682892504E+02 -0.33402215895E+02  0.41343296349E+02  0.51100000000E-03 0.  1.
        -12    1    3    3    0    0 -0.26583574487E+01  0.21493582595E+01 -0.14706959824E+00  0.34217297847E+01  0.00000000000E+00 0.  1.
</event>
<event>
 7    1  0.2811980E-010  0.4778727E+02  0.7816164E-02  0.1312668E+00
        -11   -1    0    0    0    0  0.00000000000E+00  0.00000000000E+00  0.45593999997E+02  0.45594000000E+02  0.51100000000E-03 0. -1.
         11   -1    0    0    0    0 -0.00000000000E+00 -0.00000000000E+00 -0.45593999997E+02  0.45594000000E+02  0.51100000000E-03 0.  1.
    9900012    2    1    2    0    0  0.20151890062E+02  0.35804033734E+02 -0.13985554364E+02  0.47787271486E+02  0.20000002014E+02 0.  0.
        -12    1    1    2    0    0 -0.20151890062E+02 -0.35804033734E+02  0.13985554364E+02  0.43400728514E+02  0.00000000000E+00 0.  1.
         11    1    3    3    0    0 -0.52151604916E+00  0.97031489634E+00 -0.60626911625E+00  0.12573990974E+01  0.51100000000E-03 0. -1.
        -11    1    3    3    0    0 -0.23026246235E+01  0.81908142985E+01 -0.64393167302E+01  0.10670347663E+02  0.51100000000E-03 0.  1.
        -12    1    3    3    0    0  0.22976030734E+02  0.26642904539E+02 -0.69399685174E+01  0.35859524726E+02  0.00000000000E+00 0.  1.
</event>
<event>
 7    1  0.2811980E-010  0.4778727E+02  0.7816164E-02  0.1312668E+00
        -11   -1    0    0    0    0  0.00000000000E+00  0.00000000000E+00  0.45593999997E+02  0.45594000000E+02  0.51100000000E-03 0. -1.
         11   -1    0    0    0    0 -0.00000000000E+00 -0.00000000000E+00 -0.45593999997E+02  0.45594000000E+02  0.51100000000E-03 0.  1.
    9900012    2    1    2    0    0 -0.37969930565E+02 -0.19643464840E+02 -0.74861109148E+01  0.47787271957E+02  0.20000004159E+02 0.  0.
        -12    1    1    2    0    0  0.37969930565E+02  0.19643464840E+02  0.74861109148E+01  0.43400728043E+02  0.00000000000E+00 0.  1.
         11    1    3    3    0    0 -0.11572184397E+02 -0.32205330643E+01  0.38532841801E+01  0.12614875512E+02  0.51100000000E-03 0. -1.
        -11    1    3    3    0    0 -0.12586935796E+02 -0.41363436288E+01 -0.10073906715E+02  0.16644034610E+02  0.51100000000E-03 0.  1.
        -12    1    3    3    0    0 -0.13810810372E+02 -0.12286588147E+02 -0.12654883800E+01  0.18528361835E+02  0.00000000000E+00 0.  1.
</event>
<event>
 7    1  0.2811980E-010  0.4778727E+02  0.7816164E-02  0.1312668E+00
        -11   -1    0    0    0    0  0.00000000000E+00  0.00000000000E+00  0.45593999997E+02  0.45594000000E+02  0.51100000000E-03 0. -1.
         11   -1    0    0    0    0 -0.00000000000E+00 -0.00000000000E+00 -0.45593999997E+02  0.45594000000E+02  0.51100000000E-03 0.  1.
    9900012    2    1    2    0    0  0.43261780773E+02 -0.29397165879E+00  0.34576153498E+01  0.47787271908E+02  0.20000003938E+02 0.  0.
        -12    1    1    2    0    0 -0.43261780773E+02  0.29397165879E+00 -0.34576153498E+01  0.43400728092E+02  0.00000000000E+00 0.  1.
         11    1    3    3    0    0  0.16945474017E+02 -0.24593412783E+00  0.44939414992E+01  0.17532971331E+02  0.51100000000E-03 0. -1.
        -11    1    3    3    0    0  0.26242348982E+02 -0.30370731917E+01  0.13154963044E+01  0.26450240537E+02  0.51100000000E-03 0.  1.
        -12    1    3    3    0    0  0.73957774522E-01  0.29890356607E+01 -0.23518224539E+01  0.38040600400E+01  0.00000000000E+00 0.  1.
</event>
<event>
 7    1  0.2811980E-010  0.4778727E+02  0.7816164E-02  0.1312668E+00
        -11   -1    0    0    0    0  0.00000000000E+00  0.00000000000E+00  0.45593999997E+02  0.45594000000E+02  0.51100000000E-03 0.  1.
         11   -1    0    0    0    0 -0.00000000000E+00 -0.00000000000E+00 -0.45593999997E+02  0.45594000000E+02  0.51100000000E-03 0. -1.
    9900012    2    1    2    0    0  0.39486964551E+02 -0.15203282719E+02  0.96572758783E+01  0.47787272445E+02  0.20000006386E+02 0.  0.
        -12    1    1    2    0    0 -0.39486964551E+02  0.15203282719E+02 -0.96572758783E+01  0.43400727555E+02  0.00000000000E+00 0.  1.
         11    1    3    3    0    0  0.15411747348E+02 -0.60572350725E+01  0.62107484371E+00  0.16570992344E+02  0.51100000000E-03 0. -1.
        -11    1    3    3    0    0  0.51213700248E+01 -0.61699754123E+01  0.89680536368E+01  0.12030087856E+02  0.51100000000E-03 0.  1.
        -12    1    3    3    0    0  0.18953847179E+02 -0.29760722337E+01  0.68147397737E-01  0.19186192246E+02  0.00000000000E+00 0.  1.
</event>
<event>
 7    1  0.2811980E-010  0.4778727E+02  0.7816164E-02  0.1312668E+00
        -11   -1    0    0    0    0  0.00000000000E+00  0.00000000000E+00  0.45593999997E+02  0.45594000000E+02  0.51100000000E-03 0.  1.
         11   -1    0    0    0    0 -0.00000000000E+00 -0.00000000000E+00 -0.45593999997E+02  0.45594000000E+02  0.51100000000E-03 0. -1.
    9900012    2    1    2    0    0 -0.91969874687E+01  0.33531788521E+02 -0.25974185558E+02  0.47787265729E+02  0.19999975764E+02 0.  0.
        -12    1    1    2    0    0  0.91969874687E+01 -0.33531788521E+02  0.25974185558E+02  0.43400734271E+02  0.00000000000E+00 0.  1.
         11    1    3    3    0    0 -0.92742467562E+01  0.85366253885E+01 -0.21480802707E+01  0.12786706966E+02  0.51100000000E-03 0. -1.
        -11    1    3    3    0    0 -0.63912651753E+00  0.79684549842E+01 -0.11338708762E+02  0.13873394473E+02  0.51100000000E-03 0.  1.
         12    1    3    3    0    0  0.71638580497E+00  0.17026708148E+02 -0.12487396525E+02  0.21127164290E+02  0.00000000000E+00 0. -1.
</event>
<event>
 7    1  0.2811980E-010  0.4778727E+02  0.7816164E-02  0.1312668E+00
        -11   -1    0    0    0    0  0.00000000000E+00  0.00000000000E+00  0.45593999997E+02  0.45594000000E+02  0.51100000000E-03 0. -1.
         11   -1    0    0    0    0 -0.00000000000E+00 -0.00000000000E+00 -0.45593999997E+02  0.45594000000E+02  0.51100000000E-03 0.  1.
    9900012    2    1    2    0    0 -0.63272905034E+01  0.91698369676E+01  0.41946430466E+02  0.47787267933E+02  0.19999985813E+02 0.  0.
        -12    1    1    2    0    0  0.63272905034E+01 -0.91698369676E+01 -0.41946430466E+02  0.43400732067E+02  0.00000000000E+00 0.  1.
         11    1    3    3    0    0 -0.56786829080E+01  0.19178074085E+00  0.11442711016E+02  0.12775752623E+02  0.51100000000E-03 0. -1.
        -11    1    3    3    0    0  0.41026945700E+01  0.10891649673E+02  0.24469520292E+02  0.27096449194E+02  0.51100000000E-03 0.  1.
        -12    1    3    3    0    0 -0.47513021654E+01 -0.19135934463E+01  0.60341991580E+01  0.79150661161E+01  0.00000000000E+00 0.  1.
</event>
<event>
 7    1  0.2811980E-010  0.4778727E+02  0.7816164E-02  0.1312668E+00
        -11   -1    0    0    0    0  0.00000000000E+00  0.00000000000E+00  0.45593999997E+02  0.45594000000E+02  0.51100000000E-03 0. -1.
         11   -1    0    0    0    0 -0.00000000000E+00 -0.00000000000E+00 -0.45593999997E+02  0.45594000000E+02  0.51100000000E-03 0.  1.
    9900012    2    1    2    0    0  0.35394243203E+02  0.24586521274E+02  0.51355537640E+01  0.47787269675E+02  0.19999993756E+02 0.  0.
        -12    1    1    2    0    0 -0.35394243203E+02 -0.24586521274E+02 -0.51355537640E+01  0.43400730325E+02  0.00000000000E+00 0.  1.
         11    1    3    3    0    0  0.89079371327E+01  0.10412717577E+02  0.76523062151E+00  0.13724489406E+02  0.51100000000E-03 0. -1.
        -11    1    3    3    0    0  0.84806908672E+01  0.63895795310E+01  0.89865898206E+01  0.13910702392E+02  0.51100000000E-03 0.  1.
        -12    1    3    3    0    0  0.18005615203E+02  0.77842241661E+01 -0.46162666781E+01  0.20152077877E+02  0.00000000000E+00 0.  1.
</event>
<event>
 7    1  0.2811980E-010  0.4778727E+02  0.7816164E-02  0.1312668E+00
        -11   -1    0    0    0    0  0.00000000000E+00  0.00000000000E+00  0.45593999997E+02  0.45594000000E+02  0.51100000000E-03 0. -1.
         11   -1    0    0    0    0 -0.00000000000E+00 -0.00000000000E+00 -0.45593999997E+02  0.45594000000E+02  0.51100000000E-03 0.  1.
    9900012    2    1    2    0    0  0.30944638861E+02 -0.29913177886E+02  0.55905555636E+01  0.47787271930E+02  0.20000004038E+02 0.  0.
        -12    1    1    2    0    0 -0.30944638861E+02  0.29913177886E+02 -0.55905555636E+01  0.43400728070E+02  0.00000000000E+00 0.  1.
         11    1    3    3    0    0 -0.39966051211E+00 -0.58596529521E+01  0.27120539615E+01  0.64691961011E+01  0.51100000000E-03 0.  1.
        -11    1    3    3    0    0  0.27206450977E+02 -0.18168181981E+02 -0.17527103332E+01  0.32761956672E+02  0.51100000000E-03 0. -1.
        -12    1    3    3    0    0  0.41378483965E+01 -0.58853429535E+01  0.46312119353E+01  0.85561191566E+01  0.00000000000E+00 0.  1.
</event>
<event>
 7    1  0.2811980E-010  0.4778733E+02  0.7816164E-02  0.1312668E+00
        -11   -1    0    0    0    0  0.00000000000E+00  0.00000000000E+00  0.45593999997E+02  0.45594000000E+02  0.51100000000E-03 0.  1.
         11   -1    0    0    0    0 -0.00000000000E+00 -0.00000000000E+00 -0.45593999997E+02  0.45594000000E+02  0.51100000000E-03 0. -1.
    9900012    2    1    2    0    0 -0.20848587088E+02 -0.38033390741E+02  0.15543037600E+01  0.47787328865E+02  0.20000263624E+02 0.  0.
        -12    1    1    2    0    0  0.20848587088E+02  0.38033390741E+02 -0.15543037600E+01  0.43400671135E+02  0.00000000000E+00 0.  1.
         11    1    3    3    0    0 -0.15912512455E+02 -0.26831884261E+02  0.65201109227E+01  0.31869576595E+02  0.51100000000E-03 0. -1.
        -11    1    3    3    0    0 -0.64057095069E+01 -0.36853442730E+01 -0.32288325465E+01  0.80647527285E+01  0.51100000000E-03 0.  1.
         12    1    3    3    0    0  0.14696348738E+01 -0.75161622070E+01 -0.17369746162E+01  0.78529995417E+01  0.00000000000E+00 0. -1.
</event>
<event>
 7    1  0.2811980E-010  0.4778727E+02  0.7816164E-02  0.1312668E+00
        -11   -1    0    0    0    0  0.00000000000E+00  0.00000000000E+00  0.45593999997E+02  0.45594000000E+02  0.51100000000E-03 0.  1.
         11   -1    0    0    0    0 -0.00000000000E+00 -0.00000000000E+00 -0.45593999997E+02  0.45594000000E+02  0.51100000000E-03 0. -1.
    9900012    2    1    2    0    0 -0.40896645958E+02 -0.10228678869E+02 -0.10318016484E+02  0.47787274359E+02  0.20000015112E+02 0.  0.
        -12    1    1    2    0    0  0.40896645958E+02  0.10228678869E+02  0.10318016484E+02  0.43400725641E+02  0.00000000000E+00 0.  1.
         11    1    3    3    0    0 -0.32953683798E+02 -0.70347796695E+01 -0.84921996410E+01  0.34749832458E+02  0.51100000000E-03 0. -1.
        -11    1    3    3    0    0 -0.14054538220E+01  0.33643339821E+01 -0.39454795309E+00  0.36673848908E+01  0.51100000000E-03 0.  1.
         12    1    3    3    0    0 -0.65375083382E+01 -0.65582331820E+01 -0.14312688895E+01  0.93700570102E+01  0.00000000000E+00 0. -1.
</event>
<event>
 7    1  0.2811980E-010  0.4778727E+02  0.7816164E-02  0.1312668E+00
        -11   -1    0    0    0    0  0.00000000000E+00  0.00000000000E+00  0.45593999997E+02  0.45594000000E+02  0.51100000000E-03 0. -1.
         11   -1    0    0    0    0 -0.00000000000E+00 -0.00000000000E+00 -0.45593999997E+02  0.45594000000E+02  0.51100000000E-03 0.  1.
    9900012    2    1    2    0    0  0.14348416800E+02  0.40938615497E+02  0.13326496718E+01  0.47787271220E+02  0.20000000800E+02 0.  0.
        -12    1    1    2    0    0 -0.14348416800E+02 -0.40938615497E+02 -0.13326496718E+01  0.43400728780E+02  0.00000000000E+00 0.  1.
         11    1    3    3    0    0  0.11817454290E+01  0.95719610543E+01  0.25714145116E+01  0.99815396375E+01  0.51100000000E-03 0. -1.
        -11    1    3    3    0    0  0.12203349109E+02  0.28930359257E+02  0.42872126940E+01  0.31690181589E+02  0.51100000000E-03 0.  1.
        -12    1    3    3    0    0  0.96332226157E+00  0.24362951864E+01 -0.55259775338E+01  0.61155499932E+01  0.00000000000E+00 0.  1.
</event>
<event>
 7    1  0.2811980E-010  0.4778727E+02  0.7816164E-02  0.1312668E+00
        -11   -1    0    0    0    0  0.00000000000E+00  0.00000000000E+00  0.45593999997E+02  0.45594000000E+02  0.51100000000E-03 0.  1.
         11   -1    0    0    0    0 -0.00000000000E+00 -0.00000000000E+00 -0.45593999997E+02  0.45594000000E+02  0.51100000000E-03 0. -1.
    9900012    2    1    2    0    0  0.35332401532E+02 -0.44999820173E+01 -0.24799092111E+02  0.47787269526E+02  0.19999993075E+02 0.  0.
        -12    1    1    2    0    0 -0.35332401532E+02  0.44999820173E+01  0.24799092111E+02  0.43400730474E+02  0.00000000000E+00 0.  1.
         11    1    3    3    0    0  0.12101939971E+02  0.20992932148E+01 -0.60418607859E+01  0.13688245507E+02  0.51100000000E-03 0. -1.
        -11    1    3    3    0    0  0.52583368045E+00  0.49574318196E+00 -0.79310078760E+01  0.79638651767E+01  0.51100000000E-03 0.  1.
        -12    1    3    3    0    0  0.22704627881E+02 -0.70950184140E+01 -0.10826223449E+02  0.26135158842E+02  0.00000000000E+00 0.  1.
</event>
<event>
 7    1  0.2811980E-010  0.4778727E+02  0.7816164E-02  0.1312668E+00
        -11   -1    0    0    0    0  0.00000000000E+00  0.00000000000E+00  0.45593999997E+02  0.45594000000E+02  0.51100000000E-03 0.  1.
         11   -1    0    0    0    0 -0.00000000000E+00 -0.00000000000E+00 -0.45593999997E+02  0.45594000000E+02  0.51100000000E-03 0. -1.
    9900012    2    1    2    0    0  0.34992066256E+02 -0.12582351757E+02 -0.22379970818E+02  0.47787269932E+02  0.19999994929E+02 0.  0.
        -12    1    1    2    0    0 -0.34992066256E+02  0.12582351757E+02  0.22379970818E+02  0.43400730068E+02  0.00000000000E+00 0.  1.
         11    1    3    3    0    0  0.25992475232E+02 -0.44244568187E+01 -0.15182644599E+02  0.30425273772E+02  0.51100000000E-03 0. -1.
        -11    1    3    3    0    0  0.38923034857E+01 -0.92906553877E+01 -0.26136821506E+01  0.10406615137E+02  0.51100000000E-03 0.  1.
        -12    1    3    3    0    0  0.51072875381E+01  0.11327604494E+01 -0.45836440684E+01  0.69553810233E+01  0.00000000000E+00 0.  1.
</event>
<event>
 7    1  0.2811980E-010  0.4778727E+02  0.7816164E-02  0.1312668E+00
        -11   -1    0    0    0    0  0.00000000000E+00  0.00000000000E+00  0.45593999997E+02  0.45594000000E+02  0.51100000000E-03 0. -1.
         11   -1    0    0    0    0 -0.00000000000E+00 -0.00000000000E+00 -0.45593999997E+02  0.45594000000E+02  0.51100000000E-03 0.  1.
    9900012    2    1    2    0    0  0.27560972580E+02  0.33250230396E+02  0.42939759746E+01  0.47787271197E+02  0.20000000697E+02 0.  0.
        -12    1    1    2    0    0 -0.27560972580E+02 -0.33250230396E+02 -0.42939759746E+01  0.43400728803E+02  0.00000000000E+00 0.  1.
         11    1    3    3    0    0  0.18722121910E+02  0.21100046530E+02  0.10833628284E+02  0.30217500136E+02  0.51100000000E-03 0. -1.
        -11    1    3    3    0    0  0.52622237491E+00  0.56154246062E+01 -0.31822717695E+01  0.64758595855E+01  0.51100000000E-03 0.  1.
         12    1    3    3    0    0  0.83126282943E+01  0.65347592603E+01 -0.33573805403E+01  0.11093911476E+02  0.00000000000E+00 0. -1.
</event>
<event>
 7    1  0.2811980E-010  0.4778727E+02  0.7816164E-02  0.1312668E+00
        -11   -1    0    0    0    0  0.00000000000E+00  0.00000000000E+00  0.45593999997E+02  0.45594000000E+02  0.51100000000E-03 0.  1.
         11   -1    0    0    0    0 -0.00000000000E+00 -0.00000000000E+00 -0.45593999997E+02  0.45594000000E+02  0.51100000000E-03 0. -1.
    9900012    2    1    2    0    0 -0.33395076979E+02  0.27246955107E+02 -0.50985873202E+01  0.47787270493E+02  0.19999997486E+02 0.  0.
        -12    1    1    2    0    0  0.33395076979E+02 -0.27246955107E+02  0.50985873202E+01  0.43400729507E+02  0.00000000000E+00 0.  1.
         11    1    3    3    0    0 -0.12622449145E+02  0.68996209375E+01 -0.42637565470E-01  0.14385159357E+02  0.51100000000E-03 0. -1.
        -11    1    3    3    0    0 -0.97463574118E+01  0.15841461071E+02  0.32491573462E+01  0.18881218058E+02  0.51100000000E-03 0.  1.
        -12    1    3    3    0    0 -0.11026270422E+02  0.45058730989E+01 -0.83051071009E+01  0.14520893078E+02  0.00000000000E+00 0.  1.
</event>
<event>
 7    1  0.2811980E-010  0.4778727E+02  0.7816164E-02  0.1312668E+00
        -11   -1    0    0    0    0  0.00000000000E+00  0.00000000000E+00  0.45593999997E+02  0.45594000000E+02  0.51100000000E-03 0.  1.
         11   -1    0    0    0    0 -0.00000000000E+00 -0.00000000000E+00 -0.45593999997E+02  0.45594000000E+02  0.51100000000E-03 0. -1.
    9900012    2    1    2    0    0 -0.22936794200E+02 -0.21907042336E+02 -0.29624457161E+02  0.47787268507E+02  0.19999988431E+02 0.  0.
        -12    1    1    2    0    0  0.22936794200E+02  0.21907042336E+02  0.29624457161E+02  0.43400731493E+02  0.00000000000E+00 0.  1.
         11    1    3    3    0    0 -0.19662448046E+02 -0.19906978940E+02 -0.18844728707E+02  0.33734603510E+02  0.51100000000E-03 0. -1.
        -11    1    3    3    0    0 -0.44215545021E+01  0.93681269272E+00 -0.24388381238E+01  0.51357272018E+01  0.51100000000E-03 0.  1.
         12    1    3    3    0    0  0.11472083478E+01 -0.29368760883E+01 -0.83408903294E+01  0.89169377949E+01  0.00000000000E+00 0. -1.
</event>
<event>
 7    1  0.2811980E-010  0.4778726E+02  0.7816164E-02  0.1312668E+00
        -11   -1    0    0    0    0  0.00000000000E+00  0.00000000000E+00  0.45593999997E+02  0.45594000000E+02  0.51100000000E-03 0.  1.
         11   -1    0    0    0    0 -0.00000000000E+00 -0.00000000000E+00 -0.45593999997E+02  0.45594000000E+02  0.51100000000E-03 0. -1.
    9900012    2    1    2    0    0  0.59132151256E+01  0.41524305747E+02 -0.11153014698E+02  0.47787264779E+02  0.19999971431E+02 0.  0.
        -12    1    1    2    0    0 -0.59132151256E+01 -0.41524305747E+02  0.11153014698E+02  0.43400735221E+02  0.00000000000E+00 0.  1.
         11    1    3    3    0    0 -0.67851557147E+00 -0.14992062686E+01  0.19623741591E-01  0.16457181317E+01  0.51100000000E-03 0.  1.
        -11    1    3    3    0    0  0.62090063864E+01  0.35169322676E+02 -0.13109028249E+02  0.38043128679E+02  0.51100000000E-03 0. -1.
        -12    1    3    3    0    0  0.38272431064E+00  0.78541893402E+01  0.19363898099E+01  0.80984179680E+01  0.00000000000E+00 0.  1.
</event>
<event>
 7    1  0.2811980E-010  0.4778727E+02  0.7816164E-02  0.1312668E+00
        -11   -1    0    0    0    0  0.00000000000E+00  0.00000000000E+00  0.45593999997E+02  0.45594000000E+02  0.51100000000E-03 0.  1.
         11   -1    0    0    0    0 -0.00000000000E+00 -0.00000000000E+00 -0.45593999997E+02  0.45594000000E+02  0.51100000000E-03 0. -1.
    9900012    2    1    2    0    0 -0.27462010080E+00  0.23399003510E+02 -0.36551803572E+02  0.47787272750E+02  0.20000007776E+02 0.  0.
        -12    1    1    2    0    0  0.27462010080E+00 -0.23399003510E+02  0.36551803572E+02  0.43400727250E+02  0.00000000000E+00 0.  1.
         11    1    3    3    0    0  0.26875609826E+01  0.12749875420E+02 -0.18981513261E+02  0.23023469617E+02  0.51100000000E-03 0. -1.
        -11    1    3    3    0    0 -0.80022689224E+01  0.47803359652E+01 -0.69615747998E+01  0.11634063942E+02  0.51100000000E-03 0.  1.
        -12    1    3    3    0    0  0.50400878390E+01  0.58687921248E+01 -0.10608715511E+02  0.13129739191E+02  0.00000000000E+00 0.  1.
</event>
<event>
 7    1  0.2811980E-010  0.4778727E+02  0.7816164E-02  0.1312668E+00
        -11   -1    0    0    0    0  0.00000000000E+00  0.00000000000E+00  0.45593999997E+02  0.45594000000E+02  0.51100000000E-03 0. -1.
         11   -1    0    0    0    0 -0.00000000000E+00 -0.00000000000E+00 -0.45593999997E+02  0.45594000000E+02  0.51100000000E-03 0.  1.
    9900012    2    1    2    0    0  0.31286752899E+02 -0.29440312784E+02 -0.61668565214E+01  0.47787273703E+02  0.20000012120E+02 0.  0.
        -12    1    1    2    0    0 -0.31286752899E+02  0.29440312784E+02  0.61668565214E+01  0.43400726297E+02  0.00000000000E+00 0.  1.
         11    1    3    3    0    0  0.50943589174E+01 -0.13432735931E+02  0.20463589620E+00  0.14367768215E+02  0.51100000000E-03 0. -1.
        -11    1    3    3    0    0  0.32542309428E+01 -0.64734006878E+01 -0.44540785343E+01  0.85049251228E+01  0.51100000000E-03 0.  1.
         12    1    3    3    0    0  0.22938163039E+02 -0.95341761650E+01 -0.19174138832E+01  0.24914580365E+02  0.00000000000E+00 0. -1.
</event>
<event>
 7    1  0.2811980E-010  0.4778727E+02  0.7816164E-02  0.1312668E+00
        -11   -1    0    0    0    0  0.00000000000E+00  0.00000000000E+00  0.45593999997E+02  0.45594000000E+02  0.51100000000E-03 0. -1.
         11   -1    0    0    0    0 -0.00000000000E+00 -0.00000000000E+00 -0.45593999997E+02  0.45594000000E+02  0.51100000000E-03 0.  1.
    9900012    2    1    2    0    0  0.25330659833E+02  0.34153629874E+02  0.86896757746E+01  0.47787271593E+02  0.20000002503E+02 0.  0.
        -12    1    1    2    0    0 -0.25330659833E+02 -0.34153629874E+02 -0.86896757746E+01  0.43400728407E+02  0.00000000000E+00 0.  1.
         11    1    3    3    0    0  0.19041979477E+02  0.15489486484E+02  0.92351060225E+01  0.26226100691E+02  0.51100000000E-03 0. -1.
        -11    1    3    3    0    0 -0.16109490667E+01  0.11581051765E+01 -0.12454540882E+01  0.23425457610E+01  0.51100000000E-03 0.  1.
         12    1    3    3    0    0  0.78996294229E+01  0.17506038214E+02  0.70002384031E+00  0.19218625142E+02  0.00000000000E+00 0. -1.
</event>
<event>
 7    1  0.2811980E-010  0.4778727E+02  0.7816164E-02  0.1312668E+00
        -11   -1    0    0    0    0  0.00000000000E+00  0.00000000000E+00  0.45593999997E+02  0.45594000000E+02  0.51100000000E-03 0. -1.
         11   -1    0    0    0    0 -0.00000000000E+00 -0.00000000000E+00 -0.45593999997E+02  0.45594000000E+02  0.51100000000E-03 0.  1.
    9900012    2    1    2    0    0  0.42954383994E+02  0.23097230323E+01  0.57627605910E+01  0.47787270347E+02  0.19999996819E+02 0.  0.
        -12    1    1    2    0    0 -0.42954383994E+02 -0.23097230323E+01 -0.57627605910E+01  0.43400729653E+02  0.00000000000E+00 0.  1.
         11    1    3    3    0    0  0.28464869976E+02 -0.70091220021E+01  0.38879284983E+01  0.29571821084E+02  0.51100000000E-03 0. -1.
        -11    1    3    3    0    0  0.12243544059E+02  0.80159423080E+01  0.36345778242E+01  0.15078788361E+02  0.51100000000E-03 0.  1.
        -12    1    3    3    0    0  0.22459699599E+01  0.13029027263E+01 -0.17597457315E+01  0.31366609020E+01  0.00000000000E+00 0.  1.
</event>
<event>
 7    1  0.2811980E-010  0.4778727E+02  0.7816164E-02  0.1312668E+00
        -11   -1    0    0    0    0  0.00000000000E+00  0.00000000000E+00  0.45593999997E+02  0.45594000000E+02  0.51100000000E-03 0.  1.
         11   -1    0    0    0    0 -0.00000000000E+00 -0.00000000000E+00 -0.45593999997E+02  0.45594000000E+02  0.51100000000E-03 0. -1.
    9900012    2    1    2    0    0  0.16674181804E+02  0.32916960980E+02 -0.22848821926E+02  0.47787270486E+02  0.19999997453E+02 0.  0.
        -12    1    1    2    0    0 -0.16674181804E+02 -0.32916960980E+02  0.22848821926E+02  0.43400729514E+02  0.00000000000E+00 0.  1.
         11    1    3    3    0    0  0.86329242281E+01  0.28467945188E+02 -0.10661232452E+02  0.31600841154E+02  0.51100000000E-03 0. -1.
        -11    1    3    3    0    0  0.48227351349E+01  0.47367797735E+00 -0.30832020569E+01  0.57436295313E+01  0.51100000000E-03 0.  1.
         12    1    3    3    0    0  0.32185224407E+01  0.39753378142E+01 -0.91043874172E+01  0.10442799801E+02  0.00000000000E+00 0. -1.
</event>
<event>
 7    1  0.2811980E-010  0.4778727E+02  0.7816164E-02  0.1312668E+00
        -11   -1    0    0    0    0  0.00000000000E+00  0.00000000000E+00  0.45593999997E+02  0.45594000000E+02  0.51100000000E-03 0.  1.
         11   -1    0    0    0    0 -0.00000000000E+00 -0.00000000000E+00 -0.45593999997E+02  0.45594000000E+02  0.51100000000E-03 0. -1.
    9900012    2    1    2    0    0  0.31958965181E+02 -0.12415376078E+02 -0.26610266761E+02  0.47787270563E+02  0.19999997805E+02 0.  0.
        -12    1    1    2    0    0 -0.31958965181E+02  0.12415376078E+02  0.26610266761E+02  0.43400729437E+02  0.00000000000E+00 0.  1.
         11    1    3    3    0    0  0.30653361015E+01 -0.54156813072E+01 -0.96713489993E+00  0.62977170159E+01  0.51100000000E-03 0. -1.
        -11    1    3    3    0    0  0.23309826627E+02  0.42779707334E+00 -0.17865427244E+02  0.29371832060E+02  0.51100000000E-03 0.  1.
        -12    1    3    3    0    0  0.55838024522E+01 -0.74274918445E+01 -0.77777046168E+01  0.12117721487E+02  0.00000000000E+00 0.  1.
</event>
<event>
 7    1  0.2811980E-010  0.4778727E+02  0.7816164E-02  0.1312668E+00
        -11   -1    0    0    0    0  0.00000000000E+00  0.00000000000E+00  0.45593999997E+02  0.45594000000E+02  0.51100000000E-03 0.  1.
         11   -1    0    0    0    0 -0.00000000000E+00 -0.00000000000E+00 -0.45593999997E+02  0.45594000000E+02  0.51100000000E-03 0. -1.
    9900012    2    1    2    0    0 -0.17752241744E+02 -0.36373499618E+02  0.15666829960E+02  0.47787272790E+02  0.20000007958E+02 0.  0.
        -12    1    1    2    0    0  0.17752241744E+02  0.36373499618E+02 -0.15666829960E+02  0.43400727210E+02  0.00000000000E+00 0.  1.
         11    1    3    3    0    0 -0.31199187188E+01 -0.76516823857E+00  0.16665102009E+01  0.36189268791E+01  0.51100000000E-03 0. -1.
        -11    1    3    3    0    0 -0.62384080673E+01 -0.51006622014E+01 -0.25603415358E+01  0.84551664175E+01  0.51100000000E-03 0.  1.
        -12    1    3    3    0    0 -0.83939149578E+01 -0.30507669178E+02  0.16560661295E+02  0.35713179493E+02  0.00000000000E+00 0.  1.
</event>
<event>
 7    1  0.2811980E-010  0.4778727E+02  0.7816164E-02  0.1312668E+00
        -11   -1    0    0    0    0  0.00000000000E+00  0.00000000000E+00  0.45593999997E+02  0.45594000000E+02  0.51100000000E-03 0. -1.
         11   -1    0    0    0    0 -0.00000000000E+00 -0.00000000000E+00 -0.45593999997E+02  0.45594000000E+02  0.51100000000E-03 0.  1.
    9900012    2    1    2    0    0  0.68570840236E+01  0.20357174563E+02  0.37711924882E+02  0.47787269179E+02  0.19999991496E+02 0.  0.
        -12    1    1    2    0    0 -0.68570840236E+01 -0.20357174563E+02 -0.37711924882E+02  0.43400730821E+02  0.00000000000E+00 0.  1.
         11    1    3    3    0    0  0.72015110307E+01  0.66186090891E+01  0.18631900510E+02  0.21043180945E+02  0.51100000000E-03 0. -1.
        -11    1    3    3    0    0 -0.61311610235E+01  0.41029986435E+01  0.60886117695E+01  0.95654026003E+01  0.51100000000E-03 0.  1.
        -12    1    3    3    0    0  0.57867340164E+01  0.96355668303E+01  0.12991412602E+02  0.17178685634E+02  0.00000000000E+00 0.  1.
</event>
<event>
 7    1  0.2811980E-010  0.4778727E+02  0.7816164E-02  0.1312668E+00
        -11   -1    0    0    0    0  0.00000000000E+00  0.00000000000E+00  0.45593999997E+02  0.45594000000E+02  0.51100000000E-03 0.  1.
         11   -1    0    0    0    0 -0.00000000000E+00 -0.00000000000E+00 -0.45593999997E+02  0.45594000000E+02  0.51100000000E-03 0. -1.
    9900012    2    1    2    0    0 -0.69802946538E+01  0.37919328902E+02 -0.19925446253E+02  0.47787269289E+02  0.19999991998E+02 0.  0.
        -12    1    1    2    0    0  0.69802946538E+01 -0.37919328902E+02  0.19925446253E+02  0.43400730711E+02  0.00000000000E+00 0.  1.
         11    1    3    3    0    0 -0.90249218949E+01  0.19429987782E+02 -0.42479947550E+01  0.21840766931E+02  0.51100000000E-03 0. -1.
        -11    1    3    3    0    0  0.27415949015E+01  0.83605474186E+01 -0.21938962329E+01  0.90679808493E+01  0.51100000000E-03 0.  1.
         12    1    3    3    0    0 -0.69696766033E+00  0.10128793702E+02 -0.13483555265E+02  0.16878521510E+02  0.00000000000E+00 0. -1.
</event>
<event>
 7    1  0.2811980E-010  0.4778729E+02  0.7816164E-02  0.1312668E+00
        -11   -1    0    0    0    0  0.00000000000E+00  0.00000000000E+00  0.45593999997E+02  0.45594000000E+02  0.51100000000E-03 0. -1.
         11   -1    0    0    0    0 -0.00000000000E+00 -0.00000000000E+00 -0.45593999997E+02  0.45594000000E+02  0.51100000000E-03 0.  1.
    9900012    2    1    2    0    0 -0.38618642523E+02  0.15470736787E+02  0.12364409426E+02  0.47787287247E+02  0.20000073875E+02 0.  0.
        -12    1    1    2    0    0  0.38618642523E+02 -0.15470736787E+02 -0.12364409426E+02  0.43400712753E+02  0.00000000000E+00 0.  1.
         11    1    3    3    0    0 -0.81683217231E+00  0.16850346020E+01  0.59660933923E+00  0.19653242411E+01  0.51100000000E-03 0. -1.
        -11    1    3    3    0    0 -0.23422601171E+02 -0.65496361635E+00  0.96223944487E+01  0.25330568453E+02  0.51100000000E-03 0.  1.
        -12    1    3    3    0    0 -0.14379209179E+02  0.14440665801E+02  0.21454056377E+01  0.20491394554E+02  0.00000000000E+00 0.  1.
</event>
<event>
 7    1  0.2811980E-010  0.4778727E+02  0.7816164E-02  0.1312668E+00
        -11   -1    0    0    0    0  0.00000000000E+00  0.00000000000E+00  0.45593999997E+02  0.45594000000E+02  0.51100000000E-03 0.  1.
         11   -1    0    0    0    0 -0.00000000000E+00 -0.00000000000E+00 -0.45593999997E+02  0.45594000000E+02  0.51100000000E-03 0. -1.
    9900012    2    1    2    0    0  0.19535500767E+02 -0.38454651844E+02 -0.48194425283E+01  0.47787273451E+02  0.20000010974E+02 0.  0.
        -12    1    1    2    0    0 -0.19535500767E+02  0.38454651844E+02  0.48194425283E+01  0.43400726549E+02  0.00000000000E+00 0.  1.
         11    1    3    3    0    0  0.19165837395E+02 -0.40417482428E+02 -0.45064131535E+01  0.44957868817E+02  0.51100000000E-03 0. -1.
        -11    1    3    3    0    0  0.48388878557E-01  0.89201546348E+00 -0.11331073258E+01  0.14429017789E+01  0.51100000000E-03 0.  1.
         12    1    3    3    0    0  0.32127449409E+00  0.10708151200E+01  0.82007795093E+00  0.13865028551E+01  0.00000000000E+00 0. -1.
</event>
<event>
 7    1  0.2811980E-010  0.4778727E+02  0.7816164E-02  0.1312668E+00
        -11   -1    0    0    0    0  0.00000000000E+00  0.00000000000E+00  0.45593999997E+02  0.45594000000E+02  0.51100000000E-03 0. -1.
         11   -1    0    0    0    0 -0.00000000000E+00 -0.00000000000E+00 -0.45593999997E+02  0.45594000000E+02  0.51100000000E-03 0.  1.
    9900012    2    1    2    0    0 -0.38898272756E+02  0.14461685847E+02  0.12704612587E+02  0.47787272334E+02  0.20000005880E+02 0.  0.
        -12    1    1    2    0    0  0.38898272756E+02 -0.14461685847E+02 -0.12704612587E+02  0.43400727666E+02  0.00000000000E+00 0.  1.
         11    1    3    3    0    0 -0.31243436957E+02  0.79358982158E+01  0.99213530307E+01  0.33727793874E+02  0.51100000000E-03 0. -1.
        -11    1    3    3    0    0 -0.40279315232E+00 -0.16492878095E+01 -0.15544960040E+01  0.23019232589E+01  0.51100000000E-03 0.  1.
        -12    1    3    3    0    0 -0.72520426468E+01  0.81750754405E+01  0.43377555605E+01  0.11757555201E+02  0.00000000000E+00 0.  1.
</event>
<event>
 7    1  0.2811980E-010  0.4778727E+02  0.7816164E-02  0.1312668E+00
        -11   -1    0    0    0    0  0.00000000000E+00  0.00000000000E+00  0.45593999997E+02  0.45594000000E+02  0.51100000000E-03 0. -1.
         11   -1    0    0    0    0 -0.00000000000E+00 -0.00000000000E+00 -0.45593999997E+02  0.45594000000E+02  0.51100000000E-03 0.  1.
    9900012    2    1    2    0    0  0.14719135600E+02 -0.10741911747E+02  0.39390121746E+02  0.47787270606E+02  0.19999998000E+02 0.  0.
        -12    1    1    2    0    0 -0.14719135600E+02  0.10741911747E+02 -0.39390121746E+02  0.43400729394E+02  0.00000000000E+00 0.  1.
         11    1    3    3    0    0  0.71214298779E+00 -0.33097590197E+01  0.24698051355E+02  0.24929007068E+02  0.51100000000E-03 0. -1.
        -11    1    3    3    0    0  0.14587031096E+02 -0.60184117710E+01  0.12246254419E+02  0.19974321115E+02  0.51100000000E-03 0.  1.
        -12    1    3    3    0    0 -0.58003848294E+00 -0.14137409559E+01  0.24458159719E+01  0.28839424232E+01  0.00000000000E+00 0.  1.
</event>
<event>
 7    1  0.2811980E-010  0.4778727E+02  0.7816164E-02  0.1312668E+00
        -11   -1    0    0    0    0  0.00000000000E+00  0.00000000000E+00  0.45593999997E+02  0.45594000000E+02  0.51100000000E-03 0. -1.
         11   -1    0    0    0    0 -0.00000000000E+00 -0.00000000000E+00 -0.45593999997E+02  0.45594000000E+02  0.51100000000E-03 0.  1.
    9900012    2    1    2    0    0  0.40108337776E+02  0.12848295848E+02  0.10481684337E+02  0.47787272219E+02  0.20000005355E+02 0.  0.
        -12    1    1    2    0    0 -0.40108337776E+02 -0.12848295848E+02 -0.10481684337E+02  0.43400727781E+02  0.00000000000E+00 0.  1.
         11    1    3    3    0    0  0.34785978574E+02  0.11804436162E+02  0.45426947135E+01  0.37014120197E+02  0.51100000000E-03 0. -1.
        -11    1    3    3    0    0 -0.96507780033E+00 -0.11399538339E+01 -0.43686485747E+00  0.15561879928E+01  0.51100000000E-03 0.  1.
         12    1    3    3    0    0  0.62874370031E+01  0.21838135202E+01  0.63758544809E+01  0.92169640295E+01  0.00000000000E+00 0. -1.
</event>
<event>
 7    1  0.2811980E-010  0.4778727E+02  0.7816164E-02  0.1312668E+00
        -11   -1    0    0    0    0  0.00000000000E+00  0.00000000000E+00  0.45593999997E+02  0.45594000000E+02  0.51100000000E-03 0.  1.
         11   -1    0    0    0    0 -0.00000000000E+00 -0.00000000000E+00 -0.45593999997E+02  0.45594000000E+02  0.51100000000E-03 0. -1.
    9900012    2    1    2    0    0  0.89454538143E+00  0.30253783336E+02 -0.31105172410E+02  0.47787269957E+02  0.19999995044E+02 0.  0.
        -12    1    1    2    0    0 -0.89454538143E+00 -0.30253783336E+02  0.31105172410E+02  0.43400730043E+02  0.00000000000E+00 0.  1.
         11    1    3    3    0    0 -0.45595175462E+01  0.28702705701E+02 -0.22804765854E+02  0.36941736028E+02  0.51100000000E-03 0. -1.
        -11    1    3    3    0    0  0.24421643354E+01  0.18029009973E+01 -0.68513635081E+01  0.74937174239E+01  0.51100000000E-03 0.  1.
         12    1    3    3    0    0  0.30118985922E+01 -0.25182336224E+00 -0.14490430475E+01  0.33518165059E+01  0.00000000000E+00 0. -1.
</event>
<event>
 7    1  0.2811980E-010  0.4778727E+02  0.7816164E-02  0.1312668E+00
        -11   -1    0    0    0    0  0.00000000000E+00  0.00000000000E+00  0.45593999997E+02  0.45594000000E+02  0.51100000000E-03 0. -1.
         11   -1    0    0    0    0 -0.00000000000E+00 -0.00000000000E+00 -0.45593999997E+02  0.45594000000E+02  0.51100000000E-03 0.  1.
    9900012    2    1    2    0    0 -0.58770203097E+00 -0.20671041991E+02  0.38157383660E+02  0.47787270761E+02  0.19999998708E+02 0.  0.
        -12    1    1    2    0    0  0.58770203097E+00  0.20671041991E+02 -0.38157383660E+02  0.43400729239E+02  0.00000000000E+00 0.  1.
         11    1    3    3    0    0  0.22665768998E+01 -0.13831273011E+02  0.13624399289E+02  0.19546501994E+02  0.51100000000E-03 0. -1.
        -11    1    3    3    0    0 -0.70830775992E+01 -0.34372050737E+01  0.10000074033E+02  0.12727366103E+02  0.51100000000E-03 0.  1.
        -12    1    3    3    0    0  0.42287986685E+01 -0.34025639063E+01  0.14532910339E+02  0.15513402664E+02  0.00000000000E+00 0.  1.
</event>
<event>
 7    1  0.2811980E-010  0.4778727E+02  0.7816164E-02  0.1312668E+00
        -11   -1    0    0    0    0  0.00000000000E+00  0.00000000000E+00  0.45593999997E+02  0.45594000000E+02  0.51100000000E-03 0.  1.
         11   -1    0    0    0    0 -0.00000000000E+00 -0.00000000000E+00 -0.45593999997E+02  0.45594000000E+02  0.51100000000E-03 0. -1.
    9900012    2    1    2    0    0 -0.10580805140E+02  0.41233826767E+02  0.84523292631E+01  0.47787265245E+02  0.19999973559E+02 0.  0.
        -12    1    1    2    0    0  0.10580805140E+02 -0.41233826767E+02 -0.84523292631E+01  0.43400734755E+02  0.00000000000E+00 0.  1.
         11    1    3    3    0    0 -0.58127154645E+01  0.34837505561E+01 -0.16741971266E+00  0.67788058409E+01  0.51100000000E-03 0. -1.
        -11    1    3    3    0    0  0.37437408903E+01  0.19877025494E+02  0.55619712723E+01  0.20977303522E+02  0.51100000000E-03 0.  1.
        -12    1    3    3    0    0 -0.85118305656E+01  0.17873050717E+02  0.30577777035E+01  0.20031155883E+02  0.00000000000E+00 0.  1.
</event>
<event>
 7    1  0.2811980E-010  0.4778726E+02  0.7816164E-02  0.1312668E+00
        -11   -1    0    0    0    0  0.00000000000E+00  0.00000000000E+00  0.45593999997E+02  0.45594000000E+02  0.51100000000E-03 0.  1.
         11   -1    0    0    0    0 -0.00000000000E+00 -0.00000000000E+00 -0.45593999997E+02  0.45594000000E+02  0.51100000000E-03 0. -1.
    9900012    2    1    2    0    0  0.33809410132E+02 -0.27212048099E+02 -0.22851941562E+00  0.47787262721E+02  0.19999962050E+02 0.  0.
        -12    1    1    2    0    0 -0.33809410132E+02  0.27212048099E+02  0.22851941562E+00  0.43400737279E+02  0.00000000000E+00 0.  1.
         11    1    3    3    0    0  0.26999534297E+01 -0.12200342512E+02 -0.12590956724E+01  0.12558798832E+02  0.51100000000E-03 0. -1.
        -11    1    3    3    0    0  0.94553618939E+00  0.71755617061E+00 -0.98266029366E-01  0.11910424078E+01  0.51100000000E-03 0.  1.
         12    1    3    3    0    0  0.30163920513E+02 -0.15729261758E+02  0.11288422862E+01  0.34037421481E+02  0.00000000000E+00 0. -1.
</event>
<event>
 7    1  0.2811980E-010  0.4778729E+02  0.7816164E-02  0.1312668E+00
        -11   -1    0    0    0    0  0.00000000000E+00  0.00000000000E+00  0.45593999997E+02  0.45594000000E+02  0.51100000000E-03 0.  1.
         11   -1    0    0    0    0 -0.00000000000E+00 -0.00000000000E+00 -0.45593999997E+02  0.45594000000E+02  0.51100000000E-03 0. -1.
    9900012    2    1    2    0    0 -0.30092585228E+02 -0.31270965613E+02  0.42993832872E+00  0.47787287759E+02  0.20000076208E+02 0.  0.
        -12    1    1    2    0    0  0.30092585228E+02  0.31270965613E+02 -0.42993832872E+00  0.43400712241E+02  0.00000000000E+00 0.  1.
         11    1    3    3    0    0 -0.23827648697E+02 -0.26613105668E+02  0.31271795613E+01  0.35857962686E+02  0.51100000000E-03 0. -1.
        -11    1    3    3    0    0 -0.59758491107E+01  0.90694865701E+00 -0.12508472872E+01  0.61723534942E+01  0.51100000000E-03 0.  1.
         12    1    3    3    0    0 -0.28908742026E+00 -0.55648086021E+01 -0.14463939454E+01  0.57569715788E+01  0.00000000000E+00 0. -1.
</event>
<event>
 7    1  0.2811980E-010  0.4778727E+02  0.7816164E-02  0.1312668E+00
        -11   -1    0    0    0    0  0.00000000000E+00  0.00000000000E+00  0.45593999997E+02  0.45594000000E+02  0.51100000000E-03 0. -1.
         11   -1    0    0    0    0 -0.00000000000E+00 -0.00000000000E+00 -0.45593999997E+02  0.45594000000E+02  0.51100000000E-03 0.  1.
    9900012    2    1    2    0    0 -0.31843428182E+02  0.21593027136E+02  0.20083842038E+02  0.47787269012E+02  0.19999990733E+02 0.  0.
        -12    1    1    2    0    0  0.31843428182E+02 -0.21593027136E+02 -0.20083842038E+02  0.43400730988E+02  0.00000000000E+00 0.  1.
         11    1    3    3    0    0  0.11940008539E+01  0.61751761930E+01  0.85272463257E+00  0.63470921384E+01  0.51100000000E-03 0. -1.
        -11    1    3    3    0    0 -0.18194734428E+02  0.78583757612E+01  0.81237415329E+01  0.21419561323E+02  0.51100000000E-03 0.  1.
         12    1    3    3    0    0 -0.14842694608E+02  0.75594751817E+01  0.11107375873E+02  0.20020615551E+02  0.00000000000E+00 0. -1.
</event>
<event>
 7    1  0.2811980E-010  0.4778721E+02  0.7816164E-02  0.1312668E+00
        -11   -1    0    0    0    0  0.00000000000E+00  0.00000000000E+00  0.45593999997E+02  0.45594000000E+02  0.51100000000E-03 0.  1.
         11   -1    0    0    0    0 -0.00000000000E+00 -0.00000000000E+00 -0.45593999997E+02  0.45594000000E+02  0.51100000000E-03 0. -1.
    9900012    2    1    2    0    0 -0.56765774799E+01  0.35688262543E+02  0.24036486824E+02  0.47787212979E+02  0.19999735255E+02 0.  0.
        -12    1    1    2    0    0  0.56765774799E+01 -0.35688262543E+02 -0.24036486824E+02  0.43400787021E+02  0.00000000000E+00 0.  1.
         11    1    3    3    0    0 -0.10576519813E+02  0.24183758744E+02  0.15121320341E+02  0.30419915967E+02  0.51100000000E-03 0. -1.
        -11    1    3    3    0    0  0.48879085932E+01  0.26114436721E+01  0.13796269907E+01  0.57109245629E+01  0.51100000000E-03 0.  1.
        -12    1    3    3    0    0  0.12033739726E-01  0.88930601268E+01  0.75355394921E+01  0.11656372449E+02  0.00000000000E+00 0.  1.
</event>
<event>
 7    1  0.2811980E-010  0.4778727E+02  0.7816164E-02  0.1312668E+00
        -11   -1    0    0    0    0  0.00000000000E+00  0.00000000000E+00  0.45593999997E+02  0.45594000000E+02  0.51100000000E-03 0.  1.
         11   -1    0    0    0    0 -0.00000000000E+00 -0.00000000000E+00 -0.45593999997E+02  0.45594000000E+02  0.51100000000E-03 0. -1.
    9900012    2    1    2    0    0  0.58416248577E+01 -0.36448294202E+02 -0.22825873340E+02  0.47787271608E+02  0.20000002570E+02 0.  0.
        -12    1    1    2    0    0 -0.58416248577E+01  0.36448294202E+02  0.22825873340E+02  0.43400728392E+02  0.00000000000E+00 0.  1.
         11    1    3    3    0    0  0.41969657859E+01 -0.81811728583E+01 -0.97869020173E+01  0.13428684318E+02  0.51100000000E-03 0. -1.
        -11    1    3    3    0    0  0.19172954719E+01 -0.97589674939E+00  0.22188741961E+01  0.30905985425E+01  0.51100000000E-03 0.  1.
        -12    1    3    3    0    0 -0.27263640009E+00 -0.27291224594E+02 -0.15257845519E+02  0.31267988748E+02  0.00000000000E+00 0.  1.
</event>
<event>
 7    1  0.2811980E-010  0.4778727E+02  0.7816164E-02  0.1312668E+00
        -11   -1    0    0    0    0  0.00000000000E+00  0.00000000000E+00  0.45593999997E+02  0.45594000000E+02  0.51100000000E-03 0.  1.
         11   -1    0    0    0    0 -0.00000000000E+00 -0.00000000000E+00 -0.45593999997E+02  0.45594000000E+02  0.51100000000E-03 0. -1.
    9900012    2    1    2    0    0 -0.81464636537E+01 -0.86710786304E+01 -0.41738121210E+02  0.47787271471E+02  0.20000001946E+02 0.  0.
        -12    1    1    2    0    0  0.81464636537E+01  0.86710786304E+01  0.41738121210E+02  0.43400728529E+02  0.00000000000E+00 0.  1.
         11    1    3    3    0    0  0.53437980528E+01 -0.28383292390E+01 -0.99838176144E+01  0.11674283915E+02  0.51100000000E-03 0.  1.
        -11    1    3    3    0    0 -0.63919215252E+00 -0.10926315935E+01 -0.12045477234E+02  0.12111809627E+02  0.51100000000E-03 0. -1.
         12    1    3    3    0    0 -0.12851069554E+02 -0.47401177979E+01 -0.19708826362E+02  0.24001177929E+02  0.00000000000E+00 0. -1.
</event>
<event>
 7    1  0.2811980E-010  0.4778723E+02  0.7816164E-02  0.1312668E+00
        -11   -1    0    0    0    0  0.00000000000E+00  0.00000000000E+00  0.45593999997E+02  0.45594000000E+02  0.51100000000E-03 0.  1.
         11   -1    0    0    0    0 -0.00000000000E+00 -0.00000000000E+00 -0.45593999997E+02  0.45594000000E+02  0.51100000000E-03 0. -1.
    9900012    2    1    2    0    0 -0.13667416991E+02 -0.36686810602E+02 -0.18732493198E+02  0.47787232026E+02  0.19999822097E+02 0.  0.
        -12    1    1    2    0    0  0.13667416991E+02  0.36686810602E+02  0.18732493198E+02  0.43400767974E+02  0.00000000000E+00 0.  1.
         11    1    3    3    0    0 -0.37147037367E+01 -0.29504511152E+02 -0.13382076057E+02  0.32609740293E+02  0.51100000000E-03 0. -1.
        -11    1    3    3    0    0 -0.12691086381E+01  0.13558493357E+01  0.45155728403E-01  0.18576876641E+01  0.51100000000E-03 0.  1.
         12    1    3    3    0    0 -0.86836046162E+01 -0.85381487864E+01 -0.53955728688E+01  0.13319804068E+02  0.00000000000E+00 0. -1.
</event>
<event>
 7    1  0.2811980E-010  0.4778727E+02  0.7816164E-02  0.1312668E+00
        -11   -1    0    0    0    0  0.00000000000E+00  0.00000000000E+00  0.45593999997E+02  0.45594000000E+02  0.51100000000E-03 0.  1.
         11   -1    0    0    0    0 -0.00000000000E+00 -0.00000000000E+00 -0.45593999997E+02  0.45594000000E+02  0.51100000000E-03 0. -1.
    9900012    2    1    2    0    0 -0.22192695693E+02 -0.49580033475E+01 -0.36966549743E+02  0.47787270292E+02  0.19999996568E+02 0.  0.
        -12    1    1    2    0    0  0.22192695693E+02  0.49580033475E+01  0.36966549743E+02  0.43400729708E+02  0.00000000000E+00 0.  1.
         11    1    3    3    0    0 -0.16787098486E+02 -0.70276615314E+01 -0.14674961618E+02  0.23378391752E+02  0.51100000000E-03 0. -1.
        -11    1    3    3    0    0 -0.13840610539E+01  0.31083018537E+01 -0.18417236655E+02  0.18728902041E+02  0.51100000000E-03 0.  1.
        -12    1    3    3    0    0 -0.40215361530E+01 -0.10386436699E+01 -0.38743514704E+01  0.56799764981E+01  0.00000000000E+00 0.  1.
</event>
<event>
 7    1  0.2811980E-010  0.4778728E+02  0.7816164E-02  0.1312668E+00
        -11   -1    0    0    0    0  0.00000000000E+00  0.00000000000E+00  0.45593999997E+02  0.45594000000E+02  0.51100000000E-03 0. -1.
         11   -1    0    0    0    0 -0.00000000000E+00 -0.00000000000E+00 -0.45593999997E+02  0.45594000000E+02  0.51100000000E-03 0.  1.
    9900012    2    1    2    0    0  0.11297297146E+02  0.18814779311E+02  0.37443262115E+02  0.47787277412E+02  0.20000029032E+02 0.  0.
        -12    1    1    2    0    0 -0.11297297146E+02 -0.18814779311E+02 -0.37443262115E+02  0.43400722588E+02  0.00000000000E+00 0.  1.
         11    1    3    3    0    0 -0.22120762393E+01  0.93609548574E+01  0.63371119951E+01  0.11518669447E+02  0.51100000000E-03 0. -1.
        -11    1    3    3    0    0  0.10742907640E+02  0.26635851094E+01  0.21523806583E+02  0.24202871736E+02  0.51100000000E-03 0.  1.
        -12    1    3    3    0    0  0.27664657454E+01  0.67902393447E+01  0.95823435372E+01  0.12065736229E+02  0.00000000000E+00 0.  1.
</event>
<event>
 7    1  0.2811980E-010  0.4778727E+02  0.7816164E-02  0.1312668E+00
        -11   -1    0    0    0    0  0.00000000000E+00  0.00000000000E+00  0.45593999997E+02  0.45594000000E+02  0.51100000000E-03 0.  1.
         11   -1    0    0    0    0 -0.00000000000E+00 -0.00000000000E+00 -0.45593999997E+02  0.45594000000E+02  0.51100000000E-03 0. -1.
    9900012    2    1    2    0    0 -0.15929908522E+02 -0.36144393176E+02 -0.17984549750E+02  0.47787272203E+02  0.20000005282E+02 0.  0.
        -12    1    1    2    0    0  0.15929908522E+02  0.36144393176E+02  0.17984549750E+02  0.43400727797E+02  0.00000000000E+00 0.  1.
         11    1    3    3    0    0 -0.10922580211E+02 -0.16743940501E+02 -0.17720466291E+02  0.26714738026E+02  0.51100000000E-03 0. -1.
        -11    1    3    3    0    0 -0.65393145698E+01 -0.13962985888E+02 -0.35846157335E+00  0.15422584249E+02  0.51100000000E-03 0.  1.
        -12    1    3    3    0    0  0.15319862593E+01 -0.54374667871E+01  0.94378114140E-01  0.56499499279E+01  0.00000000000E+00 0.  1.
</event>
<event>
 7    1  0.2811980E-010  0.4778727E+02  0.7816164E-02  0.1312668E+00
        -11   -1    0    0    0    0  0.00000000000E+00  0.00000000000E+00  0.45593999997E+02  0.45594000000E+02  0.51100000000E-03 0.  1.
         11   -1    0    0    0    0 -0.00000000000E+00 -0.00000000000E+00 -0.45593999997E+02  0.45594000000E+02  0.51100000000E-03 0. -1.
    9900012    2    1    2    0    0 -0.14635961646E+02  0.39202615557E+02  0.11513759278E+02  0.47787273133E+02  0.20000009525E+02 0.  0.
        -12    1    1    2    0    0  0.14635961646E+02 -0.39202615557E+02 -0.11513759278E+02  0.43400726867E+02  0.00000000000E+00 0.  1.
         11    1    3    3    0    0 -0.72179729409E+01  0.30201932178E+02  0.11766388134E+02  0.33206983161E+02  0.51100000000E-03 0. -1.
        -11    1    3    3    0    0 -0.64631312335E+01  0.31508147143E+01  0.30324241340E+01  0.78035437523E+01  0.51100000000E-03 0.  1.
        -12    1    3    3    0    0 -0.95485747128E+00  0.58498686645E+01 -0.32850529899E+01  0.67767462199E+01  0.00000000000E+00 0.  1.
</event>
<event>
 7    1  0.2811980E-010  0.4778725E+02  0.7816164E-02  0.1312668E+00
        -11   -1    0    0    0    0  0.00000000000E+00  0.00000000000E+00  0.45593999997E+02  0.45594000000E+02  0.51100000000E-03 0.  1.
         11   -1    0    0    0    0 -0.00000000000E+00 -0.00000000000E+00 -0.45593999997E+02  0.45594000000E+02  0.51100000000E-03 0. -1.
    9900012    2    1    2    0    0  0.13947505290E+02  0.59709946361E+01 -0.40662508053E+02  0.47787248372E+02  0.19999896626E+02 0.  0.
        -12    1    1    2    0    0 -0.13947505290E+02 -0.59709946361E+01  0.40662508053E+02  0.43400751628E+02  0.00000000000E+00 0.  1.
         11    1    3    3    0    0  0.73695529159E+01 -0.41823983832E+01 -0.14737871854E+02  0.17000224512E+02  0.51100000000E-03 0. -1.
        -11    1    3    3    0    0  0.20033168213E+01  0.63169113104E+01 -0.33293996519E+01  0.74163029262E+01  0.51100000000E-03 0.  1.
        -12    1    3    3    0    0  0.45746355525E+01  0.38364817089E+01 -0.22595236547E+02  0.23370720934E+02  0.00000000000E+00 0.  1.
</event>
<event>
 7    1  0.2811980E-010  0.4778727E+02  0.7816164E-02  0.1312668E+00
        -11   -1    0    0    0    0  0.00000000000E+00  0.00000000000E+00  0.45593999997E+02  0.45594000000E+02  0.51100000000E-03 0.  1.
         11   -1    0    0    0    0 -0.00000000000E+00 -0.00000000000E+00 -0.45593999997E+02  0.45594000000E+02  0.51100000000E-03 0. -1.
    9900012    2    1    2    0    0  0.19740572548E+02 -0.37387153203E+02 -0.98048023607E+01  0.47787267535E+02  0.19999984001E+02 0.  0.
        -12    1    1    2    0    0 -0.19740572548E+02  0.37387153203E+02  0.98048023607E+01  0.43400732465E+02  0.00000000000E+00 0.  1.
         11    1    3    3    0    0  0.14885288485E+02 -0.16998609334E+02 -0.43737495241E+01  0.23014217731E+02  0.51100000000E-03 0. -1.
        -11    1    3    3    0    0  0.15729654157E+01 -0.18152327610E+02 -0.22086748842E+00  0.18221690387E+02  0.51100000000E-03 0.  1.
        -12    1    3    3    0    0  0.32823186469E+01 -0.22362162583E+01 -0.52101853482E+01  0.65513594174E+01  0.00000000000E+00 0.  1.
</event>
<event>
 7    1  0.2811980E-010  0.4778727E+02  0.7816164E-02  0.1312668E+00
        -11   -1    0    0    0    0  0.00000000000E+00  0.00000000000E+00  0.45593999997E+02  0.45594000000E+02  0.51100000000E-03 0. -1.
         11   -1    0    0    0    0 -0.00000000000E+00 -0.00000000000E+00 -0.45593999997E+02  0.45594000000E+02  0.51100000000E-03 0.  1.
    9900012    2    1    2    0    0  0.19019911324E+02  0.37848285752E+02  0.94537566297E+01  0.47787271025E+02  0.19999999912E+02 0.  0.
        -12    1    1    2    0    0 -0.19019911324E+02 -0.37848285752E+02 -0.94537566297E+01  0.43400728975E+02  0.00000000000E+00 0.  1.
         11    1    3    3    0    0  0.81665337405E+01  0.12629076533E+02 -0.53050918903E+01  0.15947722334E+02  0.51100000000E-03 0. -1.
        -11    1    3    3    0    0  0.56720493121E+01  0.19152069005E+02  0.85385906971E+01  0.21722831812E+02  0.51100000000E-03 0.  1.
        -12    1    3    3    0    0  0.51813282717E+01  0.60671402131E+01  0.62202578229E+01  0.10116716879E+02  0.00000000000E+00 0.  1.
</event>
<event>
 7    1  0.2811980E-010  0.4778727E+02  0.7816164E-02  0.1312668E+00
        -11   -1    0    0    0    0  0.00000000000E+00  0.00000000000E+00  0.45593999997E+02  0.45594000000E+02  0.51100000000E-03 0.  1.
         11   -1    0    0    0    0 -0.00000000000E+00 -0.00000000000E+00 -0.45593999997E+02  0.45594000000E+02  0.51100000000E-03 0. -1.
    9900012    2    1    2    0    0 -0.19739903359E+02 -0.36519199367E+02 -0.12661255128E+02  0.47787273181E+02  0.20000009740E+02 0.  0.
        -12    1    1    2    0    0  0.19739903359E+02  0.36519199367E+02  0.12661255128E+02  0.43400726819E+02  0.00000000000E+00 0.  1.
         11    1    3    3    0    0 -0.86816883773E+01 -0.22448561914E+02  0.23093414388E+00  0.24069960032E+02  0.51100000000E-03 0. -1.
        -11    1    3    3    0    0 -0.69345793861E+01 -0.23246274699E+01 -0.61742808453E+01  0.95715217366E+01  0.51100000000E-03 0.  1.
         12    1    3    3    0    0 -0.41236355956E+01 -0.11746009983E+02 -0.67179084268E+01  0.14145791412E+02  0.00000000000E+00 0. -1.
</event>
<event>
 7    1  0.2811980E-010  0.4778727E+02  0.7816164E-02  0.1312668E+00
        -11   -1    0    0    0    0  0.00000000000E+00  0.00000000000E+00  0.45593999997E+02  0.45594000000E+02  0.51100000000E-03 0.  1.
         11   -1    0    0    0    0 -0.00000000000E+00 -0.00000000000E+00 -0.45593999997E+02  0.45594000000E+02  0.51100000000E-03 0. -1.
    9900012    2    1    2    0    0  0.16035012363E+01  0.40984896328E+02 -0.14187684129E+02  0.47787270465E+02  0.19999997360E+02 0.  0.
        -12    1    1    2    0    0 -0.16035012363E+01 -0.40984896328E+02  0.14187684129E+02  0.43400729535E+02  0.00000000000E+00 0.  1.
         11    1    3    3    0    0 -0.81759036744E+00  0.90035972881E+01  0.25434925206E+00  0.90442198081E+01  0.51100000000E-03 0. -1.
        -11    1    3    3    0    0 -0.64816686299E+01  0.19996292255E+02 -0.83652993338E+01  0.22623924624E+02  0.51100000000E-03 0.  1.
        -12    1    3    3    0    0  0.89027602336E+01  0.11985006784E+02 -0.60767340468E+01  0.16119126033E+02  0.00000000000E+00 0.  1.
</event>
<event>
 7    1  0.2811980E-010  0.4778723E+02  0.7816164E-02  0.1312668E+00
        -11   -1    0    0    0    0  0.00000000000E+00  0.00000000000E+00  0.45593999997E+02  0.45594000000E+02  0.51100000000E-03 0. -1.
         11   -1    0    0    0    0 -0.00000000000E+00 -0.00000000000E+00 -0.45593999997E+02  0.45594000000E+02  0.51100000000E-03 0.  1.
    9900012    2    1    2    0    0 -0.34411853364E+02 -0.20164714329E+02  0.17112437611E+02  0.47787229535E+02  0.19999810742E+02 0.  0.
        -12    1    1    2    0    0  0.34411853364E+02  0.20164714329E+02 -0.17112437611E+02  0.43400770465E+02  0.00000000000E+00 0.  1.
         11    1    3    3    0    0 -0.94950465311E+01 -0.31351957899E+01  0.10081834490E+02  0.14199603805E+02  0.51100000000E-03 0. -1.
        -11    1    3    3    0    0 -0.16835308332E+02 -0.18026400891E+02  0.46074636145E+01  0.25091979933E+02  0.51100000000E-03 0.  1.
        -12    1    3    3    0    0 -0.80814985014E+01  0.99688235207E+00  0.24231395061E+01  0.84956457976E+01  0.00000000000E+00 0.  1.
</event>
<event>
 7    1  0.2811980E-010  0.4778727E+02  0.7816164E-02  0.1312668E+00
        -11   -1    0    0    0    0  0.00000000000E+00  0.00000000000E+00  0.45593999997E+02  0.45594000000E+02  0.51100000000E-03 0.  1.
         11   -1    0    0    0    0 -0.00000000000E+00 -0.00000000000E+00 -0.45593999997E+02  0.45594000000E+02  0.51100000000E-03 0. -1.
    9900012    2    1    2    0    0 -0.10859597061E+02 -0.41994487459E+02  0.14681566794E+01  0.47787270636E+02  0.19999998139E+02 0.  0.
        -12    1    1    2    0    0  0.10859597061E+02  0.41994487459E+02 -0.14681566794E+01  0.43400729364E+02  0.00000000000E+00 0.  1.
         11    1    3    3    0    0 -0.66802219960E+01 -0.14568246898E+02 -0.52013178530E+01  0.16849714872E+02  0.51100000000E-03 0. -1.
        -11    1    3    3    0    0 -0.25593659070E+01 -0.27645195655E+02  0.43533778901E+01  0.28102652828E+02  0.51100000000E-03 0.  1.
        -12    1    3    3    0    0 -0.16200091576E+01  0.21895509397E+00  0.23160966422E+01  0.28349029366E+01  0.00000000000E+00 0.  1.
</event>
<event>
 7    1  0.2811980E-010  0.4778727E+02  0.7816164E-02  0.1312668E+00
        -11   -1    0    0    0    0  0.00000000000E+00  0.00000000000E+00  0.45593999997E+02  0.45594000000E+02  0.51100000000E-03 0.  1.
         11   -1    0    0    0    0 -0.00000000000E+00 -0.00000000000E+00 -0.45593999997E+02  0.45594000000E+02  0.51100000000E-03 0. -1.
    9900012    2    1    2    0    0  0.39336312549E+02 -0.18164223806E+02  0.25176915250E+01  0.47787270950E+02  0.19999999571E+02 0.  0.
        -12    1    1    2    0    0 -0.39336312549E+02  0.18164223806E+02 -0.25176915250E+01  0.43400729050E+02  0.00000000000E+00 0.  1.
         11    1    3    3    0    0  0.22968950080E+02 -0.58576537364E+01  0.52092144706E+01  0.24269748469E+02  0.51100000000E-03 0. -1.
        -11    1    3    3    0    0  0.12071706413E+02 -0.70876511477E+01  0.34139930994E+01  0.14408894602E+02  0.51100000000E-03 0.  1.
         12    1    3    3    0    0  0.42956560556E+01 -0.52189189223E+01 -0.61055160450E+01  0.91086278791E+01  0.00000000000E+00 0. -1.
</event>
<event>
 7    1  0.2811980E-010  0.4778727E+02  0.7816164E-02  0.1312668E+00
        -11   -1    0    0    0    0  0.00000000000E+00  0.00000000000E+00  0.45593999997E+02  0.45594000000E+02  0.51100000000E-03 0.  1.
         11   -1    0    0    0    0 -0.00000000000E+00 -0.00000000000E+00 -0.45593999997E+02  0.45594000000E+02  0.51100000000E-03 0. -1.
    9900012    2    1    2    0    0  0.26556274935E+02  0.13091129457E+02 -0.31733416389E+02  0.47787272764E+02  0.20000007840E+02 0.  0.
        -12    1    1    2    0    0 -0.26556274935E+02 -0.13091129457E+02  0.31733416389E+02  0.43400727236E+02  0.00000000000E+00 0.  1.
         11    1    3    3    0    0  0.88367800374E+01  0.68638530535E+00 -0.44329269052E+01  0.99101285272E+01  0.51100000000E-03 0. -1.
        -11    1    3    3    0    0  0.88464488012E+01  0.12092720358E+00 -0.18107514712E+02  0.20153321540E+02  0.51100000000E-03 0.  1.
        -12    1    3    3    0    0  0.88730460960E+01  0.12283816948E+02 -0.91929747725E+01  0.17723822697E+02  0.00000000000E+00 0.  1.
</event>
<event>
 7    1  0.3204743E-010  0.4778727E+02  0.7816164E-02  0.1312668E+00
        -11   -1    0    0    0    0  0.00000000000E+00  0.00000000000E+00  0.45593999997E+02  0.45594000000E+02  0.51100000000E-03 0.  1.
         11   -1    0    0    0    0 -0.00000000000E+00 -0.00000000000E+00 -0.45593999997E+02  0.45594000000E+02  0.51100000000E-03 0. -1.
    9900012    2    1    2    0    0  0.26549632864E+02 -0.33615745187E+02  0.69801057570E+01  0.47787271826E+02  0.20000003562E+02 0.  0.
        -12    1    1    2    0    0 -0.26549632864E+02  0.33615745187E+02 -0.69801057570E+01  0.43400728174E+02  0.00000000000E+00 0.  1.
         11    1    3    3    0    0  0.15562842929E+02 -0.18961500164E+02  0.12581890717E+01  0.24562646610E+02  0.51100000000E-03 0. -1.
        -11    1    3    3    0    0 -0.22373511207E+01 -0.54371348767E+01  0.37775986893E+01  0.69884496009E+01  0.51100000000E-03 0.  1.
        -12    1    3    3    0    0  0.13224141056E+02 -0.92171101462E+01  0.19443179961E+01  0.16236175615E+02  0.00000000000E+00 0.  1.
</event>
<event>
 7    1  0.2811980E-010  0.4778727E+02  0.7816164E-02  0.1312668E+00
        -11   -1    0    0    0    0  0.00000000000E+00  0.00000000000E+00  0.45593999997E+02  0.45594000000E+02  0.51100000000E-03 0.  1.
         11   -1    0    0    0    0 -0.00000000000E+00 -0.00000000000E+00 -0.45593999997E+02  0.45594000000E+02  0.51100000000E-03 0. -1.
    9900012    2    1    2    0    0  0.22815474282E+02 -0.20984770564E+02 -0.30376253490E+02  0.47787271453E+02  0.20000001861E+02 0.  0.
        -12    1    1    2    0    0 -0.22815474282E+02  0.20984770564E+02  0.30376253490E+02  0.43400728547E+02  0.00000000000E+00 0.  1.
         11    1    3    3    0    0  0.11773238643E+02 -0.16902409229E+02 -0.16054936649E+02  0.26116308639E+02  0.51100000000E-03 0. -1.
        -11    1    3    3    0    0  0.31948239078E+01  0.19518413776E+01  0.57258063462E+00  0.37874045743E+01  0.51100000000E-03 0.  1.
        -12    1    3    3    0    0  0.78474117316E+01 -0.60342027126E+01 -0.14893897476E+02  0.17883558239E+02  0.00000000000E+00 0.  1.
</event>
<event>
 7    1  0.2811980E-010  0.4778727E+02  0.7816164E-02  0.1312668E+00
        -11   -1    0    0    0    0  0.00000000000E+00  0.00000000000E+00  0.45593999997E+02  0.45594000000E+02  0.51100000000E-03 0.  1.
         11   -1    0    0    0    0 -0.00000000000E+00 -0.00000000000E+00 -0.45593999997E+02  0.45594000000E+02  0.51100000000E-03 0. -1.
    9900012    2    1    2    0    0  0.40480906169E+02 -0.70192785315E+01 -0.13987463787E+02  0.47787272142E+02  0.20000005005E+02 0.  0.
        -12    1    1    2    0    0 -0.40480906169E+02  0.70192785315E+01  0.13987463787E+02  0.43400727858E+02  0.00000000000E+00 0.  1.
         11    1    3    3    0    0  0.26478645219E+02 -0.23703531151E+01 -0.54423508210E+01  0.27135887847E+02  0.51100000000E-03 0. -1.
        -11    1    3    3    0    0  0.46986028448E+01 -0.45098474587E+01 -0.92581508909E+01  0.11319405946E+02  0.51100000000E-03 0.  1.
        -12    1    3    3    0    0  0.93036581058E+01 -0.13907795760E+00  0.71303792501E+00  0.93319783492E+01  0.00000000000E+00 0.  1.
</event>
<event>
 7    1  0.2811980E-010  0.4778727E+02  0.7816164E-02  0.1312668E+00
        -11   -1    0    0    0    0  0.00000000000E+00  0.00000000000E+00  0.45593999997E+02  0.45594000000E+02  0.51100000000E-03 0. -1.
         11   -1    0    0    0    0 -0.00000000000E+00 -0.00000000000E+00 -0.45593999997E+02  0.45594000000E+02  0.51100000000E-03 0.  1.
    9900012    2    1    2    0    0 -0.22679818029E+02 -0.33123173840E+02  0.16495588457E+02  0.47787271555E+02  0.20000002327E+02 0.  0.
        -12    1    1    2    0    0  0.22679818029E+02  0.33123173840E+02 -0.16495588457E+02  0.43400728445E+02  0.00000000000E+00 0.  1.
         11    1    3    3    0    0 -0.17822291324E+02 -0.25377080503E+02  0.17075190821E+02  0.35400457973E+02  0.51100000000E-03 0. -1.
        -11    1    3    3    0    0  0.10973380481E+01 -0.43970660786E+01  0.21670086517E+01  0.50233721392E+01  0.51100000000E-03 0.  1.
         12    1    3    3    0    0 -0.59548647531E+01 -0.33490272579E+01 -0.27466110155E+01  0.73634414422E+01  0.00000000000E+00 0. -1.
</event>
<event>
 7    1  0.2811980E-010  0.4778727E+02  0.7816164E-02  0.1312668E+00
        -11   -1    0    0    0    0  0.00000000000E+00  0.00000000000E+00  0.45593999997E+02  0.45594000000E+02  0.51100000000E-03 0.  1.
         11   -1    0    0    0    0 -0.00000000000E+00 -0.00000000000E+00 -0.45593999997E+02  0.45594000000E+02  0.51100000000E-03 0. -1.
    9900012    2    1    2    0    0  0.11448237860E+02  0.14807355872E+02 -0.39157414860E+02  0.47787273317E+02  0.20000010363E+02 0.  0.
        -12    1    1    2    0    0 -0.11448237860E+02 -0.14807355872E+02  0.39157414860E+02  0.43400726683E+02  0.00000000000E+00 0.  1.
         11    1    3    3    0    0  0.10054262567E+02  0.69054878564E+01 -0.24809043413E+02  0.27645299667E+02  0.51100000000E-03 0. -1.
        -11    1    3    3    0    0  0.25942074936E+01  0.37575436117E+01  0.57984441439E+00  0.46027455197E+01  0.51100000000E-03 0.  1.
        -12    1    3    3    0    0 -0.12002322001E+01  0.41443244043E+01 -0.14928215861E+02  0.15539228131E+02  0.00000000000E+00 0.  1.
</event>
<event>
 7    1  0.2811980E-010  0.4778729E+02  0.7816164E-02  0.1312668E+00
        -11   -1    0    0    0    0  0.00000000000E+00  0.00000000000E+00  0.45593999997E+02  0.45594000000E+02  0.51100000000E-03 0. -1.
         11   -1    0    0    0    0 -0.00000000000E+00 -0.00000000000E+00 -0.45593999997E+02  0.45594000000E+02  0.51100000000E-03 0.  1.
    9900012    2    1    2    0    0 -0.54353659756E+01 -0.19037664171E+02  0.38621824933E+02  0.47787294688E+02  0.20000107801E+02 0.  0.
        -12    1    1    2    0    0  0.54353659756E+01  0.19037664171E+02 -0.38621824933E+02  0.43400705312E+02  0.00000000000E+00 0.  1.
         11    1    3    3    0    0 -0.17410849503E+01 -0.17335717618E+02  0.29617345651E+02  0.34361979655E+02  0.51100000000E-03 0. -1.
        -11    1    3    3    0    0 -0.46659891154E+01  0.20044986953E+01  0.20328569618E+01  0.54700984573E+01  0.51100000000E-03 0.  1.
        -12    1    3    3    0    0  0.97170809002E+00 -0.37064452485E+01  0.69716223208E+01  0.79552165764E+01  0.00000000000E+00 0.  1.
</event>
<event>
 7    1  0.2811980E-010  0.4778727E+02  0.7816164E-02  0.1312668E+00
        -11   -1    0    0    0    0  0.00000000000E+00  0.00000000000E+00  0.45593999997E+02  0.45594000000E+02  0.51100000000E-03 0.  1.
         11   -1    0    0    0    0 -0.00000000000E+00 -0.00000000000E+00 -0.45593999997E+02  0.45594000000E+02  0.51100000000E-03 0. -1.
    9900012    2    1    2    0    0  0.39392300116E+02 -0.16706832015E+02 -0.72630656703E+01  0.47787266511E+02  0.19999979332E+02 0.  0.
        -12    1    1    2    0    0 -0.39392300116E+02  0.16706832015E+02  0.72630656703E+01  0.43400733489E+02  0.00000000000E+00 0.  1.
         11    1    3    3    0    0  0.90954492733E+01 -0.73239595927E+01 -0.10694103603E+02  0.15834501373E+02  0.51100000000E-03 0. -1.
        -11    1    3    3    0    0  0.16750447225E+02 -0.50725404720E+01  0.99496801409E+00  0.17529920441E+02  0.51100000000E-03 0.  1.
         12    1    3    3    0    0  0.13546403618E+02 -0.43103319499E+01  0.24360699189E+01  0.14422844697E+02  0.00000000000E+00 0. -1.
</event>
<event>
 7    1  0.2811980E-010  0.4778727E+02  0.7816164E-02  0.1312668E+00
        -11   -1    0    0    0    0  0.00000000000E+00  0.00000000000E+00  0.45593999997E+02  0.45594000000E+02  0.51100000000E-03 0.  1.
         11   -1    0    0    0    0 -0.00000000000E+00 -0.00000000000E+00 -0.45593999997E+02  0.45594000000E+02  0.51100000000E-03 0. -1.
    9900012    2    1    2    0    0 -0.39386898090E+02  0.18036103183E+02 -0.26446895560E+01  0.47787272563E+02  0.20000006923E+02 0.  0.
        -12    1    1    2    0    0  0.39386898090E+02 -0.18036103183E+02  0.26446895560E+01  0.43400727437E+02  0.00000000000E+00 0.  1.
         11    1    3    3    0    0 -0.17652625849E+02  0.12083408224E+02 -0.56319530529E+01  0.22121095116E+02  0.51100000000E-03 0. -1.
        -11    1    3    3    0    0 -0.29190290689E+01 -0.17604721276E+01  0.40621555549E+01  0.53029332290E+01  0.51100000000E-03 0.  1.
        -12    1    3    3    0    0 -0.18815243172E+02  0.77131670868E+01 -0.10748920581E+01  0.20363244218E+02  0.00000000000E+00 0.  1.
</event>
<event>
 7    1  0.2811980E-010  0.4778727E+02  0.7816164E-02  0.1312668E+00
        -11   -1    0    0    0    0  0.00000000000E+00  0.00000000000E+00  0.45593999997E+02  0.45594000000E+02  0.51100000000E-03 0.  1.
         11   -1    0    0    0    0 -0.00000000000E+00 -0.00000000000E+00 -0.45593999997E+02  0.45594000000E+02  0.51100000000E-03 0. -1.
    9900012    2    1    2    0    0 -0.17581971731E+02  0.39671448793E+02  0.82073750077E+00  0.47787272018E+02  0.20000004440E+02 0.  0.
        -12    1    1    2    0    0  0.17581971731E+02 -0.39671448793E+02 -0.82073750077E+00  0.43400727982E+02  0.00000000000E+00 0.  1.
         11    1    3    3    0    0 -0.20496332565E+02  0.30350945458E+02 -0.23012155019E+01  0.36695709993E+02  0.51100000000E-03 0. -1.
        -11    1    3    3    0    0  0.33881200454E+01  0.37930385554E+01  0.12594463823E+01  0.52395328395E+01  0.51100000000E-03 0.  1.
         12    1    3    3    0    0 -0.47375921105E+00  0.55274647799E+01  0.18625066203E+01  0.58520291860E+01  0.00000000000E+00 0. -1.
</event>
<event>
 7    1  0.2811980E-010  0.4778728E+02  0.7816164E-02  0.1312668E+00
        -11   -1    0    0    0    0  0.00000000000E+00  0.00000000000E+00  0.45593999997E+02  0.45594000000E+02  0.51100000000E-03 0.  1.
         11   -1    0    0    0    0 -0.00000000000E+00 -0.00000000000E+00 -0.45593999997E+02  0.45594000000E+02  0.51100000000E-03 0. -1.
    9900012    2    1    2    0    0 -0.93130240707E+01 -0.22126745595E+02 -0.36156566315E+02  0.47787279088E+02  0.20000036674E+02 0.  0.
        -12    1    1    2    0    0  0.93130240707E+01  0.22126745595E+02  0.36156566315E+02  0.43400720912E+02  0.00000000000E+00 0.  1.
         11    1    3    3    0    0 -0.11855226205E+02 -0.66947018480E+01 -0.22047193076E+02  0.25912239271E+02  0.51100000000E-03 0. -1.
        -11    1    3    3    0    0  0.41473403162E+01 -0.72528256778E+01 -0.64480110134E+01  0.10553708273E+02  0.51100000000E-03 0.  1.
         12    1    3    3    0    0 -0.16051381817E+01 -0.81792180688E+01 -0.76613622257E+01  0.11321331545E+02  0.00000000000E+00 0. -1.
</event>
<event>
 7    1  0.2811980E-010  0.4778727E+02  0.7816164E-02  0.1312668E+00
        -11   -1    0    0    0    0  0.00000000000E+00  0.00000000000E+00  0.45593999997E+02  0.45594000000E+02  0.51100000000E-03 0. -1.
         11   -1    0    0    0    0 -0.00000000000E+00 -0.00000000000E+00 -0.45593999997E+02  0.45594000000E+02  0.51100000000E-03 0.  1.
    9900012    2    1    2    0    0 -0.63961797326E+01  0.10115939427E+02  0.41717860961E+02  0.47787271103E+02  0.20000000265E+02 0.  0.
        -12    1    1    2    0    0  0.63961797326E+01 -0.10115939427E+02 -0.41717860961E+02  0.43400728897E+02  0.00000000000E+00 0.  1.
         11    1    3    3    0    0  0.58662042366E+00  0.21798810530E+01  0.43910690769E+01  0.49373568664E+01  0.51100000000E-03 0. -1.
        -11    1    3    3    0    0 -0.87652038657E+01  0.37109784482E+00  0.61373936050E+01  0.10706732132E+02  0.51100000000E-03 0.  1.
        -12    1    3    3    0    0  0.17824037095E+01  0.75649605296E+01  0.31189398279E+02  0.32143182104E+02  0.00000000000E+00 0.  1.
</event>
<event>
 7    1  0.2811980E-010  0.4778728E+02  0.7816164E-02  0.1312668E+00
        -11   -1    0    0    0    0  0.00000000000E+00  0.00000000000E+00  0.45593999997E+02  0.45594000000E+02  0.51100000000E-03 0. -1.
         11   -1    0    0    0    0 -0.00000000000E+00 -0.00000000000E+00 -0.45593999997E+02  0.45594000000E+02  0.51100000000E-03 0.  1.
    9900012    2    1    2    0    0  0.34007880931E+01 -0.42136697109E+02 -0.98262937604E+01  0.47787278209E+02  0.20000032665E+02 0.  0.
        -12    1    1    2    0    0 -0.34007880931E+01  0.42136697109E+02  0.98262937604E+01  0.43400721791E+02  0.00000000000E+00 0.  1.
         11    1    3    3    0    0  0.49809146962E+01 -0.30113072770E+02 -0.13609474438E+01  0.30552558667E+02  0.51100000000E-03 0. -1.
        -11    1    3    3    0    0 -0.25036485678E+01 -0.53827994548E+01 -0.86923491078E+01  0.10526144565E+02  0.51100000000E-03 0.  1.
        -12    1    3    3    0    0  0.92352196471E+00 -0.66408248841E+01  0.22700279117E+00  0.67085749775E+01  0.00000000000E+00 0.  1.
</event>
<event>
 7    1  0.2811980E-010  0.4778725E+02  0.7816164E-02  0.1312668E+00
        -11   -1    0    0    0    0  0.00000000000E+00  0.00000000000E+00  0.45593999997E+02  0.45594000000E+02  0.51100000000E-03 0.  1.
         11   -1    0    0    0    0 -0.00000000000E+00 -0.00000000000E+00 -0.45593999997E+02  0.45594000000E+02  0.51100000000E-03 0. -1.
    9900012    2    1    2    0    0  0.11781780228E+01 -0.28315491110E+02 -0.32870501854E+02  0.47787250786E+02  0.19999907632E+02 0.  0.
        -12    1    1    2    0    0 -0.11781780228E+01  0.28315491110E+02  0.32870501854E+02  0.43400749214E+02  0.00000000000E+00 0.  1.
         11    1    3    3    0    0  0.31380278081E+01 -0.19755267660E+02 -0.20153448808E+02  0.28395057985E+02  0.51100000000E-03 0. -1.
        -11    1    3    3    0    0 -0.57736411959E+01 -0.38439423081E+01 -0.22450254199E+01  0.72904708026E+01  0.51100000000E-03 0.  1.
        -12    1    3    3    0    0  0.38137914106E+01 -0.47162811417E+01 -0.10472027625E+02  0.12101721998E+02  0.00000000000E+00 0.  1.
</event>
<event>
 7    1  0.2811980E-010  0.4778727E+02  0.7816164E-02  0.1312668E+00
        -11   -1    0    0    0    0  0.00000000000E+00  0.00000000000E+00  0.45593999997E+02  0.45594000000E+02  0.51100000000E-03 0.  1.
         11   -1    0    0    0    0 -0.00000000000E+00 -0.00000000000E+00 -0.45593999997E+02  0.45594000000E+02  0.51100000000E-03 0. -1.
    9900012    2    1    2    0    0 -0.10990914294E+02  0.33869438827E+02 -0.24812980749E+02  0.47787273081E+02  0.20000009285E+02 0.  0.
        -12    1    1    2    0    0  0.10990914294E+02 -0.33869438827E+02  0.24812980749E+02  0.43400726919E+02  0.00000000000E+00 0.  1.
         11    1    3    3    0    0 -0.72729014122E+01  0.60950270892E+01 -0.14386712479E+02  0.17234324657E+02  0.51100000000E-03 0. -1.
        -11    1    3    3    0    0 -0.17982088096E+01  0.20235021064E+02 -0.45890686526E+01  0.20826646004E+02  0.51100000000E-03 0.  1.
        -12    1    3    3    0    0 -0.19198040724E+01  0.75393906731E+01 -0.58371996168E+01  0.97263024199E+01  0.00000000000E+00 0.  1.
</event>
<event>
 7    1  0.2811980E-010  0.4778727E+02  0.7816164E-02  0.1312668E+00
        -11   -1    0    0    0    0  0.00000000000E+00  0.00000000000E+00  0.45593999997E+02  0.45594000000E+02  0.51100000000E-03 0.  1.
         11   -1    0    0    0    0 -0.00000000000E+00 -0.00000000000E+00 -0.45593999997E+02  0.45594000000E+02  0.51100000000E-03 0. -1.
    9900012    2    1    2    0    0 -0.10315594163E+02 -0.25352130931E+02 -0.33682059403E+02  0.47787272457E+02  0.20000006439E+02 0.  0.
        -12    1    1    2    0    0  0.10315594163E+02  0.25352130931E+02  0.33682059403E+02  0.43400727543E+02  0.00000000000E+00 0.  1.
         11    1    3    3    0    0 -0.29628547920E+01  0.21323666251E+01 -0.12052419338E+01  0.38442300038E+01  0.51100000000E-03 0. -1.
        -11    1    3    3    0    0  0.65948981989E+00 -0.33887414088E+01 -0.11974641281E+01  0.36540957510E+01  0.51100000000E-03 0.  1.
         12    1    3    3    0    0 -0.80122291910E+01 -0.24095756147E+02 -0.31279353341E+02  0.40288946702E+02  0.00000000000E+00 0. -1.
</event>
<event>
 7    1  0.2811980E-010  0.4778727E+02  0.7816164E-02  0.1312668E+00
        -11   -1    0    0    0    0  0.00000000000E+00  0.00000000000E+00  0.45593999997E+02  0.45594000000E+02  0.51100000000E-03 0.  1.
         11   -1    0    0    0    0 -0.00000000000E+00 -0.00000000000E+00 -0.45593999997E+02  0.45594000000E+02  0.51100000000E-03 0. -1.
    9900012    2    1    2    0    0  0.34558387753E+02 -0.98771159303E+01 -0.24326599746E+02  0.47787273757E+02  0.20000012370E+02 0.  0.
        -12    1    1    2    0    0 -0.34558387753E+02  0.98771159303E+01  0.24326599746E+02  0.43400726243E+02  0.00000000000E+00 0.  1.
         11    1    3    3    0    0  0.21101803342E+02  0.94090538819E+00 -0.10556264580E+02  0.23613685214E+02  0.51100000000E-03 0. -1.
        -11    1    3    3    0    0  0.85374079182E+01 -0.10807361118E+02 -0.13439400656E+02  0.19243281387E+02  0.51100000000E-03 0.  1.
         12    1    3    3    0    0  0.49191764930E+01 -0.10660200152E-01 -0.33093451037E+00  0.49303071567E+01  0.00000000000E+00 0. -1.
</event>
<event>
 7    1  0.2811980E-010  0.4778727E+02  0.7816164E-02  0.1312668E+00
        -11   -1    0    0    0    0  0.00000000000E+00  0.00000000000E+00  0.45593999997E+02  0.45594000000E+02  0.51100000000E-03 0. -1.
         11   -1    0    0    0    0 -0.00000000000E+00 -0.00000000000E+00 -0.45593999997E+02  0.45594000000E+02  0.51100000000E-03 0.  1.
    9900012    2    1    2    0    0  0.28300251104E+02 -0.31865893480E+02  0.82026701751E+01  0.47787272151E+02  0.20000005047E+02 0.  0.
        -12    1    1    2    0    0 -0.28300251104E+02  0.31865893480E+02 -0.82026701751E+01  0.43400727849E+02  0.00000000000E+00 0.  1.
         11    1    3    3    0    0  0.58484620644E+01 -0.35017523415E+01  0.77373505550E+01  0.10311807400E+02  0.51100000000E-03 0. -1.
        -11    1    3    3    0    0  0.10577229177E+02 -0.20596361323E+02 -0.12228182746E+01  0.23185839678E+02  0.51100000000E-03 0.  1.
        -12    1    3    3    0    0  0.11874559862E+02 -0.77677798156E+01  0.16881378948E+01  0.14289625073E+02  0.00000000000E+00 0.  1.
</event>
<event>
 7    1  0.2811980E-010  0.4778727E+02  0.7816164E-02  0.1312668E+00
        -11   -1    0    0    0    0  0.00000000000E+00  0.00000000000E+00  0.45593999997E+02  0.45594000000E+02  0.51100000000E-03 0. -1.
         11   -1    0    0    0    0 -0.00000000000E+00 -0.00000000000E+00 -0.45593999997E+02  0.45594000000E+02  0.51100000000E-03 0.  1.
    9900012    2    1    2    0    0 -0.33276319266E+02  0.15304234411E+02  0.23282836558E+02  0.47787268520E+02  0.19999988491E+02 0.  0.
        -12    1    1    2    0    0  0.33276319266E+02 -0.15304234411E+02 -0.23282836558E+02  0.43400731480E+02  0.00000000000E+00 0.  1.
         11    1    3    3    0    0 -0.22703837776E+02  0.88767975668E+01  0.57316617855E+01  0.25042238955E+02  0.51100000000E-03 0. -1.
        -11    1    3    3    0    0 -0.57757651642E+01  0.34170742448E+01  0.15195694140E+02  0.16611591745E+02  0.51100000000E-03 0.  1.
        -12    1    3    3    0    0 -0.47967163263E+01  0.30103625993E+01  0.23554806317E+01  0.61334378207E+01  0.00000000000E+00 0.  1.
</event>
<event>
 7    1  0.2811980E-010  0.4778727E+02  0.7816164E-02  0.1312668E+00
        -11   -1    0    0    0    0  0.00000000000E+00  0.00000000000E+00  0.45593999997E+02  0.45594000000E+02  0.51100000000E-03 0.  1.
         11   -1    0    0    0    0 -0.00000000000E+00 -0.00000000000E+00 -0.45593999997E+02  0.45594000000E+02  0.51100000000E-03 0. -1.
    9900012    2    1    2    0    0 -0.42706830991E+02 -0.49534175966E+01 -0.59340842346E+01  0.47787272876E+02  0.20000008352E+02 0.  0.
        -12    1    1    2    0    0  0.42706830991E+02  0.49534175966E+01  0.59340842346E+01  0.43400727124E+02  0.00000000000E+00 0.  1.
         11    1    3    3    0    0 -0.12682130774E+02  0.58244059133E+01 -0.56849916626E+01  0.15069149799E+02  0.51100000000E-03 0. -1.
        -11    1    3    3    0    0 -0.19371598644E+02 -0.76239399151E+01  0.32499124995E+01  0.21070007721E+02  0.51100000000E-03 0.  1.
         12    1    3    3    0    0 -0.10653101573E+02 -0.31538835948E+01 -0.34990050716E+01  0.11648115356E+02  0.00000000000E+00 0. -1.
</event>
<event>
 7    1  0.2811980E-010  0.4778727E+02  0.7816164E-02  0.1312668E+00
        -11   -1    0    0    0    0  0.00000000000E+00  0.00000000000E+00  0.45593999997E+02  0.45594000000E+02  0.51100000000E-03 0.  1.
         11   -1    0    0    0    0 -0.00000000000E+00 -0.00000000000E+00 -0.45593999997E+02  0.45594000000E+02  0.51100000000E-03 0. -1.
    9900012    2    1    2    0    0 -0.24563715831E+02  0.28434402504E+02 -0.21719393713E+02  0.47787269080E+02  0.19999991043E+02 0.  0.
        -12    1    1    2    0    0  0.24563715831E+02 -0.28434402504E+02  0.21719393713E+02  0.43400730920E+02  0.00000000000E+00 0.  1.
         11    1    3    3    0    0 -0.48725489931E+01  0.25883095402E+01 -0.66938112666E+01  0.86745714303E+01  0.51100000000E-03 0. -1.
        -11    1    3    3    0    0 -0.13830040541E+02  0.22217475385E+02 -0.45356398615E+01  0.26560464286E+02  0.51100000000E-03 0.  1.
        -12    1    3    3    0    0 -0.58611262967E+01  0.36286175782E+01 -0.10489942584E+02  0.12552233364E+02  0.00000000000E+00 0.  1.
</event>
<event>
 7    1  0.2811980E-010  0.4778726E+02  0.7816164E-02  0.1312668E+00
        -11   -1    0    0    0    0  0.00000000000E+00  0.00000000000E+00  0.45593999997E+02  0.45594000000E+02  0.51100000000E-03 0.  1.
         11   -1    0    0    0    0 -0.00000000000E+00 -0.00000000000E+00 -0.45593999997E+02  0.45594000000E+02  0.51100000000E-03 0. -1.
    9900012    2    1    2    0    0 -0.20475454755E+02  0.27125029627E+02 -0.26992819881E+02  0.47787264928E+02  0.19999972112E+02 0.  0.
        -12    1    1    2    0    0  0.20475454755E+02 -0.27125029627E+02  0.26992819881E+02  0.43400735072E+02  0.00000000000E+00 0.  1.
         11    1    3    3    0    0 -0.21916754305E+02  0.24911037428E+02 -0.21765034241E+02  0.39681489649E+02  0.51100000000E-03 0. -1.
        -11    1    3    3    0    0  0.26684664783E+01  0.13690251023E+01 -0.36671441881E+00  0.30214934723E+01  0.51100000000E-03 0.  1.
         12    1    3    3    0    0 -0.12271669275E+01  0.84496709598E+00 -0.48610712218E+01  0.50842818062E+01  0.00000000000E+00 0. -1.
</event>
<event>
 7    1  0.2811980E-010  0.4778727E+02  0.7816164E-02  0.1312668E+00
        -11   -1    0    0    0    0  0.00000000000E+00  0.00000000000E+00  0.45593999997E+02  0.45594000000E+02  0.51100000000E-03 0.  1.
         11   -1    0    0    0    0 -0.00000000000E+00 -0.00000000000E+00 -0.45593999997E+02  0.45594000000E+02  0.51100000000E-03 0. -1.
    9900012    2    1    2    0    0  0.13393246074E+02  0.66902844964E+01 -0.40736769662E+02  0.47787270172E+02  0.19999996024E+02 0.  0.
        -12    1    1    2    0    0 -0.13393246074E+02 -0.66902844964E+01  0.40736769662E+02  0.43400729828E+02  0.00000000000E+00 0.  1.
         11    1    3    3    0    0  0.14465192644E+02  0.62233245931E+01 -0.38655616412E+02  0.41740007758E+02  0.51100000000E-03 0. -1.
        -11    1    3    3    0    0 -0.33094650884E+01  0.80674654501E+00 -0.14100625827E+01  0.36866890169E+01  0.51100000000E-03 0.  1.
         12    1    3    3    0    0  0.22375185176E+01 -0.33978664170E+00 -0.67109066785E+00  0.23605733971E+01  0.00000000000E+00 0. -1.
</event>
<event>
 7    1  0.2811980E-010  0.4778726E+02  0.7816164E-02  0.1312668E+00
        -11   -1    0    0    0    0  0.00000000000E+00  0.00000000000E+00  0.45593999997E+02  0.45594000000E+02  0.51100000000E-03 0. -1.
         11   -1    0    0    0    0 -0.00000000000E+00 -0.00000000000E+00 -0.45593999997E+02  0.45594000000E+02  0.51100000000E-03 0.  1.
    9900012    2    1    2    0    0 -0.25701071159E+02 -0.34947972022E+02  0.13107660340E+01  0.47787263661E+02  0.19999966334E+02 0.  0.
        -12    1    1    2    0    0  0.25701071159E+02  0.34947972022E+02 -0.13107660340E+01  0.43400736339E+02  0.00000000000E+00 0.  1.
         11    1    3    3    0    0 -0.86963605009E+01 -0.31168542284E+01 -0.27182354247E+01  0.96296557741E+01  0.51100000000E-03 0. -1.
        -11    1    3    3    0    0 -0.20974094196E+01 -0.53126426134E+01 -0.36547725727E+01  0.67809041160E+01  0.51100000000E-03 0.  1.
        -12    1    3    3    0    0 -0.14907301239E+02 -0.26518475181E+02  0.76837740314E+01  0.31376703770E+02  0.00000000000E+00 0.  1.
</event>
<event>
 7    1  0.2811980E-010  0.4778727E+02  0.7816164E-02  0.1312668E+00
        -11   -1    0    0    0    0  0.00000000000E+00  0.00000000000E+00  0.45593999997E+02  0.45594000000E+02  0.51100000000E-03 0.  1.
         11   -1    0    0    0    0 -0.00000000000E+00 -0.00000000000E+00 -0.45593999997E+02  0.45594000000E+02  0.51100000000E-03 0. -1.
    9900012    2    1    2    0    0 -0.39815178965E+02  0.17214157641E+02 -0.14308892064E+01  0.47787272549E+02  0.20000006862E+02 0.  0.
        -12    1    1    2    0    0  0.39815178965E+02 -0.17214157641E+02  0.14308892064E+01  0.43400727451E+02  0.00000000000E+00 0.  1.
         11    1    3    3    0    0 -0.18351855310E+02 -0.11234855960E+01 -0.38323400849E+01  0.18781364274E+02  0.51100000000E-03 0. -1.
        -11    1    3    3    0    0 -0.17012096108E+02  0.15849875152E+02  0.41425692951E+01  0.23617595918E+02  0.51100000000E-03 0.  1.
        -12    1    3    3    0    0 -0.44512275470E+01  0.24877680852E+01 -0.17411184166E+01  0.53883123574E+01  0.00000000000E+00 0.  1.
</event>
<event>
 7    1  0.2811980E-010  0.4778727E+02  0.7816164E-02  0.1312668E+00
        -11   -1    0    0    0    0  0.00000000000E+00  0.00000000000E+00  0.45593999997E+02  0.45594000000E+02  0.51100000000E-03 0.  1.
         11   -1    0    0    0    0 -0.00000000000E+00 -0.00000000000E+00 -0.45593999997E+02  0.45594000000E+02  0.51100000000E-03 0. -1.
    9900012    2    1    2    0    0  0.12331576068E+01  0.38381186590E+02 -0.20223427898E+02  0.47787271922E+02  0.20000004000E+02 0.  0.
        -12    1    1    2    0    0 -0.12331576068E+01 -0.38381186590E+02  0.20223427898E+02  0.43400728078E+02  0.00000000000E+00 0.  1.
         11    1    3    3    0    0  0.29785799207E+01  0.15952351997E+02 -0.14745565736E+02  0.21926723004E+02  0.51100000000E-03 0. -1.
        -11    1    3    3    0    0 -0.48383086117E+01  0.21142616977E+02 -0.34977368854E+01  0.21969379746E+02  0.51100000000E-03 0.  1.
        -12    1    3    3    0    0  0.30928862978E+01  0.12862176165E+01 -0.19801252773E+01  0.38911691716E+01  0.00000000000E+00 0.  1.
</event>
<event>
 7    1  0.2811980E-010  0.4778727E+02  0.7816164E-02  0.1312668E+00
        -11   -1    0    0    0    0  0.00000000000E+00  0.00000000000E+00  0.45593999997E+02  0.45594000000E+02  0.51100000000E-03 0. -1.
         11   -1    0    0    0    0 -0.00000000000E+00 -0.00000000000E+00 -0.45593999997E+02  0.45594000000E+02  0.51100000000E-03 0.  1.
    9900012    2    1    2    0    0  0.18054501754E+02  0.37806218438E+02  0.11329095392E+02  0.47787267419E+02  0.19999983471E+02 0.  0.
        -12    1    1    2    0    0 -0.18054501754E+02 -0.37806218438E+02 -0.11329095392E+02  0.43400732581E+02  0.00000000000E+00 0.  1.
         11    1    3    3    0    0  0.21636946703E+02  0.35352533830E+02  0.11188364439E+02  0.42931790202E+02  0.51100000000E-03 0. -1.
        -11    1    3    3    0    0 -0.15964318650E+01  0.81134800075E+00 -0.98434659727E+00  0.20434820191E+01  0.51100000000E-03 0.  1.
         12    1    3    3    0    0 -0.19860130841E+01  0.16423366071E+01  0.11250775503E+01  0.28119951983E+01  0.00000000000E+00 0. -1.
</event>
<event>
 7    1  0.2811980E-010  0.4778727E+02  0.7816164E-02  0.1312668E+00
        -11   -1    0    0    0    0  0.00000000000E+00  0.00000000000E+00  0.45593999997E+02  0.45594000000E+02  0.51100000000E-03 0.  1.
         11   -1    0    0    0    0 -0.00000000000E+00 -0.00000000000E+00 -0.45593999997E+02  0.45594000000E+02  0.51100000000E-03 0. -1.
    9900012    2    1    2    0    0  0.20185010702E+02  0.38344691645E+02 -0.24234320757E+01  0.47787273538E+02  0.20000011370E+02 0.  0.
        -12    1    1    2    0    0 -0.20185010702E+02 -0.38344691645E+02  0.24234320757E+01  0.43400726462E+02  0.00000000000E+00 0.  1.
         11    1    3    3    0    0  0.10514770269E+02  0.10752927558E+02  0.40481325806E+01  0.15574762359E+02  0.51100000000E-03 0. -1.
        -11    1    3    3    0    0 -0.25699778472E+01  0.38718931147E+01 -0.23390538393E+01  0.52026450533E+01  0.51100000000E-03 0.  1.
         12    1    3    3    0    0  0.12240218279E+02  0.23719870973E+02 -0.41325108170E+01  0.27009866126E+02  0.00000000000E+00 0. -1.
</event>
<event>
 7    1  0.2811980E-010  0.4778727E+02  0.7816164E-02  0.1312668E+00
        -11   -1    0    0    0    0  0.00000000000E+00  0.00000000000E+00  0.45593999997E+02  0.45594000000E+02  0.51100000000E-03 0. -1.
         11   -1    0    0    0    0 -0.00000000000E+00 -0.00000000000E+00 -0.45593999997E+02  0.45594000000E+02  0.51100000000E-03 0.  1.
    9900012    2    1    2    0    0  0.32301846295E+02  0.27711357845E+02 -0.85026403988E+01  0.47787268192E+02  0.19999986996E+02 0.  0.
        -12    1    1    2    0    0 -0.32301846295E+02 -0.27711357845E+02  0.85026403988E+01  0.43400731808E+02  0.00000000000E+00 0.  1.
         11    1    3    3    0    0  0.47512258070E+00  0.42879988458E+01  0.49003367738E+00  0.43419821320E+01  0.51100000000E-03 0. -1.
        -11    1    3    3    0    0  0.25778452456E+02  0.11508887993E+02 -0.10227967286E+02  0.30026562057E+02  0.51100000000E-03 0.  1.
        -12    1    3    3    0    0  0.60482712579E+01  0.11914471006E+02  0.12352932099E+01  0.13418724003E+02  0.00000000000E+00 0.  1.
</event>
<event>
 7    1  0.2811980E-010  0.4778726E+02  0.7816164E-02  0.1312668E+00
        -11   -1    0    0    0    0  0.00000000000E+00  0.00000000000E+00  0.45593999997E+02  0.45594000000E+02  0.51100000000E-03 0.  1.
         11   -1    0    0    0    0 -0.00000000000E+00 -0.00000000000E+00 -0.45593999997E+02  0.45594000000E+02  0.51100000000E-03 0. -1.
    9900012    2    1    2    0    0  0.18083767643E+02 -0.31025598986E+02 -0.24372390722E+02  0.47787264129E+02  0.19999968472E+02 0.  0.
        -12    1    1    2    0    0 -0.18083767643E+02  0.31025598986E+02  0.24372390722E+02  0.43400735871E+02  0.00000000000E+00 0.  1.
         11    1    3    3    0    0  0.32949341582E+01 -0.11630661615E+02  0.82909942788E+00  0.12116777081E+02  0.51100000000E-03 0. -1.
        -11    1    3    3    0    0  0.11673999392E+02 -0.17916592646E+02 -0.23665996620E+02  0.31896174538E+02  0.51100000000E-03 0.  1.
         12    1    3    3    0    0  0.31148340924E+01 -0.14783447254E+01 -0.15354935294E+01  0.37743125108E+01  0.00000000000E+00 0. -1.
</event>
<event>
 7    1  0.2811980E-010  0.4778727E+02  0.7816164E-02  0.1312668E+00
        -11   -1    0    0    0    0  0.00000000000E+00  0.00000000000E+00  0.45593999997E+02  0.45594000000E+02  0.51100000000E-03 0.  1.
         11   -1    0    0    0    0 -0.00000000000E+00 -0.00000000000E+00 -0.45593999997E+02  0.45594000000E+02  0.51100000000E-03 0. -1.
    9900012    2    1    2    0    0  0.28943682610E+02  0.39260463690E+01 -0.32100979308E+02  0.47787268719E+02  0.19999989399E+02 0.  0.
        -12    1    1    2    0    0 -0.28943682610E+02 -0.39260463690E+01  0.32100979308E+02  0.43400731281E+02  0.00000000000E+00 0.  1.
         11    1    3    3    0    0  0.10616038288E+02  0.92028836610E+00 -0.15031580028E+02  0.18425406319E+02  0.51100000000E-03 0.  1.
        -11    1    3    3    0    0  0.17905832382E+02 -0.18860178646E+00 -0.77697092455E+01  0.19519804967E+02  0.51100000000E-03 0. -1.
        -12    1    3    3    0    0  0.42181193957E+00  0.31943597894E+01 -0.92996900346E+01  0.98420574330E+01  0.00000000000E+00 0.  1.
</event>
<event>
 7    1  0.2811980E-010  0.4778727E+02  0.7816164E-02  0.1312668E+00
        -11   -1    0    0    0    0  0.00000000000E+00  0.00000000000E+00  0.45593999997E+02  0.45594000000E+02  0.51100000000E-03 0.  1.
         11   -1    0    0    0    0 -0.00000000000E+00 -0.00000000000E+00 -0.45593999997E+02  0.45594000000E+02  0.51100000000E-03 0. -1.
    9900012    2    1    2    0    0  0.14731190349E+01 -0.21145214888E+02 -0.37872590282E+02  0.47787270893E+02  0.19999999311E+02 0.  0.
        -12    1    1    2    0    0 -0.14731190349E+01  0.21145214888E+02  0.37872590282E+02  0.43400729107E+02  0.00000000000E+00 0.  1.
         11    1    3    3    0    0  0.16332183819E+01 -0.16956772201E+02 -0.31172265435E+02  0.35523367779E+02  0.51100000000E-03 0. -1.
        -11    1    3    3    0    0  0.24094332888E+01 -0.62567048985E+01 -0.57463921875E+01  0.88302179131E+01  0.51100000000E-03 0.  1.
         12    1    3    3    0    0 -0.25695326357E+01  0.20682622119E+01 -0.95393265950E+00  0.34336852014E+01  0.00000000000E+00 0. -1.
</event>
<event>
 7    1 -0.2811980E-010  0.4778727E+02  0.7816164E-02  0.1312668E+00
        -11   -1    0    0    0    0  0.00000000000E+00  0.00000000000E+00  0.45593999997E+02  0.45594000000E+02  0.51100000000E-03 0.  1.
         11   -1    0    0    0    0 -0.00000000000E+00 -0.00000000000E+00 -0.45593999997E+02  0.45594000000E+02  0.51100000000E-03 0. -1.
    9900012    2    1    2    0    0 -0.41188596079E+02 -0.79801868110E+01 -0.11110339902E+02  0.47787268656E+02  0.19999989109E+02 0.  0.
        -12    1    1    2    0    0  0.41188596079E+02  0.79801868110E+01  0.11110339902E+02  0.43400731344E+02  0.00000000000E+00 0.  1.
         11    1    3    3    0    0 -0.33229804645E+02 -0.24995613164E+01 -0.66873964424E+01  0.33988071363E+02  0.51100000000E-03 0. -1.
        -11    1    3    3    0    0 -0.28155815146E+01  0.17917818821E+00  0.22819123075E+01  0.36285986453E+01  0.51100000000E-03 0.  1.
         12    1    3    3    0    0 -0.51432099196E+01 -0.56598036828E+01 -0.67048557667E+01  0.10170598648E+02  0.00000000000E+00 0. -1.
</event>
<event>
 7    1  0.2811980E-010  0.4778727E+02  0.7816164E-02  0.1312668E+00
        -11   -1    0    0    0    0  0.00000000000E+00  0.00000000000E+00  0.45593999997E+02  0.45594000000E+02  0.51100000000E-03 0. -1.
         11   -1    0    0    0    0 -0.00000000000E+00 -0.00000000000E+00 -0.45593999997E+02  0.45594000000E+02  0.51100000000E-03 0.  1.
    9900012    2    1    2    0    0 -0.19302608731E+02 -0.37892778182E+02  0.86700645998E+01  0.47787270025E+02  0.19999995352E+02 0.  0.
        -12    1    1    2    0    0  0.19302608731E+02  0.37892778182E+02 -0.86700645998E+01  0.43400729975E+02  0.00000000000E+00 0.  1.
         11    1    3    3    0    0 -0.51469894165E+01 -0.70595287711E+01  0.76363923307E+01  0.11603574217E+02  0.51100000000E-03 0. -1.
        -11    1    3    3    0    0 -0.11590569337E+02 -0.30642421023E+02 -0.11910916093E+01  0.32782891319E+02  0.51100000000E-03 0.  1.
        -12    1    3    3    0    0 -0.25650499771E+01 -0.19082838803E+00  0.22247638784E+01  0.34008044891E+01  0.00000000000E+00 0.  1.
</event>
<event>
 7    1  0.2811980E-010  0.4778727E+02  0.7816164E-02  0.1312668E+00
        -11   -1    0    0    0    0  0.00000000000E+00  0.00000000000E+00  0.45593999997E+02  0.45594000000E+02  0.51100000000E-03 0.  1.
         11   -1    0    0    0    0 -0.00000000000E+00 -0.00000000000E+00 -0.45593999997E+02  0.45594000000E+02  0.51100000000E-03 0. -1.
    9900012    2    1    2    0    0  0.23580777748E+02  0.19310963107E+02 -0.30897527657E+02  0.47787267395E+02  0.19999983363E+02 0.  0.
        -12    1    1    2    0    0 -0.23580777748E+02 -0.19310963107E+02  0.30897527657E+02  0.43400732605E+02  0.00000000000E+00 0.  1.
         11    1    3    3    0    0  0.16549264433E+02  0.16408216468E+02 -0.25140316840E+02  0.34280362484E+02  0.51100000000E-03 0. -1.
        -11    1    3    3    0    0  0.27869185286E+01 -0.34153878527E+01 -0.33070057049E+01  0.55107237331E+01  0.51100000000E-03 0.  1.
        -12    1    3    3    0    0  0.42445947859E+01  0.63181344916E+01 -0.24502051121E+01  0.79961811786E+01  0.00000000000E+00 0.  1.
</event>
<event>
 7    1  0.2811980E-010  0.4778727E+02  0.7816164E-02  0.1312668E+00
        -11   -1    0    0    0    0  0.00000000000E+00  0.00000000000E+00  0.45593999997E+02  0.45594000000E+02  0.51100000000E-03 0.  1.
         11   -1    0    0    0    0 -0.00000000000E+00 -0.00000000000E+00 -0.45593999997E+02  0.45594000000E+02  0.51100000000E-03 0. -1.
    9900012    2    1    2    0    0 -0.52384960041E+01  0.10935669216E+02 -0.41672445645E+02  0.47787269274E+02  0.19999991926E+02 0.  0.
        -12    1    1    2    0    0  0.52384960041E+01 -0.10935669216E+02  0.41672445645E+02  0.43400730726E+02  0.00000000000E+00 0.  1.
         11    1    3    3    0    0  0.40677230548E+01  0.28131125996E+01 -0.21919549588E+02  0.22470572484E+02  0.51100000000E-03 0. -1.
        -11    1    3    3    0    0 -0.11425503377E+02  0.73141033979E+01 -0.17023429036E+02  0.21767759929E+02  0.51100000000E-03 0.  1.
         12    1    3    3    0    0  0.21192843177E+01  0.80845321794E+00 -0.27294670209E+01  0.35489368609E+01  0.00000000000E+00 0. -1.
</event>
<event>
 7    1  0.2811980E-010  0.4778727E+02  0.7816164E-02  0.1312668E+00
        -11   -1    0    0    0    0  0.00000000000E+00  0.00000000000E+00  0.45593999997E+02  0.45594000000E+02  0.51100000000E-03 0. -1.
         11   -1    0    0    0    0 -0.00000000000E+00 -0.00000000000E+00 -0.45593999997E+02  0.45594000000E+02  0.51100000000E-03 0.  1.
    9900012    2    1    2    0    0  0.29011757601E+02  0.19756044746E+02  0.25527247270E+02  0.47787265717E+02  0.19999975712E+02 0.  0.
        -12    1    1    2    0    0 -0.29011757601E+02 -0.19756044746E+02 -0.25527247270E+02  0.43400734283E+02  0.00000000000E+00 0.  1.
         11    1    3    3    0    0  0.15600845290E+02  0.99608001995E+01  0.19765565308E+02  0.27079170714E+02  0.51100000000E-03 0. -1.
        -11    1    3    3    0    0  0.20625059513E+01  0.11250224341E+01 -0.31083195595E+01  0.38963132602E+01  0.51100000000E-03 0.  1.
        -12    1    3    3    0    0  0.11348406360E+02  0.86702221120E+01  0.88700015214E+01  0.16811781743E+02  0.00000000000E+00 0.  1.
</event>
<event>
 7    1  0.2811980E-010  0.4778727E+02  0.7816164E-02  0.1312668E+00
        -11   -1    0    0    0    0  0.00000000000E+00  0.00000000000E+00  0.45593999997E+02  0.45594000000E+02  0.51100000000E-03 0.  1.
         11   -1    0    0    0    0 -0.00000000000E+00 -0.00000000000E+00 -0.45593999997E+02  0.45594000000E+02  0.51100000000E-03 0. -1.
    9900012    2    1    2    0    0 -0.27670417640E+02  0.32780172705E+02 -0.65902840270E+01  0.47787267535E+02  0.19999984001E+02 0.  0.
        -12    1    1    2    0    0  0.27670417640E+02 -0.32780172705E+02  0.65902840270E+01  0.43400732465E+02  0.00000000000E+00 0.  1.
         11    1    3    3    0    0 -0.29803252673E+01  0.12167411589E+02  0.18773913117E+01  0.12666998139E+02  0.51100000000E-03 0.  1.
        -11    1    3    3    0    0 -0.25310384646E+02  0.20491661882E+02 -0.67064254928E+01  0.33249058946E+02  0.51100000000E-03 0. -1.
         12    1    3    3    0    0  0.62029227351E+00  0.12109923384E+00 -0.17612498459E+01  0.18712104501E+01  0.00000000000E+00 0. -1.
</event>
<event>
 7    1  0.2811980E-010  0.4778727E+02  0.7816164E-02  0.1312668E+00
        -11   -1    0    0    0    0  0.00000000000E+00  0.00000000000E+00  0.45593999997E+02  0.45594000000E+02  0.51100000000E-03 0.  1.
         11   -1    0    0    0    0 -0.00000000000E+00 -0.00000000000E+00 -0.45593999997E+02  0.45594000000E+02  0.51100000000E-03 0. -1.
    9900012    2    1    2    0    0 -0.13714410679E+02  0.21257858959E+02 -0.35265306792E+02  0.47787268544E+02  0.19999988601E+02 0.  0.
        -12    1    1    2    0    0  0.13714410679E+02 -0.21257858959E+02  0.35265306792E+02  0.43400731456E+02  0.00000000000E+00 0.  1.
         11    1    3    3    0    0 -0.68135951676E+01  0.16289149708E+02 -0.23277883980E+02  0.29216799280E+02  0.51100000000E-03 0. -1.
        -11    1    3    3    0    0 -0.61120600513E+01  0.39942643664E+01 -0.83642462524E+00  0.73492198439E+01  0.51100000000E-03 0.  1.
        -12    1    3    3    0    0 -0.78875546020E+00  0.97444488486E+00 -0.11150998186E+02  0.11221249420E+02  0.00000000000E+00 0.  1.
</event>
<event>
 7    1  0.2811980E-010  0.4778727E+02  0.7816164E-02  0.1312668E+00
        -11   -1    0    0    0    0  0.00000000000E+00  0.00000000000E+00  0.45593999997E+02  0.45594000000E+02  0.51100000000E-03 0.  1.
         11   -1    0    0    0    0 -0.00000000000E+00 -0.00000000000E+00 -0.45593999997E+02  0.45594000000E+02  0.51100000000E-03 0. -1.
    9900012    2    1    2    0    0 -0.24208927916E+02  0.29623639102E+02 -0.20493689579E+02  0.47787268473E+02  0.19999988278E+02 0.  0.
        -12    1    1    2    0    0  0.24208927916E+02 -0.29623639102E+02  0.20493689579E+02  0.43400731527E+02  0.00000000000E+00 0.  1.
         11    1    3    3    0    0  0.31381814840E+01  0.29251263209E+01 -0.47425272586E+01  0.63950068083E+01  0.51100000000E-03 0. -1.
        -11    1    3    3    0    0 -0.11234100343E+02  0.98020694888E+01 -0.54690608145E+01  0.15880686485E+02  0.51100000000E-03 0.  1.
         12    1    3    3    0    0 -0.16113009056E+02  0.16896443292E+02 -0.10282101506E+02  0.25511575180E+02  0.00000000000E+00 0. -1.
</event>
<event>
 7    1  0.2811980E-010  0.4778727E+02  0.7816164E-02  0.1312668E+00
        -11   -1    0    0    0    0  0.00000000000E+00  0.00000000000E+00  0.45593999997E+02  0.45594000000E+02  0.51100000000E-03 0.  1.
         11   -1    0    0    0    0 -0.00000000000E+00 -0.00000000000E+00 -0.45593999997E+02  0.45594000000E+02  0.51100000000E-03 0. -1.
    9900012    2    1    2    0    0  0.27652399001E+02  0.95481655659E+01 -0.32059326799E+02  0.47787273381E+02  0.20000010655E+02 0.  0.
        -12    1    1    2    0    0 -0.27652399001E+02 -0.95481655659E+01  0.32059326799E+02  0.43400726619E+02  0.00000000000E+00 0.  1.
         11    1    3    3    0    0  0.13941611346E+02  0.72544785197E+01 -0.27301500248E+02  0.31501871398E+02  0.51100000000E-03 0. -1.
        -11    1    3    3    0    0  0.14488882322E+02  0.22595399674E+01 -0.40024608099E+01  0.15200425146E+02  0.51100000000E-03 0.  1.
         12    1    3    3    0    0 -0.77809466750E+00  0.34147078664E-01 -0.75536574175E+00  0.10849768377E+01  0.00000000000E+00 0. -1.
</event>
<event>
 7    1  0.2811980E-010  0.4778727E+02  0.7816164E-02  0.1312668E+00
        -11   -1    0    0    0    0  0.00000000000E+00  0.00000000000E+00  0.45593999997E+02  0.45594000000E+02  0.51100000000E-03 0.  1.
         11   -1    0    0    0    0 -0.00000000000E+00 -0.00000000000E+00 -0.45593999997E+02  0.45594000000E+02  0.51100000000E-03 0. -1.
    9900012    2    1    2    0    0 -0.18477816044E+02  0.76791326576E+00 -0.39263262674E+02  0.47787272214E+02  0.20000005333E+02 0.  0.
        -12    1    1    2    0    0  0.18477816044E+02 -0.76791326576E+00  0.39263262674E+02  0.43400727786E+02  0.00000000000E+00 0.  1.
         11    1    3    3    0    0 -0.12858672578E+02 -0.46149606814E+01 -0.12107904464E+02  0.18254990367E+02  0.51100000000E-03 0. -1.
        -11    1    3    3    0    0 -0.23473030628E+01  0.14022512799E+01 -0.22252106074E+02  0.22419463983E+02  0.51100000000E-03 0.  1.
         12    1    3    3    0    0 -0.32718404032E+01  0.39806226673E+01 -0.49032521364E+01  0.71128178633E+01  0.00000000000E+00 0. -1.
</event>
<event>
 7    1  0.2811980E-010  0.4778727E+02  0.7816164E-02  0.1312668E+00
        -11   -1    0    0    0    0  0.00000000000E+00  0.00000000000E+00  0.45593999997E+02  0.45594000000E+02  0.51100000000E-03 0.  1.
         11   -1    0    0    0    0 -0.00000000000E+00 -0.00000000000E+00 -0.45593999997E+02  0.45594000000E+02  0.51100000000E-03 0. -1.
    9900012    2    1    2    0    0 -0.34765742261E+01  0.42762591367E+02 -0.65495987039E+01  0.47787273832E+02  0.20000012709E+02 0.  0.
        -12    1    1    2    0    0  0.34765742261E+01 -0.42762591367E+02  0.65495987039E+01  0.43400726168E+02  0.00000000000E+00 0.  1.
         11    1    3    3    0    0 -0.28793695179E+01  0.71581583753E+01 -0.78287932613E+01  0.10991815334E+02  0.51100000000E-03 0. -1.
        -11    1    3    3    0    0 -0.38956052973E+00  0.34681380559E+02 -0.60304444386E+00  0.34688810555E+02  0.51100000000E-03 0.  1.
        -12    1    3    3    0    0 -0.20764417847E+00  0.92305243265E+00  0.18822390012E+01  0.21066479431E+01  0.00000000000E+00 0.  1.
</event>
<event>
 7    1  0.2811980E-010  0.4778727E+02  0.7816164E-02  0.1312668E+00
        -11   -1    0    0    0    0  0.00000000000E+00  0.00000000000E+00  0.45593999997E+02  0.45594000000E+02  0.51100000000E-03 0.  1.
         11   -1    0    0    0    0 -0.00000000000E+00 -0.00000000000E+00 -0.45593999997E+02  0.45594000000E+02  0.51100000000E-03 0. -1.
    9900012    2    1    2    0    0  0.87465304058E+01  0.34994031075E+02 -0.24135851759E+02  0.47787270224E+02  0.19999996258E+02 0.  0.
        -12    1    1    2    0    0 -0.87465304058E+01 -0.34994031075E+02  0.24135851759E+02  0.43400729776E+02  0.00000000000E+00 0.  1.
         11    1    3    3    0    0  0.81730278551E+01  0.74346708493E+01 -0.20503526860E+01  0.11237288879E+02  0.51100000000E-03 0. -1.
        -11    1    3    3    0    0  0.34372813408E+00  0.18350151683E+02 -0.19921544502E+02  0.27087158423E+02  0.51100000000E-03 0.  1.
         12    1    3    3    0    0  0.22977441655E+00  0.92092085422E+01 -0.21639545703E+01  0.94628229212E+01  0.00000000000E+00 0. -1.
</event>
<event>
 7    1  0.2811980E-010  0.4778725E+02  0.7816164E-02  0.1312668E+00
        -11   -1    0    0    0    0  0.00000000000E+00  0.00000000000E+00  0.45593999997E+02  0.45594000000E+02  0.51100000000E-03 0. -1.
         11   -1    0    0    0    0 -0.00000000000E+00 -0.00000000000E+00 -0.45593999997E+02  0.45594000000E+02  0.51100000000E-03 0.  1.
    9900012    2    1    2    0    0  0.80082835434E+01  0.34602607860E+02 -0.24942967359E+02  0.47787254652E+02  0.19999925262E+02 0.  0.
        -12    1    1    2    0    0 -0.80082835434E+01 -0.34602607860E+02  0.24942967359E+02  0.43400745348E+02  0.00000000000E+00 0.  1.
         11    1    3    3    0    0  0.93587755226E+01  0.28503483023E+02 -0.17899112069E+02  0.34934416223E+02  0.51100000000E-03 0. -1.
        -11    1    3    3    0    0  0.28041578794E+01  0.22853920860E+01  0.25794002048E+00  0.36266860513E+01  0.51100000000E-03 0.  1.
         12    1    3    3    0    0 -0.41546498586E+01  0.38137327514E+01 -0.73017953106E+01  0.92261523781E+01  0.00000000000E+00 0. -1.
</event>
<event>
 7    1  0.2811980E-010  0.4778727E+02  0.7816164E-02  0.1312668E+00
        -11   -1    0    0    0    0  0.00000000000E+00  0.00000000000E+00  0.45593999997E+02  0.45594000000E+02  0.51100000000E-03 0. -1.
         11   -1    0    0    0    0 -0.00000000000E+00 -0.00000000000E+00 -0.45593999997E+02  0.45594000000E+02  0.51100000000E-03 0.  1.
    9900012    2    1    2    0    0 -0.23838969798E+02  0.13216120587E+02  0.33773678972E+02  0.47787265954E+02  0.19999976793E+02 0.  0.
        -12    1    1    2    0    0  0.23838969798E+02 -0.13216120587E+02 -0.33773678972E+02  0.43400734046E+02  0.00000000000E+00 0.  1.
         11    1    3    3    0    0 -0.24019228129E+02  0.72517757805E+01  0.28395262418E+02  0.37891984640E+02  0.51100000000E-03 0. -1.
        -11    1    3    3    0    0 -0.11004170289E+01  0.64726717739E+01  0.31663541723E+01  0.72891835301E+01  0.51100000000E-03 0.  1.
         12    1    3    3    0    0  0.12806753602E+01 -0.50832696712E+00  0.22120623809E+01  0.26060977841E+01  0.00000000000E+00 0. -1.
</event>
<event>
 7    1  0.2811980E-010  0.4778727E+02  0.7816164E-02  0.1312668E+00
        -11   -1    0    0    0    0  0.00000000000E+00  0.00000000000E+00  0.45593999997E+02  0.45594000000E+02  0.51100000000E-03 0.  1.
         11   -1    0    0    0    0 -0.00000000000E+00 -0.00000000000E+00 -0.45593999997E+02  0.45594000000E+02  0.51100000000E-03 0. -1.
    9900012    2    1    2    0    0  0.31367155258E+02 -0.28724691863E+02 -0.86381169963E+01  0.47787269397E+02  0.19999992490E+02 0.  0.
        -12    1    1    2    0    0 -0.31367155258E+02  0.28724691863E+02  0.86381169963E+01  0.43400730603E+02  0.00000000000E+00 0.  1.
         11    1    3    3    0    0  0.26748126066E+01 -0.37086348829E+00 -0.22595881258E+01  0.35210653170E+01  0.51100000000E-03 0. -1.
        -11    1    3    3    0    0  0.28213368071E+02 -0.19611543750E+02 -0.18517990227E+01  0.34409823395E+02  0.51100000000E-03 0.  1.
        -12    1    3    3    0    0  0.47897458044E+00 -0.87422846242E+01 -0.45267298478E+01  0.98563806854E+01  0.00000000000E+00 0.  1.
</event>
<event>
 7    1  0.2811980E-010  0.4778727E+02  0.7816164E-02  0.1312668E+00
        -11   -1    0    0    0    0  0.00000000000E+00  0.00000000000E+00  0.45593999997E+02  0.45594000000E+02  0.51100000000E-03 0.  1.
         11   -1    0    0    0    0 -0.00000000000E+00 -0.00000000000E+00 -0.45593999997E+02  0.45594000000E+02  0.51100000000E-03 0. -1.
    9900012    2    1    2    0    0 -0.29750679746E+02  0.26913361925E+02 -0.16558720692E+02  0.47787271591E+02  0.20000002491E+02 0.  0.
        -12    1    1    2    0    0  0.29750679746E+02 -0.26913361925E+02  0.16558720692E+02  0.43400728409E+02  0.00000000000E+00 0.  1.
         11    1    3    3    0    0 -0.23474436718E+02  0.12035311269E+02 -0.49933007657E+01  0.26848295093E+02  0.51100000000E-03 0.  1.
        -11    1    3    3    0    0 -0.27872669511E+01  0.13129468222E+02 -0.78419845884E+01  0.15545047938E+02  0.51100000000E-03 0. -1.
        -12    1    3    3    0    0 -0.34889760769E+01  0.17485824342E+01 -0.37234353381E+01  0.53939285601E+01  0.00000000000E+00 0.  1.
</event>
<event>
 7    1  0.2811980E-010  0.4778727E+02  0.7816164E-02  0.1312668E+00
        -11   -1    0    0    0    0  0.00000000000E+00  0.00000000000E+00  0.45593999997E+02  0.45594000000E+02  0.51100000000E-03 0.  1.
         11   -1    0    0    0    0 -0.00000000000E+00 -0.00000000000E+00 -0.45593999997E+02  0.45594000000E+02  0.51100000000E-03 0. -1.
    9900012    2    1    2    0    0  0.21732118948E+02  0.16665046979E+02 -0.33669190419E+02  0.47787272261E+02  0.20000005549E+02 0.  0.
        -12    1    1    2    0    0 -0.21732118948E+02 -0.16665046979E+02  0.33669190419E+02  0.43400727739E+02  0.00000000000E+00 0.  1.
         11    1    3    3    0    0  0.13464840678E+02  0.15355032202E+02 -0.28371939887E+02  0.34957773407E+02  0.51100000000E-03 0. -1.
        -11    1    3    3    0    0  0.91736625082E+01 -0.35972370031E+00 -0.26211370499E+01  0.95475569991E+01  0.51100000000E-03 0.  1.
         12    1    3    3    0    0 -0.90638423835E+00  0.16697384769E+01 -0.26761134824E+01  0.32819418550E+01  0.00000000000E+00 0. -1.
</event>
<event>
 7    1  0.2811980E-010  0.4778727E+02  0.7816164E-02  0.1312668E+00
        -11   -1    0    0    0    0  0.00000000000E+00  0.00000000000E+00  0.45593999997E+02  0.45594000000E+02  0.51100000000E-03 0.  1.
         11   -1    0    0    0    0 -0.00000000000E+00 -0.00000000000E+00 -0.45593999997E+02  0.45594000000E+02  0.51100000000E-03 0. -1.
    9900012    2    1    2    0    0  0.24572633940E+02 -0.25231056799E+01 -0.35685330601E+02  0.47787271652E+02  0.20000002771E+02 0.  0.
        -12    1    1    2    0    0 -0.24572633940E+02  0.25231056799E+01  0.35685330601E+02  0.43400728348E+02  0.00000000000E+00 0.  1.
         11    1    3    3    0    0  0.14911701830E+02 -0.78934369400E+01 -0.16152646735E+02  0.23357508322E+02  0.51100000000E-03 0. -1.
        -11    1    3    3    0    0  0.13372568585E+01  0.61667049814E+01 -0.85395013079E+01  0.10617890049E+02  0.51100000000E-03 0.  1.
        -12    1    3    3    0    0  0.83236752514E+01 -0.79637372127E+00 -0.10993182558E+02  0.13811873282E+02  0.00000000000E+00 0.  1.
</event>
<event>
 7    1  0.2811980E-010  0.4778728E+02  0.7816164E-02  0.1312668E+00
        -11   -1    0    0    0    0  0.00000000000E+00  0.00000000000E+00  0.45593999997E+02  0.45594000000E+02  0.51100000000E-03 0.  1.
         11   -1    0    0    0    0 -0.00000000000E+00 -0.00000000000E+00 -0.45593999997E+02  0.45594000000E+02  0.51100000000E-03 0. -1.
    9900012    2    1    2    0    0 -0.31802277008E+02 -0.41879960022E+01 -0.29235229566E+02  0.47787276721E+02  0.20000025880E+02 0.  0.
        -12    1    1    2    0    0  0.31802277008E+02  0.41879960022E+01  0.29235229566E+02  0.43400723279E+02  0.00000000000E+00 0.  1.
         11    1    3    3    0    0 -0.11855289144E+02 -0.73153021763E+01 -0.10939888377E+02  0.17712783084E+02  0.51100000000E-03 0. -1.
        -11    1    3    3    0    0 -0.50806820673E+01  0.63032846674E+01 -0.33663566826E+01  0.87679578832E+01  0.51100000000E-03 0.  1.
        -12    1    3    3    0    0 -0.14866305797E+02 -0.31759784933E+01 -0.14928984506E+02  0.21306535754E+02  0.00000000000E+00 0.  1.
</event>
<event>
 7    1  0.2811980E-010  0.4778725E+02  0.7816164E-02  0.1312668E+00
        -11   -1    0    0    0    0  0.00000000000E+00  0.00000000000E+00  0.45593999997E+02  0.45594000000E+02  0.51100000000E-03 0.  1.
         11   -1    0    0    0    0 -0.00000000000E+00 -0.00000000000E+00 -0.45593999997E+02  0.45594000000E+02  0.51100000000E-03 0. -1.
    9900012    2    1    2    0    0 -0.28710105447E+02  0.20720860464E+02 -0.25099815150E+02  0.47787251922E+02  0.19999912813E+02 0.  0.
        -12    1    1    2    0    0  0.28710105447E+02 -0.20720860464E+02  0.25099815150E+02  0.43400748078E+02  0.00000000000E+00 0.  1.
         11    1    3    3    0    0 -0.14481506036E+02  0.22236763835E+01 -0.29388096036E+01  0.14943070497E+02  0.51100000000E-03 0. -1.
        -11    1    3    3    0    0 -0.14273727251E+02  0.15327136019E+02 -0.18023157181E+02  0.27631405741E+02  0.51100000000E-03 0.  1.
         12    1    3    3    0    0  0.45127840358E-01  0.31700480619E+01 -0.41378483658E+01  0.52127756843E+01  0.00000000000E+00 0. -1.
</event>
<event>
 7    1  0.2811980E-010  0.4778727E+02  0.7816164E-02  0.1312668E+00
        -11   -1    0    0    0    0  0.00000000000E+00  0.00000000000E+00  0.45593999997E+02  0.45594000000E+02  0.51100000000E-03 0.  1.
         11   -1    0    0    0    0 -0.00000000000E+00 -0.00000000000E+00 -0.45593999997E+02  0.45594000000E+02  0.51100000000E-03 0. -1.
    9900012    2    1    2    0    0 -0.38948714884E+02  0.80567059777E+01 -0.17369808651E+02  0.47787272415E+02  0.20000006250E+02 0.  0.
        -12    1    1    2    0    0  0.38948714884E+02 -0.80567059777E+01  0.17369808651E+02  0.43400727585E+02  0.00000000000E+00 0.  1.
         11    1    3    3    0    0 -0.28525955647E+02  0.40701293671E-01 -0.84635385684E+01  0.29755054823E+02  0.51100000000E-03 0. -1.
        -11    1    3    3    0    0  0.77730706103E-01 -0.31292085144E+00 -0.36047147142E+01  0.36191062368E+01  0.51100000000E-03 0.  1.
         12    1    3    3    0    0 -0.10500489943E+02  0.83289255355E+01 -0.53015553684E+01  0.14413111355E+02  0.00000000000E+00 0. -1.
</event>
<event>
 7    1  0.2811980E-010  0.4778728E+02  0.7816164E-02  0.1312668E+00
        -11   -1    0    0    0    0  0.00000000000E+00  0.00000000000E+00  0.45593999997E+02  0.45594000000E+02  0.51100000000E-03 0.  1.
         11   -1    0    0    0    0 -0.00000000000E+00 -0.00000000000E+00 -0.45593999997E+02  0.45594000000E+02  0.51100000000E-03 0. -1.
    9900012    2    1    2    0    0 -0.32839030789E+02 -0.25886821098E+02  0.11622945417E+02  0.47787282150E+02  0.20000050636E+02 0.  0.
        -12    1    1    2    0    0  0.32839030789E+02  0.25886821098E+02 -0.11622945417E+02  0.43400717850E+02  0.00000000000E+00 0.  1.
         11    1    3    3    0    0 -0.21331276329E+02 -0.23067892749E+02  0.23169454788E+01  0.31504273715E+02  0.51100000000E-03 0. -1.
        -11    1    3    3    0    0 -0.10875517450E+02 -0.43306199106E+01  0.84249373499E+01  0.14422576685E+02  0.51100000000E-03 0.  1.
         12    1    3    3    0    0 -0.63223700951E+00  0.15116915614E+01  0.88106258874E+00  0.18604317505E+01  0.00000000000E+00 0. -1.
</event>
<event>
 7    1  0.2811980E-010  0.4778727E+02  0.7816164E-02  0.1312668E+00
        -11   -1    0    0    0    0  0.00000000000E+00  0.00000000000E+00  0.45593999997E+02  0.45594000000E+02  0.51100000000E-03 0.  1.
         11   -1    0    0    0    0 -0.00000000000E+00 -0.00000000000E+00 -0.45593999997E+02  0.45594000000E+02  0.51100000000E-03 0. -1.
    9900012    2    1    2    0    0 -0.19777438986E+02 -0.12536888333E+01 -0.38612231337E+02  0.47787271465E+02  0.20000001917E+02 0.  0.
        -12    1    1    2    0    0  0.19777438986E+02  0.12536888333E+01  0.38612231337E+02  0.43400728535E+02  0.00000000000E+00 0.  1.
         11    1    3    3    0    0 -0.35549802249E+01 -0.24184301849E+01 -0.21761007559E+02  0.22181707310E+02  0.51100000000E-03 0. -1.
        -11    1    3    3    0    0 -0.15723430636E+02  0.34991579251E+01 -0.11639991946E+02  0.19873595294E+02  0.51100000000E-03 0.  1.
        -12    1    3    3    0    0 -0.49902812521E+00 -0.23344165736E+01 -0.52112318323E+01  0.57319688605E+01  0.00000000000E+00 0.  1.
</event>
<event>
 7    1  0.2811980E-010  0.4778727E+02  0.7816164E-02  0.1312668E+00
        -11   -1    0    0    0    0  0.00000000000E+00  0.00000000000E+00  0.45593999997E+02  0.45594000000E+02  0.51100000000E-03 0. -1.
         11   -1    0    0    0    0 -0.00000000000E+00 -0.00000000000E+00 -0.45593999997E+02  0.45594000000E+02  0.51100000000E-03 0.  1.
    9900012    2    1    2    0    0  0.13236260233E+02  0.35766586351E+02  0.20716563432E+02  0.47787270921E+02  0.19999999437E+02 0.  0.
        -12    1    1    2    0    0 -0.13236260233E+02 -0.35766586351E+02 -0.20716563432E+02  0.43400729079E+02  0.00000000000E+00 0.  1.
         11    1    3    3    0    0 -0.28766254511E+01  0.30899699815E+01 -0.65920536962E+00  0.42728726231E+01  0.51100000000E-03 0. -1.
        -11    1    3    3    0    0 -0.11675095646E+01  0.27339191844E+01  0.35095238161E+01  0.45993641264E+01  0.51100000000E-03 0.  1.
         12    1    3    3    0    0  0.17280395249E+02  0.29942697185E+02  0.17866244985E+02  0.38915034171E+02  0.00000000000E+00 0. -1.
</event>
<event>
 7    1  0.2811980E-010  0.4778727E+02  0.7816164E-02  0.1312668E+00
        -11   -1    0    0    0    0  0.00000000000E+00  0.00000000000E+00  0.45593999997E+02  0.45594000000E+02  0.51100000000E-03 0. -1.
         11   -1    0    0    0    0 -0.00000000000E+00 -0.00000000000E+00 -0.45593999997E+02  0.45594000000E+02  0.51100000000E-03 0.  1.
    9900012    2    1    2    0    0  0.10450367024E+02 -0.39410771250E+02  0.14872936898E+02  0.47787270589E+02  0.19999997924E+02 0.  0.
        -12    1    1    2    0    0 -0.10450367024E+02  0.39410771250E+02 -0.14872936898E+02  0.43400729411E+02  0.00000000000E+00 0.  1.
         11    1    3    3    0    0 -0.13131722977E+01 -0.11314127453E+02  0.10566541104E+02  0.15536592055E+02  0.51100000000E-03 0. -1.
        -11    1    3    3    0    0  0.22415231451E+01 -0.20346452666E-01  0.87249443628E+00  0.24054286085E+01  0.51100000000E-03 0.  1.
         12    1    3    3    0    0  0.95220161765E+01 -0.28076297344E+02  0.34339013578E+01  0.29845249926E+02  0.00000000000E+00 0. -1.
</event>
<event>
 7    1  0.2811980E-010  0.4778727E+02  0.7816164E-02  0.1312668E+00
        -11   -1    0    0    0    0  0.00000000000E+00  0.00000000000E+00  0.45593999997E+02  0.45594000000E+02  0.51100000000E-03 0.  1.
         11   -1    0    0    0    0 -0.00000000000E+00 -0.00000000000E+00 -0.45593999997E+02  0.45594000000E+02  0.51100000000E-03 0. -1.
    9900012    2    1    2    0    0  0.32731836437E+02 -0.40168462212E+01 -0.28215513968E+02  0.47787269608E+02  0.19999993450E+02 0.  0.
        -12    1    1    2    0    0 -0.32731836437E+02  0.40168462212E+01  0.28215513968E+02  0.43400730392E+02  0.00000000000E+00 0.  1.
         11    1    3    3    0    0  0.25762002998E+02 -0.11098923972E+02 -0.17244578736E+02  0.32927836368E+02  0.51100000000E-03 0. -1.
        -11    1    3    3    0    0  0.67928826832E+01  0.64739800102E+01 -0.10159079979E+02  0.13829771459E+02  0.51100000000E-03 0.  1.
         12    1    3    3    0    0  0.17695075572E+00  0.60809774080E+00 -0.81185525257E+00  0.10296617811E+01  0.00000000000E+00 0. -1.
</event>
<event>
 7    1  0.2811980E-010  0.4778728E+02  0.7816164E-02  0.1312668E+00
        -11   -1    0    0    0    0  0.00000000000E+00  0.00000000000E+00  0.45593999997E+02  0.45594000000E+02  0.51100000000E-03 0.  1.
         11   -1    0    0    0    0 -0.00000000000E+00 -0.00000000000E+00 -0.45593999997E+02  0.45594000000E+02  0.51100000000E-03 0. -1.
    9900012    2    1    2    0    0 -0.39990457685E+02  0.16852688020E+02 -0.61046871889E+00  0.47787280289E+02  0.20000042151E+02 0.  0.
        -12    1    1    2    0    0  0.39990457685E+02 -0.16852688020E+02  0.61046871889E+00  0.43400719711E+02  0.00000000000E+00 0.  1.
         11    1    3    3    0    0 -0.39372992283E+02  0.11613478554E+02  0.32698576271E+01  0.41180060401E+02  0.51100000000E-03 0. -1.
        -11    1    3    3    0    0  0.10232166680E+00  0.28612742536E+01 -0.21030332694E+01  0.35524793132E+01  0.51100000000E-03 0.  1.
         12    1    3    3    0    0 -0.71978706807E+00  0.23779352131E+01 -0.17772930766E+01  0.30547405751E+01  0.00000000000E+00 0. -1.
</event>
<event>
 7    1  0.2811980E-010  0.4778727E+02  0.7816164E-02  0.1312668E+00
        -11   -1    0    0    0    0  0.00000000000E+00  0.00000000000E+00  0.45593999997E+02  0.45594000000E+02  0.51100000000E-03 0.  1.
         11   -1    0    0    0    0 -0.00000000000E+00 -0.00000000000E+00 -0.45593999997E+02  0.45594000000E+02  0.51100000000E-03 0. -1.
    9900012    2    1    2    0    0  0.21122172105E+02  0.19580641299E+01 -0.37863481083E+02  0.47787269945E+02  0.19999994988E+02 0.  0.
        -12    1    1    2    0    0 -0.21122172105E+02 -0.19580641299E+01  0.37863481083E+02  0.43400730055E+02  0.00000000000E+00 0.  1.
         11    1    3    3    0    0  0.17286599878E+02  0.15955004885E+01 -0.20943020980E+02  0.27202615411E+02  0.51100000000E-03 0. -1.
        -11    1    3    3    0    0 -0.17489787092E+01 -0.31755771324E+01 -0.17280048675E+01  0.40161197358E+01  0.51100000000E-03 0.  1.
        -12    1    3    3    0    0  0.55845509367E+01  0.35381407738E+01 -0.15192455235E+02  0.16568534799E+02  0.00000000000E+00 0.  1.
</event>
<event>
 7    1  0.2811980E-010  0.4778727E+02  0.7816164E-02  0.1312668E+00
        -11   -1    0    0    0    0  0.00000000000E+00  0.00000000000E+00  0.45593999997E+02  0.45594000000E+02  0.51100000000E-03 0.  1.
         11   -1    0    0    0    0 -0.00000000000E+00 -0.00000000000E+00 -0.45593999997E+02  0.45594000000E+02  0.51100000000E-03 0. -1.
    9900012    2    1    2    0    0  0.25724852342E+01  0.94165157027E+01 -0.42288705924E+02  0.47787273082E+02  0.20000009292E+02 0.  0.
        -12    1    1    2    0    0 -0.25724852342E+01 -0.94165157027E+01  0.42288705924E+02  0.43400726918E+02  0.00000000000E+00 0.  1.
         11    1    3    3    0    0 -0.30361784849E+01  0.42230146219E+01 -0.13997699624E+02  0.14932776946E+02  0.51100000000E-03 0. -1.
        -11    1    3    3    0    0  0.19035243479E+01  0.38201965776E+01  0.20844487040E-01  0.42682246413E+01  0.51100000000E-03 0.  1.
        -12    1    3    3    0    0  0.37051393711E+01  0.13733045032E+01 -0.28311850787E+02  0.28586271495E+02  0.00000000000E+00 0.  1.
</event>
<event>
 7    1  0.2811980E-010  0.4778727E+02  0.7816164E-02  0.1312668E+00
        -11   -1    0    0    0    0  0.00000000000E+00  0.00000000000E+00  0.45593999997E+02  0.45594000000E+02  0.51100000000E-03 0.  1.
         11   -1    0    0    0    0 -0.00000000000E+00 -0.00000000000E+00 -0.45593999997E+02  0.45594000000E+02  0.51100000000E-03 0. -1.
    9900012    2    1    2    0    0 -0.21985951691E+02 -0.34378452802E+02 -0.14777119378E+02  0.47787270214E+02  0.19999996213E+02 0.  0.
        -12    1    1    2    0    0  0.21985951691E+02  0.34378452802E+02  0.14777119378E+02  0.43400729786E+02  0.00000000000E+00 0.  1.
         11    1    3    3    0    0 -0.13216390821E+02 -0.97097611009E+01  0.22386276575E+01  0.16551854912E+02  0.51100000000E-03 0.  1.
        -11    1    3    3    0    0 -0.52804034884E+01 -0.14469249201E+02 -0.95551198213E+01  0.18125731668E+02  0.51100000000E-03 0. -1.
        -12    1    3    3    0    0 -0.34891573818E+01 -0.10199442500E+02 -0.74606272138E+01  0.13109683634E+02  0.00000000000E+00 0.  1.
</event>
<event>
 7    1  0.2811980E-010  0.4778728E+02  0.7816164E-02  0.1312668E+00
        -11   -1    0    0    0    0  0.00000000000E+00  0.00000000000E+00  0.45593999997E+02  0.45594000000E+02  0.51100000000E-03 0.  1.
         11   -1    0    0    0    0 -0.00000000000E+00 -0.00000000000E+00 -0.45593999997E+02  0.45594000000E+02  0.51100000000E-03 0. -1.
    9900012    2    1    2    0    0 -0.12686245704E+02 -0.10069020134E+02 -0.40265321026E+02  0.47787284869E+02  0.20000063031E+02 0.  0.
        -12    1    1    2    0    0  0.12686245704E+02  0.10069020134E+02  0.40265321026E+02  0.43400715131E+02  0.00000000000E+00 0.  1.
         11    1    3    3    0    0 -0.60236777152E+01 -0.58161516805E+01 -0.34769049490E+01  0.90664867436E+01  0.51100000000E-03 0. -1.
        -11    1    3    3    0    0  0.11217514869E+01 -0.24574062844E+01 -0.31634830116E+01  0.41599034930E+01  0.51100000000E-03 0.  1.
         12    1    3    3    0    0 -0.77843194762E+01 -0.17954621696E+01 -0.33624933066E+02  0.34560894632E+02  0.00000000000E+00 0. -1.
</event>
<event>
 7    1  0.2811980E-010  0.4778727E+02  0.7816164E-02  0.1312668E+00
        -11   -1    0    0    0    0  0.00000000000E+00  0.00000000000E+00  0.45593999997E+02  0.45594000000E+02  0.51100000000E-03 0.  1.
         11   -1    0    0    0    0 -0.00000000000E+00 -0.00000000000E+00 -0.45593999997E+02  0.45594000000E+02  0.51100000000E-03 0. -1.
    9900012    2    1    2    0    0 -0.45754619706E+01 -0.24393028210E+02 -0.35604337778E+02  0.47787267908E+02  0.19999985701E+02 0.  0.
        -12    1    1    2    0    0  0.45754619706E+01  0.24393028210E+02  0.35604337778E+02  0.43400732092E+02  0.00000000000E+00 0.  1.
         11    1    3    3    0    0  0.67730662963E+00  0.29417576656E+01 -0.23761231360E+01  0.38416980428E+01  0.51100000000E-03 0. -1.
        -11    1    3    3    0    0 -0.89177549175E+00 -0.79118591265E+00 -0.42182594334E+01  0.43834862364E+01  0.51100000000E-03 0.  1.
         12    1    3    3    0    0 -0.43609931084E+01 -0.26543599963E+02 -0.29009955208E+02  0.39562083629E+02  0.00000000000E+00 0. -1.
</event>
<event>
 7    1  0.2811980E-010  0.4778727E+02  0.7816164E-02  0.1312668E+00
        -11   -1    0    0    0    0  0.00000000000E+00  0.00000000000E+00  0.45593999997E+02  0.45594000000E+02  0.51100000000E-03 0.  1.
         11   -1    0    0    0    0 -0.00000000000E+00 -0.00000000000E+00 -0.45593999997E+02  0.45594000000E+02  0.51100000000E-03 0. -1.
    9900012    2    1    2    0    0 -0.39539152350E+02 -0.17860017498E+02  0.11396990829E+01  0.47787266048E+02  0.19999977219E+02 0.  0.
        -12    1    1    2    0    0  0.39539152350E+02  0.17860017498E+02 -0.11396990829E+01  0.43400733952E+02  0.00000000000E+00 0.  1.
         11    1    3    3    0    0 -0.23374259102E+02 -0.17676313754E+02  0.20728574644E+01  0.29378645218E+02  0.51100000000E-03 0. -1.
        -11    1    3    3    0    0  0.22559982543E+00  0.17271910934E+01  0.58487708112E+00  0.18374345745E+01  0.51100000000E-03 0.  1.
         12    1    3    3    0    0 -0.16390493073E+02 -0.19108948378E+01 -0.15180354626E+01  0.16571186256E+02  0.00000000000E+00 0. -1.
</event>
<event>
 7    1  0.2811980E-010  0.4778727E+02  0.7816164E-02  0.1312668E+00
        -11   -1    0    0    0    0  0.00000000000E+00  0.00000000000E+00  0.45593999997E+02  0.45594000000E+02  0.51100000000E-03 0.  1.
         11   -1    0    0    0    0 -0.00000000000E+00 -0.00000000000E+00 -0.45593999997E+02  0.45594000000E+02  0.51100000000E-03 0. -1.
    9900012    2    1    2    0    0 -0.78073845615E+01 -0.30378616138E+02 -0.29996794766E+02  0.47787271107E+02  0.20000000286E+02 0.  0.
        -12    1    1    2    0    0  0.78073845615E+01  0.30378616138E+02  0.29996794766E+02  0.43400728893E+02  0.00000000000E+00 0.  1.
         11    1    3    3    0    0 -0.13257077655E+01 -0.98926917733E+01 -0.43744942305E+01  0.10897662668E+02  0.51100000000E-03 0. -1.
        -11    1    3    3    0    0 -0.89987985600E+01 -0.21422710574E+02 -0.19996910104E+02  0.30655950773E+02  0.51100000000E-03 0.  1.
        -12    1    3    3    0    0  0.25171217640E+01  0.93678620879E+00 -0.56253904324E+01  0.62336576657E+01  0.00000000000E+00 0.  1.
</event>
<event>
 7    1  0.2811980E-010  0.4778727E+02  0.7816164E-02  0.1312668E+00
        -11   -1    0    0    0    0  0.00000000000E+00  0.00000000000E+00  0.45593999997E+02  0.45594000000E+02  0.51100000000E-03 0. -1.
         11   -1    0    0    0    0 -0.00000000000E+00 -0.00000000000E+00 -0.45593999997E+02  0.45594000000E+02  0.51100000000E-03 0.  1.
    9900012    2    1    2    0    0  0.25197043435E+02  0.34979560268E+02  0.50162463282E+01  0.47787270033E+02  0.19999995388E+02 0.  0.
        -12    1    1    2    0    0 -0.25197043435E+02 -0.34979560268E+02 -0.50162463282E+01  0.43400729967E+02  0.00000000000E+00 0.  1.
         11    1    3    3    0    0  0.30503176586E+01  0.12017363517E+02 -0.66078020947E+00  0.12416041819E+02  0.51100000000E-03 0.  1.
        -11    1    3    3    0    0  0.43729416721E+01  0.66816748537E+01 -0.45470353671E+01  0.91892833567E+01  0.51100000000E-03 0. -1.
         12    1    3    3    0    0  0.17773784105E+02  0.16280521898E+02  0.10224061905E+02  0.26181944857E+02  0.00000000000E+00 0. -1.
</event>
<event>
 7    1  0.2811980E-010  0.4778728E+02  0.7816164E-02  0.1312668E+00
        -11   -1    0    0    0    0  0.00000000000E+00  0.00000000000E+00  0.45593999997E+02  0.45594000000E+02  0.51100000000E-03 0. -1.
         11   -1    0    0    0    0 -0.00000000000E+00 -0.00000000000E+00 -0.45593999997E+02  0.45594000000E+02  0.51100000000E-03 0.  1.
    9900012    2    1    2    0    0  0.36330939476E+02 -0.15994853854E+02 -0.17545663085E+02  0.47787276434E+02  0.20000024571E+02 0.  0.
        -12    1    1    2    0    0 -0.36330939476E+02  0.15994853854E+02  0.17545663085E+02  0.43400723566E+02  0.00000000000E+00 0.  1.
         11    1    3    3    0    0  0.34409801665E+02 -0.10736521022E+02 -0.10110968463E+02  0.37437134209E+02  0.51100000000E-03 0. -1.
        -11    1    3    3    0    0  0.53999919756E+00 -0.14451978999E+01  0.34131007460E+00  0.15800914313E+01  0.51100000000E-03 0.  1.
         12    1    3    3    0    0  0.13811386136E+01 -0.38131349320E+01 -0.77760046964E+01  0.87700507933E+01  0.00000000000E+00 0. -1.
</event>
<event>
 7    1  0.2811980E-010  0.4778728E+02  0.7816164E-02  0.1312668E+00
        -11   -1    0    0    0    0  0.00000000000E+00  0.00000000000E+00  0.45593999997E+02  0.45594000000E+02  0.51100000000E-03 0.  1.
         11   -1    0    0    0    0 -0.00000000000E+00 -0.00000000000E+00 -0.45593999997E+02  0.45594000000E+02  0.51100000000E-03 0. -1.
    9900012    2    1    2    0    0  0.20000452475E+02  0.28826507321E+02 -0.25546763224E+02  0.47787277255E+02  0.20000028317E+02 0.  0.
        -12    1    1    2    0    0 -0.20000452475E+02 -0.28826507321E+02  0.25546763224E+02  0.43400722745E+02  0.00000000000E+00 0.  1.
         11    1    3    3    0    0  0.40832648776E+01  0.85245638635E+01  0.14204506473E+01  0.95581860949E+01  0.51100000000E-03 0. -1.
        -11    1    3    3    0    0  0.15481358069E+02  0.15631909262E+02 -0.24503754129E+02  0.32931185850E+02  0.51100000000E-03 0.  1.
        -12    1    3    3    0    0  0.43582952848E+00  0.46700341962E+01 -0.24634597428E+01  0.52979053102E+01  0.00000000000E+00 0.  1.
</event>
<event>
 7    1  0.2811980E-010  0.4778727E+02  0.7816164E-02  0.1312668E+00
        -11   -1    0    0    0    0  0.00000000000E+00  0.00000000000E+00  0.45593999997E+02  0.45594000000E+02  0.51100000000E-03 0. -1.
         11   -1    0    0    0    0 -0.00000000000E+00 -0.00000000000E+00 -0.45593999997E+02  0.45594000000E+02  0.51100000000E-03 0.  1.
    9900012    2    1    2    0    0  0.34439753013E+02  0.26050969133E+02  0.43443793091E+01  0.47787271758E+02  0.20000003253E+02 0.  0.
        -12    1    1    2    0    0 -0.34439753013E+02 -0.26050969133E+02 -0.43443793091E+01  0.43400728242E+02  0.00000000000E+00 0.  1.
         11    1    3    3    0    0  0.10255061711E+02  0.20120904928E+02  0.10582984301E+01  0.22608341418E+02  0.51100000000E-03 0. -1.
        -11    1    3    3    0    0  0.15857347491E+02  0.41781322793E+01  0.13658339751E+01  0.16455326235E+02  0.51100000000E-03 0.  1.
         12    1    3    3    0    0  0.83273438100E+01  0.17519319256E+01  0.19202469040E+01  0.87236041046E+01  0.00000000000E+00 0. -1.
</event>
<event>
 7    1  0.2811980E-010  0.4778727E+02  0.7816164E-02  0.1312668E+00
        -11   -1    0    0    0    0  0.00000000000E+00  0.00000000000E+00  0.45593999997E+02  0.45594000000E+02  0.51100000000E-03 0.  1.
         11   -1    0    0    0    0 -0.00000000000E+00 -0.00000000000E+00 -0.45593999997E+02  0.45594000000E+02  0.51100000000E-03 0. -1.
    9900012    2    1    2    0    0 -0.77188709708E+01 -0.25839295999E+02 -0.34005487181E+02  0.47787270223E+02  0.19999996253E+02 0.  0.
        -12    1    1    2    0    0  0.77188709708E+01  0.25839295999E+02  0.34005487181E+02  0.43400729777E+02  0.00000000000E+00 0.  1.
         11    1    3    3    0    0 -0.14806867611E+01 -0.81816548861E+01 -0.11444933860E+02  0.14146321829E+02  0.51100000000E-03 0. -1.
        -11    1    3    3    0    0  0.32040781518E+01 -0.13980282008E+02 -0.99144104273E+01  0.17435880712E+02  0.51100000000E-03 0.  1.
        -12    1    3    3    0    0 -0.94422623615E+01 -0.36773591050E+01 -0.12646142893E+02  0.16205067682E+02  0.00000000000E+00 0.  1.
</event>
<event>
 7    1  0.2828888E-010  0.4778727E+02  0.7816164E-02  0.1312668E+00
        -11   -1    0    0    0    0  0.00000000000E+00  0.00000000000E+00  0.45593999997E+02  0.45594000000E+02  0.51100000000E-03 0.  1.
         11   -1    0    0    0    0 -0.00000000000E+00 -0.00000000000E+00 -0.45593999997E+02  0.45594000000E+02  0.51100000000E-03 0. -1.
    9900012    2    1    2    0    0 -0.16718598422E+02  0.37999574876E+02 -0.12654797313E+02  0.47787272829E+02  0.20000008136E+02 0.  0.
        -12    1    1    2    0    0  0.16718598422E+02 -0.37999574876E+02  0.12654797313E+02  0.43400727171E+02  0.00000000000E+00 0.  1.
         11    1    3    3    0    0 -0.56737357909E+01  0.19087363849E+02 -0.85024950858E+01  0.21652047466E+02  0.51100000000E-03 0. -1.
        -11    1    3    3    0    0 -0.53083667046E+01 -0.54085263331E+00 -0.21596083313E+01  0.57563171426E+01  0.51100000000E-03 0.  1.
        -12    1    3    3    0    0 -0.57364959267E+01  0.19453063660E+02 -0.19926938964E+01  0.20378908220E+02  0.00000000000E+00 0.  1.
</event>
<event>
 7    1  0.2811980E-010  0.4778727E+02  0.7816164E-02  0.1312668E+00
        -11   -1    0    0    0    0  0.00000000000E+00  0.00000000000E+00  0.45593999997E+02  0.45594000000E+02  0.51100000000E-03 0. -1.
         11   -1    0    0    0    0 -0.00000000000E+00 -0.00000000000E+00 -0.45593999997E+02  0.45594000000E+02  0.51100000000E-03 0.  1.
    9900012    2    1    2    0    0 -0.10730486367E+02  0.33817504469E+02  0.24997125440E+02  0.47787271591E+02  0.20000002490E+02 0.  0.
        -12    1    1    2    0    0  0.10730486367E+02 -0.33817504469E+02 -0.24997125440E+02  0.43400728409E+02  0.00000000000E+00 0.  1.
         11    1    3    3    0    0 -0.66961501985E+00  0.22356461428E+02  0.18192260503E+02  0.28830853166E+02  0.51100000000E-03 0. -1.
        -11    1    3    3    0    0 -0.45258186343E+01 -0.45956170949E+00  0.16679220614E+01  0.48452239927E+01  0.51100000000E-03 0.  1.
         12    1    3    3    0    0 -0.55350527131E+01  0.11920604751E+02  0.51369428756E+01  0.14111194431E+02  0.00000000000E+00 0. -1.
</event>
<event>
 7    1  0.2811980E-010  0.4778727E+02  0.7816164E-02  0.1312668E+00
        -11   -1    0    0    0    0  0.00000000000E+00  0.00000000000E+00  0.45593999997E+02  0.45594000000E+02  0.51100000000E-03 0. -1.
         11   -1    0    0    0    0 -0.00000000000E+00 -0.00000000000E+00 -0.45593999997E+02  0.45594000000E+02  0.51100000000E-03 0.  1.
    9900012    2    1    2    0    0  0.41249832813E+01 -0.25762788360E+02  0.34682655491E+02  0.47787270247E+02  0.19999996366E+02 0.  0.
        -12    1    1    2    0    0 -0.41249832813E+01  0.25762788360E+02 -0.34682655491E+02  0.43400729753E+02  0.00000000000E+00 0.  1.
         11    1    3    3    0    0 -0.12927470878E+01 -0.84449650535E+00  0.10579032670E+02  0.10691131927E+02  0.51100000000E-03 0. -1.
        -11    1    3    3    0    0  0.30714393593E+01 -0.76204606347E+01  0.12072016638E+01  0.83043660891E+01  0.51100000000E-03 0.  1.
        -12    1    3    3    0    0  0.23462910098E+01 -0.17297831220E+02  0.22896421157E+02  0.28791772231E+02  0.00000000000E+00 0.  1.
</event>
<event>
 7    1  0.2811980E-010  0.4778727E+02  0.7816164E-02  0.1312668E+00
        -11   -1    0    0    0    0  0.00000000000E+00  0.00000000000E+00  0.45593999997E+02  0.45594000000E+02  0.51100000000E-03 0. -1.
         11   -1    0    0    0    0 -0.00000000000E+00 -0.00000000000E+00 -0.45593999997E+02  0.45594000000E+02  0.51100000000E-03 0.  1.
    9900012    2    1    2    0    0 -0.13512470047E+02  0.87292846645E+01  0.40309255092E+02  0.47787270702E+02  0.19999998440E+02 0.  0.
        -12    1    1    2    0    0  0.13512470047E+02 -0.87292846645E+01 -0.40309255092E+02  0.43400729298E+02  0.00000000000E+00 0.  1.
         11    1    3    3    0    0 -0.74783638339E+01  0.13686870644E+02  0.22475005054E+02  0.27356575190E+02  0.51100000000E-03 0. -1.
        -11    1    3    3    0    0  0.64089288745E+00 -0.29150878391E+01  0.51388102592E+01  0.59427141899E+01  0.51100000000E-03 0.  1.
         12    1    3    3    0    0 -0.66749991001E+01 -0.20424981406E+01  0.12695439778E+02  0.14487981323E+02  0.00000000000E+00 0. -1.
</event>
<event>
 7    1  0.2811980E-010  0.4778727E+02  0.7816164E-02  0.1312668E+00
        -11   -1    0    0    0    0  0.00000000000E+00  0.00000000000E+00  0.45593999997E+02  0.45594000000E+02  0.51100000000E-03 0. -1.
         11   -1    0    0    0    0 -0.00000000000E+00 -0.00000000000E+00 -0.45593999997E+02  0.45594000000E+02  0.51100000000E-03 0.  1.
    9900012    2    1    2    0    0 -0.28618833952E+02  0.12862867506E+02  0.29985537197E+02  0.47787268920E+02  0.19999990315E+02 0.  0.
        -12    1    1    2    0    0  0.28618833952E+02 -0.12862867506E+02 -0.29985537197E+02  0.43400731080E+02  0.00000000000E+00 0.  1.
         11    1    3    3    0    0 -0.14992359035E+02 -0.27272041216E+00  0.96676570845E+01  0.17841210711E+02  0.51100000000E-03 0. -1.
        -11    1    3    3    0    0 -0.12575169019E+02  0.15148031909E+02  0.17629815442E+02  0.26427412650E+02  0.51100000000E-03 0.  1.
        -12    1    3    3    0    0 -0.10513058984E+01 -0.20124439903E+01  0.26880646700E+01  0.35186455599E+01  0.00000000000E+00 0.  1.
</event>
<event>
 7    1  0.2811980E-010  0.4778728E+02  0.7816164E-02  0.1312668E+00
        -11   -1    0    0    0    0  0.00000000000E+00  0.00000000000E+00  0.45593999997E+02  0.45594000000E+02  0.51100000000E-03 0.  1.
         11   -1    0    0    0    0 -0.00000000000E+00 -0.00000000000E+00 -0.45593999997E+02  0.45594000000E+02  0.51100000000E-03 0. -1.
    9900012    2    1    2    0    0 -0.20426486850E+02 -0.25610899830E+02 -0.28468638256E+02  0.47787275129E+02  0.20000018623E+02 0.  0.
        -12    1    1    2    0    0  0.20426486850E+02  0.25610899830E+02  0.28468638256E+02  0.43400724871E+02  0.00000000000E+00 0.  1.
         11    1    3    3    0    0 -0.14755947454E+02 -0.20741758447E+02 -0.10785021015E+02  0.27645527799E+02  0.51100000000E-03 0. -1.
        -11    1    3    3    0    0 -0.15317773606E+01 -0.52155286028E+01 -0.11061817803E+02  0.12325254312E+02  0.51100000000E-03 0.  1.
         12    1    3    3    0    0 -0.41387620357E+01  0.34638721965E+00 -0.66217994384E+01  0.78164930177E+01  0.00000000000E+00 0. -1.
</event>
<event>
 7    1  0.2811980E-010  0.4778727E+02  0.7816164E-02  0.1312668E+00
        -11   -1    0    0    0    0  0.00000000000E+00  0.00000000000E+00  0.45593999997E+02  0.45594000000E+02  0.51100000000E-03 0. -1.
         11   -1    0    0    0    0 -0.00000000000E+00 -0.00000000000E+00 -0.45593999997E+02  0.45594000000E+02  0.51100000000E-03 0.  1.
    9900012    2    1    2    0    0  0.43330104650E+02 -0.36875990613E+00 -0.24473179347E+01  0.47787270537E+02  0.19999997685E+02 0.  0.
        -12    1    1    2    0    0 -0.43330104650E+02  0.36875990613E+00  0.24473179347E+01  0.43400729463E+02  0.00000000000E+00 0.  1.
         11    1    3    3    0    0  0.13646632090E+02 -0.93422318362E+01 -0.26880531401E+01  0.16755103492E+02  0.51100000000E-03 0. -1.
        -11    1    3    3    0    0  0.27646667183E+02  0.81501584228E+01  0.80354563925E-02  0.28822965730E+02  0.51100000000E-03 0.  1.
         12    1    3    3    0    0  0.20368053771E+01  0.82331350723E+00  0.23269974908E+00  0.22092013147E+01  0.00000000000E+00 0. -1.
</event>
<event>
 7    1  0.2811980E-010  0.4778727E+02  0.7816164E-02  0.1312668E+00
        -11   -1    0    0    0    0  0.00000000000E+00  0.00000000000E+00  0.45593999997E+02  0.45594000000E+02  0.51100000000E-03 0.  1.
         11   -1    0    0    0    0 -0.00000000000E+00 -0.00000000000E+00 -0.45593999997E+02  0.45594000000E+02  0.51100000000E-03 0. -1.
    9900012    2    1    2    0    0  0.24766838013E+02  0.15887699878E+02 -0.31903107447E+02  0.47787268009E+02  0.19999986160E+02 0.  0.
        -12    1    1    2    0    0 -0.24766838013E+02 -0.15887699878E+02  0.31903107447E+02  0.43400731991E+02  0.00000000000E+00 0.  1.
         11    1    3    3    0    0  0.28541645928E+01  0.27308961777E+01 -0.34015779146E+01  0.52129437007E+01  0.51100000000E-03 0. -1.
        -11    1    3    3    0    0  0.17457782382E+02  0.45445922530E+00 -0.11590325106E+02  0.20959874409E+02  0.51100000000E-03 0.  1.
        -12    1    3    3    0    0  0.44548910378E+01  0.12702344475E+02 -0.16911204427E+02  0.21614449900E+02  0.00000000000E+00 0.  1.
</event>
<event>
 7    1  0.2811980E-010  0.4778727E+02  0.7816164E-02  0.1312668E+00
        -11   -1    0    0    0    0  0.00000000000E+00  0.00000000000E+00  0.45593999997E+02  0.45594000000E+02  0.51100000000E-03 0. -1.
         11   -1    0    0    0    0 -0.00000000000E+00 -0.00000000000E+00 -0.45593999997E+02  0.45594000000E+02  0.51100000000E-03 0.  1.
    9900012    2    1    2    0    0  0.48469356780E+01 -0.43032155841E+02  0.28920629823E+01  0.47787271319E+02  0.20000001250E+02 0.  0.
        -12    1    1    2    0    0 -0.48469356780E+01  0.43032155841E+02 -0.28920629823E+01  0.43400728681E+02  0.00000000000E+00 0.  1.
         11    1    3    3    0    0 -0.42889167010E+01 -0.19355943959E+02  0.35337558516E+01  0.20137894719E+02  0.51100000000E-03 0. -1.
        -11    1    3    3    0    0  0.59456889595E+01 -0.29731152268E+01 -0.84392168753E+00  0.67009577995E+01  0.51100000000E-03 0.  1.
         12    1    3    3    0    0  0.31901634195E+01 -0.20703096655E+02  0.20222881822E+00  0.20948418801E+02  0.00000000000E+00 0. -1.
</event>
<event>
 7    1  0.2811980E-010  0.4778727E+02  0.7816164E-02  0.1312668E+00
        -11   -1    0    0    0    0  0.00000000000E+00  0.00000000000E+00  0.45593999997E+02  0.45594000000E+02  0.51100000000E-03 0. -1.
         11   -1    0    0    0    0 -0.00000000000E+00 -0.00000000000E+00 -0.45593999997E+02  0.45594000000E+02  0.51100000000E-03 0.  1.
    9900012    2    1    2    0    0  0.41757662551E+02  0.11374123998E+02 -0.32481196999E+01  0.47787270052E+02  0.19999995474E+02 0.  0.
        -12    1    1    2    0    0 -0.41757662551E+02 -0.11374123998E+02  0.32481196999E+01  0.43400729948E+02  0.00000000000E+00 0.  1.
         11    1    3    3    0    0  0.38317651200E+02  0.38647543226E+01 -0.15062191413E+01  0.38541502512E+02  0.51100000000E-03 0. -1.
        -11    1    3    3    0    0  0.18530415634E+01  0.72102160496E+01 -0.11893479184E+01  0.75389340924E+01  0.51100000000E-03 0.  1.
         12    1    3    3    0    0  0.15869697874E+01  0.29915362545E+00 -0.55255264025E+00  0.17068334476E+01  0.00000000000E+00 0. -1.
</event>
<event>
 7    1  0.2811980E-010  0.4778726E+02  0.7816164E-02  0.1312668E+00
        -11   -1    0    0    0    0  0.00000000000E+00  0.00000000000E+00  0.45593999997E+02  0.45594000000E+02  0.51100000000E-03 0. -1.
         11   -1    0    0    0    0 -0.00000000000E+00 -0.00000000000E+00 -0.45593999997E+02  0.45594000000E+02  0.51100000000E-03 0.  1.
    9900012    2    1    2    0    0  0.24990053153E+02  0.14453189931E+02  0.32407197654E+02  0.47787263652E+02  0.19999966294E+02 0.  0.
        -12    1    1    2    0    0 -0.24990053153E+02 -0.14453189931E+02 -0.32407197654E+02  0.43400736348E+02  0.00000000000E+00 0.  1.
         11    1    3    3    0    0  0.11686687161E+02  0.41378390512E+01  0.23640865432E+02  0.26694398053E+02  0.51100000000E-03 0. -1.
        -11    1    3    3    0    0  0.13981629987E+02  0.85601823415E+01  0.96400631560E+01  0.19018241683E+02  0.51100000000E-03 0.  1.
         12    1    3    3    0    0 -0.67826399537E+00  0.17551685381E+01 -0.87373093324E+00  0.20746239149E+01  0.00000000000E+00 0. -1.
</event>
<event>
 7    1  0.2811980E-010  0.4778727E+02  0.7816164E-02  0.1312668E+00
        -11   -1    0    0    0    0  0.00000000000E+00  0.00000000000E+00  0.45593999997E+02  0.45594000000E+02  0.51100000000E-03 0. -1.
         11   -1    0    0    0    0 -0.00000000000E+00 -0.00000000000E+00 -0.45593999997E+02  0.45594000000E+02  0.51100000000E-03 0.  1.
    9900012    2    1    2    0    0  0.44537036985E+01  0.27491981316E+02  0.33286313161E+02  0.47787272389E+02  0.20000006129E+02 0.  0.
        -12    1    1    2    0    0 -0.44537036985E+01 -0.27491981316E+02 -0.33286313161E+02  0.43400727611E+02  0.00000000000E+00 0.  1.
         11    1    3    3    0    0 -0.88722953966E+00  0.12244925081E+02  0.26838913315E+02  0.29513600843E+02  0.51100000000E-03 0. -1.
        -11    1    3    3    0    0  0.41256827820E+01  0.40651003217E+01  0.14812846984E+01  0.59783361951E+01  0.51100000000E-03 0.  1.
         12    1    3    3    0    0  0.12152504562E+01  0.11181955914E+02  0.49661151473E+01  0.12295335351E+02  0.00000000000E+00 0. -1.
</event>
<event>
 7    1  0.2811980E-010  0.4778727E+02  0.7816164E-02  0.1312668E+00
        -11   -1    0    0    0    0  0.00000000000E+00  0.00000000000E+00  0.45593999997E+02  0.45594000000E+02  0.51100000000E-03 0.  1.
         11   -1    0    0    0    0 -0.00000000000E+00 -0.00000000000E+00 -0.45593999997E+02  0.45594000000E+02  0.51100000000E-03 0. -1.
    9900012    2    1    2    0    0 -0.44840396695E+01  0.26969530095E+02 -0.33706992262E+02  0.47787268524E+02  0.19999988507E+02 0.  0.
        -12    1    1    2    0    0  0.44840396695E+01 -0.26969530095E+02  0.33706992262E+02  0.43400731476E+02  0.00000000000E+00 0.  1.
         11    1    3    3    0    0 -0.75721530608E+01  0.17602178665E+02 -0.28242448462E+02  0.34129314249E+02  0.51100000000E-03 0. -1.
        -11    1    3    3    0    0 -0.84595091132E+00 -0.77094823296E+00 -0.18921464912E+01  0.22113825376E+01  0.51100000000E-03 0.  1.
         12    1    3    3    0    0  0.39340643026E+01  0.10138299664E+02 -0.35723973094E+01  0.11446571737E+02  0.00000000000E+00 0. -1.
</event>
<event>
 7    1  0.3177700E-010  0.4778727E+02  0.7816164E-02  0.1312668E+00
        -11   -1    0    0    0    0  0.00000000000E+00  0.00000000000E+00  0.45593999997E+02  0.45594000000E+02  0.51100000000E-03 0.  1.
         11   -1    0    0    0    0 -0.00000000000E+00 -0.00000000000E+00 -0.45593999997E+02  0.45594000000E+02  0.51100000000E-03 0. -1.
    9900012    2    1    2    0    0 -0.36532422592E+02  0.15434562020E+02  0.17628948147E+02  0.47787269385E+02  0.19999992432E+02 0.  0.
        -12    1    1    2    0    0  0.36532422592E+02 -0.15434562020E+02 -0.17628948147E+02  0.43400730615E+02  0.00000000000E+00 0.  1.
         11    1    3    3    0    0 -0.80567293020E+01  0.37509651092E+01  0.62755189974E+01  0.10879465301E+02  0.51100000000E-03 0.  1.
        -11    1    3    3    0    0 -0.14716759180E+02 -0.14782791188E+01  0.99282021478E+01  0.17813969464E+02  0.51100000000E-03 0. -1.
        -12    1    3    3    0    0 -0.13758934111E+02  0.13161876029E+02  0.14252270016E+01  0.19093834619E+02  0.00000000000E+00 0.  1.
</event>
<event>
 7    1  0.2811980E-010  0.4778727E+02  0.7816164E-02  0.1312668E+00
        -11   -1    0    0    0    0  0.00000000000E+00  0.00000000000E+00  0.45593999997E+02  0.45594000000E+02  0.51100000000E-03 0.  1.
         11   -1    0    0    0    0 -0.00000000000E+00 -0.00000000000E+00 -0.45593999997E+02  0.45594000000E+02  0.51100000000E-03 0. -1.
    9900012    2    1    2    0    0 -0.41493391380E+02  0.11329447874E+02  0.57935720651E+01  0.47787269653E+02  0.19999993658E+02 0.  0.
        -12    1    1    2    0    0  0.41493391380E+02 -0.11329447874E+02 -0.57935720651E+01  0.43400730347E+02  0.00000000000E+00 0.  1.
         11    1    3    3    0    0 -0.21807211485E+02  0.91511842452E+01 -0.13399428588E+01  0.23687424786E+02  0.51100000000E-03 0. -1.
        -11    1    3    3    0    0 -0.17619900668E+02  0.38203119443E+01  0.96532045490E+01  0.20450917858E+02  0.51100000000E-03 0.  1.
        -12    1    3    3    0    0 -0.20662792265E+01 -0.16420483160E+01 -0.25196896251E+01  0.36489270095E+01  0.00000000000E+00 0.  1.
</event>
<event>
 7    1  0.2811980E-010  0.4778727E+02  0.7816164E-02  0.1312668E+00
        -11   -1    0    0    0    0  0.00000000000E+00  0.00000000000E+00  0.45593999997E+02  0.45594000000E+02  0.51100000000E-03 0.  1.
         11   -1    0    0    0    0 -0.00000000000E+00 -0.00000000000E+00 -0.45593999997E+02  0.45594000000E+02  0.51100000000E-03 0. -1.
    9900012    2    1    2    0    0  0.92369304971E+00  0.31703285058E+02 -0.29625526814E+02  0.47787270383E+02  0.19999996983E+02 0.  0.
        -12    1    1    2    0    0 -0.92369304971E+00 -0.31703285058E+02  0.29625526814E+02  0.43400729617E+02  0.00000000000E+00 0.  1.
         11    1    3    3    0    0  0.72701128511E+01  0.13362605248E+02 -0.15365418904E+02  0.21621976280E+02  0.51100000000E-03 0. -1.
        -11    1    3    3    0    0 -0.24361669094E+01 -0.62974499408E+00 -0.10870141058E+01  0.27410012578E+01  0.51100000000E-03 0.  1.
         12    1    3    3    0    0 -0.39102528920E+01  0.18970424804E+02 -0.13173093804E+02  0.23424292845E+02  0.00000000000E+00 0. -1.
</event>
<event>
 7    1  0.2811980E-010  0.4778729E+02  0.7816164E-02  0.1312668E+00
        -11   -1    0    0    0    0  0.00000000000E+00  0.00000000000E+00  0.45593999997E+02  0.45594000000E+02  0.51100000000E-03 0.  1.
         11   -1    0    0    0    0 -0.00000000000E+00 -0.00000000000E+00 -0.45593999997E+02  0.45594000000E+02  0.51100000000E-03 0. -1.
    9900012    2    1    2    0    0 -0.14381068769E+02 -0.15441675821E+02 -0.37925735659E+02  0.47787286683E+02  0.20000071304E+02 0.  0.
        -12    1    1    2    0    0  0.14381068769E+02  0.15441675821E+02  0.37925735659E+02  0.43400713317E+02  0.00000000000E+00 0.  1.
         11    1    3    3    0    0  0.52548201136E+00 -0.17775781306E+01 -0.39121749484E+01  0.43290909488E+01  0.51100000000E-03 0. -1.
        -11    1    3    3    0    0 -0.10844640595E+02 -0.12667756026E+02 -0.35334861200E+02  0.39072121630E+02  0.51100000000E-03 0.  1.
        -12    1    3    3    0    0 -0.40619101855E+01 -0.99634166403E+00  0.13213004896E+01  0.43860741045E+01  0.00000000000E+00 0.  1.
</event>
<event>
 7    1  0.2811980E-010  0.4778727E+02  0.7816164E-02  0.1312668E+00
        -11   -1    0    0    0    0  0.00000000000E+00  0.00000000000E+00  0.45593999997E+02  0.45594000000E+02  0.51100000000E-03 0.  1.
         11   -1    0    0    0    0 -0.00000000000E+00 -0.00000000000E+00 -0.45593999997E+02  0.45594000000E+02  0.51100000000E-03 0. -1.
    9900012    2    1    2    0    0  0.36148989847E+02 -0.52156767566E+00 -0.24012533657E+02  0.47787271061E+02  0.20000000076E+02 0.  0.
        -12    1    1    2    0    0 -0.36148989847E+02  0.52156767566E+00  0.24012533657E+02  0.43400728939E+02  0.00000000000E+00 0.  1.
         11    1    3    3    0    0  0.20431718537E+02 -0.54687087832E+01 -0.15687796611E+02  0.26333796932E+02  0.51100000000E-03 0. -1.
        -11    1    3    3    0    0  0.41061977816E+01  0.68694508332E+01 -0.33221660988E+01  0.86652756921E+01  0.51100000000E-03 0.  1.
         12    1    3    3    0    0  0.11611073529E+02 -0.19223097256E+01 -0.50025709473E+01  0.12788198437E+02  0.00000000000E+00 0. -1.
</event>
<event>
 7    1  0.3399729E-010  0.4778727E+02  0.7816164E-02  0.1312668E+00
        -11   -1    0    0    0    0  0.00000000000E+00  0.00000000000E+00  0.45593999997E+02  0.45594000000E+02  0.51100000000E-03 0.  1.
         11   -1    0    0    0    0 -0.00000000000E+00 -0.00000000000E+00 -0.45593999997E+02  0.45594000000E+02  0.51100000000E-03 0. -1.
    9900012    2    1    2    0    0  0.15755372265E+02  0.36062575626E+02 -0.18299781991E+02  0.47787272622E+02  0.20000007192E+02 0.  0.
        -12    1    1    2    0    0 -0.15755372265E+02 -0.36062575626E+02  0.18299781991E+02  0.43400727378E+02  0.00000000000E+00 0.  1.
         11    1    3    3    0    0  0.73973045764E+01  0.12429500376E+02 -0.71681470792E+01  0.16142952871E+02  0.51100000000E-03 0. -1.
        -11    1    3    3    0    0  0.80517660245E+01  0.82373971485E+01  0.16442959579E+01  0.11635693248E+02  0.51100000000E-03 0.  1.
        -12    1    3    3    0    0  0.30630166403E+00  0.15395678102E+02 -0.12775930870E+02  0.20008626503E+02  0.00000000000E+00 0.  1.
</event>
<event>
 7    1  0.2811980E-010  0.4778728E+02  0.7816164E-02  0.1312668E+00
        -11   -1    0    0    0    0  0.00000000000E+00  0.00000000000E+00  0.45593999997E+02  0.45594000000E+02  0.51100000000E-03 0.  1.
         11   -1    0    0    0    0 -0.00000000000E+00 -0.00000000000E+00 -0.45593999997E+02  0.45594000000E+02  0.51100000000E-03 0. -1.
    9900012    2    1    2    0    0 -0.31464468236E+01 -0.25290766405E+02 -0.35129749296E+02  0.47787282511E+02  0.20000052279E+02 0.  0.
        -12    1    1    2    0    0  0.31464468236E+01  0.25290766405E+02  0.35129749296E+02  0.43400717489E+02  0.00000000000E+00 0.  1.
         11    1    3    3    0    0  0.77474368832E+00 -0.19275905413E+02 -0.11810210439E+02  0.22619501058E+02  0.51100000000E-03 0. -1.
        -11    1    3    3    0    0 -0.47218856244E+01 -0.16516258944E+01 -0.13322158816E+02  0.14230389584E+02  0.51100000000E-03 0.  1.
         12    1    3    3    0    0  0.80069511245E+00 -0.43632350984E+01 -0.99973800412E+01  0.10937391868E+02  0.00000000000E+00 0. -1.
</event>
<event>
 7    1  0.2811980E-010  0.4778729E+02  0.7816164E-02  0.1312668E+00
        -11   -1    0    0    0    0  0.00000000000E+00  0.00000000000E+00  0.45593999997E+02  0.45594000000E+02  0.51100000000E-03 0.  1.
         11   -1    0    0    0    0 -0.00000000000E+00 -0.00000000000E+00 -0.45593999997E+02  0.45594000000E+02  0.51100000000E-03 0. -1.
    9900012    2    1    2    0    0 -0.36470164353E+02 -0.14053833466E+02 -0.18868990425E+02  0.47787286611E+02  0.20000070975E+02 0.  0.
        -12    1    1    2    0    0  0.36470164353E+02  0.14053833466E+02  0.18868990425E+02  0.43400713389E+02  0.00000000000E+00 0.  1.
         11    1    3    3    0    0 -0.11604494962E+02 -0.49571847695E-01  0.22248534472E+01  0.11815952514E+02  0.51100000000E-03 0. -1.
        -11    1    3    3    0    0 -0.69914069866E+01 -0.71327298709E+01 -0.72361705819E+01  0.12333603367E+02  0.51100000000E-03 0.  1.
         12    1    3    3    0    0 -0.17874262404E+02 -0.68715317471E+01 -0.13857673291E+02  0.23637730730E+02  0.00000000000E+00 0. -1.
</event>
<event>
 7    1  0.2811980E-010  0.4778727E+02  0.7816164E-02  0.1312668E+00
        -11   -1    0    0    0    0  0.00000000000E+00  0.00000000000E+00  0.45593999997E+02  0.45594000000E+02  0.51100000000E-03 0.  1.
         11   -1    0    0    0    0 -0.00000000000E+00 -0.00000000000E+00 -0.45593999997E+02  0.45594000000E+02  0.51100000000E-03 0. -1.
    9900012    2    1    2    0    0  0.39444713989E+01 -0.42568388248E+02 -0.74831050734E+01  0.47787269659E+02  0.19999993682E+02 0.  0.
        -12    1    1    2    0    0 -0.39444713989E+01  0.42568388248E+02  0.74831050734E+01  0.43400730341E+02  0.00000000000E+00 0.  1.
         11    1    3    3    0    0  0.20832722254E+01  0.35063676515E+00 -0.14049250988E+01  0.25370818080E+01  0.51100000000E-03 0. -1.
        -11    1    3    3    0    0  0.48779580640E+01 -0.81116762890E+01  0.12633662308E+01  0.95493382800E+01  0.51100000000E-03 0.  1.
         12    1    3    3    0    0 -0.30167588905E+01 -0.34807348724E+02 -0.73415462053E+01  0.35700849571E+02  0.00000000000E+00 0. -1.
</event>
<event>
 7    1  0.2811980E-010  0.4778727E+02  0.7816164E-02  0.1312668E+00
        -11   -1    0    0    0    0  0.00000000000E+00  0.00000000000E+00  0.45593999997E+02  0.45594000000E+02  0.51100000000E-03 0.  1.
         11   -1    0    0    0    0 -0.00000000000E+00 -0.00000000000E+00 -0.45593999997E+02  0.45594000000E+02  0.51100000000E-03 0. -1.
    9900012    2    1    2    0    0  0.24675148325E+02 -0.39761581524E+00 -0.35701574593E+02  0.47787268766E+02  0.19999989614E+02 0.  0.
        -12    1    1    2    0    0 -0.24675148325E+02  0.39761581524E+00  0.35701574593E+02  0.43400731234E+02  0.00000000000E+00 0.  1.
         11    1    3    3    0    0  0.17129156722E+02 -0.17248625272E+01 -0.21041117682E+02  0.27186610571E+02  0.51100000000E-03 0. -1.
        -11    1    3    3    0    0 -0.20111437453E+01 -0.20657065565E+01 -0.13636324956E+00  0.28862498053E+01  0.51100000000E-03 0.  1.
        -12    1    3    3    0    0  0.95571353478E+01  0.33929532685E+01 -0.14524093661E+02  0.17714408390E+02  0.00000000000E+00 0.  1.
</event>
<event>
 7    1  0.2811980E-010  0.4778727E+02  0.7816164E-02  0.1312668E+00
        -11   -1    0    0    0    0  0.00000000000E+00  0.00000000000E+00  0.45593999997E+02  0.45594000000E+02  0.51100000000E-03 0.  1.
         11   -1    0    0    0    0 -0.00000000000E+00 -0.00000000000E+00 -0.45593999997E+02  0.45594000000E+02  0.51100000000E-03 0. -1.
    9900012    2    1    2    0    0 -0.85348990293E+01  0.10660100084E+02 -0.41196376644E+02  0.47787266321E+02  0.19999978465E+02 0.  0.
        -12    1    1    2    0    0  0.85348990293E+01 -0.10660100084E+02  0.41196376644E+02  0.43400733679E+02  0.00000000000E+00 0.  1.
         11    1    3    3    0    0 -0.19895426566E+00  0.13954907310E+01 -0.15239996099E+02  0.15305046832E+02  0.51100000000E-03 0. -1.
        -11    1    3    3    0    0 -0.10613416552E+02  0.27379395590E+01 -0.90395304467E+01  0.14207534441E+02  0.51100000000E-03 0.  1.
        -12    1    3    3    0    0  0.22774717882E+01  0.65266697944E+01 -0.16916850099E+02  0.18274685048E+02  0.00000000000E+00 0.  1.
</event>
<event>
 7    1  0.2811980E-010  0.4778726E+02  0.7816164E-02  0.1312668E+00
        -11   -1    0    0    0    0  0.00000000000E+00  0.00000000000E+00  0.45593999997E+02  0.45594000000E+02  0.51100000000E-03 0. -1.
         11   -1    0    0    0    0 -0.00000000000E+00 -0.00000000000E+00 -0.45593999997E+02  0.45594000000E+02  0.51100000000E-03 0.  1.
    9900012    2    1    2    0    0 -0.17812388563E+02 -0.65593888315E+00  0.39571619123E+02  0.47787257124E+02  0.19999936531E+02 0.  0.
        -12    1    1    2    0    0  0.17812388563E+02  0.65593888315E+00 -0.39571619123E+02  0.43400742876E+02  0.00000000000E+00 0.  1.
         11    1    3    3    0    0 -0.14864592128E+02 -0.30022521752E+01  0.25718730183E+02  0.29856702761E+02  0.51100000000E-03 0. -1.
        -11    1    3    3    0    0 -0.25463677985E+01  0.65339634504E+01  0.71355590509E+01  0.10004642451E+02  0.51100000000E-03 0.  1.
        -12    1    3    3    0    0 -0.40142863655E+00 -0.41876501584E+01  0.67173298895E+01  0.79259119124E+01  0.00000000000E+00 0.  1.
</event>
<event>
 7    1  0.2811980E-010  0.4778727E+02  0.7816164E-02  0.1312668E+00
        -11   -1    0    0    0    0  0.00000000000E+00  0.00000000000E+00  0.45593999997E+02  0.45594000000E+02  0.51100000000E-03 0. -1.
         11   -1    0    0    0    0 -0.00000000000E+00 -0.00000000000E+00 -0.45593999997E+02  0.45594000000E+02  0.51100000000E-03 0.  1.
    9900012    2    1    2    0    0 -0.25585079864E+02 -0.34652958447E+02  0.53103485583E+01  0.47787266796E+02  0.19999980631E+02 0.  0.
        -12    1    1    2    0    0  0.25585079864E+02  0.34652958447E+02 -0.53103485583E+01  0.43400733204E+02  0.00000000000E+00 0.  1.
         11    1    3    3    0    0 -0.38066418714E+01  0.92626555528E+00  0.46039238096E+01  0.60452133893E+01  0.51100000000E-03 0.  1.
        -11    1    3    3    0    0 -0.15266965542E+02 -0.25927690907E+02  0.79314608548E+00  0.30099077621E+02  0.51100000000E-03 0. -1.
        -12    1    3    3    0    0 -0.65114724510E+01 -0.96515330950E+01 -0.86721336764E-01  0.11642975786E+02  0.00000000000E+00 0.  1.
</event>
<event>
 7    1  0.2811980E-010  0.4778727E+02  0.7816164E-02  0.1312668E+00
        -11   -1    0    0    0    0  0.00000000000E+00  0.00000000000E+00  0.45593999997E+02  0.45594000000E+02  0.51100000000E-03 0.  1.
         11   -1    0    0    0    0 -0.00000000000E+00 -0.00000000000E+00 -0.45593999997E+02  0.45594000000E+02  0.51100000000E-03 0. -1.
    9900012    2    1    2    0    0 -0.36946460804E+02 -0.99282559803E+01 -0.20494198997E+02  0.47787269300E+02  0.19999992047E+02 0.  0.
        -12    1    1    2    0    0  0.36946460804E+02  0.99282559803E+01  0.20494198997E+02  0.43400730700E+02  0.00000000000E+00 0.  1.
         11    1    3    3    0    0 -0.82163310358E+01 -0.73655757862E+01 -0.91045393759E+01  0.14305678588E+02  0.51100000000E-03 0. -1.
        -11    1    3    3    0    0 -0.11770385752E+02  0.50943086176E+01 -0.37129395221E+01  0.13352148935E+02  0.51100000000E-03 0.  1.
         12    1    3    3    0    0 -0.16959744017E+02 -0.76569888118E+01 -0.76767200988E+01  0.20129441777E+02  0.00000000000E+00 0. -1.
</event>
<event>
 7    1  0.2811980E-010  0.4778727E+02  0.7816164E-02  0.1312668E+00
        -11   -1    0    0    0    0  0.00000000000E+00  0.00000000000E+00  0.45593999997E+02  0.45594000000E+02  0.51100000000E-03 0.  1.
         11   -1    0    0    0    0 -0.00000000000E+00 -0.00000000000E+00 -0.45593999997E+02  0.45594000000E+02  0.51100000000E-03 0. -1.
    9900012    2    1    2    0    0  0.17792254929E+02 -0.69389256460E+01 -0.38973200134E+02  0.47787270130E+02  0.19999995829E+02 0.  0.
        -12    1    1    2    0    0 -0.17792254929E+02  0.69389256460E+01  0.38973200134E+02  0.43400729870E+02  0.00000000000E+00 0.  1.
         11    1    3    3    0    0  0.26763167938E+01  0.30595917940E+00 -0.84655871156E+01  0.88838307094E+01  0.51100000000E-03 0.  1.
        -11    1    3    3    0    0  0.28326686559E+01 -0.13917671233E+01 -0.23286627954E+02  0.23499533382E+02  0.51100000000E-03 0. -1.
        -12    1    3    3    0    0  0.12283269479E+02 -0.58531177020E+01 -0.72209850645E+01  0.15403906038E+02  0.00000000000E+00 0.  1.
</event>
<event>
 7    1  0.2811980E-010  0.4778728E+02  0.7816164E-02  0.1312668E+00
        -11   -1    0    0    0    0  0.00000000000E+00  0.00000000000E+00  0.45593999997E+02  0.45594000000E+02  0.51100000000E-03 0.  1.
         11   -1    0    0    0    0 -0.00000000000E+00 -0.00000000000E+00 -0.45593999997E+02  0.45594000000E+02  0.51100000000E-03 0. -1.
    9900012    2    1    2    0    0  0.12763158939E+00  0.31519396393E+02 -0.29835118147E+02  0.47787275195E+02  0.20000018923E+02 0.  0.
        -12    1    1    2    0    0 -0.12763158939E+00 -0.31519396393E+02  0.29835118147E+02  0.43400724805E+02  0.00000000000E+00 0.  1.
         11    1    3    3    0    0  0.20278459239E+00  0.68741296558E+00 -0.35041444049E+01  0.35766865179E+01  0.51100000000E-03 0. -1.
        -11    1    3    3    0    0  0.70112776297E+00  0.29161131554E+02 -0.28891687285E+02  0.41055971162E+02  0.51100000000E-03 0.  1.
        -12    1    3    3    0    0 -0.77628076597E+00  0.16708518734E+01  0.25607135433E+01  0.31546175143E+01  0.00000000000E+00 0.  1.
</event>
<event>
 7    1  0.2811980E-010  0.4778727E+02  0.7816164E-02  0.1312668E+00
        -11   -1    0    0    0    0  0.00000000000E+00  0.00000000000E+00  0.45593999997E+02  0.45594000000E+02  0.51100000000E-03 0.  1.
         11   -1    0    0    0    0 -0.00000000000E+00 -0.00000000000E+00 -0.45593999997E+02  0.45594000000E+02  0.51100000000E-03 0. -1.
    9900012    2    1    2    0    0 -0.31789814735E+01 -0.25231032908E+02 -0.35169764849E+02  0.47787270693E+02  0.19999998399E+02 0.  0.
        -12    1    1    2    0    0  0.31789814735E+01  0.25231032908E+02  0.35169764849E+02  0.43400729307E+02  0.00000000000E+00 0.  1.
         11    1    3    3    0    0 -0.13438024716E+01 -0.24207517898E+02 -0.20887798297E+02  0.32001716294E+02  0.51100000000E-03 0. -1.
        -11    1    3    3    0    0 -0.26652404610E+01  0.54989569587E+00 -0.20046259147E+01  0.33800025607E+01  0.51100000000E-03 0.  1.
         12    1    3    3    0    0  0.83006145906E+00 -0.15734107065E+01 -0.12277340638E+02  0.12405551838E+02  0.00000000000E+00 0. -1.
</event>
<event>
 7    1  0.2811980E-010  0.4778728E+02  0.7816164E-02  0.1312668E+00
        -11   -1    0    0    0    0  0.00000000000E+00  0.00000000000E+00  0.45593999997E+02  0.45594000000E+02  0.51100000000E-03 0. -1.
         11   -1    0    0    0    0 -0.00000000000E+00 -0.00000000000E+00 -0.45593999997E+02  0.45594000000E+02  0.51100000000E-03 0.  1.
    9900012    2    1    2    0    0 -0.36804910176E+00  0.42469084214E+02 -0.89366813044E+01  0.47787275963E+02  0.20000022428E+02 0.  0.
        -12    1    1    2    0    0  0.36804910176E+00 -0.42469084214E+02  0.89366813044E+01  0.43400724037E+02  0.00000000000E+00 0.  1.
         11    1    3    3    0    0  0.25657730465E+01 -0.54334253575E+00 -0.22394490626E+01  0.34487019011E+01  0.51100000000E-03 0.  1.
        -11    1    3    3    0    0 -0.22559997044E+01  0.32849571410E+02 -0.16426006594E+01  0.32967893680E+02  0.51100000000E-03 0. -1.
         12    1    3    3    0    0 -0.67782244383E+00  0.10162855340E+02 -0.50546315824E+01  0.11370680383E+02  0.00000000000E+00 0. -1.
</event>
<event>
 7    1  0.2811980E-010  0.4778727E+02  0.7816164E-02  0.1312668E+00
        -11   -1    0    0    0    0  0.00000000000E+00  0.00000000000E+00  0.45593999997E+02  0.45594000000E+02  0.51100000000E-03 0.  1.
         11   -1    0    0    0    0 -0.00000000000E+00 -0.00000000000E+00 -0.45593999997E+02  0.45594000000E+02  0.51100000000E-03 0. -1.
    9900012    2    1    2    0    0 -0.28175236608E+02  0.95294885276E+01 -0.31606458788E+02  0.47787270206E+02  0.19999996179E+02 0.  0.
        -12    1    1    2    0    0  0.28175236608E+02 -0.95294885276E+01  0.31606458788E+02  0.43400729794E+02  0.00000000000E+00 0.  1.
         11    1    3    3    0    0  0.30349519579E+00  0.52824477892E+01 -0.22472513594E+01  0.57486087806E+01  0.51100000000E-03 0. -1.
        -11    1    3    3    0    0 -0.25803809856E+01  0.14497961877E+01 -0.73958858359E+01  0.79661410090E+01  0.51100000000E-03 0.  1.
         12    1    3    3    0    0 -0.25898350818E+02  0.27972445507E+01 -0.21963321593E+02  0.34072520417E+02  0.00000000000E+00 0. -1.
</event>
<event>
 7    1  0.2811980E-010  0.4778727E+02  0.7816164E-02  0.1312668E+00
        -11   -1    0    0    0    0  0.00000000000E+00  0.00000000000E+00  0.45593999997E+02  0.45594000000E+02  0.51100000000E-03 0.  1.
         11   -1    0    0    0    0 -0.00000000000E+00 -0.00000000000E+00 -0.45593999997E+02  0.45594000000E+02  0.51100000000E-03 0. -1.
    9900012    2    1    2    0    0 -0.90372856538E+01  0.40820423987E+02 -0.11646612483E+02  0.47787272716E+02  0.20000007623E+02 0.  0.
        -12    1    1    2    0    0  0.90372856538E+01 -0.40820423987E+02  0.11646612483E+02  0.43400727284E+02  0.00000000000E+00 0.  1.
         11    1    3    3    0    0 -0.40846936398E+01  0.33557397010E+02 -0.11450123056E+02  0.35691580723E+02  0.51100000000E-03 0. -1.
        -11    1    3    3    0    0 -0.59826313821E+00  0.76861578213E+01  0.10927526785E+00  0.77101804248E+01  0.51100000000E-03 0.  1.
         12    1    3    3    0    0 -0.43543288758E+01 -0.42313084501E+00 -0.30576469394E+00  0.43855115687E+01  0.00000000000E+00 0. -1.
</event>
<event>
 7    1  0.2811980E-010  0.4778727E+02  0.7816164E-02  0.1312668E+00
        -11   -1    0    0    0    0  0.00000000000E+00  0.00000000000E+00  0.45593999997E+02  0.45594000000E+02  0.51100000000E-03 0. -1.
         11   -1    0    0    0    0 -0.00000000000E+00 -0.00000000000E+00 -0.45593999997E+02  0.45594000000E+02  0.51100000000E-03 0.  1.
    9900012    2    1    2    0    0  0.17891573495E+02  0.18426835094E+02  0.34985235244E+02  0.47787270296E+02  0.19999996589E+02 0.  0.
        -12    1    1    2    0    0 -0.17891573495E+02 -0.18426835094E+02 -0.34985235244E+02  0.43400729704E+02  0.00000000000E+00 0.  1.
         11    1    3    3    0    0 -0.10344989538E+01  0.78039047145E-01  0.95671213630E+01  0.96232057868E+01  0.51100000000E-03 0.  1.
        -11    1    3    3    0    0  0.87221538766E+01  0.72033157653E+01  0.40971444626E+01  0.12031222684E+02  0.51100000000E-03 0. -1.
         12    1    3    3    0    0  0.10203918572E+02  0.11145480282E+02  0.21320969419E+02  0.26132841826E+02  0.00000000000E+00 0. -1.
</event>
<event>
 7    1  0.2811980E-010  0.4778727E+02  0.7816164E-02  0.1312668E+00
        -11   -1    0    0    0    0  0.00000000000E+00  0.00000000000E+00  0.45593999997E+02  0.45594000000E+02  0.51100000000E-03 0. -1.
         11   -1    0    0    0    0 -0.00000000000E+00 -0.00000000000E+00 -0.45593999997E+02  0.45594000000E+02  0.51100000000E-03 0.  1.
    9900012    2    1    2    0    0 -0.10259515078E+02  0.37544396693E+02  0.19203746586E+02  0.47787271254E+02  0.20000000957E+02 0.  0.
        -12    1    1    2    0    0  0.10259515078E+02 -0.37544396693E+02 -0.19203746586E+02  0.43400728746E+02  0.00000000000E+00 0.  1.
         11    1    3    3    0    0 -0.22484276119E+01  0.15577322400E+02  0.75053620550E+01  0.17436710117E+02  0.51100000000E-03 0. -1.
        -11    1    3    3    0    0 -0.19503645975E+01  0.37398344113E+01  0.10254333476E+02  0.11087905067E+02  0.51100000000E-03 0.  1.
        -12    1    3    3    0    0 -0.60607228681E+01  0.18227239883E+02  0.14440510552E+01  0.19262656070E+02  0.00000000000E+00 0.  1.
</event>
<event>
 7    1  0.2811980E-010  0.4778727E+02  0.7816164E-02  0.1312668E+00
        -11   -1    0    0    0    0  0.00000000000E+00  0.00000000000E+00  0.45593999997E+02  0.45594000000E+02  0.51100000000E-03 0.  1.
         11   -1    0    0    0    0 -0.00000000000E+00 -0.00000000000E+00 -0.45593999997E+02  0.45594000000E+02  0.51100000000E-03 0. -1.
    9900012    2    1    2    0    0 -0.29816846456E+02  0.27359521004E+02 -0.15685520324E+02  0.47787271089E+02  0.20000000203E+02 0.  0.
        -12    1    1    2    0    0  0.29816846456E+02 -0.27359521004E+02  0.15685520324E+02  0.43400728911E+02  0.00000000000E+00 0.  1.
         11    1    3    3    0    0  0.20731157737E+01  0.49826796471E+01 -0.35933834419E+01  0.64836186114E+01  0.51100000000E-03 0.  1.
        -11    1    3    3    0    0 -0.20810053987E+02  0.11723308400E+02 -0.95527060342E+01  0.25724472776E+02  0.51100000000E-03 0. -1.
        -12    1    3    3    0    0 -0.11079908243E+02  0.10653532957E+02 -0.25394308481E+01  0.15579179701E+02  0.00000000000E+00 0.  1.
</event>
<event>
 7    1  0.2811980E-010  0.4778727E+02  0.7816164E-02  0.1312668E+00
        -11   -1    0    0    0    0  0.00000000000E+00  0.00000000000E+00  0.45593999997E+02  0.45594000000E+02  0.51100000000E-03 0.  1.
         11   -1    0    0    0    0 -0.00000000000E+00 -0.00000000000E+00 -0.45593999997E+02  0.45594000000E+02  0.51100000000E-03 0. -1.
    9900012    2    1    2    0    0  0.26528529174E+02  0.17618699281E+02 -0.29486294405E+02  0.47787274404E+02  0.20000015319E+02 0.  0.
        -12    1    1    2    0    0 -0.26528529174E+02 -0.17618699281E+02  0.29486294405E+02  0.43400725596E+02  0.00000000000E+00 0.  1.
         11    1    3    3    0    0  0.13510831621E+02  0.16260612179E+02 -0.23018715866E+02  0.31253981505E+02  0.51100000000E-03 0. -1.
        -11    1    3    3    0    0  0.65528604966E+01 -0.76873335548E-01  0.91383046657E+00  0.66167194727E+01  0.51100000000E-03 0.  1.
        -12    1    3    3    0    0  0.64648370567E+01  0.14349604375E+01 -0.73814090055E+01  0.99165734270E+01  0.00000000000E+00 0.  1.
</event>
<event>
 7    1  0.2811980E-010  0.4778727E+02  0.7816164E-02  0.1312668E+00
        -11   -1    0    0    0    0  0.00000000000E+00  0.00000000000E+00  0.45593999997E+02  0.45594000000E+02  0.51100000000E-03 0.  1.
         11   -1    0    0    0    0 -0.00000000000E+00 -0.00000000000E+00 -0.45593999997E+02  0.45594000000E+02  0.51100000000E-03 0. -1.
    9900012    2    1    2    0    0  0.14918666947E+02  0.27865452122E+02 -0.29741770367E+02  0.47787274776E+02  0.20000017012E+02 0.  0.
        -12    1    1    2    0    0 -0.14918666947E+02 -0.27865452122E+02  0.29741770367E+02  0.43400725224E+02  0.00000000000E+00 0.  1.
         11    1    3    3    0    0  0.77504733782E+00  0.47410652903E+01 -0.27542211863E+01  0.55375204800E+01  0.51100000000E-03 0. -1.
        -11    1    3    3    0    0  0.95229756077E+01  0.24379369920E+02 -0.26796527380E+02  0.37457904667E+02  0.51100000000E-03 0.  1.
        -12    1    3    3    0    0  0.46206440011E+01 -0.12549830882E+01 -0.19102180020E+00  0.47918496288E+01  0.00000000000E+00 0.  1.
</event>
<event>
 7    1  0.2811980E-010  0.4778727E+02  0.7816164E-02  0.1312668E+00
        -11   -1    0    0    0    0  0.00000000000E+00  0.00000000000E+00  0.45593999997E+02  0.45594000000E+02  0.51100000000E-03 0.  1.
         11   -1    0    0    0    0 -0.00000000000E+00 -0.00000000000E+00 -0.45593999997E+02  0.45594000000E+02  0.51100000000E-03 0. -1.
    9900012    2    1    2    0    0  0.35867355045E+02 -0.19160061684E+02 -0.15167336785E+02  0.47787271587E+02  0.20000002473E+02 0.  0.
        -12    1    1    2    0    0 -0.35867355045E+02  0.19160061684E+02  0.15167336785E+02  0.43400728413E+02  0.00000000000E+00 0.  1.
         11    1    3    3    0    0  0.28347587211E+02 -0.10378656254E+02 -0.11186350318E+02  0.32193736037E+02  0.51100000000E-03 0. -1.
        -11    1    3    3    0    0  0.43245756765E-02 -0.65460478633E+01 -0.41503299717E+01  0.77508709489E+01  0.51100000000E-03 0.  1.
        -12    1    3    3    0    0  0.75154432579E+01 -0.22353575662E+01  0.16934350471E+00  0.78426646004E+01  0.00000000000E+00 0.  1.
</event>
<event>
 7    1  0.2811980E-010  0.4778727E+02  0.7816164E-02  0.1312668E+00
        -11   -1    0    0    0    0  0.00000000000E+00  0.00000000000E+00  0.45593999997E+02  0.45594000000E+02  0.51100000000E-03 0.  1.
         11   -1    0    0    0    0 -0.00000000000E+00 -0.00000000000E+00 -0.45593999997E+02  0.45594000000E+02  0.51100000000E-03 0. -1.
    9900012    2    1    2    0    0  0.18290476946E+01  0.18521091497E+02 -0.39207739321E+02  0.47787273412E+02  0.20000010793E+02 0.  0.
        -12    1    1    2    0    0 -0.18290476946E+01 -0.18521091497E+02  0.39207739321E+02  0.43400726588E+02  0.00000000000E+00 0.  1.
         11    1    3    3    0    0  0.98408644948E+01  0.13974845518E+02 -0.30201149079E+02  0.34702281297E+02  0.51100000000E-03 0. -1.
        -11    1    3    3    0    0 -0.45572820750E+01  0.18434151469E+01 -0.60493093772E+01  0.77949434582E+01  0.51100000000E-03 0.  1.
         12    1    3    3    0    0 -0.34545347252E+01  0.27028308325E+01 -0.29572808652E+01  0.52900486569E+01  0.00000000000E+00 0. -1.
</event>
<event>
 7    1  0.2811980E-010  0.4778727E+02  0.7816164E-02  0.1312668E+00
        -11   -1    0    0    0    0  0.00000000000E+00  0.00000000000E+00  0.45593999997E+02  0.45594000000E+02  0.51100000000E-03 0.  1.
         11   -1    0    0    0    0 -0.00000000000E+00 -0.00000000000E+00 -0.45593999997E+02  0.45594000000E+02  0.51100000000E-03 0. -1.
    9900012    2    1    2    0    0 -0.20682193916E+02 -0.37114659842E+02 -0.88527920880E+01  0.47787273645E+02  0.20000011858E+02 0.  0.
        -12    1    1    2    0    0  0.20682193916E+02  0.37114659842E+02  0.88527920880E+01  0.43400726355E+02  0.00000000000E+00 0.  1.
         11    1    3    3    0    0 -0.74629084107E+01 -0.16015139819E+02 -0.12962922007E+02  0.21913855265E+02  0.51100000000E-03 0. -1.
        -11    1    3    3    0    0 -0.75753758620E+01 -0.76217236870E+01  0.32910311783E+01  0.11238677764E+02  0.51100000000E-03 0.  1.
         12    1    3    3    0    0 -0.56439096429E+01 -0.13477796336E+02  0.81909874068E+00  0.14634740616E+02  0.00000000000E+00 0. -1.
</event>
<event>
 7    1  0.2811980E-010  0.4778727E+02  0.7816164E-02  0.1312668E+00
        -11   -1    0    0    0    0  0.00000000000E+00  0.00000000000E+00  0.45593999997E+02  0.45594000000E+02  0.51100000000E-03 0. -1.
         11   -1    0    0    0    0 -0.00000000000E+00 -0.00000000000E+00 -0.45593999997E+02  0.45594000000E+02  0.51100000000E-03 0.  1.
    9900012    2    1    2    0    0  0.91278359848E+01  0.10106056693E+02  0.41208900356E+02  0.47787271432E+02  0.20000001767E+02 0.  0.
        -12    1    1    2    0    0 -0.91278359848E+01 -0.10106056693E+02 -0.41208900356E+02  0.43400728568E+02  0.00000000000E+00 0.  1.
         11    1    3    3    0    0  0.94152618353E+01 -0.36555485132E+01  0.19055467683E+02  0.21566665000E+02  0.51100000000E-03 0. -1.
        -11    1    3    3    0    0  0.52962611437E+00  0.11031636116E+02  0.16026993643E+02  0.19463864588E+02  0.51100000000E-03 0.  1.
         12    1    3    3    0    0 -0.81705196489E+00  0.27299690894E+01  0.61264390307E+01  0.67567418434E+01  0.00000000000E+00 0. -1.
</event>
<event>
 7    1  0.2811980E-010  0.4778727E+02  0.7816164E-02  0.1312668E+00
        -11   -1    0    0    0    0  0.00000000000E+00  0.00000000000E+00  0.45593999997E+02  0.45594000000E+02  0.51100000000E-03 0.  1.
         11   -1    0    0    0    0 -0.00000000000E+00 -0.00000000000E+00 -0.45593999997E+02  0.45594000000E+02  0.51100000000E-03 0. -1.
    9900012    2    1    2    0    0  0.26001991912E+02 -0.31636108768E+02  0.14376230195E+02  0.47787274707E+02  0.20000016697E+02 0.  0.
        -12    1    1    2    0    0 -0.26001991912E+02  0.31636108768E+02 -0.14376230195E+02  0.43400725293E+02  0.00000000000E+00 0.  1.
         11    1    3    3    0    0  0.12435235109E+02 -0.23332899791E+02  0.15027441517E+02  0.30411893786E+02  0.51100000000E-03 0. -1.
        -11    1    3    3    0    0  0.36316764453E+00  0.76330320082E-01 -0.16636147663E+01  0.17045032730E+01  0.51100000000E-03 0.  1.
         12    1    3    3    0    0  0.13203589159E+02 -0.83795392975E+01  0.10124034440E+01  0.15670877647E+02  0.00000000000E+00 0. -1.
</event>
<event>
 7    1  0.2811980E-010  0.4778726E+02  0.7816164E-02  0.1312668E+00
        -11   -1    0    0    0    0  0.00000000000E+00  0.00000000000E+00  0.45593999997E+02  0.45594000000E+02  0.51100000000E-03 0.  1.
         11   -1    0    0    0    0 -0.00000000000E+00 -0.00000000000E+00 -0.45593999997E+02  0.45594000000E+02  0.51100000000E-03 0. -1.
    9900012    2    1    2    0    0 -0.34265635404E+02  0.11599297689E+01  0.26610989045E+02  0.47787263316E+02  0.19999964765E+02 0.  0.
        -12    1    1    2    0    0  0.34265635404E+02 -0.11599297689E+01 -0.26610989045E+02  0.43400736684E+02  0.00000000000E+00 0.  1.
         11    1    3    3    0    0 -0.67107370604E+01  0.70143967896E+01  0.11150196907E+02  0.14783864364E+02  0.51100000000E-03 0. -1.
        -11    1    3    3    0    0 -0.19643932494E+02 -0.60142989253E+00  0.10799214388E+02  0.22424737086E+02  0.51100000000E-03 0.  1.
        -12    1    3    3    0    0 -0.79109658497E+01 -0.52530371282E+01  0.46615777506E+01  0.10578661866E+02  0.00000000000E+00 0.  1.
</event>
<event>
 7    1  0.2811980E-010  0.4778727E+02  0.7816164E-02  0.1312668E+00
        -11   -1    0    0    0    0  0.00000000000E+00  0.00000000000E+00  0.45593999997E+02  0.45594000000E+02  0.51100000000E-03 0.  1.
         11   -1    0    0    0    0 -0.00000000000E+00 -0.00000000000E+00 -0.45593999997E+02  0.45594000000E+02  0.51100000000E-03 0. -1.
    9900012    2    1    2    0    0 -0.24836400897E+02  0.26313826747E+02 -0.23965790769E+02  0.47787269421E+02  0.19999992599E+02 0.  0.
        -12    1    1    2    0    0  0.24836400897E+02 -0.26313826747E+02  0.23965790769E+02  0.43400730579E+02  0.00000000000E+00 0.  1.
         11    1    3    3    0    0 -0.10781376005E+02  0.22058419737E+02 -0.14890055626E+02  0.28714555658E+02  0.51100000000E-03 0. -1.
        -11    1    3    3    0    0 -0.69145287164E+01 -0.15952024744E+01 -0.61460073579E+01  0.93876932741E+01  0.51100000000E-03 0.  1.
         12    1    3    3    0    0 -0.71404961752E+01  0.58506094853E+01 -0.29297277851E+01  0.96850204890E+01  0.00000000000E+00 0. -1.
</event>
<event>
 7    1  0.2811980E-010  0.4778727E+02  0.7816164E-02  0.1312668E+00
        -11   -1    0    0    0    0  0.00000000000E+00  0.00000000000E+00  0.45593999997E+02  0.45594000000E+02  0.51100000000E-03 0. -1.
         11   -1    0    0    0    0 -0.00000000000E+00 -0.00000000000E+00 -0.45593999997E+02  0.45594000000E+02  0.51100000000E-03 0.  1.
    9900012    2    1    2    0    0 -0.40743511632E+01 -0.32895551978E+02  0.28016170784E+02  0.47787268407E+02  0.19999987977E+02 0.  0.
        -12    1    1    2    0    0  0.40743511632E+01  0.32895551978E+02 -0.28016170784E+02  0.43400731593E+02  0.00000000000E+00 0.  1.
         11    1    3    3    0    0  0.13158351349E+01 -0.18981081335E+02  0.13431584982E+02  0.23289919411E+02  0.51100000000E-03 0. -1.
        -11    1    3    3    0    0 -0.27508250363E+01 -0.29828257641E+01 -0.19492015206E+01  0.45015191601E+01  0.51100000000E-03 0.  1.
        -12    1    3    3    0    0 -0.26393612618E+01 -0.10931644879E+02  0.16533787322E+02  0.19995829836E+02  0.00000000000E+00 0.  1.
</event>
<event>
 7    1  0.2811980E-010  0.4778727E+02  0.7816164E-02  0.1312668E+00
        -11   -1    0    0    0    0  0.00000000000E+00  0.00000000000E+00  0.45593999997E+02  0.45594000000E+02  0.51100000000E-03 0.  1.
         11   -1    0    0    0    0 -0.00000000000E+00 -0.00000000000E+00 -0.45593999997E+02  0.45594000000E+02  0.51100000000E-03 0. -1.
    9900012    2    1    2    0    0 -0.64268739639E+01  0.98896161986E+01 -0.41767382162E+02  0.47787269244E+02  0.19999991791E+02 0.  0.
        -12    1    1    2    0    0  0.64268739639E+01 -0.98896161986E+01  0.41767382162E+02  0.43400730756E+02  0.00000000000E+00 0.  1.
         11    1    3    3    0    0 -0.82451481112E+01  0.82515954996E+00 -0.79977276930E+01  0.11516379821E+02  0.51100000000E-03 0. -1.
        -11    1    3    3    0    0 -0.67803788656E+00 -0.17717427164E+01 -0.29583923927E+01  0.35143837922E+01  0.51100000000E-03 0.  1.
         12    1    3    3    0    0  0.24963120339E+01  0.10836199365E+02 -0.30811262076E+02  0.32756505631E+02  0.00000000000E+00 0. -1.
</event>
<event>
 7    1  0.2811980E-010  0.4778728E+02  0.7816164E-02  0.1312668E+00
        -11   -1    0    0    0    0  0.00000000000E+00  0.00000000000E+00  0.45593999997E+02  0.45594000000E+02  0.51100000000E-03 0.  1.
         11   -1    0    0    0    0 -0.00000000000E+00 -0.00000000000E+00 -0.45593999997E+02  0.45594000000E+02  0.51100000000E-03 0. -1.
    9900012    2    1    2    0    0  0.10504622310E+01  0.21620360718E+02 -0.37617540986E+02  0.47787275832E+02  0.20000021828E+02 0.  0.
        -12    1    1    2    0    0 -0.10504622310E+01 -0.21620360718E+02  0.37617540986E+02  0.43400724168E+02  0.00000000000E+00 0.  1.
         11    1    3    3    0    0  0.65733353626E+01  0.89543603336E+00 -0.56143199484E+01  0.86908648720E+01  0.51100000000E-03 0. -1.
        -11    1    3    3    0    0 -0.53366093927E+01  0.12646030957E+02 -0.15387624140E+02  0.20619904843E+02  0.51100000000E-03 0.  1.
        -12    1    3    3    0    0 -0.18626373891E+00  0.80788937273E+01 -0.16615596897E+02  0.18476506117E+02  0.00000000000E+00 0.  1.
</event>
<event>
 7    1  0.2811980E-010  0.4778723E+02  0.7816164E-02  0.1312668E+00
        -11   -1    0    0    0    0  0.00000000000E+00  0.00000000000E+00  0.45593999997E+02  0.45594000000E+02  0.51100000000E-03 0.  1.
         11   -1    0    0    0    0 -0.00000000000E+00 -0.00000000000E+00 -0.45593999997E+02  0.45594000000E+02  0.51100000000E-03 0. -1.
    9900012    2    1    2    0    0 -0.20688552191E+02 -0.20359851058E+00 -0.38151923045E+02  0.47787229545E+02  0.19999810785E+02 0.  0.
        -12    1    1    2    0    0  0.20688552191E+02  0.20359851058E+00  0.38151923045E+02  0.43400770455E+02  0.00000000000E+00 0.  1.
         11    1    3    3    0    0 -0.68174331359E+01  0.37352385829E+01 -0.24160410928E+02  0.25380206033E+02  0.51100000000E-03 0. -1.
        -11    1    3    3    0    0 -0.32865193723E+01 -0.57486933176E+01 -0.39807087376E+01  0.77262362609E+01  0.51100000000E-03 0.  1.
         12    1    3    3    0    0 -0.10584599683E+02  0.18098562242E+01 -0.10010803379E+02  0.14680787250E+02  0.00000000000E+00 0. -1.
</event>
<event>
 7    1  0.2811980E-010  0.4778727E+02  0.7816164E-02  0.1312668E+00
        -11   -1    0    0    0    0  0.00000000000E+00  0.00000000000E+00  0.45593999997E+02  0.45594000000E+02  0.51100000000E-03 0.  1.
         11   -1    0    0    0    0 -0.00000000000E+00 -0.00000000000E+00 -0.45593999997E+02  0.45594000000E+02  0.51100000000E-03 0. -1.
    9900012    2    1    2    0    0  0.19331765539E+02 -0.11007821715E+02 -0.37265719543E+02  0.47787272462E+02  0.20000006464E+02 0.  0.
        -12    1    1    2    0    0 -0.19331765539E+02  0.11007821715E+02  0.37265719543E+02  0.43400727538E+02  0.00000000000E+00 0.  1.
         11    1    3    3    0    0  0.30283425203E+01 -0.40258635381E+00 -0.59467059439E+01  0.66855251130E+01  0.51100000000E-03 0. -1.
        -11    1    3    3    0    0  0.95424745952E+01  0.34222011624E+00 -0.30198267925E+01  0.10014753623E+02  0.51100000000E-03 0.  1.
        -12    1    3    3    0    0  0.67609484230E+01 -0.10947455477E+02 -0.28299186807E+02  0.31086993726E+02  0.00000000000E+00 0.  1.
</event>
<event>
 7    1  0.2811980E-010  0.4778729E+02  0.7816164E-02  0.1312668E+00
        -11   -1    0    0    0    0  0.00000000000E+00  0.00000000000E+00  0.45593999997E+02  0.45594000000E+02  0.51100000000E-03 0. -1.
         11   -1    0    0    0    0 -0.00000000000E+00 -0.00000000000E+00 -0.45593999997E+02  0.45594000000E+02  0.51100000000E-03 0.  1.
    9900012    2    1    2    0    0  0.27657913707E+02 -0.25438274671E+02  0.21715338874E+02  0.47787286281E+02  0.20000069472E+02 0.  0.
        -12    1    1    2    0    0 -0.27657913707E+02  0.25438274671E+02 -0.21715338874E+02  0.43400713719E+02  0.00000000000E+00 0.  1.
         11    1    3    3    0    0  0.23023431898E+02 -0.24738243063E+02  0.19853970841E+02  0.39194887991E+02  0.51100000000E-03 0. -1.
        -11    1    3    3    0    0  0.38500948495E+01  0.25479446675E+01  0.24072750340E+01  0.52067480954E+01  0.51100000000E-03 0.  1.
         12    1    3    3    0    0  0.78438695887E+00 -0.32479762761E+01 -0.54590700056E+00  0.33856501953E+01  0.00000000000E+00 0. -1.
</event>
<event>
 7    1  0.3253081E-010  0.4778727E+02  0.7816164E-02  0.1312668E+00
        -11   -1    0    0    0    0  0.00000000000E+00  0.00000000000E+00  0.45593999997E+02  0.45594000000E+02  0.51100000000E-03 0.  1.
         11   -1    0    0    0    0 -0.00000000000E+00 -0.00000000000E+00 -0.45593999997E+02  0.45594000000E+02  0.51100000000E-03 0. -1.
    9900012    2    1    2    0    0  0.27380124067E+02  0.19573649942E+02 -0.27401167366E+02  0.47787274903E+02  0.20000017592E+02 0.  0.
        -12    1    1    2    0    0 -0.27380124067E+02 -0.19573649942E+02  0.27401167366E+02  0.43400725097E+02  0.00000000000E+00 0.  1.
         11    1    3    3    0    0  0.11480448667E+02  0.55007815976E+01 -0.99948714694E+01  0.16185078181E+02  0.51100000000E-03 0. -1.
        -11    1    3    3    0    0  0.41341868544E+01 -0.31088829253E+01 -0.57638269761E+01  0.77445694304E+01  0.51100000000E-03 0.  1.
        -12    1    3    3    0    0  0.11765488545E+02  0.17181751270E+02 -0.11642468920E+02  0.23857627291E+02  0.00000000000E+00 0.  1.
</event>
<event>
 7    1  0.2811980E-010  0.4778727E+02  0.7816164E-02  0.1312668E+00
        -11   -1    0    0    0    0  0.00000000000E+00  0.00000000000E+00  0.45593999997E+02  0.45594000000E+02  0.51100000000E-03 0.  1.
         11   -1    0    0    0    0 -0.00000000000E+00 -0.00000000000E+00 -0.45593999997E+02  0.45594000000E+02  0.51100000000E-03 0. -1.
    9900012    2    1    2    0    0 -0.41085843976E+02 -0.13743889209E+02 -0.25850086881E+01  0.47787270332E+02  0.19999996749E+02 0.  0.
        -12    1    1    2    0    0  0.41085843976E+02  0.13743889209E+02  0.25850086881E+01  0.43400729668E+02  0.00000000000E+00 0.  1.
         11    1    3    3    0    0 -0.24121994413E+02 -0.48132269125E+01 -0.94029214489E+01  0.26333490081E+02  0.51100000000E-03 0. -1.
        -11    1    3    3    0    0 -0.35042415416E+01 -0.34564827358E+01  0.46341748073E+01  0.67603667127E+01  0.51100000000E-03 0.  1.
         12    1    3    3    0    0 -0.13459608021E+02 -0.54741795610E+01  0.21837379536E+01  0.14693413538E+02  0.00000000000E+00 0. -1.
</event>
<event>
 7    1  0.2811980E-010  0.4778727E+02  0.7816164E-02  0.1312668E+00
        -11   -1    0    0    0    0  0.00000000000E+00  0.00000000000E+00  0.45593999997E+02  0.45594000000E+02  0.51100000000E-03 0. -1.
         11   -1    0    0    0    0 -0.00000000000E+00 -0.00000000000E+00 -0.45593999997E+02  0.45594000000E+02  0.51100000000E-03 0.  1.
    9900012    2    1    2    0    0 -0.11667385557E+02  0.41800632955E+02 -0.45005034271E+00  0.47787270208E+02  0.19999996188E+02 0.  0.
        -12    1    1    2    0    0  0.11667385557E+02 -0.41800632955E+02  0.45005034271E+00  0.43400729792E+02  0.00000000000E+00 0.  1.
         11    1    3    3    0    0 -0.71995164435E+01  0.18476568480E+01 -0.26683100841E+00  0.74376119754E+01  0.51100000000E-03 0. -1.
        -11    1    3    3    0    0 -0.59033745529E+00  0.12993419967E+01 -0.46499386304E+00  0.15010021616E+01  0.51100000000E-03 0.  1.
         12    1    3    3    0    0 -0.38775316578E+01  0.38653634110E+02  0.28177452874E+00  0.38848656071E+02  0.00000000000E+00 0. -1.
</event>
<event>
 7    1  0.2811980E-010  0.4778727E+02  0.7816164E-02  0.1312668E+00
        -11   -1    0    0    0    0  0.00000000000E+00  0.00000000000E+00  0.45593999997E+02  0.45594000000E+02  0.51100000000E-03 0.  1.
         11   -1    0    0    0    0 -0.00000000000E+00 -0.00000000000E+00 -0.45593999997E+02  0.45594000000E+02  0.51100000000E-03 0. -1.
    9900012    2    1    2    0    0  0.29345234951E+02  0.15519210223E+02 -0.27957730052E+02  0.47787269938E+02  0.19999994956E+02 0.  0.
        -12    1    1    2    0    0 -0.29345234951E+02 -0.15519210223E+02  0.27957730052E+02  0.43400730062E+02  0.00000000000E+00 0.  1.
         11    1    3    3    0    0  0.17244904465E+02  0.13995084509E+02 -0.22977855885E+02  0.31956704801E+02  0.51100000000E-03 0. -1.
        -11    1    3    3    0    0  0.49719931755E+00  0.19982969280E+01  0.14856430687E+01  0.25391993547E+01  0.51100000000E-03 0.  1.
         12    1    3    3    0    0  0.11603131168E+02 -0.47417121398E+00 -0.64655172358E+01  0.13291365783E+02  0.00000000000E+00 0. -1.
</event>
<event>
 7    1  0.2811980E-010  0.4778725E+02  0.7816164E-02  0.1312668E+00
        -11   -1    0    0    0    0  0.00000000000E+00  0.00000000000E+00  0.45593999997E+02  0.45594000000E+02  0.51100000000E-03 0. -1.
         11   -1    0    0    0    0 -0.00000000000E+00 -0.00000000000E+00 -0.45593999997E+02  0.45594000000E+02  0.51100000000E-03 0.  1.
    9900012    2    1    2    0    0  0.93402884053E+01 -0.42226457492E+02  0.36482897885E+01  0.47787254405E+02  0.19999924134E+02 0.  0.
        -12    1    1    2    0    0 -0.93402884053E+01  0.42226457492E+02 -0.36482897885E+01  0.43400745595E+02  0.00000000000E+00 0.  1.
         11    1    3    3    0    0 -0.10744653531E+01 -0.14294425259E+02 -0.43944770481E+01  0.14993215068E+02  0.51100000000E-03 0. -1.
        -11    1    3    3    0    0  0.10570163128E+02 -0.15585791747E+02  0.16881620278E+01  0.18907541993E+02  0.51100000000E-03 0.  1.
         12    1    3    3    0    0 -0.15540936945E+00 -0.12346240486E+02  0.63546048088E+01  0.13886497344E+02  0.00000000000E+00 0. -1.
</event>
<event>
 7    1  0.2811980E-010  0.4778727E+02  0.7816164E-02  0.1312668E+00
        -11   -1    0    0    0    0  0.00000000000E+00  0.00000000000E+00  0.45593999997E+02  0.45594000000E+02  0.51100000000E-03 0.  1.
         11   -1    0    0    0    0 -0.00000000000E+00 -0.00000000000E+00 -0.45593999997E+02  0.45594000000E+02  0.51100000000E-03 0. -1.
    9900012    2    1    2    0    0  0.28308834162E+02  0.50889170943E+01 -0.32501324180E+02  0.47787271409E+02  0.20000001661E+02 0.  0.
        -12    1    1    2    0    0 -0.28308834162E+02 -0.50889170943E+01  0.32501324180E+02  0.43400728591E+02  0.00000000000E+00 0.  1.
         11    1    3    3    0    0  0.24918085360E+02  0.11395023922E+02 -0.26522361254E+02  0.38133885128E+02  0.51100000000E-03 0. -1.
        -11    1    3    3    0    0  0.21360491303E+01 -0.54443063118E+01 -0.37260405200E+01  0.69344470091E+01  0.51100000000E-03 0.  1.
         12    1    3    3    0    0  0.12546996719E+01 -0.86180051632E+00 -0.22529224062E+01  0.27189392721E+01  0.00000000000E+00 0. -1.
</event>
<event>
 7    1  0.2811980E-010  0.4778727E+02  0.7816164E-02  0.1312668E+00
        -11   -1    0    0    0    0  0.00000000000E+00  0.00000000000E+00  0.45593999997E+02  0.45594000000E+02  0.51100000000E-03 0.  1.
         11   -1    0    0    0    0 -0.00000000000E+00 -0.00000000000E+00 -0.45593999997E+02  0.45594000000E+02  0.51100000000E-03 0. -1.
    9900012    2    1    2    0    0  0.91528880171E+01  0.42416149709E+02  0.84747392225E+00  0.47787270430E+02  0.19999997197E+02 0.  0.
        -12    1    1    2    0    0 -0.91528880171E+01 -0.42416149709E+02 -0.84747392225E+00  0.43400729570E+02  0.00000000000E+00 0.  1.
         11    1    3    3    0    0  0.73833089173E+01  0.37412376568E+02  0.60870472187E+01  0.38616723257E+02  0.51100000000E-03 0. -1.
        -11    1    3    3    0    0 -0.14272434545E+01  0.31871141955E+01 -0.39540896547E+01  0.52753716487E+01  0.51100000000E-03 0.  1.
         12    1    3    3    0    0  0.31968225542E+01  0.18166589459E+01 -0.12854836418E+01  0.38951755239E+01  0.00000000000E+00 0. -1.
</event>
<event>
 7    1  0.2811980E-010  0.4778726E+02  0.7816164E-02  0.1312668E+00
        -11   -1    0    0    0    0  0.00000000000E+00  0.00000000000E+00  0.45593999997E+02  0.45594000000E+02  0.51100000000E-03 0.  1.
         11   -1    0    0    0    0 -0.00000000000E+00 -0.00000000000E+00 -0.45593999997E+02  0.45594000000E+02  0.51100000000E-03 0. -1.
    9900012    2    1    2    0    0 -0.14916290921E+02 -0.40551448890E+02 -0.40875563661E+01  0.47787264304E+02  0.19999969268E+02 0.  0.
        -12    1    1    2    0    0  0.14916290921E+02  0.40551448890E+02  0.40875563661E+01  0.43400735696E+02  0.00000000000E+00 0.  1.
         11    1    3    3    0    0 -0.76779570709E+01 -0.21786255157E+02  0.42821001244E+01  0.23493154754E+02  0.51100000000E-03 0. -1.
        -11    1    3    3    0    0 -0.36484729292E+00 -0.31340114567E+01  0.25231055746E+01  0.40399509106E+01  0.51100000000E-03 0.  1.
         12    1    3    3    0    0 -0.68734865573E+01 -0.15631182276E+02 -0.10892762065E+02  0.20254158640E+02  0.00000000000E+00 0. -1.
</event>
<event>
 7    1  0.2811980E-010  0.4778727E+02  0.7816164E-02  0.1312668E+00
        -11   -1    0    0    0    0  0.00000000000E+00  0.00000000000E+00  0.45593999997E+02  0.45594000000E+02  0.51100000000E-03 0.  1.
         11   -1    0    0    0    0 -0.00000000000E+00 -0.00000000000E+00 -0.45593999997E+02  0.45594000000E+02  0.51100000000E-03 0. -1.
    9900012    2    1    2    0    0 -0.43107083340E+02 -0.39985431122E+01 -0.30682306301E+01  0.47787273965E+02  0.20000013318E+02 0.  0.
        -12    1    1    2    0    0  0.43107083340E+02  0.39985431122E+01  0.30682306301E+01  0.43400726035E+02  0.00000000000E+00 0.  1.
         11    1    3    3    0    0 -0.26232998986E+01 -0.42688938131E+01 -0.32194475230E+01  0.59556695140E+01  0.51100000000E-03 0. -1.
        -11    1    3    3    0    0 -0.40911221145E+02  0.54368136364E+00 -0.60695356415E+00  0.40919335257E+02  0.51100000000E-03 0.  1.
        -12    1    3    3    0    0  0.42743770314E+00 -0.27333066283E+00  0.75817045705E+00  0.91226919451E+00  0.00000000000E+00 0.  1.
</event>
<event>
 7    1  0.2811980E-010  0.4778723E+02  0.7816164E-02  0.1312668E+00
        -11   -1    0    0    0    0  0.00000000000E+00  0.00000000000E+00  0.45593999997E+02  0.45594000000E+02  0.51100000000E-03 0. -1.
         11   -1    0    0    0    0 -0.00000000000E+00 -0.00000000000E+00 -0.45593999997E+02  0.45594000000E+02  0.51100000000E-03 0.  1.
    9900012    2    1    2    0    0  0.23858817776E+02  0.25433836519E+02  0.25836092834E+02  0.47787229055E+02  0.19999808550E+02 0.  0.
        -12    1    1    2    0    0 -0.23858817776E+02 -0.25433836519E+02 -0.25836092834E+02  0.43400770945E+02  0.00000000000E+00 0.  1.
         11    1    3    3    0    0  0.15489192947E+02  0.21251713181E+02  0.14068927035E+02  0.29824237114E+02  0.51100000000E-03 0. -1.
        -11    1    3    3    0    0  0.11604029219E+01  0.58607550175E+01  0.67843114214E+01  0.90400147146E+01  0.51100000000E-03 0.  1.
         12    1    3    3    0    0  0.72092219074E+01 -0.16786316795E+01  0.49828543774E+01  0.89229772258E+01  0.00000000000E+00 0. -1.
</event>
<event>
 7    1  0.2811980E-010  0.4778731E+02  0.7816164E-02  0.1312668E+00
        -11   -1    0    0    0    0  0.00000000000E+00  0.00000000000E+00  0.45593999997E+02  0.45594000000E+02  0.51100000000E-03 0.  1.
         11   -1    0    0    0    0 -0.00000000000E+00 -0.00000000000E+00 -0.45593999997E+02  0.45594000000E+02  0.51100000000E-03 0. -1.
    9900012    2    1    2    0    0  0.34371283446E+02  0.15358982002E+02 -0.21594814545E+02  0.47787314878E+02  0.20000199854E+02 0.  0.
        -12    1    1    2    0    0 -0.34371283446E+02 -0.15358982002E+02  0.21594814545E+02  0.43400685122E+02  0.00000000000E+00 0.  1.
         11    1    3    3    0    0  0.17843103546E+02  0.34670895070E+01 -0.17138523576E+02  0.24982514774E+02  0.51100000000E-03 0. -1.
        -11    1    3    3    0    0  0.62235665809E+00  0.84007766248E+00  0.21089523038E+01  0.23538773056E+01  0.51100000000E-03 0.  1.
         12    1    3    3    0    0  0.15905823242E+02  0.11051814833E+02 -0.65652432724E+01  0.20450922798E+02  0.00000000000E+00 0. -1.
</event>
<event>
 7    1  0.2811980E-010  0.4778728E+02  0.7816164E-02  0.1312668E+00
        -11   -1    0    0    0    0  0.00000000000E+00  0.00000000000E+00  0.45593999997E+02  0.45594000000E+02  0.51100000000E-03 0. -1.
         11   -1    0    0    0    0 -0.00000000000E+00 -0.00000000000E+00 -0.45593999997E+02  0.45594000000E+02  0.51100000000E-03 0.  1.
    9900012    2    1    2    0    0  0.90887700653E-01  0.42551747148E+02  0.85418548167E+01  0.47787277314E+02  0.20000028587E+02 0.  0.
        -12    1    1    2    0    0 -0.90887700653E-01 -0.42551747148E+02 -0.85418548167E+01  0.43400722686E+02  0.00000000000E+00 0.  1.
         11    1    3    3    0    0  0.37110461721E+01  0.38761020348E+02  0.47423062853E+01  0.39225986683E+02  0.51100000000E-03 0. -1.
        -11    1    3    3    0    0 -0.47157784492E+01  0.42475991762E+01  0.25558159290E+01  0.68419924341E+01  0.51100000000E-03 0.  1.
        -12    1    3    3    0    0  0.10956199777E+01 -0.45687237624E+00  0.12437326024E+01  0.17192981969E+01  0.00000000000E+00 0.  1.
</event>
<event>
 7    1  0.2811980E-010  0.4778727E+02  0.7816164E-02  0.1312668E+00
        -11   -1    0    0    0    0  0.00000000000E+00  0.00000000000E+00  0.45593999997E+02  0.45594000000E+02  0.51100000000E-03 0. -1.
         11   -1    0    0    0    0 -0.00000000000E+00 -0.00000000000E+00 -0.45593999997E+02  0.45594000000E+02  0.51100000000E-03 0.  1.
    9900012    2    1    2    0    0  0.15773677089E+01 -0.42038434848E+02  0.10672625136E+02  0.47787273962E+02  0.20000013302E+02 0.  0.
        -12    1    1    2    0    0 -0.15773677089E+01  0.42038434848E+02 -0.10672625136E+02  0.43400726038E+02  0.00000000000E+00 0.  1.
         11    1    3    3    0    0 -0.37752689215E+01 -0.11643771765E+02  0.35711800776E+01  0.12750819728E+02  0.51100000000E-03 0. -1.
        -11    1    3    3    0    0 -0.28707422845E+01 -0.23186696379E+02  0.52362732976E+01  0.23943320751E+02  0.51100000000E-03 0.  1.
        -12    1    3    3    0    0  0.82233789149E+01 -0.72079667037E+01  0.18651717609E+01  0.11093133483E+02  0.00000000000E+00 0.  1.
</event>
<event>
 7    1  0.2811980E-010  0.4778727E+02  0.7816164E-02  0.1312668E+00
        -11   -1    0    0    0    0  0.00000000000E+00  0.00000000000E+00  0.45593999997E+02  0.45594000000E+02  0.51100000000E-03 0.  1.
         11   -1    0    0    0    0 -0.00000000000E+00 -0.00000000000E+00 -0.45593999997E+02  0.45594000000E+02  0.51100000000E-03 0. -1.
    9900012    2    1    2    0    0 -0.16212349774E+02 -0.26194147006E+02 -0.30572040118E+02  0.47787271210E+02  0.20000000753E+02 0.  0.
        -12    1    1    2    0    0  0.16212349774E+02  0.26194147006E+02  0.30572040118E+02  0.43400728790E+02  0.00000000000E+00 0.  1.
         11    1    3    3    0    0  0.17827514224E+01 -0.59504191852E+01 -0.13502945501E+02  0.14863217302E+02  0.51100000000E-03 0. -1.
        -11    1    3    3    0    0 -0.18549027127E+02 -0.19987689525E+02 -0.17274992394E+02  0.32280017076E+02  0.51100000000E-03 0.  1.
        -12    1    3    3    0    0  0.55392593120E+00 -0.25603829644E+00  0.20589777731E+00  0.64403683218E+00  0.00000000000E+00 0.  1.
</event>
<event>
 7    1  0.2811980E-010  0.4778726E+02  0.7816164E-02  0.1312668E+00
        -11   -1    0    0    0    0  0.00000000000E+00  0.00000000000E+00  0.45593999997E+02  0.45594000000E+02  0.51100000000E-03 0.  1.
         11   -1    0    0    0    0 -0.00000000000E+00 -0.00000000000E+00 -0.45593999997E+02  0.45594000000E+02  0.51100000000E-03 0. -1.
    9900012    2    1    2    0    0 -0.32443731360E+02 -0.20181964162E+02 -0.20584376255E+02  0.47787263511E+02  0.19999965651E+02 0.  0.
        -12    1    1    2    0    0  0.32443731360E+02  0.20181964162E+02  0.20584376255E+02  0.43400736489E+02  0.00000000000E+00 0.  1.
         11    1    3    3    0    0 -0.40468904952E+01 -0.21911829378E+01 -0.40424802000E+00  0.46197426411E+01  0.51100000000E-03 0. -1.
        -11    1    3    3    0    0 -0.10396223627E+02  0.13674909858E+00 -0.12970035302E+02  0.16622935421E+02  0.51100000000E-03 0.  1.
        -12    1    3    3    0    0 -0.18000617238E+02 -0.18127530322E+02 -0.72100929330E+01  0.26544585449E+02  0.00000000000E+00 0.  1.
</event>
<event>
 7    1  0.2811980E-010  0.4778726E+02  0.7816164E-02  0.1312668E+00
        -11   -1    0    0    0    0  0.00000000000E+00  0.00000000000E+00  0.45593999997E+02  0.45594000000E+02  0.51100000000E-03 0.  1.
         11   -1    0    0    0    0 -0.00000000000E+00 -0.00000000000E+00 -0.45593999997E+02  0.45594000000E+02  0.51100000000E-03 0. -1.
    9900012    2    1    2    0    0  0.31030520131E+02 -0.15320794677E+02 -0.26191684897E+02  0.47787259374E+02  0.19999946790E+02 0.  0.
        -12    1    1    2    0    0 -0.31030520131E+02  0.15320794677E+02  0.26191684897E+02  0.43400740626E+02  0.00000000000E+00 0.  1.
         11    1    3    3    0    0  0.26675782238E+01 -0.25642619832E+01 -0.12075679117E+02  0.12629863003E+02  0.51100000000E-03 0. -1.
        -11    1    3    3    0    0  0.22557213887E+02 -0.61675225865E+01 -0.10954409551E+02  0.25823735634E+02  0.51100000000E-03 0.  1.
         12    1    3    3    0    0  0.58057280198E+01 -0.65890101075E+01 -0.31615962300E+01  0.93336607372E+01  0.00000000000E+00 0. -1.
</event>
<event>
 7    1  0.2811980E-010  0.4778727E+02  0.7816164E-02  0.1312668E+00
        -11   -1    0    0    0    0  0.00000000000E+00  0.00000000000E+00  0.45593999997E+02  0.45594000000E+02  0.51100000000E-03 0.  1.
         11   -1    0    0    0    0 -0.00000000000E+00 -0.00000000000E+00 -0.45593999997E+02  0.45594000000E+02  0.51100000000E-03 0. -1.
    9900012    2    1    2    0    0  0.27115633595E+01  0.24435762829E+02 -0.35765406859E+02  0.47787269491E+02  0.19999992919E+02 0.  0.
        -12    1    1    2    0    0 -0.27115633595E+01 -0.24435762829E+02  0.35765406859E+02  0.43400730509E+02  0.00000000000E+00 0.  1.
         11    1    3    3    0    0 -0.66749792848E+01  0.63355180188E+01 -0.16845674419E+02  0.19195595430E+02  0.51100000000E-03 0. -1.
        -11    1    3    3    0    0  0.53795604056E+01  0.16058850581E+02 -0.15162264922E+02  0.22731489832E+02  0.51100000000E-03 0.  1.
         12    1    3    3    0    0  0.40069822387E+01  0.20413942292E+01 -0.37574675182E+01  0.58601842301E+01  0.00000000000E+00 0. -1.
</event>
<event>
 7    1  0.2811980E-010  0.4778728E+02  0.7816164E-02  0.1312668E+00
        -11   -1    0    0    0    0  0.00000000000E+00  0.00000000000E+00  0.45593999997E+02  0.45594000000E+02  0.51100000000E-03 0. -1.
         11   -1    0    0    0    0 -0.00000000000E+00 -0.00000000000E+00 -0.45593999997E+02  0.45594000000E+02  0.51100000000E-03 0.  1.
    9900012    2    1    2    0    0 -0.88553617130E+01 -0.40337531885E+02  0.13344993036E+02  0.47787277094E+02  0.20000027581E+02 0.  0.
        -12    1    1    2    0    0  0.88553617130E+01  0.40337531885E+02 -0.13344993036E+02  0.43400722906E+02  0.00000000000E+00 0.  1.
         11    1    3    3    0    0 -0.67026164188E+01 -0.26329046036E+01  0.45746345382E+00  0.72157138650E+01  0.51100000000E-03 0.  1.
        -11    1    3    3    0    0  0.11537120870E+01 -0.83529979210E+00  0.78340740188E+00  0.16255782789E+01  0.51100000000E-03 0. -1.
         12    1    3    3    0    0 -0.33064573812E+01 -0.36869327489E+02  0.12104122181E+02  0.38945984950E+02  0.00000000000E+00 0. -1.
</event>
<event>
 7    1  0.2811980E-010  0.4778727E+02  0.7816164E-02  0.1312668E+00
        -11   -1    0    0    0    0  0.00000000000E+00  0.00000000000E+00  0.45593999997E+02  0.45594000000E+02  0.51100000000E-03 0.  1.
         11   -1    0    0    0    0 -0.00000000000E+00 -0.00000000000E+00 -0.45593999997E+02  0.45594000000E+02  0.51100000000E-03 0. -1.
    9900012    2    1    2    0    0  0.35635840611E+02 -0.22999724415E+02  0.92044908191E+01  0.47787272927E+02  0.20000008584E+02 0.  0.
        -12    1    1    2    0    0 -0.35635840611E+02  0.22999724415E+02 -0.92044908191E+01  0.43400727073E+02  0.00000000000E+00 0.  1.
         11    1    3    3    0    0  0.24666819669E+02 -0.10657125295E+02  0.97283046587E+01  0.28577372586E+02  0.51100000000E-03 0. -1.
        -11    1    3    3    0    0  0.29620780065E+01 -0.10440240983E+02  0.76735400222E+00  0.10879401193E+02  0.51100000000E-03 0.  1.
        -12    1    3    3    0    0  0.80069429356E+01 -0.19023581365E+01 -0.12911678418E+01  0.83304991476E+01  0.00000000000E+00 0.  1.
</event>
<event>
 7    1  0.2811980E-010  0.4778727E+02  0.7816164E-02  0.1312668E+00
        -11   -1    0    0    0    0  0.00000000000E+00  0.00000000000E+00  0.45593999997E+02  0.45594000000E+02  0.51100000000E-03 0. -1.
         11   -1    0    0    0    0 -0.00000000000E+00 -0.00000000000E+00 -0.45593999997E+02  0.45594000000E+02  0.51100000000E-03 0.  1.
    9900012    2    1    2    0    0 -0.89983473675E+01 -0.25307249992E+02  0.34090997248E+02  0.47787271309E+02  0.20000001207E+02 0.  0.
        -12    1    1    2    0    0  0.89983473675E+01  0.25307249992E+02 -0.34090997248E+02  0.43400728691E+02  0.00000000000E+00 0.  1.
         11    1    3    3    0    0 -0.13291179439E+02 -0.19804999026E+02  0.17740797657E+02  0.29725903503E+02  0.51100000000E-03 0. -1.
        -11    1    3    3    0    0  0.42772204549E+01 -0.54395611050E+01  0.13141507786E+02  0.14852025687E+02  0.51100000000E-03 0.  1.
         12    1    3    3    0    0  0.15611616945E-01 -0.62689861179E-01  0.32086918046E+01  0.32093421192E+01  0.00000000000E+00 0. -1.
</event>
<event>
 7    1  0.2811980E-010  0.4778727E+02  0.7816164E-02  0.1312668E+00
        -11   -1    0    0    0    0  0.00000000000E+00  0.00000000000E+00  0.45593999997E+02  0.45594000000E+02  0.51100000000E-03 0.  1.
         11   -1    0    0    0    0 -0.00000000000E+00 -0.00000000000E+00 -0.45593999997E+02  0.45594000000E+02  0.51100000000E-03 0. -1.
    9900012    2    1    2    0    0 -0.12918503126E+02 -0.26240681346E+02 -0.32064973468E+02  0.47787267241E+02  0.19999982658E+02 0.  0.
        -12    1    1    2    0    0  0.12918503126E+02  0.26240681346E+02  0.32064973468E+02  0.43400732759E+02  0.00000000000E+00 0.  1.
         11    1    3    3    0    0  0.11134442848E+00 -0.10600891296E+02 -0.17021084199E+02  0.20052645746E+02  0.51100000000E-03 0. -1.
        -11    1    3    3    0    0 -0.12236459681E+02 -0.12747975151E+02 -0.67507349647E+01  0.18915978400E+02  0.51100000000E-03 0.  1.
        -12    1    3    3    0    0 -0.79338787325E+00 -0.28918148992E+01 -0.82931543037E+01  0.88186430948E+01  0.00000000000E+00 0.  1.
</event>
<event>
 7    1  0.2811980E-010  0.4778725E+02  0.7816164E-02  0.1312668E+00
        -11   -1    0    0    0    0  0.00000000000E+00  0.00000000000E+00  0.45593999997E+02  0.45594000000E+02  0.51100000000E-03 0.  1.
         11   -1    0    0    0    0 -0.00000000000E+00 -0.00000000000E+00 -0.45593999997E+02  0.45594000000E+02  0.51100000000E-03 0. -1.
    9900012    2    1    2    0    0  0.21093788283E+02  0.14146491442E+02 -0.35193094092E+02  0.47787251204E+02  0.19999909541E+02 0.  0.
        -12    1    1    2    0    0 -0.21093788283E+02 -0.14146491442E+02  0.35193094092E+02  0.43400748796E+02  0.00000000000E+00 0.  1.
         11    1    3    3    0    0  0.55161714621E+01  0.54841219213E+01 -0.16601258223E+02  0.18333180730E+02  0.51100000000E-03 0. -1.
        -11    1    3    3    0    0  0.43149951188E+01 -0.84242311543E+00  0.14030612832E+01  0.46149150378E+01  0.51100000000E-03 0.  1.
        -12    1    3    3    0    0  0.11262621702E+02  0.95047926363E+01 -0.19994897152E+02  0.24839155436E+02  0.00000000000E+00 0.  1.
</event>
<event>
 7    1  0.2811980E-010  0.4778727E+02  0.7816164E-02  0.1312668E+00
        -11   -1    0    0    0    0  0.00000000000E+00  0.00000000000E+00  0.45593999997E+02  0.45594000000E+02  0.51100000000E-03 0. -1.
         11   -1    0    0    0    0 -0.00000000000E+00 -0.00000000000E+00 -0.45593999997E+02  0.45594000000E+02  0.51100000000E-03 0.  1.
    9900012    2    1    2    0    0 -0.23411004793E+02  0.16358458730E+02  0.32679489401E+02  0.47787270225E+02  0.19999996266E+02 0.  0.
        -12    1    1    2    0    0  0.23411004793E+02 -0.16358458730E+02 -0.32679489401E+02  0.43400729775E+02  0.00000000000E+00 0.  1.
         11    1    3    3    0    0 -0.14359210443E+01 -0.34956865810E+01  0.11176730462E+01  0.39409246653E+01  0.51100000000E-03 0.  1.
        -11    1    3    3    0    0 -0.51759305621E+01  0.89861873781E+01  0.12073328415E+02  0.15915623772E+02  0.51100000000E-03 0. -1.
         12    1    3    3    0    0 -0.16799153187E+02  0.10867957932E+02  0.19488487940E+02  0.27930721788E+02  0.00000000000E+00 0. -1.
</event>
<event>
 7    1  0.2811980E-010  0.4778727E+02  0.7816164E-02  0.1312668E+00
        -11   -1    0    0    0    0  0.00000000000E+00  0.00000000000E+00  0.45593999997E+02  0.45594000000E+02  0.51100000000E-03 0.  1.
         11   -1    0    0    0    0 -0.00000000000E+00 -0.00000000000E+00 -0.45593999997E+02  0.45594000000E+02  0.51100000000E-03 0. -1.
    9900012    2    1    2    0    0 -0.12787973370E+02 -0.37489368843E+02  0.17738040070E+02  0.47787272994E+02  0.20000008888E+02 0.  0.
        -12    1    1    2    0    0  0.12787973370E+02  0.37489368843E+02 -0.17738040070E+02  0.43400727006E+02  0.00000000000E+00 0.  1.
         11    1    3    3    0    0  0.28702641814E+01 -0.12670991368E+02  0.28089240441E+01  0.13292196705E+02  0.51100000000E-03 0. -1.
        -11    1    3    3    0    0 -0.14374869252E+02 -0.25385002241E+02  0.15434510208E+02  0.33003928712E+02  0.51100000000E-03 0.  1.
        -12    1    3    3    0    0 -0.12833682987E+01  0.56662476585E+00 -0.50539418194E+00  0.14911475763E+01  0.00000000000E+00 0.  1.
</event>
<event>
 7    1  0.2811980E-010  0.4778727E+02  0.7816164E-02  0.1312668E+00
        -11   -1    0    0    0    0  0.00000000000E+00  0.00000000000E+00  0.45593999997E+02  0.45594000000E+02  0.51100000000E-03 0.  1.
         11   -1    0    0    0    0 -0.00000000000E+00 -0.00000000000E+00 -0.45593999997E+02  0.45594000000E+02  0.51100000000E-03 0. -1.
    9900012    2    1    2    0    0  0.40255920781E+02  0.54828394205E+01 -0.15265080839E+02  0.47787269833E+02  0.19999994476E+02 0.  0.
        -12    1    1    2    0    0 -0.40255920781E+02 -0.54828394205E+01  0.15265080839E+02  0.43400730167E+02  0.00000000000E+00 0.  1.
         11    1    3    3    0    0  0.29024845555E+02 -0.30604114544E+01 -0.37107996856E+01  0.29420703804E+02  0.51100000000E-03 0. -1.
        -11    1    3    3    0    0  0.47905130226E+01  0.47647171940E+01 -0.62813748184E+01  0.92253571654E+01  0.51100000000E-03 0.  1.
         12    1    3    3    0    0  0.64405622034E+01  0.37785336808E+01 -0.52729063348E+01  0.91412088636E+01  0.00000000000E+00 0. -1.
</event>
<event>
 7    1  0.2811980E-010  0.4778727E+02  0.7816164E-02  0.1312668E+00
        -11   -1    0    0    0    0  0.00000000000E+00  0.00000000000E+00  0.45593999997E+02  0.45594000000E+02  0.51100000000E-03 0.  1.
         11   -1    0    0    0    0 -0.00000000000E+00 -0.00000000000E+00 -0.45593999997E+02  0.45594000000E+02  0.51100000000E-03 0. -1.
    9900012    2    1    2    0    0 -0.23416518756E+02  0.11503000670E+02 -0.34683871715E+02  0.47787270372E+02  0.19999996936E+02 0.  0.
        -12    1    1    2    0    0  0.23416518756E+02 -0.11503000670E+02  0.34683871715E+02  0.43400729628E+02  0.00000000000E+00 0.  1.
         11    1    3    3    0    0 -0.18741735529E+02  0.98790684654E+01 -0.18064909506E+02  0.27842226925E+02  0.51100000000E-03 0. -1.
        -11    1    3    3    0    0  0.24320709552E+01  0.28905348823E+01 -0.50084802353E+01  0.62733591931E+01  0.51100000000E-03 0.  1.
         12    1    3    3    0    0 -0.71068541816E+01 -0.12666026776E+01 -0.11610481974E+02  0.13671684255E+02  0.00000000000E+00 0. -1.
</event>
<event>
 7    1  0.2811980E-010  0.4778724E+02  0.7816164E-02  0.1312668E+00
        -11   -1    0    0    0    0  0.00000000000E+00  0.00000000000E+00  0.45593999997E+02  0.45594000000E+02  0.51100000000E-03 0.  1.
         11   -1    0    0    0    0 -0.00000000000E+00 -0.00000000000E+00 -0.45593999997E+02  0.45594000000E+02  0.51100000000E-03 0. -1.
    9900012    2    1    2    0    0  0.42886240814E+02  0.64557945915E+01 -0.16489108302E+01  0.47787241459E+02  0.19999865108E+02 0.  0.
        -12    1    1    2    0    0 -0.42886240814E+02 -0.64557945915E+01  0.16489108302E+01  0.43400758541E+02  0.00000000000E+00 0.  1.
         11    1    3    3    0    0  0.17583745139E+02  0.20694677012E+01 -0.47192550601E+01  0.18323268220E+02  0.51100000000E-03 0. -1.
        -11    1    3    3    0    0  0.72572379081E+01 -0.51447300413E+01  0.90065345966E+00  0.89413045003E+01  0.51100000000E-03 0.  1.
        -12    1    3    3    0    0  0.18045257767E+02  0.95310569315E+01  0.21696907703E+01  0.20522668738E+02  0.00000000000E+00 0.  1.
</event>
<event>
 7    1  0.2811980E-010  0.4778729E+02  0.7816164E-02  0.1312668E+00
        -11   -1    0    0    0    0  0.00000000000E+00  0.00000000000E+00  0.45593999997E+02  0.45594000000E+02  0.51100000000E-03 0.  1.
         11   -1    0    0    0    0 -0.00000000000E+00 -0.00000000000E+00 -0.45593999997E+02  0.45594000000E+02  0.51100000000E-03 0. -1.
    9900012    2    1    2    0    0  0.14320151337E+02  0.10948965436E+02 -0.39480059032E+02  0.47787289872E+02  0.20000085842E+02 0.  0.
        -12    1    1    2    0    0 -0.14320151337E+02 -0.10948965436E+02  0.39480059032E+02  0.43400710128E+02  0.00000000000E+00 0.  1.
         11    1    3    3    0    0  0.11274501396E+02  0.13251852115E+02 -0.26776670675E+02  0.31932993265E+02  0.51100000000E-03 0. -1.
        -11    1    3    3    0    0  0.35935741293E+01  0.32276557943E+00 -0.12668057610E+02  0.13171850155E+02  0.51100000000E-03 0.  1.
         12    1    3    3    0    0 -0.54792418834E+00 -0.26256522593E+01 -0.35330747957E-01  0.26824464514E+01  0.00000000000E+00 0. -1.
</event>
<event>
 7    1  0.2811980E-010  0.4778727E+02  0.7816164E-02  0.1312668E+00
        -11   -1    0    0    0    0  0.00000000000E+00  0.00000000000E+00  0.45593999997E+02  0.45594000000E+02  0.51100000000E-03 0.  1.
         11   -1    0    0    0    0 -0.00000000000E+00 -0.00000000000E+00 -0.45593999997E+02  0.45594000000E+02  0.51100000000E-03 0. -1.
    9900012    2    1    2    0    0  0.92304197041E+01 -0.28565854095E+02 -0.31343490073E+02  0.47787273762E+02  0.20000012390E+02 0.  0.
        -12    1    1    2    0    0 -0.92304197041E+01  0.28565854095E+02  0.31343490073E+02  0.43400726238E+02  0.00000000000E+00 0.  1.
         11    1    3    3    0    0  0.97859145703E+01 -0.12612363483E+02 -0.23233976600E+02  0.28189599243E+02  0.51100000000E-03 0. -1.
        -11    1    3    3    0    0  0.20286218173E+01 -0.23215200380E+01  0.70135268071E+00  0.31617491375E+01  0.51100000000E-03 0.  1.
         12    1    3    3    0    0 -0.25841166835E+01 -0.13631970574E+02 -0.88108661536E+01  0.16435925381E+02  0.00000000000E+00 0. -1.
</event>
<event>
 7    1  0.2811980E-010  0.4778729E+02  0.7816164E-02  0.1312668E+00
        -11   -1    0    0    0    0  0.00000000000E+00  0.00000000000E+00  0.45593999997E+02  0.45594000000E+02  0.51100000000E-03 0. -1.
         11   -1    0    0    0    0 -0.00000000000E+00 -0.00000000000E+00 -0.45593999997E+02  0.45594000000E+02  0.51100000000E-03 0.  1.
    9900012    2    1    2    0    0  0.36805750110E+02 -0.20694583926E+02  0.10034579423E+02  0.47787287688E+02  0.20000075885E+02 0.  0.
        -12    1    1    2    0    0 -0.36805750110E+02  0.20694583926E+02 -0.10034579423E+02  0.43400712312E+02  0.00000000000E+00 0.  1.
         11    1    3    3    0    0  0.14672136174E+02 -0.67265207980E+01  0.27847373002E+01  0.16379023904E+02  0.51100000000E-03 0. -1.
        -11    1    3    3    0    0  0.30406803181E+01 -0.46995824798E+01  0.84667021602E+01  0.10149722066E+02  0.51100000000E-03 0.  1.
        -12    1    3    3    0    0  0.19092933618E+02 -0.92684806478E+01 -0.12168600370E+01  0.21258541719E+02  0.00000000000E+00 0.  1.
</event>
<event>
 7    1  0.2811980E-010  0.4778727E+02  0.7816164E-02  0.1312668E+00
        -11   -1    0    0    0    0  0.00000000000E+00  0.00000000000E+00  0.45593999997E+02  0.45594000000E+02  0.51100000000E-03 0.  1.
         11   -1    0    0    0    0 -0.00000000000E+00 -0.00000000000E+00 -0.45593999997E+02  0.45594000000E+02  0.51100000000E-03 0. -1.
    9900012    2    1    2    0    0  0.97612017624E+01  0.40858641186E+02 -0.10904766221E+02  0.47787267913E+02  0.19999985721E+02 0.  0.
        -12    1    1    2    0    0 -0.97612017624E+01 -0.40858641186E+02  0.10904766221E+02  0.43400732087E+02  0.00000000000E+00 0.  1.
         11    1    3    3    0    0 -0.43279978076E+01  0.21271556847E+02 -0.84377341899E+01  0.23289612583E+02  0.51100000000E-03 0. -1.
        -11    1    3    3    0    0 -0.10305432064E+00  0.25646810270E+00  0.23765502690E+00  0.36452195220E+00  0.51100000000E-03 0.  1.
         12    1    3    3    0    0  0.14192253891E+02  0.19330616236E+02 -0.27046870578E+01  0.24133133378E+02  0.00000000000E+00 0. -1.
</event>
<event>
 7    1  0.2811980E-010  0.4778730E+02  0.7816164E-02  0.1312668E+00
        -11   -1    0    0    0    0  0.00000000000E+00  0.00000000000E+00  0.45593999997E+02  0.45594000000E+02  0.51100000000E-03 0.  1.
         11   -1    0    0    0    0 -0.00000000000E+00 -0.00000000000E+00 -0.45593999997E+02  0.45594000000E+02  0.51100000000E-03 0. -1.
    9900012    2    1    2    0    0 -0.21075497463E+02  0.34368582129E+01 -0.37784021228E+02  0.47787298994E+02  0.20000127433E+02 0.  0.
        -12    1    1    2    0    0  0.21075497463E+02 -0.34368582129E+01  0.37784021228E+02  0.43400701006E+02  0.00000000000E+00 0.  1.
         11    1    3    3    0    0  0.79928447955E-02  0.53558380812E+01 -0.51886410258E+01  0.74570142412E+01  0.51100000000E-03 0.  1.
        -11    1    3    3    0    0 -0.12504185215E+02 -0.20681224189E+01 -0.27674893407E+02  0.30438980003E+02  0.51100000000E-03 0. -1.
         12    1    3    3    0    0 -0.85793050923E+01  0.14914255065E+00 -0.49204867942E+01  0.98913047501E+01  0.00000000000E+00 0. -1.
</event>
<event>
 7    1  0.2811980E-010  0.4778727E+02  0.7816164E-02  0.1312668E+00
        -11   -1    0    0    0    0  0.00000000000E+00  0.00000000000E+00  0.45593999997E+02  0.45594000000E+02  0.51100000000E-03 0.  1.
         11   -1    0    0    0    0 -0.00000000000E+00 -0.00000000000E+00 -0.45593999997E+02  0.45594000000E+02  0.51100000000E-03 0. -1.
    9900012    2    1    2    0    0 -0.20178688441E+02 -0.37572881440E+02 -0.80450278544E+01  0.47787270051E+02  0.19999995472E+02 0.  0.
        -12    1    1    2    0    0  0.20178688441E+02  0.37572881440E+02  0.80450278544E+01  0.43400729949E+02  0.00000000000E+00 0.  1.
         11    1    3    3    0    0 -0.17806832378E+02 -0.28001587029E+02  0.12034648026E+01  0.33205729675E+02  0.51100000000E-03 0. -1.
        -11    1    3    3    0    0  0.14987823373E+01 -0.17539910669E+01 -0.32873624125E+01  0.40161654659E+01  0.51100000000E-03 0.  1.
         12    1    3    3    0    0 -0.38706384002E+01 -0.78173033441E+01 -0.59611302445E+01  0.10565374910E+02  0.00000000000E+00 0. -1.
</event>
<event>
 7    1  0.2811980E-010  0.4778727E+02  0.7816164E-02  0.1312668E+00
        -11   -1    0    0    0    0  0.00000000000E+00  0.00000000000E+00  0.45593999997E+02  0.45594000000E+02  0.51100000000E-03 0.  1.
         11   -1    0    0    0    0 -0.00000000000E+00 -0.00000000000E+00 -0.45593999997E+02  0.45594000000E+02  0.51100000000E-03 0. -1.
    9900012    2    1    2    0    0 -0.13382711772E+02  0.31494504133E+02 -0.26694990546E+02  0.47787270914E+02  0.19999999406E+02 0.  0.
        -12    1    1    2    0    0  0.13382711772E+02 -0.31494504133E+02  0.26694990546E+02  0.43400729086E+02  0.00000000000E+00 0.  1.
         11    1    3    3    0    0 -0.10027692852E+02  0.15177849088E+02 -0.18231145315E+02  0.25754541087E+02  0.51100000000E-03 0. -1.
        -11    1    3    3    0    0  0.28175655577E+01  0.13003415828E+02 -0.61224336292E+01  0.14646217691E+02  0.51100000000E-03 0.  1.
        -12    1    3    3    0    0 -0.61725844770E+01  0.33132392175E+01 -0.23414116019E+01  0.73865121354E+01  0.00000000000E+00 0.  1.
</event>
<event>
 7    1  0.2811980E-010  0.4778725E+02  0.7816164E-02  0.1312668E+00
        -11   -1    0    0    0    0  0.00000000000E+00  0.00000000000E+00  0.45593999997E+02  0.45594000000E+02  0.51100000000E-03 0.  1.
         11   -1    0    0    0    0 -0.00000000000E+00 -0.00000000000E+00 -0.45593999997E+02  0.45594000000E+02  0.51100000000E-03 0. -1.
    9900012    2    1    2    0    0 -0.22735150915E+02  0.31287712119E+02 -0.19693076864E+02  0.47787247782E+02  0.19999893936E+02 0.  0.
        -12    1    1    2    0    0  0.22735150915E+02 -0.31287712119E+02  0.19693076864E+02  0.43400752218E+02  0.00000000000E+00 0.  1.
         11    1    3    3    0    0 -0.12008718410E+02  0.11435623766E+02 -0.17148834150E+02  0.23855090059E+02  0.51100000000E-03 0. -1.
        -11    1    3    3    0    0 -0.11661359745E+02  0.19590682681E+02 -0.26647056387E+01  0.22953928104E+02  0.51100000000E-03 0.  1.
        -12    1    3    3    0    0  0.93492724047E+00  0.26140567152E+00  0.12046292446E+00  0.97822961836E+00  0.00000000000E+00 0.  1.
</event>
<event>
 7    1  0.2811980E-010  0.4778728E+02  0.7816164E-02  0.1312668E+00
        -11   -1    0    0    0    0  0.00000000000E+00  0.00000000000E+00  0.45593999997E+02  0.45594000000E+02  0.51100000000E-03 0.  1.
         11   -1    0    0    0    0 -0.00000000000E+00 -0.00000000000E+00 -0.45593999997E+02  0.45594000000E+02  0.51100000000E-03 0. -1.
    9900012    2    1    2    0    0 -0.35821917326E+02 -0.22286126801E+02 -0.10185361857E+02  0.47787276448E+02  0.20000024635E+02 0.  0.
        -12    1    1    2    0    0  0.35821917326E+02  0.22286126801E+02  0.10185361857E+02  0.43400723552E+02  0.00000000000E+00 0.  1.
         11    1    3    3    0    0 -0.19398435548E+02 -0.20124342582E+02 -0.93876795434E+01  0.29485877866E+02  0.51100000000E-03 0. -1.
        -11    1    3    3    0    0 -0.34614675108E+01  0.21660085676E+01  0.16760319603E+01  0.44138910086E+01  0.51100000000E-03 0.  1.
        -12    1    3    3    0    0 -0.12962014268E+02 -0.43277927869E+01 -0.24737142742E+01  0.13887507573E+02  0.00000000000E+00 0.  1.
</event>
<event>
 7    1  0.2811980E-010  0.4778727E+02  0.7816164E-02  0.1312668E+00
        -11   -1    0    0    0    0  0.00000000000E+00  0.00000000000E+00  0.45593999997E+02  0.45594000000E+02  0.51100000000E-03 0.  1.
         11   -1    0    0    0    0 -0.00000000000E+00 -0.00000000000E+00 -0.45593999997E+02  0.45594000000E+02  0.51100000000E-03 0. -1.
    9900012    2    1    2    0    0 -0.28560892030E+02 -0.31860268199E+02  0.72678723433E+01  0.47787271761E+02  0.20000003266E+02 0.  0.
        -12    1    1    2    0    0  0.28560892030E+02  0.31860268199E+02 -0.72678723433E+01  0.43400728239E+02  0.00000000000E+00 0.  1.
         11    1    3    3    0    0 -0.92918398586E+01 -0.10600554282E+02  0.10850968481E+02  0.17789141527E+02  0.51100000000E-03 0. -1.
        -11    1    3    3    0    0  0.55669904814E+00 -0.83393674423E-01  0.43660319382E+00  0.71238398713E+00  0.51100000000E-03 0.  1.
         12    1    3    3    0    0 -0.19825751220E+02 -0.21176320243E+02 -0.40196993319E+01  0.29285746246E+02  0.00000000000E+00 0. -1.
</event>
<event>
 7    1  0.2811980E-010  0.4778726E+02  0.7816164E-02  0.1312668E+00
        -11   -1    0    0    0    0  0.00000000000E+00  0.00000000000E+00  0.45593999997E+02  0.45594000000E+02  0.51100000000E-03 0.  1.
         11   -1    0    0    0    0 -0.00000000000E+00 -0.00000000000E+00 -0.45593999997E+02  0.45594000000E+02  0.51100000000E-03 0. -1.
    9900012    2    1    2    0    0  0.17026336164E+02 -0.16527982952E+02 -0.36339426229E+02  0.47787259888E+02  0.19999949134E+02 0.  0.
        -12    1    1    2    0    0 -0.17026336164E+02  0.16527982952E+02  0.36339426229E+02  0.43400740112E+02  0.00000000000E+00 0.  1.
         11    1    3    3    0    0  0.63078078938E+00 -0.10880763400E+02 -0.15855255564E+02  0.19240011066E+02  0.51100000000E-03 0. -1.
        -11    1    3    3    0    0  0.57774531193E+01 -0.39418536758E+01 -0.21946950568E+01  0.73303384370E+01  0.51100000000E-03 0.  1.
         12    1    3    3    0    0  0.10618102255E+02 -0.17053658768E+01 -0.18289475608E+02  0.21216910385E+02  0.00000000000E+00 0. -1.
</event>
<event>
 7    1  0.2811980E-010  0.4778727E+02  0.7816164E-02  0.1312668E+00
        -11   -1    0    0    0    0  0.00000000000E+00  0.00000000000E+00  0.45593999997E+02  0.45594000000E+02  0.51100000000E-03 0.  1.
         11   -1    0    0    0    0 -0.00000000000E+00 -0.00000000000E+00 -0.45593999997E+02  0.45594000000E+02  0.51100000000E-03 0. -1.
    9900012    2    1    2    0    0 -0.29271613113E+02 -0.32035141279E+02  0.73875957084E+00  0.47787269860E+02  0.19999994598E+02 0.  0.
        -12    1    1    2    0    0  0.29271613113E+02  0.32035141279E+02 -0.73875957084E+00  0.43400730140E+02  0.00000000000E+00 0.  1.
         11    1    3    3    0    0 -0.25981533949E+02 -0.32522163932E+02  0.28994257665E+01  0.41726944810E+02  0.51100000000E-03 0. -1.
        -11    1    3    3    0    0 -0.40892385593E+01  0.78128771920E-01 -0.43233961966E+00  0.41127720467E+01  0.51100000000E-03 0.  1.
         12    1    3    3    0    0  0.79915939499E+00  0.40889388098E+00 -0.17283265760E+01  0.19475530026E+01  0.00000000000E+00 0. -1.
</event>
<event>
 7    1  0.2811980E-010  0.4778726E+02  0.7816164E-02  0.1312668E+00
        -11   -1    0    0    0    0  0.00000000000E+00  0.00000000000E+00  0.45593999997E+02  0.45594000000E+02  0.51100000000E-03 0.  1.
         11   -1    0    0    0    0 -0.00000000000E+00 -0.00000000000E+00 -0.45593999997E+02  0.45594000000E+02  0.51100000000E-03 0. -1.
    9900012    2    1    2    0    0 -0.21704243951E+02  0.34847950009E+02 -0.14077286083E+02  0.47787264882E+02  0.19999971904E+02 0.  0.
        -12    1    1    2    0    0  0.21704243951E+02 -0.34847950009E+02  0.14077286083E+02  0.43400735118E+02  0.00000000000E+00 0.  1.
         11    1    3    3    0    0 -0.93241151486E+00  0.56097951454E+01 -0.72990715403E+01  0.92528719011E+01  0.51100000000E-03 0.  1.
        -11    1    3    3    0    0 -0.17398145941E+02  0.27759750572E+02 -0.24525061875E+01  0.32852914953E+02  0.51100000000E-03 0. -1.
         12    1    3    3    0    0 -0.33736864952E+01  0.14784042911E+01 -0.43257083548E+01  0.56814780283E+01  0.00000000000E+00 0. -1.
</event>
<event>
 7    1  0.2811980E-010  0.4778727E+02  0.7816164E-02  0.1312668E+00
        -11   -1    0    0    0    0  0.00000000000E+00  0.00000000000E+00  0.45593999997E+02  0.45594000000E+02  0.51100000000E-03 0.  1.
         11   -1    0    0    0    0 -0.00000000000E+00 -0.00000000000E+00 -0.45593999997E+02  0.45594000000E+02  0.51100000000E-03 0. -1.
    9900012    2    1    2    0    0 -0.68049871823E+01  0.34510950164E+02 -0.25422626869E+02  0.47787268570E+02  0.19999988718E+02 0.  0.
        -12    1    1    2    0    0  0.68049871823E+01 -0.34510950164E+02  0.25422626869E+02  0.43400731430E+02  0.00000000000E+00 0.  1.
         11    1    3    3    0    0 -0.81463192737E+01  0.32773368541E+02 -0.18764200102E+02  0.38633552891E+02  0.51100000000E-03 0. -1.
        -11    1    3    3    0    0  0.12874189928E+01 -0.20115801040E+01 -0.16744316117E+01  0.29167831015E+01  0.51100000000E-03 0.  1.
        -12    1    3    3    0    0  0.53913098597E-01  0.37491617267E+01 -0.49839951553E+01  0.62369325781E+01  0.00000000000E+00 0.  1.
</event>
<event>
 7    1  0.2811980E-010  0.4778728E+02  0.7816164E-02  0.1312668E+00
        -11   -1    0    0    0    0  0.00000000000E+00  0.00000000000E+00  0.45593999997E+02  0.45594000000E+02  0.51100000000E-03 0.  1.
         11   -1    0    0    0    0 -0.00000000000E+00 -0.00000000000E+00 -0.45593999997E+02  0.45594000000E+02  0.51100000000E-03 0. -1.
    9900012    2    1    2    0    0  0.62851992791E+01 -0.14513889776E+02 -0.40416159090E+02  0.47787278324E+02  0.20000033190E+02 0.  0.
        -12    1    1    2    0    0 -0.62851992791E+01  0.14513889776E+02  0.40416159090E+02  0.43400721676E+02  0.00000000000E+00 0.  1.
         11    1    3    3    0    0  0.69612850214E+01 -0.60407992561E+01 -0.10156399524E+02  0.13715071868E+02  0.51100000000E-03 0. -1.
        -11    1    3    3    0    0 -0.37490955366E+01 -0.78893085781E+01 -0.29617890083E+02  0.30879059578E+02  0.51100000000E-03 0.  1.
        -12    1    3    3    0    0  0.30730097942E+01 -0.58378194159E+00 -0.64186948358E+00  0.31931468781E+01  0.00000000000E+00 0.  1.
</event>
<event>
 7    1  0.2811980E-010  0.4778727E+02  0.7816164E-02  0.1312668E+00
        -11   -1    0    0    0    0  0.00000000000E+00  0.00000000000E+00  0.45593999997E+02  0.45594000000E+02  0.51100000000E-03 0. -1.
         11   -1    0    0    0    0 -0.00000000000E+00 -0.00000000000E+00 -0.45593999997E+02  0.45594000000E+02  0.51100000000E-03 0.  1.
    9900012    2    1    2    0    0  0.77588293759E+01 -0.11316181786E+02  0.41174846687E+02  0.47787269554E+02  0.19999993204E+02 0.  0.
        -12    1    1    2    0    0 -0.77588293759E+01  0.11316181786E+02 -0.41174846687E+02  0.43400730446E+02  0.00000000000E+00 0.  1.
         11    1    3    3    0    0  0.44850652214E+01  0.31744432861E+00  0.76277301861E+01  0.88543124519E+01  0.51100000000E-03 0. -1.
        -11    1    3    3    0    0 -0.49237633249E+01 -0.10048715851E+02  0.22013615219E+02  0.24694521474E+02  0.51100000000E-03 0.  1.
        -12    1    3    3    0    0  0.81975274793E+01 -0.15849102641E+01  0.11533501282E+02  0.14238435628E+02  0.00000000000E+00 0.  1.
</event>
<event>
 7    1  0.2811980E-010  0.4778727E+02  0.7816164E-02  0.1312668E+00
        -11   -1    0    0    0    0  0.00000000000E+00  0.00000000000E+00  0.45593999997E+02  0.45594000000E+02  0.51100000000E-03 0.  1.
         11   -1    0    0    0    0 -0.00000000000E+00 -0.00000000000E+00 -0.45593999997E+02  0.45594000000E+02  0.51100000000E-03 0. -1.
    9900012    2    1    2    0    0  0.19862800717E+02  0.16087405183E+02 -0.35075458544E+02  0.47787271321E+02  0.20000001259E+02 0.  0.
        -12    1    1    2    0    0 -0.19862800717E+02 -0.16087405183E+02  0.35075458544E+02  0.43400728679E+02  0.00000000000E+00 0.  1.
         11    1    3    3    0    0  0.87336402913E+01  0.15464519322E+01 -0.41009930894E+01  0.97717005120E+01  0.51100000000E-03 0. -1.
        -11    1    3    3    0    0 -0.22757668421E+01  0.34805600170E+01 -0.96391826706E+01  0.10497964354E+02  0.51100000000E-03 0.  1.
        -12    1    3    3    0    0  0.13404927268E+02  0.11060393233E+02 -0.21335282784E+02  0.27517606455E+02  0.00000000000E+00 0.  1.
</event>
<event>
 7    1  0.2811980E-010  0.4778727E+02  0.7816164E-02  0.1312668E+00
        -11   -1    0    0    0    0  0.00000000000E+00  0.00000000000E+00  0.45593999997E+02  0.45594000000E+02  0.51100000000E-03 0.  1.
         11   -1    0    0    0    0 -0.00000000000E+00 -0.00000000000E+00 -0.45593999997E+02  0.45594000000E+02  0.51100000000E-03 0. -1.
    9900012    2    1    2    0    0  0.17067700327E+02 -0.39369879394E+02 -0.65061092635E+01  0.47787271254E+02  0.20000000956E+02 0.  0.
        -12    1    1    2    0    0 -0.17067700327E+02  0.39369879394E+02  0.65061092635E+01  0.43400728746E+02  0.00000000000E+00 0.  1.
         11    1    3    3    0    0  0.11259089958E+02 -0.26213366933E+02 -0.34501435586E+01  0.28736931003E+02  0.51100000000E-03 0. -1.
        -11    1    3    3    0    0 -0.21430994400E+01  0.96032818456E+00  0.63536128861E+00  0.24328562761E+01  0.51100000000E-03 0.  1.
        -12    1    3    3    0    0  0.79517098087E+01 -0.14116840645E+02 -0.36913269936E+01  0.16617483975E+02  0.00000000000E+00 0.  1.
</event>
<event>
 7    1  0.2811980E-010  0.4778728E+02  0.7816164E-02  0.1312668E+00
        -11   -1    0    0    0    0  0.00000000000E+00  0.00000000000E+00  0.45593999997E+02  0.45594000000E+02  0.51100000000E-03 0.  1.
         11   -1    0    0    0    0 -0.00000000000E+00 -0.00000000000E+00 -0.45593999997E+02  0.45594000000E+02  0.51100000000E-03 0. -1.
    9900012    2    1    2    0    0  0.32603118680E+02  0.18608219033E+02 -0.21780580812E+02  0.47787275769E+02  0.20000021543E+02 0.  0.
        -12    1    1    2    0    0 -0.32603118680E+02 -0.18608219033E+02  0.21780580812E+02  0.43400724231E+02  0.00000000000E+00 0.  1.
         11    1    3    3    0    0  0.18567955963E+02  0.67668001686E+01 -0.13455544082E+02  0.23908371755E+02  0.51100000000E-03 0. -1.
        -11    1    3    3    0    0  0.11232812087E+01  0.88192497707E+01 -0.16859364769E+01  0.90489396758E+01  0.51100000000E-03 0.  1.
        -12    1    3    3    0    0  0.12911881509E+02  0.30221690936E+01 -0.66391002529E+01  0.14829964339E+02  0.00000000000E+00 0.  1.
</event>
<event>
 7    1  0.2811980E-010  0.4778727E+02  0.7816164E-02  0.1312668E+00
        -11   -1    0    0    0    0  0.00000000000E+00  0.00000000000E+00  0.45593999997E+02  0.45594000000E+02  0.51100000000E-03 0.  1.
         11   -1    0    0    0    0 -0.00000000000E+00 -0.00000000000E+00 -0.45593999997E+02  0.45594000000E+02  0.51100000000E-03 0. -1.
    9900012    2    1    2    0    0 -0.56413888894E+01  0.39232775654E+02 -0.17680137189E+02  0.47787271836E+02  0.20000003609E+02 0.  0.
        -12    1    1    2    0    0  0.56413888894E+01 -0.39232775654E+02  0.17680137189E+02  0.43400728164E+02  0.00000000000E+00 0.  1.
         11    1    3    3    0    0 -0.97333053767E+00  0.16412013026E+02  0.92644151502E+00  0.16466931652E+02  0.51100000000E-03 0. -1.
        -11    1    3    3    0    0 -0.39105864912E+00  0.27272928188E+01  0.99134436611E+00  0.29281080752E+01  0.51100000000E-03 0.  1.
         12    1    3    3    0    0 -0.42769997026E+01  0.20093469810E+02 -0.19597923070E+02  0.28392232109E+02  0.00000000000E+00 0. -1.
</event>
<event>
 7    1  0.2811980E-010  0.4778728E+02  0.7816164E-02  0.1312668E+00
        -11   -1    0    0    0    0  0.00000000000E+00  0.00000000000E+00  0.45593999997E+02  0.45594000000E+02  0.51100000000E-03 0.  1.
         11   -1    0    0    0    0 -0.00000000000E+00 -0.00000000000E+00 -0.45593999997E+02  0.45594000000E+02  0.51100000000E-03 0. -1.
    9900012    2    1    2    0    0 -0.30528591572E+01  0.27176659780E+02 -0.33700623853E+02  0.47787276114E+02  0.20000023112E+02 0.  0.
        -12    1    1    2    0    0  0.30528591572E+01 -0.27176659780E+02  0.33700623853E+02  0.43400723886E+02  0.00000000000E+00 0.  1.
         11    1    3    3    0    0  0.24798539716E+01  0.23212397551E+02 -0.23590031231E+02  0.33188170326E+02  0.51100000000E-03 0. -1.
        -11    1    3    3    0    0 -0.23949212847E+01  0.23871951959E+01 -0.10532528210E+02  0.11062029633E+02  0.51100000000E-03 0.  1.
         12    1    3    3    0    0 -0.31377918441E+01  0.15770670324E+01  0.42193558835E+00  0.35370761545E+01  0.00000000000E+00 0. -1.
</event>
<event>
 7    1  0.2811980E-010  0.4778727E+02  0.7816164E-02  0.1312668E+00
        -11   -1    0    0    0    0  0.00000000000E+00  0.00000000000E+00  0.45593999997E+02  0.45594000000E+02  0.51100000000E-03 0.  1.
         11   -1    0    0    0    0 -0.00000000000E+00 -0.00000000000E+00 -0.45593999997E+02  0.45594000000E+02  0.51100000000E-03 0. -1.
    9900012    2    1    2    0    0  0.20280088446E+02  0.30795769251E+02 -0.22890212723E+02  0.47787271554E+02  0.20000002323E+02 0.  0.
        -12    1    1    2    0    0 -0.20280088446E+02 -0.30795769251E+02  0.22890212723E+02  0.43400728446E+02  0.00000000000E+00 0.  1.
         11    1    3    3    0    0 -0.11416059282E+01 -0.11712199835E+01  0.87554476595E+00  0.18551547761E+01  0.51100000000E-03 0.  1.
        -11    1    3    3    0    0  0.20284067308E+02  0.27797804895E+02 -0.18334223820E+02  0.38991090097E+02  0.51100000000E-03 0. -1.
        -12    1    3    3    0    0  0.11376270664E+01  0.41691843390E+01 -0.54315336684E+01  0.69410266810E+01  0.00000000000E+00 0.  1.
</event>
<event>
 7    1  0.2811980E-010  0.4778728E+02  0.7816164E-02  0.1312668E+00
        -11   -1    0    0    0    0  0.00000000000E+00  0.00000000000E+00  0.45593999997E+02  0.45594000000E+02  0.51100000000E-03 0.  1.
         11   -1    0    0    0    0 -0.00000000000E+00 -0.00000000000E+00 -0.45593999997E+02  0.45594000000E+02  0.51100000000E-03 0. -1.
    9900012    2    1    2    0    0  0.31406358265E+01  0.25957114532E+02 -0.34640835086E+02  0.47787276000E+02  0.20000022596E+02 0.  0.
        -12    1    1    2    0    0 -0.31406358265E+01 -0.25957114532E+02  0.34640835086E+02  0.43400724000E+02  0.00000000000E+00 0.  1.
         11    1    3    3    0    0  0.20513940015E+00  0.69104730039E+01 -0.48064549016E+01  0.84201382586E+01  0.51100000000E-03 0. -1.
        -11    1    3    3    0    0  0.99863826185E+01  0.92769375653E+01 -0.15430117887E+02  0.20588296351E+02  0.51100000000E-03 0.  1.
        -12    1    3    3    0    0 -0.70508861921E+01  0.97697039626E+01 -0.14404262298E+02  0.18778841390E+02  0.00000000000E+00 0.  1.
</event>
<event>
 7    1  0.2811980E-010  0.4778726E+02  0.7816164E-02  0.1312668E+00
        -11   -1    0    0    0    0  0.00000000000E+00  0.00000000000E+00  0.45593999997E+02  0.45594000000E+02  0.51100000000E-03 0.  1.
         11   -1    0    0    0    0 -0.00000000000E+00 -0.00000000000E+00 -0.45593999997E+02  0.45594000000E+02  0.51100000000E-03 0. -1.
    9900012    2    1    2    0    0 -0.36932589259E+02  0.96155582283E+01 -0.20667579405E+02  0.47787263280E+02  0.19999964599E+02 0.  0.
        -12    1    1    2    0    0  0.36932589259E+02 -0.96155582283E+01  0.20667579405E+02  0.43400736720E+02  0.00000000000E+00 0.  1.
         11    1    3    3    0    0 -0.23393439191E+02  0.90171941058E+01 -0.39863069751E+01  0.25386087337E+02  0.51100000000E-03 0. -1.
        -11    1    3    3    0    0 -0.27169329752E+01 -0.11321646257E+00 -0.27367265443E+00  0.27330275780E+01  0.51100000000E-03 0.  1.
         12    1    3    3    0    0 -0.10822217093E+02  0.71158058505E+00 -0.16407599775E+02  0.19668148365E+02  0.00000000000E+00 0. -1.
</event>
<event>
 7    1  0.2811980E-010  0.4778732E+02  0.7816164E-02  0.1312668E+00
        -11   -1    0    0    0    0  0.00000000000E+00  0.00000000000E+00  0.45593999997E+02  0.45594000000E+02  0.51100000000E-03 0.  1.
         11   -1    0    0    0    0 -0.00000000000E+00 -0.00000000000E+00 -0.45593999997E+02  0.45594000000E+02  0.51100000000E-03 0. -1.
    9900012    2    1    2    0    0  0.34220754810E+02 -0.86276905937E+01 -0.25261079838E+02  0.47787317294E+02  0.20000210869E+02 0.  0.
        -12    1    1    2    0    0 -0.34220754810E+02  0.86276905937E+01  0.25261079838E+02  0.43400682706E+02  0.00000000000E+00 0.  1.
         11    1    3    3    0    0  0.57262638624E+01 -0.84854285847E+01 -0.36785482519E+01  0.10877697991E+02  0.51100000000E-03 0. -1.
        -11    1    3    3    0    0  0.14944912838E+02 -0.49589998483E+00 -0.56336421290E+01  0.15979182095E+02  0.51100000000E-03 0.  1.
         12    1    3    3    0    0  0.13549578110E+02  0.35363797580E+00 -0.15948889457E+02  0.20930437207E+02  0.00000000000E+00 0. -1.
</event>
<event>
 7    1  0.2811980E-010  0.4778728E+02  0.7816164E-02  0.1312668E+00
        -11   -1    0    0    0    0  0.00000000000E+00  0.00000000000E+00  0.45593999997E+02  0.45594000000E+02  0.51100000000E-03 0. -1.
         11   -1    0    0    0    0 -0.00000000000E+00 -0.00000000000E+00 -0.45593999997E+02  0.45594000000E+02  0.51100000000E-03 0.  1.
    9900012    2    1    2    0    0 -0.15983997318E+01 -0.14346257913E+02  0.40929851871E+02  0.47787276826E+02  0.20000026362E+02 0.  0.
        -12    1    1    2    0    0  0.15983997318E+01  0.14346257913E+02 -0.40929851871E+02  0.43400723174E+02  0.00000000000E+00 0.  1.
         11    1    3    3    0    0 -0.96433548192E+01 -0.42678030550E+01  0.23506979650E+02  0.25764054953E+02  0.51100000000E-03 0. -1.
        -11    1    3    3    0    0  0.81877241045E+01 -0.89511594488E+01  0.14612139311E+02  0.18991490120E+02  0.51100000000E-03 0.  1.
        -12    1    3    3    0    0 -0.14276901707E+00 -0.11272954094E+01  0.28107329094E+01  0.30317317527E+01  0.00000000000E+00 0.  1.
</event>
<event>
 7    1  0.2811980E-010  0.4778727E+02  0.7816164E-02  0.1312668E+00
        -11   -1    0    0    0    0  0.00000000000E+00  0.00000000000E+00  0.45593999997E+02  0.45594000000E+02  0.51100000000E-03 0.  1.
         11   -1    0    0    0    0 -0.00000000000E+00 -0.00000000000E+00 -0.45593999997E+02  0.45594000000E+02  0.51100000000E-03 0. -1.
    9900012    2    1    2    0    0  0.68885785212E+01  0.33990286052E+02 -0.26092747705E+02  0.47787267947E+02  0.19999985879E+02 0.  0.
        -12    1    1    2    0    0 -0.68885785212E+01 -0.33990286052E+02  0.26092747705E+02  0.43400732053E+02  0.00000000000E+00 0.  1.
         11    1    3    3    0    0 -0.16980057321E+00  0.80738176784E+01  0.11070899847E+01  0.81511356653E+01  0.51100000000E-03 0. -1.
        -11    1    3    3    0    0  0.11052239507E+01  0.29520186820E+00  0.66012742575E+00  0.13207697012E+01  0.51100000000E-03 0.  1.
         12    1    3    3    0    0  0.59531551437E+01  0.25621266505E+02 -0.27859965115E+02  0.38315362581E+02  0.00000000000E+00 0. -1.
</event>
<event>
 7    1  0.3052219E-010  0.4778727E+02  0.7816164E-02  0.1312668E+00
        -11   -1    0    0    0    0  0.00000000000E+00  0.00000000000E+00  0.45593999997E+02  0.45594000000E+02  0.51100000000E-03 0. -1.
         11   -1    0    0    0    0 -0.00000000000E+00 -0.00000000000E+00 -0.45593999997E+02  0.45594000000E+02  0.51100000000E-03 0.  1.
    9900012    2    1    2    0    0  0.41056874791E+01 -0.28226786415E+02  0.32711082319E+02  0.47787273652E+02  0.20000011891E+02 0.  0.
        -12    1    1    2    0    0 -0.41056874791E+01  0.28226786415E+02 -0.32711082319E+02  0.43400726348E+02  0.00000000000E+00 0.  1.
         11    1    3    3    0    0  0.24751223722E+01 -0.16524662469E+02  0.14281771607E+02  0.21980893998E+02  0.51100000000E-03 0. -1.
        -11    1    3    3    0    0  0.60808557815E+01 -0.18724381359E+01  0.10994349194E+02  0.12702698378E+02  0.51100000000E-03 0.  1.
        -12    1    3    3    0    0 -0.44502906747E+01 -0.98296858107E+01  0.74349615183E+01  0.13103681277E+02  0.00000000000E+00 0.  1.
</event>
<event>
 7    1  0.2811980E-010  0.4778723E+02  0.7816164E-02  0.1312668E+00
        -11   -1    0    0    0    0  0.00000000000E+00  0.00000000000E+00  0.45593999997E+02  0.45594000000E+02  0.51100000000E-03 0.  1.
         11   -1    0    0    0    0 -0.00000000000E+00 -0.00000000000E+00 -0.45593999997E+02  0.45594000000E+02  0.51100000000E-03 0. -1.
    9900012    2    1    2    0    0  0.96578418285E+01 -0.41529157482E+02 -0.81044338676E+01  0.47787231824E+02  0.19999821178E+02 0.  0.
        -12    1    1    2    0    0 -0.96578418285E+01  0.41529157482E+02  0.81044338676E+01  0.43400768176E+02  0.00000000000E+00 0.  1.
         11    1    3    3    0    0 -0.96581113804E+00 -0.20653290936E+02 -0.56764465036E+01  0.21440924952E+02  0.51100000000E-03 0. -1.
        -11    1    3    3    0    0  0.94546527475E+01 -0.19748496689E+02  0.16496896205E+01  0.21957118576E+02  0.51100000000E-03 0.  1.
        -12    1    3    3    0    0  0.11690002191E+01 -0.11273698569E+01 -0.40776769845E+01  0.43891882959E+01  0.00000000000E+00 0.  1.
</event>
<event>
 7    1  0.2811980E-010  0.4778725E+02  0.7816164E-02  0.1312668E+00
        -11   -1    0    0    0    0  0.00000000000E+00  0.00000000000E+00  0.45593999997E+02  0.45594000000E+02  0.51100000000E-03 0. -1.
         11   -1    0    0    0    0 -0.00000000000E+00 -0.00000000000E+00 -0.45593999997E+02  0.45594000000E+02  0.51100000000E-03 0.  1.
    9900012    2    1    2    0    0  0.17971612247E+02  0.39298247714E+02 -0.40365964592E+01  0.47787248495E+02  0.19999897189E+02 0.  0.
        -12    1    1    2    0    0 -0.17971612247E+02 -0.39298247714E+02  0.40365964592E+01  0.43400751505E+02  0.00000000000E+00 0.  1.
         11    1    3    3    0    0  0.98506610343E-01  0.90554950258E+01 -0.83686293517E+01  0.12330679268E+02  0.51100000000E-03 0.  1.
        -11    1    3    3    0    0  0.13627258988E+02  0.23946573939E+02  0.41262503289E+01  0.27859765487E+02  0.51100000000E-03 0. -1.
        -12    1    3    3    0    0  0.42458466493E+01  0.62961787493E+01  0.20578256350E+00  0.75968037408E+01  0.00000000000E+00 0.  1.
</event>
<event>
 7    1  0.2811980E-010  0.4778728E+02  0.7816164E-02  0.1312668E+00
        -11   -1    0    0    0    0  0.00000000000E+00  0.00000000000E+00  0.45593999997E+02  0.45594000000E+02  0.51100000000E-03 0.  1.
         11   -1    0    0    0    0 -0.00000000000E+00 -0.00000000000E+00 -0.45593999997E+02  0.45594000000E+02  0.51100000000E-03 0. -1.
    9900012    2    1    2    0    0 -0.26232468910E+02 -0.11342231147E+02 -0.32662423705E+02  0.47787279328E+02  0.20000037770E+02 0.  0.
        -12    1    1    2    0    0  0.26232468910E+02  0.11342231147E+02  0.32662423705E+02  0.43400720672E+02  0.00000000000E+00 0.  1.
         11    1    3    3    0    0  0.48317396527E+00  0.30820238009E+01 -0.21628969250E+01  0.37961100035E+01  0.51100000000E-03 0. -1.
        -11    1    3    3    0    0 -0.40525798022E+01 -0.55160711225E+01 -0.36995863041E+01  0.77805772771E+01  0.51100000000E-03 0.  1.
         12    1    3    3    0    0 -0.22663063074E+02 -0.89081838253E+01 -0.26799940476E+02  0.36210592048E+02  0.00000000000E+00 0. -1.
</event>
<event>
 7    1  0.2811980E-010  0.4778727E+02  0.7816164E-02  0.1312668E+00
        -11   -1    0    0    0    0  0.00000000000E+00  0.00000000000E+00  0.45593999997E+02  0.45594000000E+02  0.51100000000E-03 0.  1.
         11   -1    0    0    0    0 -0.00000000000E+00 -0.00000000000E+00 -0.45593999997E+02  0.45594000000E+02  0.51100000000E-03 0. -1.
    9900012    2    1    2    0    0 -0.78661421966E+01  0.39930510562E+02 -0.15076529190E+02  0.47787267296E+02  0.19999982909E+02 0.  0.
        -12    1    1    2    0    0  0.78661421966E+01 -0.39930510562E+02  0.15076529190E+02  0.43400732704E+02  0.00000000000E+00 0.  1.
         11    1    3    3    0    0 -0.53337644731E+00  0.51752628294E+01  0.36312666604E+01  0.63445987744E+01  0.51100000000E-03 0.  1.
        -11    1    3    3    0    0 -0.96118805949E+01  0.25518929776E+02 -0.15696937687E+02  0.31464231732E+02  0.51100000000E-03 0. -1.
         12    1    3    3    0    0  0.22791148456E+01  0.92363179570E+01 -0.30108581640E+01  0.99784367897E+01  0.00000000000E+00 0. -1.
</event>
<event>
 7    1  0.2811980E-010  0.4778727E+02  0.7816164E-02  0.1312668E+00
        -11   -1    0    0    0    0  0.00000000000E+00  0.00000000000E+00  0.45593999997E+02  0.45594000000E+02  0.51100000000E-03 0.  1.
         11   -1    0    0    0    0 -0.00000000000E+00 -0.00000000000E+00 -0.45593999997E+02  0.45594000000E+02  0.51100000000E-03 0. -1.
    9900012    2    1    2    0    0 -0.26219544207E+02 -0.11722879856E+02 -0.32538174635E+02  0.47787271675E+02  0.20000002877E+02 0.  0.
        -12    1    1    2    0    0  0.26219544207E+02  0.11722879856E+02  0.32538174635E+02  0.43400728325E+02  0.00000000000E+00 0.  1.
         11    1    3    3    0    0 -0.11012127292E+02 -0.98196395167E+01 -0.56521540320E+01  0.15799971936E+02  0.51100000000E-03 0. -1.
        -11    1    3    3    0    0 -0.15458053295E+01  0.10995317832E+01 -0.94273213691E+01  0.96162816471E+01  0.51100000000E-03 0.  1.
         12    1    3    3    0    0 -0.13661611586E+02 -0.30027721227E+01 -0.17458699233E+02  0.22371018092E+02  0.00000000000E+00 0. -1.
</event>
<event>
 7    1  0.2811980E-010  0.4778727E+02  0.7816164E-02  0.1312668E+00
        -11   -1    0    0    0    0  0.00000000000E+00  0.00000000000E+00  0.45593999997E+02  0.45594000000E+02  0.51100000000E-03 0.  1.
         11   -1    0    0    0    0 -0.00000000000E+00 -0.00000000000E+00 -0.45593999997E+02  0.45594000000E+02  0.51100000000E-03 0. -1.
    9900012    2    1    2    0    0 -0.48533684957E+01 -0.10180416997E+02 -0.41909750447E+02  0.47787271221E+02  0.20000000805E+02 0.  0.
        -12    1    1    2    0    0  0.48533684957E+01  0.10180416997E+02  0.41909750447E+02  0.43400728779E+02  0.00000000000E+00 0.  1.
         11    1    3    3    0    0  0.14421294239E-01  0.14739184997E+01 -0.10025864442E+02  0.10133637145E+02  0.51100000000E-03 0. -1.
        -11    1    3    3    0    0 -0.36300555009E+01 -0.10549495270E+02 -0.80391749947E+01  0.13751272241E+02  0.51100000000E-03 0.  1.
        -12    1    3    3    0    0 -0.12377342891E+01 -0.11048402262E+01 -0.23844711011E+02  0.23902361835E+02  0.00000000000E+00 0.  1.
</event>
<event>
 7    1  0.2811980E-010  0.4778724E+02  0.7816164E-02  0.1312668E+00
        -11   -1    0    0    0    0  0.00000000000E+00  0.00000000000E+00  0.45593999997E+02  0.45594000000E+02  0.51100000000E-03 0.  1.
         11   -1    0    0    0    0 -0.00000000000E+00 -0.00000000000E+00 -0.45593999997E+02  0.45594000000E+02  0.51100000000E-03 0. -1.
    9900012    2    1    2    0    0  0.89982887343E+01 -0.28865557811E+02 -0.31135770069E+02  0.47787241877E+02  0.19999867012E+02 0.  0.
        -12    1    1    2    0    0 -0.89982887343E+01  0.28865557811E+02  0.31135770069E+02  0.43400758123E+02  0.00000000000E+00 0.  1.
         11    1    3    3    0    0  0.79484980583E+00 -0.27117579489E+01 -0.15266015557E+01  0.32118421440E+01  0.51100000000E-03 0. -1.
        -11    1    3    3    0    0  0.94138502022E+01 -0.91053586407E+01 -0.38304472976E+01  0.13645528878E+02  0.51100000000E-03 0.  1.
        -12    1    3    3    0    0 -0.12104112737E+01 -0.17048441221E+02 -0.25778721216E+02  0.30929870854E+02  0.00000000000E+00 0.  1.
</event>
<event>
 7    1  0.2811980E-010  0.4778727E+02  0.7816164E-02  0.1312668E+00
        -11   -1    0    0    0    0  0.00000000000E+00  0.00000000000E+00  0.45593999997E+02  0.45594000000E+02  0.51100000000E-03 0. -1.
         11   -1    0    0    0    0 -0.00000000000E+00 -0.00000000000E+00 -0.45593999997E+02  0.45594000000E+02  0.51100000000E-03 0.  1.
    9900012    2    1    2    0    0 -0.22219110681E+02 -0.32300645139E+02  0.18617263489E+02  0.47787273559E+02  0.20000011464E+02 0.  0.
        -12    1    1    2    0    0  0.22219110681E+02  0.32300645139E+02 -0.18617263489E+02  0.43400726441E+02  0.00000000000E+00 0.  1.
         11    1    3    3    0    0 -0.47461064707E+01 -0.88667773388E+01  0.33184378783E+01  0.10590434232E+02  0.51100000000E-03 0. -1.
        -11    1    3    3    0    0 -0.38434758651E+01 -0.12194516854E+02 -0.14317739215E+01  0.12865788933E+02  0.51100000000E-03 0.  1.
        -12    1    3    3    0    0 -0.13629528345E+02 -0.11239350945E+02  0.16730599532E+02  0.24331050394E+02  0.00000000000E+00 0.  1.
</event>
<event>
 7    1  0.2811980E-010  0.4778726E+02  0.7816164E-02  0.1312668E+00
        -11   -1    0    0    0    0  0.00000000000E+00  0.00000000000E+00  0.45593999997E+02  0.45594000000E+02  0.51100000000E-03 0.  1.
         11   -1    0    0    0    0 -0.00000000000E+00 -0.00000000000E+00 -0.45593999997E+02  0.45594000000E+02  0.51100000000E-03 0. -1.
    9900012    2    1    2    0    0  0.20220491389E+02 -0.16521106297E+01 -0.38366998963E+02  0.47787258636E+02  0.19999943423E+02 0.  0.
        -12    1    1    2    0    0 -0.20220491389E+02  0.16521106297E+01  0.38366998963E+02  0.43400741364E+02  0.00000000000E+00 0.  1.
         11    1    3    3    0    0  0.73874469766E+01 -0.62092615242E+01 -0.94230138046E+01  0.13487864580E+02  0.51100000000E-03 0. -1.
        -11    1    3    3    0    0  0.75407657192E+01  0.62726715723E+01 -0.26435660177E+02  0.28196696359E+02  0.51100000000E-03 0.  1.
        -12    1    3    3    0    0  0.52922786933E+01 -0.17155206777E+01 -0.25083249812E+01  0.61026976964E+01  0.00000000000E+00 0.  1.
</event>
<event>
 7    1  0.2811980E-010  0.4778727E+02  0.7816164E-02  0.1312668E+00
        -11   -1    0    0    0    0  0.00000000000E+00  0.00000000000E+00  0.45593999997E+02  0.45594000000E+02  0.51100000000E-03 0. -1.
         11   -1    0    0    0    0 -0.00000000000E+00 -0.00000000000E+00 -0.45593999997E+02  0.45594000000E+02  0.51100000000E-03 0.  1.
    9900012    2    1    2    0    0  0.20262728319E+02 -0.20708650886E+02  0.32314035520E+02  0.47787271066E+02  0.20000000098E+02 0.  0.
        -12    1    1    2    0    0 -0.20262728319E+02  0.20708650886E+02 -0.32314035520E+02  0.43400728934E+02  0.00000000000E+00 0.  1.
         11    1    3    3    0    0  0.14630202136E+02 -0.12302849271E+02  0.80233745938E+01  0.20731074619E+02  0.51100000000E-03 0. -1.
        -11    1    3    3    0    0 -0.57840705491E+00 -0.75714431346E+00  0.12730345734E+00  0.96126409688E+00  0.51100000000E-03 0.  1.
         12    1    3    3    0    0  0.62109332377E+01 -0.76486573020E+01  0.24163357468E+02  0.26094932350E+02  0.00000000000E+00 0. -1.
</event>
<event>
 7    1  0.2811980E-010  0.4778727E+02  0.7816164E-02  0.1312668E+00
        -11   -1    0    0    0    0  0.00000000000E+00  0.00000000000E+00  0.45593999997E+02  0.45594000000E+02  0.51100000000E-03 0. -1.
         11   -1    0    0    0    0 -0.00000000000E+00 -0.00000000000E+00 -0.45593999997E+02  0.45594000000E+02  0.51100000000E-03 0.  1.
    9900012    2    1    2    0    0  0.30555658884E+02 -0.30392126295E+02  0.51277170382E+01  0.47787272903E+02  0.20000008474E+02 0.  0.
        -12    1    1    2    0    0 -0.30555658884E+02  0.30392126295E+02 -0.51277170382E+01  0.43400727097E+02  0.00000000000E+00 0.  1.
         11    1    3    3    0    0  0.22690573541E+01 -0.55589663355E+01  0.65532424333E+01  0.88879533440E+01  0.51100000000E-03 0. -1.
        -11    1    3    3    0    0  0.92981618860E+01 -0.34073643060E+01 -0.26259007581E+01  0.10245062275E+02  0.51100000000E-03 0.  1.
         12    1    3    3    0    0  0.18988439644E+02 -0.21425795653E+02  0.12003753629E+01  0.28654257284E+02  0.00000000000E+00 0. -1.
</event>
<event>
 7    1  0.2811980E-010  0.4778726E+02  0.7816164E-02  0.1312668E+00
        -11   -1    0    0    0    0  0.00000000000E+00  0.00000000000E+00  0.45593999997E+02  0.45594000000E+02  0.51100000000E-03 0. -1.
         11   -1    0    0    0    0 -0.00000000000E+00 -0.00000000000E+00 -0.45593999997E+02  0.45594000000E+02  0.51100000000E-03 0.  1.
    9900012    2    1    2    0    0  0.31498475313E+02 -0.34931478092E+01  0.29652455265E+02  0.47787261160E+02  0.19999954932E+02 0.  0.
        -12    1    1    2    0    0 -0.31498475313E+02  0.34931478092E+01 -0.29652455265E+02  0.43400738840E+02  0.00000000000E+00 0.  1.
         11    1    3    3    0    0  0.16952023613E+02 -0.92564764839E+01  0.11475855820E+02  0.22466613642E+02  0.51100000000E-03 0. -1.
        -11    1    3    3    0    0  0.57198788510E+01  0.35595039812E+01  0.13508758169E+02  0.15095483768E+02  0.51100000000E-03 0.  1.
         12    1    3    3    0    0  0.88265728487E+01  0.22038246936E+01  0.46678412767E+01  0.10225163750E+02  0.00000000000E+00 0. -1.
</event>
