<event>
 7    1  0.4519840E-010  0.4778727E+02  0.7816164E-02  0.1312668E+00
        -11   -1    0    0    0    0  0.00000000000E+00  0.00000000000E+00  0.45593999997E+02  0.45594000000E+02  0.51100000000E-03 0. -1.
         11   -1    0    0    0    0 -0.00000000000E+00 -0.00000000000E+00 -0.45593999997E+02  0.45594000000E+02  0.51100000000E-03 0.  1.
    9900012    2    1    2    0    0  0.13006109746E+02 -0.35006994149E+02 -0.22112775441E+02  0.47787269962E+02  0.19999995067E+02 0.  0.
         12    1    1    2    0    0 -0.13006109746E+02  0.35006994149E+02  0.22112775441E+02  0.43400730038E+02  0.00000000000E+00 0. -1.
         11    1    3    3    0    0  0.18607194832E+01 -0.22642975341E+01 -0.49238620811E+00  0.29718285208E+01  0.51100000000E-03 0. -1.
        -11    1    3    3    0    0  0.65217984640E+01 -0.32161859965E+02 -0.22859657565E+02  0.39993537426E+02  0.51100000000E-03 0.  1.
         12    1    3    3    0    0  0.46235917984E+01 -0.58083664992E+00  0.12392683321E+01  0.48219040152E+01  0.00000000000E+00 0. -1.
</event>
<event>
 7    1  0.4519840E-010  0.4778727E+02  0.7816164E-02  0.1312668E+00
        -11   -1    0    0    0    0  0.00000000000E+00  0.00000000000E+00  0.45593999997E+02  0.45594000000E+02  0.51100000000E-03 0. -1.
         11   -1    0    0    0    0 -0.00000000000E+00 -0.00000000000E+00 -0.45593999997E+02  0.45594000000E+02  0.51100000000E-03 0.  1.
    9900012    2    1    2    0    0 -0.33629619863E+02  0.24743629787E+02  0.11850095428E+02  0.47787270642E+02  0.19999998166E+02 0.  0.
        -12    1    1    2    0    0  0.33629619863E+02 -0.24743629787E+02 -0.11850095428E+02  0.43400729358E+02  0.00000000000E+00 0.  1.
         11    1    3    3    0    0 -0.10516639456E+02  0.98931996540E+01 -0.29522393008E+01  0.14737395360E+02  0.51100000000E-03 0. -1.
        -11    1    3    3    0    0 -0.18037884098E+02  0.14748787744E+02  0.81548343220E+01  0.24685893254E+02  0.51100000000E-03 0.  1.
        -12    1    3    3    0    0 -0.50750963093E+01  0.10164238864E+00  0.66475004065E+01  0.83639820288E+01  0.00000000000E+00 0.  1.
</event>
<event>
 7    1  0.4519840E-010  0.4778728E+02  0.7816164E-02  0.1312668E+00
        -11   -1    0    0    0    0  0.00000000000E+00  0.00000000000E+00  0.45593999997E+02  0.45594000000E+02  0.51100000000E-03 0. -1.
         11   -1    0    0    0    0 -0.00000000000E+00 -0.00000000000E+00 -0.45593999997E+02  0.45594000000E+02  0.51100000000E-03 0.  1.
    9900012    2    1    2    0    0 -0.17295321976E+02 -0.28868499614E+02  0.27406285182E+02  0.47787275355E+02  0.20000019655E+02 0.  0.
        -12    1    1    2    0    0  0.17295321976E+02  0.28868499614E+02 -0.27406285182E+02  0.43400724645E+02  0.00000000000E+00 0.  1.
         11    1    3    3    0    0 -0.12529135624E+02 -0.59186716790E+01  0.14833476454E+02  0.20298816170E+02  0.51100000000E-03 0. -1.
        -11    1    3    3    0    0 -0.52041320977E+01 -0.92299450171E+01  0.41263485221E+01  0.11371087384E+02  0.51100000000E-03 0.  1.
         12    1    3    3    0    0  0.43794574659E+00 -0.13719882918E+02  0.84464602060E+01  0.16117371801E+02  0.00000000000E+00 0. -1.
</event>
<event>
 7    1  0.4519840E-010  0.4778727E+02  0.7816164E-02  0.1312668E+00
        -11   -1    0    0    0    0  0.00000000000E+00  0.00000000000E+00  0.45593999997E+02  0.45594000000E+02  0.51100000000E-03 0. -1.
         11   -1    0    0    0    0 -0.00000000000E+00 -0.00000000000E+00 -0.45593999997E+02  0.45594000000E+02  0.51100000000E-03 0.  1.
    9900012    2    1    2    0    0 -0.33875734776E+02  0.81448472559E+01  0.25878932117E+02  0.47787273382E+02  0.20000010657E+02 0.  0.
        -12    1    1    2    0    0  0.33875734776E+02 -0.81448472559E+01 -0.25878932117E+02  0.43400726618E+02  0.00000000000E+00 0.  1.
         11    1    3    3    0    0 -0.37014440349E+01  0.11163531754E+01  0.10585276864E+02  0.11269206667E+02  0.51100000000E-03 0. -1.
        -11    1    3    3    0    0 -0.13657403359E+02  0.81767101583E+01  0.11198100539E+02  0.19462289471E+02  0.51100000000E-03 0.  1.
        -12    1    3    3    0    0 -0.16516887383E+02 -0.11482160778E+01  0.40955547141E+01  0.17055777244E+02  0.00000000000E+00 0.  1.
</event>
<event>
 7    1  0.4519840E-010  0.4778727E+02  0.7816164E-02  0.1312668E+00
        -11   -1    0    0    0    0  0.00000000000E+00  0.00000000000E+00  0.45593999997E+02  0.45594000000E+02  0.51100000000E-03 0.  1.
         11   -1    0    0    0    0 -0.00000000000E+00 -0.00000000000E+00 -0.45593999997E+02  0.45594000000E+02  0.51100000000E-03 0. -1.
    9900012    2    1    2    0    0  0.41177331119E+02  0.11285891913E+02  0.77896930369E+01  0.47787271066E+02  0.20000000101E+02 0.  0.
        -12    1    1    2    0    0 -0.41177331119E+02 -0.11285891913E+02 -0.77896930369E+01  0.43400728934E+02  0.00000000000E+00 0.  1.
         11    1    3    3    0    0  0.13547079897E+02  0.44593712225E+01 -0.27608786406E+01  0.14526934176E+02  0.51100000000E-03 0. -1.
        -11    1    3    3    0    0  0.24198633584E+02  0.10072199655E+02  0.64206924274E+01  0.26986077238E+02  0.51100000000E-03 0.  1.
        -12    1    3    3    0    0  0.34316176385E+01 -0.32456789646E+01  0.41298792502E+01  0.62742596518E+01  0.00000000000E+00 0.  1.
</event>
<event>
 7    1  0.4519840E-010  0.4778727E+02  0.7816164E-02  0.1312668E+00
        -11   -1    0    0    0    0  0.00000000000E+00  0.00000000000E+00  0.45593999997E+02  0.45594000000E+02  0.51100000000E-03 0. -1.
         11   -1    0    0    0    0 -0.00000000000E+00 -0.00000000000E+00 -0.45593999997E+02  0.45594000000E+02  0.51100000000E-03 0.  1.
    9900012    2    1    2    0    0  0.27338987116E+02  0.64656183477E+01  0.33081697171E+02  0.47787272761E+02  0.20000007828E+02 0.  0.
        -12    1    1    2    0    0 -0.27338987116E+02 -0.64656183477E+01 -0.33081697171E+02  0.43400727239E+02  0.00000000000E+00 0.  1.
         11    1    3    3    0    0  0.19141658772E+02  0.37909192712E+01  0.17693857048E+02  0.26340970881E+02  0.51100000000E-03 0. -1.
        -11    1    3    3    0    0  0.70134513497E+01  0.72988408402E+01  0.96830507702E+01  0.14007963804E+02  0.51100000000E-03 0.  1.
         12    1    3    3    0    0  0.11838769948E+01 -0.46241417638E+01  0.57047893524E+01  0.74383380769E+01  0.00000000000E+00 0. -1.
</event>
<event>
 7    1  0.4519840E-010  0.4778727E+02  0.7816164E-02  0.1312668E+00
        -11   -1    0    0    0    0  0.00000000000E+00  0.00000000000E+00  0.45593999997E+02  0.45594000000E+02  0.51100000000E-03 0. -1.
         11   -1    0    0    0    0 -0.00000000000E+00 -0.00000000000E+00 -0.45593999997E+02  0.45594000000E+02  0.51100000000E-03 0.  1.
    9900012    2    1    2    0    0  0.13214915850E+02 -0.19600402898E+02  0.36397991260E+02  0.47787267720E+02  0.19999984844E+02 0.  0.
        -12    1    1    2    0    0 -0.13214915850E+02  0.19600402898E+02 -0.36397991260E+02  0.43400732280E+02  0.00000000000E+00 0.  1.
         11    1    3    3    0    0  0.30815872364E+01  0.20743924166E+01  0.11715507959E+02  0.12290338108E+02  0.51100000000E-03 0. -1.
        -11    1    3    3    0    0  0.14789560783E+01 -0.58689526910E+01  0.12067055585E+02  0.13499842500E+02  0.51100000000E-03 0.  1.
        -12    1    3    3    0    0  0.86543725350E+01 -0.15805842623E+02  0.12615427716E+02  0.21997087113E+02  0.00000000000E+00 0.  1.
</event>
<event>
 7    1  0.4519840E-010  0.4778727E+02  0.7816164E-02  0.1312668E+00
        -11   -1    0    0    0    0  0.00000000000E+00  0.00000000000E+00  0.45593999997E+02  0.45594000000E+02  0.51100000000E-03 0. -1.
         11   -1    0    0    0    0 -0.00000000000E+00 -0.00000000000E+00 -0.45593999997E+02  0.45594000000E+02  0.51100000000E-03 0.  1.
    9900012    2    1    2    0    0 -0.88088939992E+01 -0.17027762029E+02  0.38936896410E+02  0.47787271951E+02  0.20000004132E+02 0.  0.
        -12    1    1    2    0    0  0.88088939992E+01  0.17027762029E+02 -0.38936896410E+02  0.43400728049E+02  0.00000000000E+00 0.  1.
         11    1    3    3    0    0 -0.95616172246E+01 -0.86341911642E+01  0.16652859263E+02  0.21054488901E+02  0.51100000000E-03 0. -1.
        -11    1    3    3    0    0 -0.22683820408E+01  0.16449076974E+01  0.10911952067E+02  0.11265965409E+02  0.51100000000E-03 0.  1.
        -12    1    3    3    0    0  0.30211052662E+01 -0.10038478562E+02  0.11372085080E+02  0.15466817641E+02  0.00000000000E+00 0.  1.
</event>
<event>
 7    1  0.4519840E-010  0.4778727E+02  0.7816164E-02  0.1312668E+00
        -11   -1    0    0    0    0  0.00000000000E+00  0.00000000000E+00  0.45593999997E+02  0.45594000000E+02  0.51100000000E-03 0. -1.
         11   -1    0    0    0    0 -0.00000000000E+00 -0.00000000000E+00 -0.45593999997E+02  0.45594000000E+02  0.51100000000E-03 0.  1.
    9900012    2    1    2    0    0 -0.24805191097E+02 -0.14780495341E+02  0.32401581655E+02  0.47787273720E+02  0.20000012197E+02 0.  0.
        -12    1    1    2    0    0  0.24805191097E+02  0.14780495341E+02 -0.32401581655E+02  0.43400726280E+02  0.00000000000E+00 0.  1.
         11    1    3    3    0    0 -0.12167540067E+02 -0.10718362452E+02  0.19374803533E+02  0.25264903268E+02  0.51100000000E-03 0. -1.
        -11    1    3    3    0    0 -0.57011587224E+01 -0.76379015585E+01  0.33763247069E+01  0.10111395541E+02  0.51100000000E-03 0.  1.
        -12    1    3    3    0    0 -0.69364923079E+01  0.35757686692E+01  0.96504534153E+01  0.12410974911E+02  0.00000000000E+00 0.  1.
</event>
<event>
 7    1  0.4519840E-010  0.4778727E+02  0.7816164E-02  0.1312668E+00
        -11   -1    0    0    0    0  0.00000000000E+00  0.00000000000E+00  0.45593999997E+02  0.45594000000E+02  0.51100000000E-03 0. -1.
         11   -1    0    0    0    0 -0.00000000000E+00 -0.00000000000E+00 -0.45593999997E+02  0.45594000000E+02  0.51100000000E-03 0.  1.
    9900012    2    1    2    0    0 -0.15355705636E+02 -0.20875958318E+02 -0.34814080838E+02  0.47787267795E+02  0.19999985187E+02 0.  0.
         12    1    1    2    0    0  0.15355705636E+02  0.20875958318E+02  0.34814080838E+02  0.43400732205E+02  0.00000000000E+00 0. -1.
         11    1    3    3    0    0 -0.10813847764E+02 -0.18749732443E+02 -0.34349374922E+02  0.40600139506E+02  0.51100000000E-03 0. -1.
        -11    1    3    3    0    0 -0.16490966955E+01 -0.15131307997E+01 -0.26805167981E+01  0.34920273902E+01  0.51100000000E-03 0.  1.
         12    1    3    3    0    0 -0.28927611761E+01 -0.61309507465E+00  0.22158108811E+01  0.36951008990E+01  0.00000000000E+00 0. -1.
</event>
<event>
 7    1  0.4519840E-010  0.4778727E+02  0.7816164E-02  0.1312668E+00
        -11   -1    0    0    0    0  0.00000000000E+00  0.00000000000E+00  0.45593999997E+02  0.45594000000E+02  0.51100000000E-03 0. -1.
         11   -1    0    0    0    0 -0.00000000000E+00 -0.00000000000E+00 -0.45593999997E+02  0.45594000000E+02  0.51100000000E-03 0.  1.
    9900012    2    1    2    0    0  0.26618338464E+02  0.18646178560E+02 -0.28764691499E+02  0.47787269655E+02  0.19999993663E+02 0.  0.
         12    1    1    2    0    0 -0.26618338464E+02 -0.18646178560E+02  0.28764691499E+02  0.43400730345E+02  0.00000000000E+00 0. -1.
         11    1    3    3    0    0  0.10165560295E+01  0.81849491965E+01 -0.11036584656E+02  0.13777988991E+02  0.51100000000E-03 0. -1.
        -11    1    3    3    0    0  0.23536294219E+01 -0.92770852135E+00  0.17169121319E+00  0.25356838703E+01  0.51100000000E-03 0.  1.
        -12    1    3    3    0    0  0.23248153013E+02  0.11388937885E+02 -0.17899798056E+02  0.31473596793E+02  0.00000000000E+00 0.  1.
</event>
<event>
 7    1  0.4519840E-010  0.4778728E+02  0.7816164E-02  0.1312668E+00
        -11   -1    0    0    0    0  0.00000000000E+00  0.00000000000E+00  0.45593999997E+02  0.45594000000E+02  0.51100000000E-03 0. -1.
         11   -1    0    0    0    0 -0.00000000000E+00 -0.00000000000E+00 -0.45593999997E+02  0.45594000000E+02  0.51100000000E-03 0.  1.
    9900012    2    1    2    0    0 -0.19466812654E+02  0.31343925687E+02 -0.22852225797E+02  0.47787277699E+02  0.20000030340E+02 0.  0.
         12    1    1    2    0    0  0.19466812654E+02 -0.31343925687E+02  0.22852225797E+02  0.43400722301E+02  0.00000000000E+00 0. -1.
         11    1    3    3    0    0 -0.26087989799E+01  0.10986011344E+02 -0.20610724470E+01  0.11478078989E+02  0.51100000000E-03 0. -1.
        -11    1    3    3    0    0  0.27755250794E-01  0.50823756953E+01  0.53664055245E+00  0.51107041008E+01  0.51100000000E-03 0.  1.
        -12    1    3    3    0    0 -0.16885768925E+02  0.15275538647E+02 -0.21327793902E+02  0.31198494609E+02  0.00000000000E+00 0.  1.
</event>
<event>
 7    1  0.4519840E-010  0.4778727E+02  0.7816164E-02  0.1312668E+00
        -11   -1    0    0    0    0  0.00000000000E+00  0.00000000000E+00  0.45593999997E+02  0.45594000000E+02  0.51100000000E-03 0.  1.
         11   -1    0    0    0    0 -0.00000000000E+00 -0.00000000000E+00 -0.45593999997E+02  0.45594000000E+02  0.51100000000E-03 0. -1.
    9900012    2    1    2    0    0 -0.40649373526E+02  0.15062737842E+02 -0.20894303144E+01  0.47787270070E+02  0.19999995558E+02 0.  0.
         12    1    1    2    0    0  0.40649373526E+02 -0.15062737842E+02  0.20894303144E+01  0.43400729930E+02  0.00000000000E+00 0. -1.
         11    1    3    3    0    0 -0.44761659598E+01 -0.14249632070E+01  0.29454041855E+01  0.55445457811E+01  0.51100000000E-03 0. -1.
        -11    1    3    3    0    0 -0.19827737472E+02  0.38378699936E+01  0.22661193461E+01  0.20322492871E+02  0.51100000000E-03 0.  1.
         12    1    3    3    0    0 -0.16345470095E+02  0.12649831056E+02 -0.73009538460E+01  0.21920231418E+02  0.00000000000E+00 0. -1.
</event>
<event>
 7    1  0.4519840E-010  0.4778728E+02  0.7816164E-02  0.1312668E+00
        -11   -1    0    0    0    0  0.00000000000E+00  0.00000000000E+00  0.45593999997E+02  0.45594000000E+02  0.51100000000E-03 0. -1.
         11   -1    0    0    0    0 -0.00000000000E+00 -0.00000000000E+00 -0.45593999997E+02  0.45594000000E+02  0.51100000000E-03 0.  1.
    9900012    2    1    2    0    0 -0.50434589312E+01  0.34085878237E+01 -0.42971710841E+02  0.47787275564E+02  0.20000020606E+02 0.  0.
         12    1    1    2    0    0  0.50434589312E+01 -0.34085878237E+01  0.42971710841E+02  0.43400724436E+02  0.00000000000E+00 0. -1.
         11    1    3    3    0    0 -0.25577935258E+01  0.38026052764E+01 -0.90507659190E+00  0.46713251340E+01  0.51100000000E-03 0. -1.
        -11    1    3    3    0    0  0.25611620212E+01  0.24319483890E+01 -0.12527993787E+02  0.13016318698E+02  0.51100000000E-03 0.  1.
        -12    1    3    3    0    0 -0.50468274266E+01 -0.28259658417E+01 -0.29538640463E+02  0.30099631732E+02  0.00000000000E+00 0.  1.
</event>
<event>
 7    1  0.4519840E-010  0.4778727E+02  0.7816164E-02  0.1312668E+00
        -11   -1    0    0    0    0  0.00000000000E+00  0.00000000000E+00  0.45593999997E+02  0.45594000000E+02  0.51100000000E-03 0. -1.
         11   -1    0    0    0    0 -0.00000000000E+00 -0.00000000000E+00 -0.45593999997E+02  0.45594000000E+02  0.51100000000E-03 0.  1.
    9900012    2    1    2    0    0  0.24293563048E+02  0.23778561664E+01 -0.35885816530E+02  0.47787271509E+02  0.20000002118E+02 0.  0.
         12    1    1    2    0    0 -0.24293563048E+02 -0.23778561664E+01  0.35885816530E+02  0.43400728491E+02  0.00000000000E+00 0. -1.
         11    1    3    3    0    0  0.28431044821E+00  0.44230641946E+01 -0.98710159991E+00  0.45407817752E+01  0.51100000000E-03 0. -1.
        -11    1    3    3    0    0  0.11203774245E+02 -0.16263251387E+00 -0.92998127308E+01  0.14561508292E+02  0.51100000000E-03 0.  1.
        -12    1    3    3    0    0  0.12805478355E+02 -0.18825755144E+01 -0.25598902199E+02  0.28684981441E+02  0.00000000000E+00 0.  1.
</event>
<event>
 7    1  0.4519840E-010  0.4778728E+02  0.7816164E-02  0.1312668E+00
        -11   -1    0    0    0    0  0.00000000000E+00  0.00000000000E+00  0.45593999997E+02  0.45594000000E+02  0.51100000000E-03 0.  1.
         11   -1    0    0    0    0 -0.00000000000E+00 -0.00000000000E+00 -0.45593999997E+02  0.45594000000E+02  0.51100000000E-03 0. -1.
    9900012    2    1    2    0    0 -0.37269824971E+02  0.22216695039E+02 -0.10007643373E+01  0.47787275109E+02  0.20000018530E+02 0.  0.
        -12    1    1    2    0    0  0.37269824971E+02 -0.22216695039E+02  0.10007643373E+01  0.43400724891E+02  0.00000000000E+00 0.  1.
         11    1    3    3    0    0 -0.15392778581E+02  0.92801408996E+01 -0.27813318206E+01  0.18187755620E+02  0.51100000000E-03 0. -1.
        -11    1    3    3    0    0 -0.12700862487E+02  0.12831944237E+01 -0.44396994868E+01  0.13515525429E+02  0.51100000000E-03 0.  1.
         12    1    3    3    0    0 -0.91761839038E+01  0.11653359716E+02  0.62202669701E+01  0.16083994059E+02  0.00000000000E+00 0. -1.
</event>
<event>
 7    1  0.4519840E-010  0.4778727E+02  0.7816164E-02  0.1312668E+00
        -11   -1    0    0    0    0  0.00000000000E+00  0.00000000000E+00  0.45593999997E+02  0.45594000000E+02  0.51100000000E-03 0. -1.
         11   -1    0    0    0    0 -0.00000000000E+00 -0.00000000000E+00 -0.45593999997E+02  0.45594000000E+02  0.51100000000E-03 0.  1.
    9900012    2    1    2    0    0 -0.23330556705E+02  0.15976512171E+01  0.36561678547E+02  0.47787266092E+02  0.19999977421E+02 0.  0.
        -12    1    1    2    0    0  0.23330556705E+02 -0.15976512171E+01 -0.36561678547E+02  0.43400733908E+02  0.00000000000E+00 0.  1.
         11    1    3    3    0    0 -0.23864687114E+01 -0.44134118525E+00 -0.20188222443E+00  0.24353175657E+01  0.51100000000E-03 0.  1.
        -11    1    3    3    0    0  0.18074844883E+01 -0.26877487018E+01  0.34238697219E+01  0.47131600220E+01  0.51100000000E-03 0. -1.
         12    1    3    3    0    0 -0.22751572481E+02  0.47267411041E+01  0.33339691050E+02  0.40638788505E+02  0.00000000000E+00 0. -1.
</event>
<event>
 7    1  0.4519840E-010  0.4778727E+02  0.7816164E-02  0.1312668E+00
        -11   -1    0    0    0    0  0.00000000000E+00  0.00000000000E+00  0.45593999997E+02  0.45594000000E+02  0.51100000000E-03 0. -1.
         11   -1    0    0    0    0 -0.00000000000E+00 -0.00000000000E+00 -0.45593999997E+02  0.45594000000E+02  0.51100000000E-03 0.  1.
    9900012    2    1    2    0    0  0.22329673003E+02  0.14560872889E+02  0.34248944578E+02  0.47787268204E+02  0.19999987049E+02 0.  0.
        -12    1    1    2    0    0 -0.22329673003E+02 -0.14560872889E+02 -0.34248944578E+02  0.43400731796E+02  0.00000000000E+00 0.  1.
         11    1    3    3    0    0  0.29428496834E+01  0.59348017272E+00  0.10625919938E+02  0.11041863872E+02  0.51100000000E-03 0. -1.
        -11    1    3    3    0    0  0.44497639932E+00  0.45251239508E+01  0.11472693678E+02  0.12340885351E+02  0.51100000000E-03 0.  1.
         12    1    3    3    0    0  0.18941846920E+02  0.94422687655E+01  0.12150330962E+02  0.24404518981E+02  0.00000000000E+00 0. -1.
</event>
<event>
 7    1  0.4519840E-010  0.4778728E+02  0.7816164E-02  0.1312668E+00
        -11   -1    0    0    0    0  0.00000000000E+00  0.00000000000E+00  0.45593999997E+02  0.45594000000E+02  0.51100000000E-03 0. -1.
         11   -1    0    0    0    0 -0.00000000000E+00 -0.00000000000E+00 -0.45593999997E+02  0.45594000000E+02  0.51100000000E-03 0.  1.
    9900012    2    1    2    0    0  0.30473529035E+02  0.16855158612E+02 -0.25901554941E+02  0.47787275443E+02  0.20000020057E+02 0.  0.
         12    1    1    2    0    0 -0.30473529035E+02 -0.16855158612E+02  0.25901554941E+02  0.43400724557E+02  0.00000000000E+00 0. -1.
         11    1    3    3    0    0 -0.58950382508E+00  0.20963572697E+01 -0.15643017336E+01  0.26812811745E+01  0.51100000000E-03 0. -1.
        -11    1    3    3    0    0  0.18113290786E+02 -0.30007898901E+00 -0.11629013416E+02  0.21527083031E+02  0.51100000000E-03 0.  1.
        -12    1    3    3    0    0  0.12949742074E+02  0.15058880331E+02 -0.12708239791E+02  0.23578911238E+02  0.00000000000E+00 0.  1.
</event>
<event>
 7    1  0.4519840E-010  0.4778727E+02  0.7816164E-02  0.1312668E+00
        -11   -1    0    0    0    0  0.00000000000E+00  0.00000000000E+00  0.45593999997E+02  0.45594000000E+02  0.51100000000E-03 0. -1.
         11   -1    0    0    0    0 -0.00000000000E+00 -0.00000000000E+00 -0.45593999997E+02  0.45594000000E+02  0.51100000000E-03 0.  1.
    9900012    2    1    2    0    0 -0.13714569002E+02 -0.26127860417E+02  0.31825602599E+02  0.47787268743E+02  0.19999989506E+02 0.  0.
        -12    1    1    2    0    0  0.13714569002E+02  0.26127860417E+02 -0.31825602599E+02  0.43400731257E+02  0.00000000000E+00 0.  1.
         11    1    3    3    0    0 -0.11325380870E+02 -0.19271134237E+02  0.23033391010E+02  0.32096385596E+02  0.51100000000E-03 0. -1.
        -11    1    3    3    0    0 -0.48143121186E+01 -0.33237419095E+01  0.96839290612E+01  0.11313856274E+02  0.51100000000E-03 0.  1.
        -12    1    3    3    0    0  0.24251239860E+01 -0.35329842703E+01 -0.89171747219E+00  0.43770268736E+01  0.00000000000E+00 0.  1.
</event>
<event>
 7    1  0.4519840E-010  0.4778727E+02  0.7816164E-02  0.1312668E+00
        -11   -1    0    0    0    0  0.00000000000E+00  0.00000000000E+00  0.45593999997E+02  0.45594000000E+02  0.51100000000E-03 0. -1.
         11   -1    0    0    0    0 -0.00000000000E+00 -0.00000000000E+00 -0.45593999997E+02  0.45594000000E+02  0.51100000000E-03 0.  1.
    9900012    2    1    2    0    0 -0.15551133991E+02 -0.12528348939E+02  0.38533439569E+02  0.47787271198E+02  0.20000000699E+02 0.  0.
        -12    1    1    2    0    0  0.15551133991E+02  0.12528348939E+02 -0.38533439569E+02  0.43400728802E+02  0.00000000000E+00 0.  1.
         11    1    3    3    0    0 -0.17219364411E+02 -0.72238226210E+01  0.27038109461E+02  0.32859541803E+02  0.51100000000E-03 0. -1.
        -11    1    3    3    0    0 -0.14981820216E+01 -0.13239613281E+01 -0.35619945809E+00  0.20308375817E+01  0.51100000000E-03 0.  1.
        -12    1    3    3    0    0  0.31664124417E+01 -0.39805649902E+01  0.11851529566E+02  0.12896891813E+02  0.00000000000E+00 0.  1.
</event>
<event>
 7    1  0.4519840E-010  0.4778726E+02  0.7816164E-02  0.1312668E+00
        -11   -1    0    0    0    0  0.00000000000E+00  0.00000000000E+00  0.45593999997E+02  0.45594000000E+02  0.51100000000E-03 0. -1.
         11   -1    0    0    0    0 -0.00000000000E+00 -0.00000000000E+00 -0.45593999997E+02  0.45594000000E+02  0.51100000000E-03 0.  1.
    9900012    2    1    2    0    0 -0.71633307130E+01  0.13937979461E+02  0.40472747646E+02  0.47787264057E+02  0.19999968143E+02 0.  0.
        -12    1    1    2    0    0  0.71633307130E+01 -0.13937979461E+02 -0.40472747646E+02  0.43400735943E+02  0.00000000000E+00 0.  1.
         11    1    3    3    0    0 -0.10984248335E+02  0.72763966137E+01  0.14228354864E+02  0.19391898864E+02  0.51100000000E-03 0. -1.
        -11    1    3    3    0    0 -0.22644608898E+01  0.12865717026E+01  0.83129216749E+01  0.87113556293E+01  0.51100000000E-03 0.  1.
        -12    1    3    3    0    0  0.60853785119E+01  0.53750111445E+01  0.17931471107E+02  0.19684009564E+02  0.00000000000E+00 0.  1.
</event>
<event>
 7    1  0.4519840E-010  0.4778728E+02  0.7816164E-02  0.1312668E+00
        -11   -1    0    0    0    0  0.00000000000E+00  0.00000000000E+00  0.45593999997E+02  0.45594000000E+02  0.51100000000E-03 0. -1.
         11   -1    0    0    0    0 -0.00000000000E+00 -0.00000000000E+00 -0.45593999997E+02  0.45594000000E+02  0.51100000000E-03 0.  1.
    9900012    2    1    2    0    0  0.18585247306E+02 -0.33878360497E+02  0.19760260150E+02  0.47787278709E+02  0.20000034944E+02 0.  0.
        -12    1    1    2    0    0 -0.18585247306E+02  0.33878360497E+02 -0.19760260150E+02  0.43400721291E+02  0.00000000000E+00 0.  1.
         11    1    3    3    0    0  0.92350293744E+01 -0.17640409667E+02  0.18348939716E+02  0.27076805752E+02  0.51100000000E-03 0. -1.
        -11    1    3    3    0    0  0.64225321862E+01 -0.46443508390E+01  0.33355036220E+01  0.85990987361E+01  0.51100000000E-03 0.  1.
        -12    1    3    3    0    0  0.29276857455E+01 -0.11593599991E+02 -0.19241831872E+01  0.12111374221E+02  0.00000000000E+00 0.  1.
</event>
<event>
 7    1  0.4519840E-010  0.4778725E+02  0.7816164E-02  0.1312668E+00
        -11   -1    0    0    0    0  0.00000000000E+00  0.00000000000E+00  0.45593999997E+02  0.45594000000E+02  0.51100000000E-03 0. -1.
         11   -1    0    0    0    0 -0.00000000000E+00 -0.00000000000E+00 -0.45593999997E+02  0.45594000000E+02  0.51100000000E-03 0.  1.
    9900012    2    1    2    0    0  0.13870751164E+02 -0.58629925520E+01 -0.40704450332E+02  0.47787254657E+02  0.19999925283E+02 0.  0.
         12    1    1    2    0    0 -0.13870751164E+02  0.58629925520E+01  0.40704450332E+02  0.43400745343E+02  0.00000000000E+00 0. -1.
         11    1    3    3    0    0  0.16743516330E+01  0.22898763858E+01 -0.20102656923E+02  0.20301817724E+02  0.51100000000E-03 0. -1.
        -11    1    3    3    0    0 -0.12398403402E+01 -0.22728325187E+01 -0.55751260426E+00  0.26483565266E+01  0.51100000000E-03 0.  1.
        -12    1    3    3    0    0  0.13436239871E+02 -0.58800364191E+01 -0.20044280804E+02  0.24837080407E+02  0.00000000000E+00 0.  1.
</event>
<event>
 7    1  0.4519840E-010  0.4778727E+02  0.7816164E-02  0.1312668E+00
        -11   -1    0    0    0    0  0.00000000000E+00  0.00000000000E+00  0.45593999997E+02  0.45594000000E+02  0.51100000000E-03 0. -1.
         11   -1    0    0    0    0 -0.00000000000E+00 -0.00000000000E+00 -0.45593999997E+02  0.45594000000E+02  0.51100000000E-03 0.  1.
    9900012    2    1    2    0    0 -0.18800527316E+02 -0.47552943236E+01 -0.38827191454E+02  0.47787269042E+02  0.19999990872E+02 0.  0.
         12    1    1    2    0    0  0.18800527316E+02  0.47552943236E+01  0.38827191454E+02  0.43400730958E+02  0.00000000000E+00 0. -1.
         11    1    3    3    0    0 -0.75056497737E+01  0.76673805246E+00 -0.48483664973E+01  0.89682397225E+01  0.51100000000E-03 0. -1.
        -11    1    3    3    0    0 -0.14198952566E+02 -0.23648989851E+01 -0.24520144362E+02  0.28433087785E+02  0.51100000000E-03 0.  1.
        -12    1    3    3    0    0  0.29040750234E+01 -0.31571333909E+01 -0.94586805941E+01  0.10385941535E+02  0.00000000000E+00 0.  1.
</event>
<event>
 7    1  0.4519840E-010  0.4778727E+02  0.7816164E-02  0.1312668E+00
        -11   -1    0    0    0    0  0.00000000000E+00  0.00000000000E+00  0.45593999997E+02  0.45594000000E+02  0.51100000000E-03 0. -1.
         11   -1    0    0    0    0 -0.00000000000E+00 -0.00000000000E+00 -0.45593999997E+02  0.45594000000E+02  0.51100000000E-03 0.  1.
    9900012    2    1    2    0    0 -0.12507121830E+02 -0.26805268742E+02  0.31759615533E+02  0.47787266048E+02  0.19999977218E+02 0.  0.
        -12    1    1    2    0    0  0.12507121830E+02  0.26805268742E+02 -0.31759615533E+02  0.43400733952E+02  0.00000000000E+00 0.  1.
         11    1    3    3    0    0 -0.76231345359E+01 -0.19437589753E+02  0.30866151118E+02  0.37264612713E+02  0.51100000000E-03 0. -1.
        -11    1    3    3    0    0 -0.35736824927E+00  0.88919049387E+00  0.53947597769E+00  0.10997301449E+01  0.51100000000E-03 0.  1.
         12    1    3    3    0    0 -0.45266190446E+01 -0.82568694828E+01  0.35398843751E+00  0.94229231900E+01  0.00000000000E+00 0. -1.
</event>
<event>
 7    1  0.4519840E-010  0.4778727E+02  0.7816164E-02  0.1312668E+00
        -11   -1    0    0    0    0  0.00000000000E+00  0.00000000000E+00  0.45593999997E+02  0.45594000000E+02  0.51100000000E-03 0. -1.
         11   -1    0    0    0    0 -0.00000000000E+00 -0.00000000000E+00 -0.45593999997E+02  0.45594000000E+02  0.51100000000E-03 0.  1.
    9900012    2    1    2    0    0  0.29435703965E+02 -0.22894142404E+01  0.31810708034E+02  0.47787271537E+02  0.20000002245E+02 0.  0.
        -12    1    1    2    0    0 -0.29435703965E+02  0.22894142404E+01 -0.31810708034E+02  0.43400728463E+02  0.00000000000E+00 0.  1.
         11    1    3    3    0    0  0.67642075454E+01  0.27264310428E+01  0.77427373582E+01  0.10636630670E+02  0.51100000000E-03 0. -1.
        -11    1    3    3    0    0 -0.93409230316E+00 -0.48862691965E+00 -0.16444729657E+01  0.19533500182E+01  0.51100000000E-03 0.  1.
        -12    1    3    3    0    0  0.23605588723E+02 -0.45272183635E+01  0.25712443642E+02  0.35197290849E+02  0.00000000000E+00 0.  1.
</event>
<event>
 7    1  0.4519840E-010  0.4778727E+02  0.7816164E-02  0.1312668E+00
        -11   -1    0    0    0    0  0.00000000000E+00  0.00000000000E+00  0.45593999997E+02  0.45594000000E+02  0.51100000000E-03 0. -1.
         11   -1    0    0    0    0 -0.00000000000E+00 -0.00000000000E+00 -0.45593999997E+02  0.45594000000E+02  0.51100000000E-03 0.  1.
    9900012    2    1    2    0    0 -0.63835674267E+00  0.61636858451E+01  0.42956081024E+02  0.47787269367E+02  0.19999992351E+02 0.  0.
        -12    1    1    2    0    0  0.63835674267E+00 -0.61636858451E+01 -0.42956081024E+02  0.43400730633E+02  0.00000000000E+00 0.  1.
         11    1    3    3    0    0 -0.98474207759E-01 -0.40928159621E+00  0.87252971240E+00  0.96877084738E+00  0.51100000000E-03 0. -1.
        -11    1    3    3    0    0 -0.62111011987E+01 -0.40891129695E+01  0.94694507414E+01  0.12040312313E+02  0.51100000000E-03 0.  1.
        -12    1    3    3    0    0  0.56712186638E+01  0.10662080411E+02  0.32614100571E+02  0.34778186207E+02  0.00000000000E+00 0.  1.
</event>
<event>
 7    1  0.4519840E-010  0.4778728E+02  0.7816164E-02  0.1312668E+00
        -11   -1    0    0    0    0  0.00000000000E+00  0.00000000000E+00  0.45593999997E+02  0.45594000000E+02  0.51100000000E-03 0. -1.
         11   -1    0    0    0    0 -0.00000000000E+00 -0.00000000000E+00 -0.45593999997E+02  0.45594000000E+02  0.51100000000E-03 0.  1.
    9900012    2    1    2    0    0  0.42715796842E+02 -0.13850399197E+00  0.76788194816E+01  0.47787277058E+02  0.20000027420E+02 0.  0.
        -12    1    1    2    0    0 -0.42715796842E+02  0.13850399197E+00 -0.76788194816E+01  0.43400722942E+02  0.00000000000E+00 0.  1.
         11    1    3    3    0    0  0.35194371433E+01  0.87502383535E+00  0.29271281641E+01  0.46604918269E+01  0.51100000000E-03 0. -1.
        -11    1    3    3    0    0 -0.49324320705E+00 -0.12987146113E+01 -0.24229016946E+01  0.27929198674E+01  0.51100000000E-03 0.  1.
         12    1    3    3    0    0  0.39689602906E+02  0.28518678395E+00  0.71745930122E+01  0.40333865364E+02  0.00000000000E+00 0. -1.
</event>
<event>
 7    1  0.4519840E-010  0.4778726E+02  0.7816164E-02  0.1312668E+00
        -11   -1    0    0    0    0  0.00000000000E+00  0.00000000000E+00  0.45593999997E+02  0.45594000000E+02  0.51100000000E-03 0.  1.
         11   -1    0    0    0    0 -0.00000000000E+00 -0.00000000000E+00 -0.45593999997E+02  0.45594000000E+02  0.51100000000E-03 0. -1.
    9900012    2    1    2    0    0 -0.94505152437E+01  0.42357737161E+02 -0.36591331827E+00  0.47787262353E+02  0.19999960370E+02 0.  0.
         12    1    1    2    0    0  0.94505152437E+01 -0.42357737161E+02  0.36591331827E+00  0.43400737647E+02  0.00000000000E+00 0. -1.
         11    1    3    3    0    0 -0.12077636172E+01  0.12088643839E+02 -0.87526119455E+00  0.12180315482E+02  0.51100000000E-03 0. -1.
        -11    1    3    3    0    0 -0.12695637907E+01  0.25191895251E+02 -0.45147483191E+01  0.25624721095E+02  0.51100000000E-03 0.  1.
         12    1    3    3    0    0 -0.69731878358E+01  0.50771980704E+01  0.50240961954E+01  0.99822257748E+01  0.00000000000E+00 0. -1.
</event>
<event>
 7    1  0.4519840E-010  0.4778727E+02  0.7816164E-02  0.1312668E+00
        -11   -1    0    0    0    0  0.00000000000E+00  0.00000000000E+00  0.45593999997E+02  0.45594000000E+02  0.51100000000E-03 0. -1.
         11   -1    0    0    0    0 -0.00000000000E+00 -0.00000000000E+00 -0.45593999997E+02  0.45594000000E+02  0.51100000000E-03 0.  1.
    9900012    2    1    2    0    0  0.27942982971E+02  0.27779247901E+02  0.18196877069E+02  0.47787271362E+02  0.20000001448E+02 0.  0.
        -12    1    1    2    0    0 -0.27942982971E+02 -0.27779247901E+02 -0.18196877069E+02  0.43400728638E+02  0.00000000000E+00 0.  1.
         11    1    3    3    0    0  0.11384705670E+01  0.37871139041E+01  0.21392121610E+01  0.44960622644E+01  0.51100000000E-03 0. -1.
        -11    1    3    3    0    0  0.21382287257E+02  0.91214565393E+01  0.14472842771E+02  0.27383687770E+02  0.51100000000E-03 0.  1.
        -12    1    3    3    0    0  0.54222251467E+01  0.14870677458E+02  0.15848221373E+01  0.15907521328E+02  0.00000000000E+00 0.  1.
</event>
<event>
 7    1  0.4519840E-010  0.4778726E+02  0.7816164E-02  0.1312668E+00
        -11   -1    0    0    0    0  0.00000000000E+00  0.00000000000E+00  0.45593999997E+02  0.45594000000E+02  0.51100000000E-03 0. -1.
         11   -1    0    0    0    0 -0.00000000000E+00 -0.00000000000E+00 -0.45593999997E+02  0.45594000000E+02  0.51100000000E-03 0.  1.
    9900012    2    1    2    0    0 -0.20781552543E+01 -0.31917307042E+02  0.29335824608E+02  0.47787264713E+02  0.19999971131E+02 0.  0.
        -12    1    1    2    0    0  0.20781552543E+01  0.31917307042E+02 -0.29335824608E+02  0.43400735287E+02  0.00000000000E+00 0.  1.
         11    1    3    3    0    0  0.71611389012E+00 -0.37673785540E+01  0.95601381772E+01  0.10300592337E+02  0.51100000000E-03 0. -1.
        -11    1    3    3    0    0  0.52261474613E+01 -0.54657017775E+01  0.29050900374E+01  0.81009913958E+01  0.51100000000E-03 0.  1.
         12    1    3    3    0    0 -0.80204166058E+01 -0.22684226710E+02  0.16870596393E+02  0.29385680980E+02  0.00000000000E+00 0. -1.
</event>
<event>
 7    1  0.4519840E-010  0.4778727E+02  0.7816164E-02  0.1312668E+00
        -11   -1    0    0    0    0  0.00000000000E+00  0.00000000000E+00  0.45593999997E+02  0.45594000000E+02  0.51100000000E-03 0. -1.
         11   -1    0    0    0    0 -0.00000000000E+00 -0.00000000000E+00 -0.45593999997E+02  0.45594000000E+02  0.51100000000E-03 0.  1.
    9900012    2    1    2    0    0 -0.55535819006E+01 -0.18024337998E+02 -0.39088413061E+02  0.47787273418E+02  0.20000010821E+02 0.  0.
         12    1    1    2    0    0  0.55535819006E+01  0.18024337998E+02  0.39088413061E+02  0.43400726582E+02  0.00000000000E+00 0. -1.
         11    1    3    3    0    0 -0.97346795860E+00 -0.59407372650E+01 -0.51186728261E+01  0.79019498150E+01  0.51100000000E-03 0. -1.
        -11    1    3    3    0    0 -0.53768433876E+01  0.27524881778E+01 -0.10182732457E+02  0.11839538696E+02  0.51100000000E-03 0.  1.
        -12    1    3    3    0    0  0.79672944562E+00 -0.14836088911E+02 -0.23787007778E+02  0.28045784907E+02  0.00000000000E+00 0.  1.
</event>
<event>
 7    1  0.4519840E-010  0.4778727E+02  0.7816164E-02  0.1312668E+00
        -11   -1    0    0    0    0  0.00000000000E+00  0.00000000000E+00  0.45593999997E+02  0.45594000000E+02  0.51100000000E-03 0. -1.
         11   -1    0    0    0    0 -0.00000000000E+00 -0.00000000000E+00 -0.45593999997E+02  0.45594000000E+02  0.51100000000E-03 0.  1.
    9900012    2    1    2    0    0  0.37756718648E+02  0.58425134469E+01 -0.20589280916E+02  0.47787271261E+02  0.20000000987E+02 0.  0.
         12    1    1    2    0    0 -0.37756718648E+02 -0.58425134469E+01  0.20589280916E+02  0.43400728739E+02  0.00000000000E+00 0. -1.
         11    1    3    3    0    0  0.13202212828E+02 -0.23865024951E+01 -0.56135096883E+00  0.13427916178E+02  0.51100000000E-03 0. -1.
        -11    1    3    3    0    0  0.83137665119E+00  0.22971649729E+01 -0.52416715544E+01  0.57830160811E+01  0.51100000000E-03 0.  1.
         12    1    3    3    0    0  0.23723129168E+02  0.59318509691E+01 -0.14786258393E+02  0.28576339002E+02  0.00000000000E+00 0. -1.
</event>
<event>
 7    1  0.4519840E-010  0.4778727E+02  0.7816164E-02  0.1312668E+00
        -11   -1    0    0    0    0  0.00000000000E+00  0.00000000000E+00  0.45593999997E+02  0.45594000000E+02  0.51100000000E-03 0. -1.
         11   -1    0    0    0    0 -0.00000000000E+00 -0.00000000000E+00 -0.45593999997E+02  0.45594000000E+02  0.51100000000E-03 0.  1.
    9900012    2    1    2    0    0 -0.50185242695E+01  0.11477440777E+02 -0.41553649074E+02  0.47787274384E+02  0.20000015225E+02 0.  0.
         12    1    1    2    0    0  0.50185242695E+01 -0.11477440777E+02  0.41553649074E+02  0.43400725616E+02  0.00000000000E+00 0. -1.
         11    1    3    3    0    0 -0.47147740582E+01 -0.23976850398E+01 -0.57913614193E+01  0.78433319016E+01  0.51100000000E-03 0. -1.
        -11    1    3    3    0    0  0.31748131578E+01  0.16891797333E+01 -0.16495835563E+02  0.16883286349E+02  0.51100000000E-03 0.  1.
         12    1    3    3    0    0 -0.34785633692E+01  0.12185946084E+02 -0.19266452092E+02  0.23060656133E+02  0.00000000000E+00 0. -1.
</event>
<event>
 7    1  0.4519840E-010  0.4778728E+02  0.7816164E-02  0.1312668E+00
        -11   -1    0    0    0    0  0.00000000000E+00  0.00000000000E+00  0.45593999997E+02  0.45594000000E+02  0.51100000000E-03 0. -1.
         11   -1    0    0    0    0 -0.00000000000E+00 -0.00000000000E+00 -0.45593999997E+02  0.45594000000E+02  0.51100000000E-03 0.  1.
    9900012    2    1    2    0    0  0.17136441780E+02 -0.12890981662E+02  0.37733106222E+02  0.47787281685E+02  0.20000048513E+02 0.  0.
        -12    1    1    2    0    0 -0.17136441780E+02  0.12890981662E+02 -0.37733106222E+02  0.43400718315E+02  0.00000000000E+00 0.  1.
         11    1    3    3    0    0  0.21160008895E+00 -0.27285034309E+01 -0.21342058648E+00  0.27450053148E+01  0.51100000000E-03 0. -1.
        -11    1    3    3    0    0 -0.22682611047E+01 -0.83205103792E+00  0.16133119763E+01  0.29051838432E+01  0.51100000000E-03 0.  1.
         12    1    3    3    0    0  0.19193102796E+02 -0.93304271932E+01  0.36333214832E+02  0.42137092527E+02  0.00000000000E+00 0. -1.
</event>
<event>
 7    1  0.4519840E-010  0.4778726E+02  0.7816164E-02  0.1312668E+00
        -11   -1    0    0    0    0  0.00000000000E+00  0.00000000000E+00  0.45593999997E+02  0.45594000000E+02  0.51100000000E-03 0. -1.
         11   -1    0    0    0    0 -0.00000000000E+00 -0.00000000000E+00 -0.45593999997E+02  0.45594000000E+02  0.51100000000E-03 0.  1.
    9900012    2    1    2    0    0  0.62334398294E+01 -0.32598644326E+02  0.27965994191E+02  0.47787260201E+02  0.19999950560E+02 0.  0.
        -12    1    1    2    0    0 -0.62334398294E+01  0.32598644326E+02 -0.27965994191E+02  0.43400739799E+02  0.00000000000E+00 0.  1.
         11    1    3    3    0    0 -0.86124542021E+00 -0.50688092245E+01  0.77320693976E+01  0.92854438805E+01  0.51100000000E-03 0. -1.
        -11    1    3    3    0    0  0.87413600206E+00 -0.20032450907E+02  0.20607146135E+02  0.28752698572E+02  0.51100000000E-03 0.  1.
        -12    1    3    3    0    0  0.62205492476E+01 -0.74973841943E+01 -0.37322134124E+00  0.97491177482E+01  0.00000000000E+00 0.  1.
</event>
<event>
 7    1  0.4519840E-010  0.4778727E+02  0.7816164E-02  0.1312668E+00
        -11   -1    0    0    0    0  0.00000000000E+00  0.00000000000E+00  0.45593999997E+02  0.45594000000E+02  0.51100000000E-03 0.  1.
         11   -1    0    0    0    0 -0.00000000000E+00 -0.00000000000E+00 -0.45593999997E+02  0.45594000000E+02  0.51100000000E-03 0. -1.
    9900012    2    1    2    0    0 -0.37271276460E+02 -0.22235567080E+02  0.23396710216E+00  0.47787271516E+02  0.20000002151E+02 0.  0.
        -12    1    1    2    0    0  0.37271276460E+02  0.22235567080E+02 -0.23396710216E+00  0.43400728484E+02  0.00000000000E+00 0.  1.
         11    1    3    3    0    0 -0.12323856981E+02 -0.63063555657E+01 -0.38995335392E+01  0.14382417512E+02  0.51100000000E-03 0. -1.
        -11    1    3    3    0    0 -0.91695220640E+01  0.18131035546E+01  0.28086220284E+00  0.93512760210E+01  0.51100000000E-03 0.  1.
        -12    1    3    3    0    0 -0.15777897414E+02 -0.17742315069E+02  0.38526384385E+01  0.24053577983E+02  0.00000000000E+00 0.  1.
</event>
<event>
 7    1  0.4519840E-010  0.4778731E+02  0.7816164E-02  0.1312668E+00
        -11   -1    0    0    0    0  0.00000000000E+00  0.00000000000E+00  0.45593999997E+02  0.45594000000E+02  0.51100000000E-03 0. -1.
         11   -1    0    0    0    0 -0.00000000000E+00 -0.00000000000E+00 -0.45593999997E+02  0.45594000000E+02  0.51100000000E-03 0.  1.
    9900012    2    1    2    0    0  0.17959248051E+02  0.77495068674E+01  0.38743135539E+02  0.47787308777E+02  0.20000172036E+02 0.  0.
        -12    1    1    2    0    0 -0.17959248051E+02 -0.77495068674E+01 -0.38743135539E+02  0.43400691223E+02  0.00000000000E+00 0.  1.
         11    1    3    3    0    0  0.44909592349E+01 -0.15015580012E+00  0.34224168147E+01  0.56483801863E+01  0.51100000000E-03 0. -1.
        -11    1    3    3    0    0  0.90155114505E+01 -0.54277351115E+00  0.49408357907E+01  0.10294945768E+02  0.51100000000E-03 0.  1.
         12    1    3    3    0    0  0.44527773655E+01  0.84424361786E+01  0.30379882934E+02  0.31843982822E+02  0.00000000000E+00 0. -1.
</event>
<event>
 7    1  0.4519840E-010  0.4778727E+02  0.7816164E-02  0.1312668E+00
        -11   -1    0    0    0    0  0.00000000000E+00  0.00000000000E+00  0.45593999997E+02  0.45594000000E+02  0.51100000000E-03 0.  1.
         11   -1    0    0    0    0 -0.00000000000E+00 -0.00000000000E+00 -0.45593999997E+02  0.45594000000E+02  0.51100000000E-03 0. -1.
    9900012    2    1    2    0    0 -0.20525298659E+02  0.36123856063E+02  0.12546013932E+02  0.47787270427E+02  0.19999997186E+02 0.  0.
         12    1    1    2    0    0  0.20525298659E+02 -0.36123856063E+02 -0.12546013932E+02  0.43400729573E+02  0.00000000000E+00 0. -1.
         11    1    3    3    0    0 -0.78108973967E+01  0.25410206476E+02  0.32416767328E+01  0.26780537328E+02  0.51100000000E-03 0. -1.
        -11    1    3    3    0    0 -0.58456943892E+01  0.87741194807E+01  0.18824111704E+01  0.10709845360E+02  0.51100000000E-03 0.  1.
        -12    1    3    3    0    0 -0.68687068733E+01  0.19395301057E+01  0.74219260283E+01  0.10296887739E+02  0.00000000000E+00 0.  1.
</event>
<event>
 7    1  0.4519840E-010  0.4778727E+02  0.7816164E-02  0.1312668E+00
        -11   -1    0    0    0    0  0.00000000000E+00  0.00000000000E+00  0.45593999997E+02  0.45594000000E+02  0.51100000000E-03 0.  1.
         11   -1    0    0    0    0 -0.00000000000E+00 -0.00000000000E+00 -0.45593999997E+02  0.45594000000E+02  0.51100000000E-03 0. -1.
    9900012    2    1    2    0    0 -0.17881458269E+02  0.38390486298E+02 -0.94893230373E+01  0.47787271438E+02  0.20000001793E+02 0.  0.
         12    1    1    2    0    0  0.17881458269E+02 -0.38390486298E+02  0.94893230373E+01  0.43400728562E+02  0.00000000000E+00 0. -1.
         11    1    3    3    0    0 -0.56998151771E+01  0.94264796520E+01  0.44783023399E+01  0.11891240633E+02  0.51100000000E-03 0. -1.
        -11    1    3    3    0    0 -0.68875869623E+01  0.15794977834E+02 -0.20311186289E+01  0.17350666330E+02  0.51100000000E-03 0.  1.
        -12    1    3    3    0    0 -0.52940561292E+01  0.13169028813E+02 -0.11936506748E+02  0.18545364475E+02  0.00000000000E+00 0.  1.
</event>
<event>
 7    1  0.4519840E-010  0.4778727E+02  0.7816164E-02  0.1312668E+00
        -11   -1    0    0    0    0  0.00000000000E+00  0.00000000000E+00  0.45593999997E+02  0.45594000000E+02  0.51100000000E-03 0. -1.
         11   -1    0    0    0    0 -0.00000000000E+00 -0.00000000000E+00 -0.45593999997E+02  0.45594000000E+02  0.51100000000E-03 0.  1.
    9900012    2    1    2    0    0 -0.14090615436E+01 -0.14234270530E+02  0.40975889415E+02  0.47787269300E+02  0.19999992045E+02 0.  0.
        -12    1    1    2    0    0  0.14090615436E+01  0.14234270530E+02 -0.40975889415E+02  0.43400730700E+02  0.00000000000E+00 0.  1.
         11    1    3    3    0    0  0.44170797190E+01 -0.59157021782E+01  0.61832795017E+01  0.96301127284E+01  0.51100000000E-03 0. -1.
        -11    1    3    3    0    0 -0.22165487776E+01 -0.83304306268E+01  0.10442056499E+02  0.13540520932E+02  0.51100000000E-03 0.  1.
        -12    1    3    3    0    0 -0.36095924850E+01  0.11862275015E-01  0.24350553414E+02  0.24616635639E+02  0.00000000000E+00 0.  1.
</event>
<event>
 7    1  0.4519840E-010  0.4778727E+02  0.7816164E-02  0.1312668E+00
        -11   -1    0    0    0    0  0.00000000000E+00  0.00000000000E+00  0.45593999997E+02  0.45594000000E+02  0.51100000000E-03 0.  1.
         11   -1    0    0    0    0 -0.00000000000E+00 -0.00000000000E+00 -0.45593999997E+02  0.45594000000E+02  0.51100000000E-03 0. -1.
    9900012    2    1    2    0    0 -0.22137186077E+02 -0.37188373238E+02 -0.32547078362E+01  0.47787271497E+02  0.20000002063E+02 0.  0.
         12    1    1    2    0    0  0.22137186077E+02  0.37188373238E+02  0.32547078362E+01  0.43400728503E+02  0.00000000000E+00 0. -1.
         11    1    3    3    0    0 -0.16780118534E+02 -0.10475721258E+02 -0.31169892527E+01  0.20025701889E+02  0.51100000000E-03 0. -1.
        -11    1    3    3    0    0 -0.35956389444E+01 -0.61632601697E+01 -0.14091344610E+00  0.71368236771E+01  0.51100000000E-03 0.  1.
         12    1    3    3    0    0 -0.17614285980E+01 -0.20549391810E+02  0.31948625926E-02  0.20624745930E+02  0.00000000000E+00 0. -1.
</event>
<event>
 7    1  0.4519840E-010  0.4778729E+02  0.7816164E-02  0.1312668E+00
        -11   -1    0    0    0    0  0.00000000000E+00  0.00000000000E+00  0.45593999997E+02  0.45594000000E+02  0.51100000000E-03 0.  1.
         11   -1    0    0    0    0 -0.00000000000E+00 -0.00000000000E+00 -0.45593999997E+02  0.45594000000E+02  0.51100000000E-03 0. -1.
    9900012    2    1    2    0    0 -0.80470536424E+01 -0.35078616346E+02 -0.24256074174E+02  0.47787291119E+02  0.20000091528E+02 0.  0.
         12    1    1    2    0    0  0.80470536424E+01  0.35078616346E+02  0.24256074174E+02  0.43400708881E+02  0.00000000000E+00 0. -1.
         11    1    3    3    0    0 -0.25026198369E+01 -0.25819701408E+01 -0.50931574521E+01  0.62345752822E+01  0.51100000000E-03 0. -1.
        -11    1    3    3    0    0 -0.73316968593E+01 -0.17783450815E+02 -0.27383445503E+01  0.19429447570E+02  0.51100000000E-03 0.  1.
        -12    1    3    3    0    0  0.17872630538E+01 -0.14713195390E+02 -0.16424572171E+02  0.22123268267E+02  0.00000000000E+00 0.  1.
</event>
<event>
 7    1  0.4519840E-010  0.4778727E+02  0.7816164E-02  0.1312668E+00
        -11   -1    0    0    0    0  0.00000000000E+00  0.00000000000E+00  0.45593999997E+02  0.45594000000E+02  0.51100000000E-03 0. -1.
         11   -1    0    0    0    0 -0.00000000000E+00 -0.00000000000E+00 -0.45593999997E+02  0.45594000000E+02  0.51100000000E-03 0.  1.
    9900012    2    1    2    0    0  0.26930248526E+02  0.29497682808E+02  0.16978563376E+02  0.47787271999E+02  0.20000004354E+02 0.  0.
        -12    1    1    2    0    0 -0.26930248526E+02 -0.29497682808E+02 -0.16978563376E+02  0.43400728001E+02  0.00000000000E+00 0.  1.
         11    1    3    3    0    0  0.52878986164E+01  0.12563466404E+02  0.48054522497E+01  0.14453197966E+02  0.51100000000E-03 0. -1.
        -11    1    3    3    0    0  0.68475468509E+01  0.14303925352E+02  0.46314243959E+01  0.16520934312E+02  0.51100000000E-03 0.  1.
        -12    1    3    3    0    0  0.14794803059E+02  0.26302910522E+01  0.75416867300E+01  0.16813139721E+02  0.00000000000E+00 0.  1.
</event>
<event>
 7    1  0.4519840E-010  0.4778727E+02  0.7816164E-02  0.1312668E+00
        -11   -1    0    0    0    0  0.00000000000E+00  0.00000000000E+00  0.45593999997E+02  0.45594000000E+02  0.51100000000E-03 0. -1.
         11   -1    0    0    0    0 -0.00000000000E+00 -0.00000000000E+00 -0.45593999997E+02  0.45594000000E+02  0.51100000000E-03 0.  1.
    9900012    2    1    2    0    0  0.25297120270E+01 -0.34164608381E+00 -0.43325591701E+02  0.47787273494E+02  0.20000011171E+02 0.  0.
         12    1    1    2    0    0 -0.25297120270E+01  0.34164608381E+00  0.43325591701E+02  0.43400726506E+02  0.00000000000E+00 0. -1.
         11    1    3    3    0    0  0.48929838252E+01 -0.19834309927E+01 -0.20235573617E+02  0.20913003828E+02  0.51100000000E-03 0. -1.
        -11    1    3    3    0    0  0.50126714444E+01  0.61479068556E-02 -0.14952044490E+02  0.15769925412E+02  0.51100000000E-03 0.  1.
         12    1    3    3    0    0 -0.73759432426E+01  0.16356370020E+01 -0.81379735935E+01  0.11104344255E+02  0.00000000000E+00 0. -1.
</event>
<event>
 7    1  0.4519840E-010  0.4778728E+02  0.7816164E-02  0.1312668E+00
        -11   -1    0    0    0    0  0.00000000000E+00  0.00000000000E+00  0.45593999997E+02  0.45594000000E+02  0.51100000000E-03 0. -1.
         11   -1    0    0    0    0 -0.00000000000E+00 -0.00000000000E+00 -0.45593999997E+02  0.45594000000E+02  0.51100000000E-03 0.  1.
    9900012    2    1    2    0    0 -0.75948293206E+01  0.12386416670E+02 -0.40896430918E+02  0.47787276364E+02  0.20000024254E+02 0.  0.
         12    1    1    2    0    0  0.75948293206E+01 -0.12386416670E+02  0.40896430918E+02  0.43400723636E+02  0.00000000000E+00 0. -1.
         11    1    3    3    0    0 -0.20665842139E+01  0.82911571527E+00  0.18046213413E+01  0.28661579910E+01  0.51100000000E-03 0. -1.
        -11    1    3    3    0    0 -0.21089116707E+00  0.31362181672E+01 -0.48327090758E+01  0.57650166304E+01  0.51100000000E-03 0.  1.
        -12    1    3    3    0    0 -0.53173539396E+01  0.84210827875E+01 -0.37868343183E+02  0.39156101743E+02  0.00000000000E+00 0.  1.
</event>
<event>
 7    1  0.4519840E-010  0.4778728E+02  0.7816164E-02  0.1312668E+00
        -11   -1    0    0    0    0  0.00000000000E+00  0.00000000000E+00  0.45593999997E+02  0.45594000000E+02  0.51100000000E-03 0. -1.
         11   -1    0    0    0    0 -0.00000000000E+00 -0.00000000000E+00 -0.45593999997E+02  0.45594000000E+02  0.51100000000E-03 0.  1.
    9900012    2    1    2    0    0  0.13823862743E+02 -0.93914107208E+01  0.40054026061E+02  0.47787276732E+02  0.20000025932E+02 0.  0.
        -12    1    1    2    0    0 -0.13823862743E+02  0.93914107208E+01 -0.40054026061E+02  0.43400723268E+02  0.00000000000E+00 0.  1.
         11    1    3    3    0    0 -0.27779115226E+00 -0.40934948794E+01  0.40397250459E+01  0.57578856327E+01  0.51100000000E-03 0. -1.
        -11    1    3    3    0    0  0.37454557408E+01 -0.40152624563E+01  0.11145986244E+01  0.56029547253E+01  0.51100000000E-03 0.  1.
         12    1    3    3    0    0  0.10356198155E+02 -0.12826533850E+01  0.34899702391E+02  0.36426436374E+02  0.00000000000E+00 0. -1.
</event>
<event>
 7    1  0.4519840E-010  0.4778727E+02  0.7816164E-02  0.1312668E+00
        -11   -1    0    0    0    0  0.00000000000E+00  0.00000000000E+00  0.45593999997E+02  0.45594000000E+02  0.51100000000E-03 0. -1.
         11   -1    0    0    0    0 -0.00000000000E+00 -0.00000000000E+00 -0.45593999997E+02  0.45594000000E+02  0.51100000000E-03 0.  1.
    9900012    2    1    2    0    0 -0.89553360254E+01  0.28489271513E+02  0.31492641491E+02  0.47787273015E+02  0.20000008987E+02 0.  0.
        -12    1    1    2    0    0  0.89553360254E+01 -0.28489271513E+02 -0.31492641491E+02  0.43400726985E+02  0.00000000000E+00 0.  1.
         11    1    3    3    0    0 -0.89692444387E+00  0.56912907012E+01  0.97103439851E+01  0.11290971786E+02  0.51100000000E-03 0. -1.
        -11    1    3    3    0    0 -0.55394268197E+01  0.31116903007E+01 -0.83228743615E+00  0.64078521094E+01  0.51100000000E-03 0.  1.
        -12    1    3    3    0    0 -0.25189847618E+01  0.19686290511E+02  0.22614584943E+02  0.30088449120E+02  0.00000000000E+00 0.  1.
</event>
<event>
 7    1  0.4519840E-010  0.4778727E+02  0.7816164E-02  0.1312668E+00
        -11   -1    0    0    0    0  0.00000000000E+00  0.00000000000E+00  0.45593999997E+02  0.45594000000E+02  0.51100000000E-03 0. -1.
         11   -1    0    0    0    0 -0.00000000000E+00 -0.00000000000E+00 -0.45593999997E+02  0.45594000000E+02  0.51100000000E-03 0.  1.
    9900012    2    1    2    0    0 -0.32559095326E+02  0.21384111151E+02 -0.19137613579E+02  0.47787272453E+02  0.20000006420E+02 0.  0.
         12    1    1    2    0    0  0.32559095326E+02 -0.21384111151E+02  0.19137613579E+02  0.43400727547E+02  0.00000000000E+00 0. -1.
         11    1    3    3    0    0 -0.11717560950E+02  0.17904537023E+00 -0.28086274110E+01  0.12050795827E+02  0.51100000000E-03 0. -1.
        -11    1    3    3    0    0 -0.16713107672E+02  0.92371579319E+01 -0.90324271175E+01  0.21124341282E+02  0.51100000000E-03 0.  1.
         12    1    3    3    0    0 -0.41284267040E+01  0.11967907849E+02 -0.72965590502E+01  0.14612135344E+02  0.00000000000E+00 0. -1.
</event>
<event>
 7    1  0.4519840E-010  0.4778727E+02  0.7816164E-02  0.1312668E+00
        -11   -1    0    0    0    0  0.00000000000E+00  0.00000000000E+00  0.45593999997E+02  0.45594000000E+02  0.51100000000E-03 0. -1.
         11   -1    0    0    0    0 -0.00000000000E+00 -0.00000000000E+00 -0.45593999997E+02  0.45594000000E+02  0.51100000000E-03 0.  1.
    9900012    2    1    2    0    0  0.22751963218E+01  0.33936483709E+02  0.26958525554E+02  0.47787267922E+02  0.19999985763E+02 0.  0.
        -12    1    1    2    0    0 -0.22751963218E+01 -0.33936483709E+02 -0.26958525554E+02  0.43400732078E+02  0.00000000000E+00 0.  1.
         11    1    3    3    0    0 -0.19197292509E+01 -0.93808960751E+00  0.23789168933E+01  0.31975957148E+01  0.51100000000E-03 0. -1.
        -11    1    3    3    0    0 -0.14548916948E+01  0.14894438135E+02  0.43120829216E+01  0.15574179163E+02  0.51100000000E-03 0.  1.
         12    1    3    3    0    0  0.56498172675E+01  0.19980135182E+02  0.20267525739E+02  0.29015493045E+02  0.00000000000E+00 0. -1.
</event>
<event>
 7    1  0.4519840E-010  0.4778726E+02  0.7816164E-02  0.1312668E+00
        -11   -1    0    0    0    0  0.00000000000E+00  0.00000000000E+00  0.45593999997E+02  0.45594000000E+02  0.51100000000E-03 0. -1.
         11   -1    0    0    0    0 -0.00000000000E+00 -0.00000000000E+00 -0.45593999997E+02  0.45594000000E+02  0.51100000000E-03 0.  1.
    9900012    2    1    2    0    0 -0.13379236320E+02  0.23836521655E+02 -0.33711136254E+02  0.47787257649E+02  0.19999938924E+02 0.  0.
         12    1    1    2    0    0  0.13379236320E+02 -0.23836521655E+02  0.33711136254E+02  0.43400742351E+02  0.00000000000E+00 0. -1.
         11    1    3    3    0    0 -0.62636434368E+01  0.52486595707E+01 -0.14363226986E+02  0.16525251771E+02  0.51100000000E-03 0. -1.
        -11    1    3    3    0    0 -0.11025337162E+02  0.14558618329E+02 -0.11390499183E+02  0.21523357059E+02  0.51100000000E-03 0.  1.
        -12    1    3    3    0    0  0.39097442783E+01  0.40292437546E+01 -0.79574100849E+01  0.97386488187E+01  0.00000000000E+00 0.  1.
</event>
<event>
 7    1  0.4519840E-010  0.4778727E+02  0.7816164E-02  0.1312668E+00
        -11   -1    0    0    0    0  0.00000000000E+00  0.00000000000E+00  0.45593999997E+02  0.45594000000E+02  0.51100000000E-03 0.  1.
         11   -1    0    0    0    0 -0.00000000000E+00 -0.00000000000E+00 -0.45593999997E+02  0.45594000000E+02  0.51100000000E-03 0. -1.
    9900012    2    1    2    0    0  0.31302141603E+02 -0.25375364552E+02  0.16121105128E+02  0.47787271601E+02  0.20000002535E+02 0.  0.
        -12    1    1    2    0    0 -0.31302141603E+02  0.25375364552E+02 -0.16121105128E+02  0.43400728399E+02  0.00000000000E+00 0.  1.
         11    1    3    3    0    0  0.43357805597E+01  0.13587755231E+01  0.29052925819E+01  0.53931427973E+01  0.51100000000E-03 0. -1.
        -11    1    3    3    0    0  0.98531754565E+01 -0.93888164517E+01  0.11755401919E+02  0.17984004434E+02  0.51100000000E-03 0.  1.
         12    1    3    3    0    0  0.17113185587E+02 -0.17345323623E+02  0.14604106263E+01  0.24410124369E+02  0.00000000000E+00 0. -1.
</event>
<event>
 7    1  0.4519840E-010  0.4778727E+02  0.7816164E-02  0.1312668E+00
        -11   -1    0    0    0    0  0.00000000000E+00  0.00000000000E+00  0.45593999997E+02  0.45594000000E+02  0.51100000000E-03 0. -1.
         11   -1    0    0    0    0 -0.00000000000E+00 -0.00000000000E+00 -0.45593999997E+02  0.45594000000E+02  0.51100000000E-03 0.  1.
    9900012    2    1    2    0    0 -0.37066913137E+02 -0.68725153171E+00 -0.22565340275E+02  0.47787274823E+02  0.20000017229E+02 0.  0.
         12    1    1    2    0    0  0.37066913137E+02  0.68725153171E+00  0.22565340275E+02  0.43400725177E+02  0.00000000000E+00 0. -1.
         11    1    3    3    0    0 -0.20516663783E+01 -0.27350391277E+01 -0.25903237888E+01  0.42894698448E+01  0.51100000000E-03 0. -1.
        -11    1    3    3    0    0 -0.15199372895E+02  0.87942081831E+01 -0.11007968844E+02  0.20725211997E+02  0.51100000000E-03 0.  1.
        -12    1    3    3    0    0 -0.19815873863E+02 -0.67464205871E+01 -0.89670476416E+01  0.22772592982E+02  0.00000000000E+00 0.  1.
</event>
<event>
 7    1  0.4519840E-010  0.4778728E+02  0.7816164E-02  0.1312668E+00
        -11   -1    0    0    0    0  0.00000000000E+00  0.00000000000E+00  0.45593999997E+02  0.45594000000E+02  0.51100000000E-03 0. -1.
         11   -1    0    0    0    0 -0.00000000000E+00 -0.00000000000E+00 -0.45593999997E+02  0.45594000000E+02  0.51100000000E-03 0.  1.
    9900012    2    1    2    0    0 -0.20928859307E+02 -0.12742478759E+02  0.35822263531E+02  0.47787280176E+02  0.20000041633E+02 0.  0.
        -12    1    1    2    0    0  0.20928859307E+02  0.12742478759E+02 -0.35822263531E+02  0.43400719824E+02  0.00000000000E+00 0.  1.
         11    1    3    3    0    0 -0.10345899594E+02 -0.83815112671E+01  0.29283658254E+02  0.32168618412E+02  0.51100000000E-03 0. -1.
        -11    1    3    3    0    0  0.33564172107E+00 -0.10431627973E+01 -0.13552861542E+01  0.17428840488E+01  0.51100000000E-03 0.  1.
        -12    1    3    3    0    0 -0.10918601434E+02 -0.33178046947E+01  0.78938914305E+01  0.13875777715E+02  0.00000000000E+00 0.  1.
</event>
<event>
 7    1  0.4519840E-010  0.4778728E+02  0.7816164E-02  0.1312668E+00
        -11   -1    0    0    0    0  0.00000000000E+00  0.00000000000E+00  0.45593999997E+02  0.45594000000E+02  0.51100000000E-03 0.  1.
         11   -1    0    0    0    0 -0.00000000000E+00 -0.00000000000E+00 -0.45593999997E+02  0.45594000000E+02  0.51100000000E-03 0. -1.
    9900012    2    1    2    0    0  0.26584679854E+01  0.40837568017E+02 -0.14451592136E+02  0.47787275020E+02  0.20000018125E+02 0.  0.
         12    1    1    2    0    0 -0.26584679854E+01 -0.40837568017E+02  0.14451592136E+02  0.43400724980E+02  0.00000000000E+00 0. -1.
         11    1    3    3    0    0 -0.28350780056E+01  0.14162400413E+01  0.17905287298E+01  0.36399720529E+01  0.51100000000E-03 0. -1.
        -11    1    3    3    0    0 -0.16790251356E+01  0.21069662641E+02 -0.61696750902E+01  0.22018508128E+02  0.51100000000E-03 0.  1.
         12    1    3    3    0    0  0.71725711266E+01  0.18351665335E+02 -0.10072445776E+02  0.22128794839E+02  0.00000000000E+00 0. -1.
</event>
<event>
 7    1  0.4519840E-010  0.4778727E+02  0.7816164E-02  0.1312668E+00
        -11   -1    0    0    0    0  0.00000000000E+00  0.00000000000E+00  0.45593999997E+02  0.45594000000E+02  0.51100000000E-03 0. -1.
         11   -1    0    0    0    0 -0.00000000000E+00 -0.00000000000E+00 -0.45593999997E+02  0.45594000000E+02  0.51100000000E-03 0.  1.
    9900012    2    1    2    0    0  0.81858431695E+01 -0.35863018987E+01  0.42470622706E+02  0.47787269791E+02  0.19999994284E+02 0.  0.
        -12    1    1    2    0    0 -0.81858431695E+01  0.35863018987E+01 -0.42470622706E+02  0.43400730209E+02  0.00000000000E+00 0.  1.
         11    1    3    3    0    0  0.10926574557E+01  0.45342053142E+01  0.10396660442E+02  0.11394887747E+02  0.51100000000E-03 0. -1.
        -11    1    3    3    0    0 -0.41359309485E-01  0.13023534270E+01  0.17855649230E+02  0.17903129468E+02  0.51100000000E-03 0.  1.
        -12    1    3    3    0    0  0.71345450233E+01 -0.94228606398E+01  0.14218313033E+02  0.18489252576E+02  0.00000000000E+00 0.  1.
</event>
<event>
 7    1  0.4519840E-010  0.4778727E+02  0.7816164E-02  0.1312668E+00
        -11   -1    0    0    0    0  0.00000000000E+00  0.00000000000E+00  0.45593999997E+02  0.45594000000E+02  0.51100000000E-03 0. -1.
         11   -1    0    0    0    0 -0.00000000000E+00 -0.00000000000E+00 -0.45593999997E+02  0.45594000000E+02  0.51100000000E-03 0.  1.
    9900012    2    1    2    0    0 -0.12408708685E+02 -0.21073161393E+02  0.35854831789E+02  0.47787272530E+02  0.20000006772E+02 0.  0.
        -12    1    1    2    0    0  0.12408708685E+02  0.21073161393E+02 -0.35854831789E+02  0.43400727470E+02  0.00000000000E+00 0.  1.
         11    1    3    3    0    0 -0.72707144291E+01 -0.63519478373E+01  0.12790046177E+02  0.16024849800E+02  0.51100000000E-03 0. -1.
        -11    1    3    3    0    0 -0.23730770940E+01  0.29518338630E+01  0.56144873549E+01  0.67725391522E+01  0.51100000000E-03 0.  1.
        -12    1    3    3    0    0 -0.27649171615E+01 -0.17673047418E+02  0.17450298258E+02  0.24989883578E+02  0.00000000000E+00 0.  1.
</event>
<event>
 7    1  0.4519840E-010  0.4778727E+02  0.7816164E-02  0.1312668E+00
        -11   -1    0    0    0    0  0.00000000000E+00  0.00000000000E+00  0.45593999997E+02  0.45594000000E+02  0.51100000000E-03 0. -1.
         11   -1    0    0    0    0 -0.00000000000E+00 -0.00000000000E+00 -0.45593999997E+02  0.45594000000E+02  0.51100000000E-03 0.  1.
    9900012    2    1    2    0    0 -0.55521534749E+01  0.54786561722E+01  0.42694041093E+02  0.47787271590E+02  0.20000002486E+02 0.  0.
        -12    1    1    2    0    0  0.55521534749E+01 -0.54786561722E+01 -0.42694041093E+02  0.43400728410E+02  0.00000000000E+00 0.  1.
         11    1    3    3    0    0  0.15245670666E+01 -0.13438505720E+01  0.16440432428E+02  0.16565568441E+02  0.51100000000E-03 0. -1.
        -11    1    3    3    0    0  0.34423703047E+01  0.48818662940E+01  0.70537754153E+01  0.92432829502E+01  0.51100000000E-03 0.  1.
         12    1    3    3    0    0 -0.10519090846E+02  0.19406404502E+01  0.19199833250E+02  0.21978420199E+02  0.00000000000E+00 0. -1.
</event>
<event>
 7    1  0.4519840E-010  0.4778727E+02  0.7816164E-02  0.1312668E+00
        -11   -1    0    0    0    0  0.00000000000E+00  0.00000000000E+00  0.45593999997E+02  0.45594000000E+02  0.51100000000E-03 0. -1.
         11   -1    0    0    0    0 -0.00000000000E+00 -0.00000000000E+00 -0.45593999997E+02  0.45594000000E+02  0.51100000000E-03 0.  1.
    9900012    2    1    2    0    0 -0.37506605461E+02 -0.17065541458E+02  0.13625162665E+02  0.47787271710E+02  0.20000003034E+02 0.  0.
        -12    1    1    2    0    0  0.37506605461E+02  0.17065541458E+02 -0.13625162665E+02  0.43400728290E+02  0.00000000000E+00 0.  1.
         11    1    3    3    0    0 -0.96553472054E+01 -0.18072059668E+01 -0.27094060620E+01  0.10189828484E+02  0.51100000000E-03 0. -1.
        -11    1    3    3    0    0 -0.93396072092E+01 -0.16299676494E+01  0.14598289367E+00  0.94818968896E+01  0.51100000000E-03 0.  1.
         12    1    3    3    0    0 -0.18511651046E+02 -0.13628367842E+02  0.16188585833E+02  0.28115546336E+02  0.00000000000E+00 0. -1.
</event>
<event>
 7    1  0.4519840E-010  0.4778727E+02  0.7816164E-02  0.1312668E+00
        -11   -1    0    0    0    0  0.00000000000E+00  0.00000000000E+00  0.45593999997E+02  0.45594000000E+02  0.51100000000E-03 0. -1.
         11   -1    0    0    0    0 -0.00000000000E+00 -0.00000000000E+00 -0.45593999997E+02  0.45594000000E+02  0.51100000000E-03 0.  1.
    9900012    2    1    2    0    0 -0.96656923481E+01 -0.33661431219E+02  0.25634075101E+02  0.47787269976E+02  0.19999995130E+02 0.  0.
        -12    1    1    2    0    0  0.96656923481E+01  0.33661431219E+02 -0.25634075101E+02  0.43400730024E+02  0.00000000000E+00 0.  1.
         11    1    3    3    0    0  0.30936324083E+00 -0.17359439888E+01  0.21715707362E+01  0.27973070748E+01  0.51100000000E-03 0. -1.
        -11    1    3    3    0    0 -0.14518047228E+02 -0.25420517584E+02  0.13453505212E+02  0.32217591659E+02  0.51100000000E-03 0.  1.
        -12    1    3    3    0    0  0.45429916386E+01 -0.65049696469E+01  0.10008999153E+02  0.12772371243E+02  0.00000000000E+00 0.  1.
</event>
<event>
 7    1  0.4519840E-010  0.4778727E+02  0.7816164E-02  0.1312668E+00
        -11   -1    0    0    0    0  0.00000000000E+00  0.00000000000E+00  0.45593999997E+02  0.45594000000E+02  0.51100000000E-03 0. -1.
         11   -1    0    0    0    0 -0.00000000000E+00 -0.00000000000E+00 -0.45593999997E+02  0.45594000000E+02  0.51100000000E-03 0.  1.
    9900012    2    1    2    0    0 -0.31442949476E+02  0.16975813866E+02  0.24633029377E+02  0.47787268849E+02  0.19999989990E+02 0.  0.
        -12    1    1    2    0    0  0.31442949476E+02 -0.16975813866E+02 -0.24633029377E+02  0.43400731151E+02  0.00000000000E+00 0.  1.
         11    1    3    3    0    0 -0.50318942839E+01  0.12807627795E+01  0.74857269646E+01  0.91102371995E+01  0.51100000000E-03 0.  1.
        -11    1    3    3    0    0 -0.28259662769E+02  0.16402338829E+02  0.16417614992E+02  0.36567517569E+02  0.51100000000E-03 0. -1.
         12    1    3    3    0    0  0.18486075771E+01 -0.70728774221E+00  0.72968741985E+00  0.21095140803E+01  0.00000000000E+00 0. -1.
</event>
<event>
 7    1  0.4519840E-010  0.4778727E+02  0.7816164E-02  0.1312668E+00
        -11   -1    0    0    0    0  0.00000000000E+00  0.00000000000E+00  0.45593999997E+02  0.45594000000E+02  0.51100000000E-03 0. -1.
         11   -1    0    0    0    0 -0.00000000000E+00 -0.00000000000E+00 -0.45593999997E+02  0.45594000000E+02  0.51100000000E-03 0.  1.
    9900012    2    1    2    0    0 -0.17065864777E+02  0.82664660202E+01  0.39039019012E+02  0.47787271821E+02  0.20000003541E+02 0.  0.
        -12    1    1    2    0    0  0.17065864777E+02 -0.82664660202E+01 -0.39039019012E+02  0.43400728179E+02  0.00000000000E+00 0.  1.
         11    1    3    3    0    0 -0.11570271711E+02  0.69881151003E+01  0.13995913359E+02  0.19457402990E+02  0.51100000000E-03 0. -1.
        -11    1    3    3    0    0 -0.20964968903E+01 -0.17240299619E+01 -0.16280397086E+00  0.27192064862E+01  0.51100000000E-03 0.  1.
         12    1    3    3    0    0 -0.33990961758E+01  0.30023808818E+01  0.25205909624E+02  0.25610662344E+02  0.00000000000E+00 0. -1.
</event>
<event>
 7    1  0.4519840E-010  0.4778729E+02  0.7816164E-02  0.1312668E+00
        -11   -1    0    0    0    0  0.00000000000E+00  0.00000000000E+00  0.45593999997E+02  0.45594000000E+02  0.51100000000E-03 0. -1.
         11   -1    0    0    0    0 -0.00000000000E+00 -0.00000000000E+00 -0.45593999997E+02  0.45594000000E+02  0.51100000000E-03 0.  1.
    9900012    2    1    2    0    0 -0.14765583415E+02  0.80390602311E+01  0.40012160645E+02  0.47787286383E+02  0.20000069936E+02 0.  0.
        -12    1    1    2    0    0  0.14765583415E+02 -0.80390602311E+01 -0.40012160645E+02  0.43400713617E+02  0.00000000000E+00 0.  1.
         11    1    3    3    0    0 -0.48519577384E+01  0.18705835214E+01  0.12935312362E+02  0.13941408923E+02  0.51100000000E-03 0. -1.
        -11    1    3    3    0    0  0.88689309032E+00  0.87106435999E+01  0.84711288183E+01  0.12182853319E+02  0.51100000000E-03 0.  1.
        -12    1    3    3    0    0 -0.10800518767E+02 -0.25421668902E+01  0.18605719464E+02  0.21663024141E+02  0.00000000000E+00 0.  1.
</event>
<event>
 7    1  0.4519840E-010  0.4778727E+02  0.7816164E-02  0.1312668E+00
        -11   -1    0    0    0    0  0.00000000000E+00  0.00000000000E+00  0.45593999997E+02  0.45594000000E+02  0.51100000000E-03 0. -1.
         11   -1    0    0    0    0 -0.00000000000E+00 -0.00000000000E+00 -0.45593999997E+02  0.45594000000E+02  0.51100000000E-03 0.  1.
    9900012    2    1    2    0    0 -0.20967918613E+02 -0.61038342629E-01 -0.37999547588E+02  0.47787274735E+02  0.20000016827E+02 0.  0.
         12    1    1    2    0    0  0.20967918613E+02  0.61038342629E-01  0.37999547588E+02  0.43400725265E+02  0.00000000000E+00 0. -1.
         11    1    3    3    0    0 -0.14702425537E+01 -0.10977305295E+00  0.24809696164E+00  0.14950637623E+01  0.51100000000E-03 0. -1.
        -11    1    3    3    0    0 -0.11553399204E+01  0.85755759025E+00 -0.21165752360E+02  0.21214600834E+02  0.51100000000E-03 0.  1.
        -12    1    3    3    0    0 -0.18342336138E+02 -0.80882287993E+00 -0.17081892190E+02  0.25077610139E+02  0.00000000000E+00 0.  1.
</event>
<event>
 7    1  0.4519840E-010  0.4778725E+02  0.7816164E-02  0.1312668E+00
        -11   -1    0    0    0    0  0.00000000000E+00  0.00000000000E+00  0.45593999997E+02  0.45594000000E+02  0.51100000000E-03 0. -1.
         11   -1    0    0    0    0 -0.00000000000E+00 -0.00000000000E+00 -0.45593999997E+02  0.45594000000E+02  0.51100000000E-03 0.  1.
    9900012    2    1    2    0    0 -0.12683897441E+02  0.28726502363E+02  0.29958836564E+02  0.47787250230E+02  0.19999905098E+02 0.  0.
        -12    1    1    2    0    0  0.12683897441E+02 -0.28726502363E+02 -0.29958836564E+02  0.43400749770E+02  0.00000000000E+00 0.  1.
         11    1    3    3    0    0 -0.37592259862E+01 -0.13703602315E+01  0.35554601472E+01  0.53526595538E+01  0.51100000000E-03 0. -1.
        -11    1    3    3    0    0 -0.63364149195E+01  0.59604920423E+01  0.47822780435E+01  0.99271246071E+01  0.51100000000E-03 0.  1.
         12    1    3    3    0    0 -0.25882565353E+01  0.24136370552E+02  0.21621098374E+02  0.32507466069E+02  0.00000000000E+00 0. -1.
</event>
<event>
 7    1  0.4519840E-010  0.4778727E+02  0.7816164E-02  0.1312668E+00
        -11   -1    0    0    0    0  0.00000000000E+00  0.00000000000E+00  0.45593999997E+02  0.45594000000E+02  0.51100000000E-03 0. -1.
         11   -1    0    0    0    0 -0.00000000000E+00 -0.00000000000E+00 -0.45593999997E+02  0.45594000000E+02  0.51100000000E-03 0.  1.
    9900012    2    1    2    0    0 -0.17505075673E+02  0.35463257957E+02  0.17876048976E+02  0.47787268828E+02  0.19999989896E+02 0.  0.
        -12    1    1    2    0    0  0.17505075673E+02 -0.35463257957E+02 -0.17876048976E+02  0.43400731172E+02  0.00000000000E+00 0.  1.
         11    1    3    3    0    0 -0.16604109129E+01 -0.84785378564E+00  0.32617069162E+00  0.18926721910E+01  0.51100000000E-03 0. -1.
        -11    1    3    3    0    0 -0.54991016621E+01  0.36134169649E+01 -0.13779376363E+01  0.67227683021E+01  0.51100000000E-03 0.  1.
         12    1    3    3    0    0 -0.10345563098E+02  0.32697694778E+02  0.18927815921E+02  0.39171828335E+02  0.00000000000E+00 0. -1.
</event>
<event>
 7    1  0.4519840E-010  0.4778727E+02  0.7816164E-02  0.1312668E+00
        -11   -1    0    0    0    0  0.00000000000E+00  0.00000000000E+00  0.45593999997E+02  0.45594000000E+02  0.51100000000E-03 0. -1.
         11   -1    0    0    0    0 -0.00000000000E+00 -0.00000000000E+00 -0.45593999997E+02  0.45594000000E+02  0.51100000000E-03 0.  1.
    9900012    2    1    2    0    0 -0.22826837062E+02 -0.97900560444E+01 -0.35590919054E+02  0.47787271818E+02  0.20000003527E+02 0.  0.
         12    1    1    2    0    0  0.22826837062E+02  0.97900560444E+01  0.35590919054E+02  0.43400728182E+02  0.00000000000E+00 0. -1.
         11    1    3    3    0    0 -0.13146332319E+02 -0.74896599805E+00 -0.11354603036E+02  0.17387179583E+02  0.51100000000E-03 0. -1.
        -11    1    3    3    0    0 -0.17807002834E+01  0.22108835102E+01 -0.10835658488E+02  0.11201356816E+02  0.51100000000E-03 0.  1.
         12    1    3    3    0    0 -0.78998044602E+01 -0.11251973557E+02 -0.13400657530E+02  0.19198735419E+02  0.00000000000E+00 0. -1.
</event>
<event>
 7    1  0.4519840E-010  0.4778729E+02  0.7816164E-02  0.1312668E+00
        -11   -1    0    0    0    0  0.00000000000E+00  0.00000000000E+00  0.45593999997E+02  0.45594000000E+02  0.51100000000E-03 0.  1.
         11   -1    0    0    0    0 -0.00000000000E+00 -0.00000000000E+00 -0.45593999997E+02  0.45594000000E+02  0.51100000000E-03 0. -1.
    9900012    2    1    2    0    0 -0.15082029766E+02  0.36548565847E+02 -0.17898506564E+02  0.47787287742E+02  0.20000076130E+02 0.  0.
         12    1    1    2    0    0  0.15082029766E+02 -0.36548565847E+02  0.17898506564E+02  0.43400712258E+02  0.00000000000E+00 0. -1.
         11    1    3    3    0    0  0.13573042035E+00  0.37187387090E+01  0.32256383656E+00  0.37351690755E+01  0.51100000000E-03 0. -1.
        -11    1    3    3    0    0 -0.74398518718E+01  0.19838205281E+02 -0.11288467446E+01  0.21217447534E+02  0.51100000000E-03 0.  1.
         12    1    3    3    0    0 -0.77779083144E+01  0.12991621857E+02 -0.17092223655E+02  0.22834671132E+02  0.00000000000E+00 0. -1.
</event>
<event>
 7    1  0.4519840E-010  0.4778728E+02  0.7816164E-02  0.1312668E+00
        -11   -1    0    0    0    0  0.00000000000E+00  0.00000000000E+00  0.45593999997E+02  0.45594000000E+02  0.51100000000E-03 0. -1.
         11   -1    0    0    0    0 -0.00000000000E+00 -0.00000000000E+00 -0.45593999997E+02  0.45594000000E+02  0.51100000000E-03 0.  1.
    9900012    2    1    2    0    0 -0.25770050169E+02  0.31717751184E+02  0.14612037816E+02  0.47787275639E+02  0.20000020948E+02 0.  0.
        -12    1    1    2    0    0  0.25770050169E+02 -0.31717751184E+02 -0.14612037816E+02  0.43400724361E+02  0.00000000000E+00 0.  1.
         11    1    3    3    0    0 -0.61144260570E+00  0.87345760936E+00  0.28260728820E+01  0.30205096343E+01  0.51100000000E-03 0. -1.
        -11    1    3    3    0    0 -0.94434347897E+01  0.13324507735E+02 -0.35008743708E+01  0.16702607241E+02  0.51100000000E-03 0.  1.
         12    1    3    3    0    0 -0.15715172774E+02  0.17519785840E+02  0.15286839305E+02  0.28064158764E+02  0.00000000000E+00 0. -1.
</event>
<event>
 7    1  0.4519840E-010  0.4778727E+02  0.7816164E-02  0.1312668E+00
        -11   -1    0    0    0    0  0.00000000000E+00  0.00000000000E+00  0.45593999997E+02  0.45594000000E+02  0.51100000000E-03 0. -1.
         11   -1    0    0    0    0 -0.00000000000E+00 -0.00000000000E+00 -0.45593999997E+02  0.45594000000E+02  0.51100000000E-03 0.  1.
    9900012    2    1    2    0    0 -0.37298965053E+02  0.27360797319E+01  0.22020998984E+02  0.47787270483E+02  0.19999997440E+02 0.  0.
        -12    1    1    2    0    0  0.37298965053E+02 -0.27360797319E+01 -0.22020998984E+02  0.43400729517E+02  0.00000000000E+00 0.  1.
         11    1    3    3    0    0 -0.12107838576E+02  0.15220389023E+01  0.13849824381E+02  0.18458981366E+02  0.51100000000E-03 0. -1.
        -11    1    3    3    0    0 -0.33242446943E+01  0.45492411279E+01  0.37577996230E+01  0.67725368876E+01  0.51100000000E-03 0.  1.
         12    1    3    3    0    0 -0.21866881783E+02 -0.33352002983E+01  0.44133749805E+01  0.22555752230E+02  0.00000000000E+00 0. -1.
</event>
<event>
 7    1  0.4519840E-010  0.4778727E+02  0.7816164E-02  0.1312668E+00
        -11   -1    0    0    0    0  0.00000000000E+00  0.00000000000E+00  0.45593999997E+02  0.45594000000E+02  0.51100000000E-03 0. -1.
         11   -1    0    0    0    0 -0.00000000000E+00 -0.00000000000E+00 -0.45593999997E+02  0.45594000000E+02  0.51100000000E-03 0.  1.
    9900012    2    1    2    0    0  0.31668279147E+02  0.26609144249E+02  0.13141418700E+02  0.47787270199E+02  0.19999996146E+02 0.  0.
        -12    1    1    2    0    0 -0.31668279147E+02 -0.26609144249E+02 -0.13141418700E+02  0.43400729801E+02  0.00000000000E+00 0.  1.
         11    1    3    3    0    0  0.18898985067E+02  0.95394266891E+01  0.14298706337E+02  0.25546532080E+02  0.51100000000E-03 0.  1.
        -11    1    3    3    0    0  0.56840012474E+01  0.44462862865E+01 -0.26509245657E+01  0.76879602780E+01  0.51100000000E-03 0. -1.
        -12    1    3    3    0    0  0.70852928330E+01  0.12623431273E+02  0.14936369286E+01  0.14552777842E+02  0.00000000000E+00 0.  1.
</event>
<event>
 7    1  0.4519840E-010  0.4778727E+02  0.7816164E-02  0.1312668E+00
        -11   -1    0    0    0    0  0.00000000000E+00  0.00000000000E+00  0.45593999997E+02  0.45594000000E+02  0.51100000000E-03 0.  1.
         11   -1    0    0    0    0 -0.00000000000E+00 -0.00000000000E+00 -0.45593999997E+02  0.45594000000E+02  0.51100000000E-03 0. -1.
    9900012    2    1    2    0    0  0.43212465165E+02 -0.34523195135E+01  0.20947478299E+01  0.47787267010E+02  0.19999981603E+02 0.  0.
        -12    1    1    2    0    0 -0.43212465165E+02  0.34523195135E+01 -0.20947478299E+01  0.43400732990E+02  0.00000000000E+00 0.  1.
         11    1    3    3    0    0  0.10559010621E+02 -0.64264074641E+01  0.23625391065E+01  0.12584633863E+02  0.51100000000E-03 0. -1.
        -11    1    3    3    0    0  0.19324026799E+01  0.66543859601E+00  0.36134984561E+01  0.41514286692E+01  0.51100000000E-03 0.  1.
         12    1    3    3    0    0  0.30721051864E+02  0.23086493546E+01 -0.38812897327E+01  0.31051204477E+02  0.00000000000E+00 0. -1.
</event>
<event>
 7    1  0.4519840E-010  0.4778727E+02  0.7816164E-02  0.1312668E+00
        -11   -1    0    0    0    0  0.00000000000E+00  0.00000000000E+00  0.45593999997E+02  0.45594000000E+02  0.51100000000E-03 0. -1.
         11   -1    0    0    0    0 -0.00000000000E+00 -0.00000000000E+00 -0.45593999997E+02  0.45594000000E+02  0.51100000000E-03 0.  1.
    9900012    2    1    2    0    0 -0.30140406688E+02  0.20171809206E+02  0.23838568523E+02  0.47787270154E+02  0.19999995939E+02 0.  0.
        -12    1    1    2    0    0  0.30140406688E+02 -0.20171809206E+02 -0.23838568523E+02  0.43400729846E+02  0.00000000000E+00 0.  1.
         11    1    3    3    0    0 -0.26854227280E+02  0.21286401327E+02  0.23084145051E+02  0.41317528450E+02  0.51100000000E-03 0. -1.
        -11    1    3    3    0    0 -0.18719396278E+01  0.19255619190E+01 -0.75944904095E+00  0.27908260033E+01  0.51100000000E-03 0.  1.
         12    1    3    3    0    0 -0.14142397806E+01 -0.30401540401E+01  0.15138725128E+01  0.36789157003E+01  0.00000000000E+00 0. -1.
</event>
<event>
 7    1  0.4519840E-010  0.4778727E+02  0.7816164E-02  0.1312668E+00
        -11   -1    0    0    0    0  0.00000000000E+00  0.00000000000E+00  0.45593999997E+02  0.45594000000E+02  0.51100000000E-03 0. -1.
         11   -1    0    0    0    0 -0.00000000000E+00 -0.00000000000E+00 -0.45593999997E+02  0.45594000000E+02  0.51100000000E-03 0.  1.
    9900012    2    1    2    0    0  0.20819501047E+02 -0.14414876514E+02  0.35247452553E+02  0.47787271892E+02  0.20000003866E+02 0.  0.
        -12    1    1    2    0    0 -0.20819501047E+02  0.14414876514E+02 -0.35247452553E+02  0.43400728108E+02  0.00000000000E+00 0.  1.
         11    1    3    3    0    0  0.34260218592E+01  0.32813042466E+01  0.19248772938E+01  0.51195445301E+01  0.51100000000E-03 0. -1.
        -11    1    3    3    0    0  0.66302843159E+01 -0.13564147427E+01  0.58865070031E+01  0.89694757942E+01  0.51100000000E-03 0.  1.
         12    1    3    3    0    0  0.10763194872E+02 -0.16339766018E+02  0.27436068256E+02  0.33698251568E+02  0.00000000000E+00 0. -1.
</event>
<event>
 7    1  0.4519840E-010  0.4778727E+02  0.7816164E-02  0.1312668E+00
        -11   -1    0    0    0    0  0.00000000000E+00  0.00000000000E+00  0.45593999997E+02  0.45594000000E+02  0.51100000000E-03 0. -1.
         11   -1    0    0    0    0 -0.00000000000E+00 -0.00000000000E+00 -0.45593999997E+02  0.45594000000E+02  0.51100000000E-03 0.  1.
    9900012    2    1    2    0    0 -0.54140458173E-01  0.27471959716E+02  0.33599284145E+02  0.47787269627E+02  0.19999993538E+02 0.  0.
        -12    1    1    2    0    0  0.54140458173E-01 -0.27471959716E+02 -0.33599284145E+02  0.43400730373E+02  0.00000000000E+00 0.  1.
         11    1    3    3    0    0 -0.28073842752E+01  0.10228705995E+02  0.22635040230E+02  0.24997057413E+02  0.51100000000E-03 0. -1.
        -11    1    3    3    0    0 -0.30945844195E+01  0.86500004810E+01  0.74172542324E+01  0.11807396904E+02  0.51100000000E-03 0.  1.
        -12    1    3    3    0    0  0.58478282365E+01  0.85932532399E+01  0.35469896827E+01  0.10982815310E+02  0.00000000000E+00 0.  1.
</event>
<event>
 7    1  0.4519840E-010  0.4778728E+02  0.7816164E-02  0.1312668E+00
        -11   -1    0    0    0    0  0.00000000000E+00  0.00000000000E+00  0.45593999997E+02  0.45594000000E+02  0.51100000000E-03 0. -1.
         11   -1    0    0    0    0 -0.00000000000E+00 -0.00000000000E+00 -0.45593999997E+02  0.45594000000E+02  0.51100000000E-03 0.  1.
    9900012    2    1    2    0    0  0.49015667570E+01  0.28663394028E+01 -0.43027682572E+02  0.47787277359E+02  0.20000028789E+02 0.  0.
         12    1    1    2    0    0 -0.49015667570E+01 -0.28663394028E+01  0.43027682572E+02  0.43400722641E+02  0.00000000000E+00 0. -1.
         11    1    3    3    0    0  0.17313900188E+01 -0.15466257881E+01 -0.20917294206E+02  0.21045734958E+02  0.51100000000E-03 0. -1.
        -11    1    3    3    0    0  0.79095861689E+01 -0.40513071727E+00 -0.14799125943E+02  0.16785106886E+02  0.51100000000E-03 0.  1.
         12    1    3    3    0    0 -0.47394094307E+01  0.48180959082E+01 -0.73112624235E+01  0.99564355147E+01  0.00000000000E+00 0. -1.
</event>
<event>
 7    1  0.4519840E-010  0.4778727E+02  0.7816164E-02  0.1312668E+00
        -11   -1    0    0    0    0  0.00000000000E+00  0.00000000000E+00  0.45593999997E+02  0.45594000000E+02  0.51100000000E-03 0. -1.
         11   -1    0    0    0    0 -0.00000000000E+00 -0.00000000000E+00 -0.45593999997E+02  0.45594000000E+02  0.51100000000E-03 0.  1.
    9900012    2    1    2    0    0  0.27951486480E+02  0.66215587191E+01  0.32534483797E+02  0.47787271063E+02  0.20000000084E+02 0.  0.
        -12    1    1    2    0    0 -0.27951486480E+02 -0.66215587191E+01 -0.32534483797E+02  0.43400728937E+02  0.00000000000E+00 0.  1.
         11    1    3    3    0    0  0.36599527184E+01 -0.22795844421E+01  0.35800870421E+00  0.43266533976E+01  0.51100000000E-03 0. -1.
        -11    1    3    3    0    0  0.59717712719E+01  0.74151894767E+01  0.52889185240E+01  0.10891269279E+02  0.51100000000E-03 0.  1.
         12    1    3    3    0    0  0.18319762490E+02  0.14859536845E+01  0.26887556569E+02  0.32569348386E+02  0.00000000000E+00 0. -1.
</event>
<event>
 7    1  0.4519840E-010  0.4778727E+02  0.7816164E-02  0.1312668E+00
        -11   -1    0    0    0    0  0.00000000000E+00  0.00000000000E+00  0.45593999997E+02  0.45594000000E+02  0.51100000000E-03 0. -1.
         11   -1    0    0    0    0 -0.00000000000E+00 -0.00000000000E+00 -0.45593999997E+02  0.45594000000E+02  0.51100000000E-03 0.  1.
    9900012    2    1    2    0    0  0.24503249724E+02  0.69458084481E+01  0.35142137409E+02  0.47787270471E+02  0.19999997384E+02 0.  0.
        -12    1    1    2    0    0 -0.24503249724E+02 -0.69458084481E+01 -0.35142137409E+02  0.43400729529E+02  0.00000000000E+00 0.  1.
         11    1    3    3    0    0  0.11097849183E+02  0.86681135266E+01  0.28842681589E+02  0.32096709022E+02  0.51100000000E-03 0. -1.
        -11    1    3    3    0    0  0.29808140480E+00 -0.12123090888E+01  0.66375085215E+00  0.14138993265E+01  0.51100000000E-03 0.  1.
         12    1    3    3    0    0  0.13107319136E+02 -0.50999598965E+00  0.56357049683E+01  0.14276662122E+02  0.00000000000E+00 0. -1.
</event>
<event>
 7    1  0.4519840E-010  0.4778727E+02  0.7816164E-02  0.1312668E+00
        -11   -1    0    0    0    0  0.00000000000E+00  0.00000000000E+00  0.45593999997E+02  0.45594000000E+02  0.51100000000E-03 0. -1.
         11   -1    0    0    0    0 -0.00000000000E+00 -0.00000000000E+00 -0.45593999997E+02  0.45594000000E+02  0.51100000000E-03 0.  1.
    9900012    2    1    2    0    0  0.14012503187E+02  0.14310865097E+02  0.38502884939E+02  0.47787271273E+02  0.20000001042E+02 0.  0.
        -12    1    1    2    0    0 -0.14012503187E+02 -0.14310865097E+02 -0.38502884939E+02  0.43400728727E+02  0.00000000000E+00 0.  1.
         11    1    3    3    0    0  0.10479803731E+02  0.10260915383E+02  0.26625855320E+02  0.30398171697E+02  0.51100000000E-03 0. -1.
        -11    1    3    3    0    0  0.73272689822E+01  0.26193429173E+00  0.71525961722E+01  0.10242905475E+02  0.51100000000E-03 0.  1.
        -12    1    3    3    0    0 -0.37945695262E+01  0.37880154222E+01  0.47244334473E+01  0.71461941008E+01  0.00000000000E+00 0.  1.
</event>
<event>
 7    1  0.4519840E-010  0.4778727E+02  0.7816164E-02  0.1312668E+00
        -11   -1    0    0    0    0  0.00000000000E+00  0.00000000000E+00  0.45593999997E+02  0.45594000000E+02  0.51100000000E-03 0. -1.
         11   -1    0    0    0    0 -0.00000000000E+00 -0.00000000000E+00 -0.45593999997E+02  0.45594000000E+02  0.51100000000E-03 0.  1.
    9900012    2    1    2    0    0  0.17467528360E+02  0.11133584698E+01  0.39714847815E+02  0.47787271308E+02  0.20000001200E+02 0.  0.
        -12    1    1    2    0    0 -0.17467528360E+02 -0.11133584698E+01 -0.39714847815E+02  0.43400728692E+02  0.00000000000E+00 0.  1.
         11    1    3    3    0    0  0.34950416626E+01  0.53366782843E+01  0.78260135915E+01  0.10096630147E+02  0.51100000000E-03 0. -1.
        -11    1    3    3    0    0  0.12365200271E+02  0.29654746405E+01  0.19618955708E+02  0.23379384956E+02  0.51100000000E-03 0.  1.
         12    1    3    3    0    0  0.16072864266E+01 -0.71887944550E+01  0.12269878515E+02  0.14311256204E+02  0.00000000000E+00 0. -1.
</event>
<event>
 7    1  0.4519840E-010  0.4778727E+02  0.7816164E-02  0.1312668E+00
        -11   -1    0    0    0    0  0.00000000000E+00  0.00000000000E+00  0.45593999997E+02  0.45594000000E+02  0.51100000000E-03 0. -1.
         11   -1    0    0    0    0 -0.00000000000E+00 -0.00000000000E+00 -0.45593999997E+02  0.45594000000E+02  0.51100000000E-03 0.  1.
    9900012    2    1    2    0    0  0.30516140478E+02 -0.19885827285E+02 -0.23599619231E+02  0.47787274380E+02  0.20000015207E+02 0.  0.
         12    1    1    2    0    0 -0.30516140478E+02  0.19885827285E+02  0.23599619231E+02  0.43400725620E+02  0.00000000000E+00 0. -1.
         11    1    3    3    0    0  0.12243770449E+02 -0.56242981104E+00 -0.66797593906E+01  0.13958704377E+02  0.51100000000E-03 0. -1.
        -11    1    3    3    0    0  0.78682976138E+01 -0.20841627717E+01 -0.91487927646E+01  0.12245580881E+02  0.51100000000E-03 0.  1.
        -12    1    3    3    0    0  0.10404072415E+02 -0.17239234702E+02 -0.77710670760E+01  0.21582989122E+02  0.00000000000E+00 0.  1.
</event>
<event>
 7    1  0.4519840E-010  0.4778727E+02  0.7816164E-02  0.1312668E+00
        -11   -1    0    0    0    0  0.00000000000E+00  0.00000000000E+00  0.45593999997E+02  0.45594000000E+02  0.51100000000E-03 0. -1.
         11   -1    0    0    0    0 -0.00000000000E+00 -0.00000000000E+00 -0.45593999997E+02  0.45594000000E+02  0.51100000000E-03 0.  1.
    9900012    2    1    2    0    0  0.19974195794E+02  0.20297970486E+01  0.38477720058E+02  0.47787268272E+02  0.19999987360E+02 0.  0.
        -12    1    1    2    0    0 -0.19974195794E+02 -0.20297970486E+01 -0.38477720058E+02  0.43400731728E+02  0.00000000000E+00 0.  1.
         11    1    3    3    0    0  0.16059876927E+01  0.79441333434E+00  0.75105665780E+01  0.77213275800E+01  0.51100000000E-03 0. -1.
        -11    1    3    3    0    0 -0.27901048282E+01  0.10487103600E+01  0.93633882849E+01  0.98263685462E+01  0.51100000000E-03 0.  1.
         12    1    3    3    0    0  0.21158312930E+02  0.18667335424E+00  0.21603765195E+02  0.30239572146E+02  0.00000000000E+00 0. -1.
</event>
<event>
 7    1  0.4519840E-010  0.4778727E+02  0.7816164E-02  0.1312668E+00
        -11   -1    0    0    0    0  0.00000000000E+00  0.00000000000E+00  0.45593999997E+02  0.45594000000E+02  0.51100000000E-03 0. -1.
         11   -1    0    0    0    0 -0.00000000000E+00 -0.00000000000E+00 -0.45593999997E+02  0.45594000000E+02  0.51100000000E-03 0.  1.
    9900012    2    1    2    0    0 -0.23304208515E+00  0.42702985972E+02 -0.77475365257E+01  0.47787266807E+02  0.19999980678E+02 0.  0.
         12    1    1    2    0    0  0.23304208515E+00 -0.42702985972E+02  0.77475365257E+01  0.43400733193E+02  0.00000000000E+00 0. -1.
         11    1    3    3    0    0  0.19324138994E+01  0.10396153199E+02 -0.61052368029E+01  0.12210165498E+02  0.51100000000E-03 0. -1.
        -11    1    3    3    0    0 -0.46024405466E+01  0.26879847574E+01 -0.24073124975E+01  0.58483223887E+01  0.51100000000E-03 0.  1.
        -12    1    3    3    0    0  0.24369845620E+01  0.29618848015E+02  0.76501277475E+00  0.29728778920E+02  0.00000000000E+00 0.  1.
</event>
<event>
 7    1  0.4519840E-010  0.4778727E+02  0.7816164E-02  0.1312668E+00
        -11   -1    0    0    0    0  0.00000000000E+00  0.00000000000E+00  0.45593999997E+02  0.45594000000E+02  0.51100000000E-03 0. -1.
         11   -1    0    0    0    0 -0.00000000000E+00 -0.00000000000E+00 -0.45593999997E+02  0.45594000000E+02  0.51100000000E-03 0.  1.
    9900012    2    1    2    0    0  0.21589768768E+02 -0.30627772162E+02 -0.21896224779E+02  0.47787271866E+02  0.20000003744E+02 0.  0.
         12    1    1    2    0    0 -0.21589768768E+02  0.30627772162E+02  0.21896224779E+02  0.43400728134E+02  0.00000000000E+00 0. -1.
         11    1    3    3    0    0  0.87350864674E+01 -0.29725562655E+01  0.13400545345E+01  0.93238174993E+01  0.51100000000E-03 0. -1.
        -11    1    3    3    0    0  0.53566807173E+01 -0.10240456040E+02 -0.70792136981E+01  0.13552720578E+02  0.51100000000E-03 0.  1.
         12    1    3    3    0    0  0.74980015829E+01 -0.17414759856E+02 -0.16157065615E+02  0.24910733788E+02  0.00000000000E+00 0. -1.
</event>
<event>
 7    1  0.4519840E-010  0.4778727E+02  0.7816164E-02  0.1312668E+00
        -11   -1    0    0    0    0  0.00000000000E+00  0.00000000000E+00  0.45593999997E+02  0.45594000000E+02  0.51100000000E-03 0.  1.
         11   -1    0    0    0    0 -0.00000000000E+00 -0.00000000000E+00 -0.45593999997E+02  0.45594000000E+02  0.51100000000E-03 0. -1.
    9900012    2    1    2    0    0  0.38011811272E+02 -0.20827710844E+02 -0.22208122361E+01  0.47787270257E+02  0.19999996412E+02 0.  0.
         12    1    1    2    0    0 -0.38011811272E+02  0.20827710844E+02  0.22208122361E+01  0.43400729743E+02  0.00000000000E+00 0. -1.
         11    1    3    3    0    0  0.90601408203E+01  0.33918056965E+01 -0.25054022022E+01  0.99933747064E+01  0.51100000000E-03 0. -1.
        -11    1    3    3    0    0  0.55490385641E+01 -0.54560158588E+01  0.48835589738E+00  0.77973347870E+01  0.51100000000E-03 0.  1.
         12    1    3    3    0    0  0.23402631888E+02 -0.18763500682E+02 -0.20376593126E+00  0.29996560764E+02  0.00000000000E+00 0. -1.
</event>
<event>
 7    1  0.4519840E-010  0.4778727E+02  0.7816164E-02  0.1312668E+00
        -11   -1    0    0    0    0  0.00000000000E+00  0.00000000000E+00  0.45593999997E+02  0.45594000000E+02  0.51100000000E-03 0. -1.
         11   -1    0    0    0    0 -0.00000000000E+00 -0.00000000000E+00 -0.45593999997E+02  0.45594000000E+02  0.51100000000E-03 0.  1.
    9900012    2    1    2    0    0  0.33500172869E+01 -0.11124136283E+02 -0.41816915120E+02  0.47787269430E+02  0.19999992640E+02 0.  0.
         12    1    1    2    0    0 -0.33500172869E+01  0.11124136283E+02  0.41816915120E+02  0.43400730570E+02  0.00000000000E+00 0. -1.
         11    1    3    3    0    0 -0.84771633865E+00 -0.26253373510E+01 -0.22955012361E+01  0.35889198073E+01  0.51100000000E-03 0. -1.
        -11    1    3    3    0    0  0.70426396036E+01 -0.16961989143E+01 -0.34559974349E+02  0.35311013730E+02  0.51100000000E-03 0.  1.
        -12    1    3    3    0    0 -0.28449059780E+01 -0.68026000177E+01 -0.49614395345E+01  0.88873358932E+01  0.00000000000E+00 0.  1.
</event>
<event>
 7    1  0.4519840E-010  0.4778727E+02  0.7816164E-02  0.1312668E+00
        -11   -1    0    0    0    0  0.00000000000E+00  0.00000000000E+00  0.45593999997E+02  0.45594000000E+02  0.51100000000E-03 0. -1.
         11   -1    0    0    0    0 -0.00000000000E+00 -0.00000000000E+00 -0.45593999997E+02  0.45594000000E+02  0.51100000000E-03 0.  1.
    9900012    2    1    2    0    0  0.20754356900E+01 -0.33536976368E+02  0.27469749851E+02  0.47787269890E+02  0.19999994738E+02 0.  0.
        -12    1    1    2    0    0 -0.20754356900E+01  0.33536976368E+02 -0.27469749851E+02  0.43400730110E+02  0.00000000000E+00 0.  1.
         11    1    3    3    0    0 -0.15072228954E+01 -0.19661711996E+02  0.25337446817E+02  0.32106710372E+02  0.51100000000E-03 0. -1.
        -11    1    3    3    0    0  0.16688885405E+01 -0.15928303111E+01  0.22876622282E+01  0.32489530763E+01  0.51100000000E-03 0.  1.
        -12    1    3    3    0    0  0.19137700449E+01 -0.12282434061E+02 -0.15535919421E+00  0.12431606442E+02  0.00000000000E+00 0.  1.
</event>
<event>
 7    1  0.4519840E-010  0.4778727E+02  0.7816164E-02  0.1312668E+00
        -11   -1    0    0    0    0  0.00000000000E+00  0.00000000000E+00  0.45593999997E+02  0.45594000000E+02  0.51100000000E-03 0. -1.
         11   -1    0    0    0    0 -0.00000000000E+00 -0.00000000000E+00 -0.45593999997E+02  0.45594000000E+02  0.51100000000E-03 0.  1.
    9900012    2    1    2    0    0 -0.50735828077E+01 -0.16539008674E+02 -0.39803808558E+02  0.47787271595E+02  0.20000002508E+02 0.  0.
         12    1    1    2    0    0  0.50735828077E+01  0.16539008674E+02  0.39803808558E+02  0.43400728405E+02  0.00000000000E+00 0. -1.
         11    1    3    3    0    0 -0.70195176644E+01 -0.92671524379E+01 -0.14134841070E+02  0.18301570284E+02  0.51100000000E-03 0. -1.
        -11    1    3    3    0    0  0.25562422118E+01 -0.10367675558E+02 -0.15377691168E+02  0.18721550594E+02  0.51100000000E-03 0.  1.
         12    1    3    3    0    0 -0.61030735514E+00  0.30958193221E+01 -0.10291276320E+02  0.10764150716E+02  0.00000000000E+00 0. -1.
</event>
<event>
 7    1  0.4519840E-010  0.4778727E+02  0.7816164E-02  0.1312668E+00
        -11   -1    0    0    0    0  0.00000000000E+00  0.00000000000E+00  0.45593999997E+02  0.45594000000E+02  0.51100000000E-03 0. -1.
         11   -1    0    0    0    0 -0.00000000000E+00 -0.00000000000E+00 -0.45593999997E+02  0.45594000000E+02  0.51100000000E-03 0.  1.
    9900012    2    1    2    0    0 -0.16778531092E+02  0.85802680112E+01 -0.39095820703E+02  0.47787270730E+02  0.19999998565E+02 0.  0.
         12    1    1    2    0    0  0.16778531092E+02 -0.85802680112E+01  0.39095820703E+02  0.43400729270E+02  0.00000000000E+00 0. -1.
         11    1    3    3    0    0  0.44550952815E+01  0.29037157884E+01 -0.65724240752E+01  0.84543596938E+01  0.51100000000E-03 0. -1.
        -11    1    3    3    0    0 -0.83829354580E+01  0.34144891517E+01 -0.12496530645E+02  0.15430347419E+02  0.51100000000E-03 0.  1.
         12    1    3    3    0    0 -0.12850690916E+02  0.22620630711E+01 -0.20026865983E+02  0.23902563616E+02  0.00000000000E+00 0. -1.
</event>
<event>
 7    1  0.4519840E-010  0.4778727E+02  0.7816164E-02  0.1312668E+00
        -11   -1    0    0    0    0  0.00000000000E+00  0.00000000000E+00  0.45593999997E+02  0.45594000000E+02  0.51100000000E-03 0. -1.
         11   -1    0    0    0    0 -0.00000000000E+00 -0.00000000000E+00 -0.45593999997E+02  0.45594000000E+02  0.51100000000E-03 0.  1.
    9900012    2    1    2    0    0 -0.35262465891E+02  0.93449461404E+01  0.23512835630E+02  0.47787274678E+02  0.20000016568E+02 0.  0.
        -12    1    1    2    0    0  0.35262465891E+02 -0.93449461404E+01 -0.23512835630E+02  0.43400725322E+02  0.00000000000E+00 0.  1.
         11    1    3    3    0    0 -0.14297722075E+02 -0.13699657304E+01  0.69604092210E+01  0.15960857102E+02  0.51100000000E-03 0. -1.
        -11    1    3    3    0    0 -0.58572522770E+01  0.14609732840E+01 -0.18184471932E+01  0.63046488902E+01  0.51100000000E-03 0.  1.
         12    1    3    3    0    0 -0.15107491539E+02  0.92539385868E+01  0.18370873602E+02  0.25521768686E+02  0.00000000000E+00 0. -1.
</event>
<event>
 7    1  0.4519840E-010  0.4778727E+02  0.7816164E-02  0.1312668E+00
        -11   -1    0    0    0    0  0.00000000000E+00  0.00000000000E+00  0.45593999997E+02  0.45594000000E+02  0.51100000000E-03 0. -1.
         11   -1    0    0    0    0 -0.00000000000E+00 -0.00000000000E+00 -0.45593999997E+02  0.45594000000E+02  0.51100000000E-03 0.  1.
    9900012    2    1    2    0    0 -0.57356740287E+01 -0.25912610100E+02 -0.34340388285E+02  0.47787267445E+02  0.19999983589E+02 0.  0.
         12    1    1    2    0    0  0.57356740287E+01  0.25912610100E+02  0.34340388285E+02  0.43400732555E+02  0.00000000000E+00 0. -1.
         11    1    3    3    0    0  0.55014955959E+01 -0.88646159874E+01 -0.10892258019E+02  0.15082743630E+02  0.51100000000E-03 0. -1.
        -11    1    3    3    0    0 -0.27585689105E+01 -0.26252943793E+01 -0.11585811819E+02  0.12195610226E+02  0.51100000000E-03 0.  1.
        -12    1    3    3    0    0 -0.84786007142E+01 -0.14422699734E+02 -0.11862318446E+02  0.20508913589E+02  0.00000000000E+00 0.  1.
</event>
<event>
 7    1  0.4519840E-010  0.4778727E+02  0.7816164E-02  0.1312668E+00
        -11   -1    0    0    0    0  0.00000000000E+00  0.00000000000E+00  0.45593999997E+02  0.45594000000E+02  0.51100000000E-03 0. -1.
         11   -1    0    0    0    0 -0.00000000000E+00 -0.00000000000E+00 -0.45593999997E+02  0.45594000000E+02  0.51100000000E-03 0.  1.
    9900012    2    1    2    0    0 -0.40101779101E+01 -0.39951885900E+01  0.43029989094E+02  0.47787273968E+02  0.20000013328E+02 0.  0.
        -12    1    1    2    0    0  0.40101779101E+01  0.39951885900E+01 -0.43029989094E+02  0.43400726032E+02  0.00000000000E+00 0.  1.
         11    1    3    3    0    0 -0.27016370360E+01 -0.96608455900E+00  0.35074690459E+02  0.35191846685E+02  0.51100000000E-03 0. -1.
        -11    1    3    3    0    0 -0.47582782867E+00 -0.29332793779E+01  0.99752506312E+01  0.10408466047E+02  0.51100000000E-03 0.  1.
        -12    1    3    3    0    0 -0.83271304540E+00 -0.95824653066E-01 -0.20199519963E+01  0.21869612359E+01  0.00000000000E+00 0.  1.
</event>
<event>
 7    1  0.4519840E-010  0.4778727E+02  0.7816164E-02  0.1312668E+00
        -11   -1    0    0    0    0  0.00000000000E+00  0.00000000000E+00  0.45593999997E+02  0.45594000000E+02  0.51100000000E-03 0. -1.
         11   -1    0    0    0    0 -0.00000000000E+00 -0.00000000000E+00 -0.45593999997E+02  0.45594000000E+02  0.51100000000E-03 0.  1.
    9900012    2    1    2    0    0  0.40292819667E+01  0.44233771632E+01  0.42986300267E+02  0.47787269715E+02  0.19999993937E+02 0.  0.
        -12    1    1    2    0    0 -0.40292819667E+01 -0.44233771632E+01 -0.42986300267E+02  0.43400730285E+02  0.00000000000E+00 0.  1.
         11    1    3    3    0    0  0.80094745051E+01  0.83536833070E+01  0.21969004520E+02  0.24830885334E+02  0.51100000000E-03 0. -1.
        -11    1    3    3    0    0 -0.18125707571E+01  0.10527382939E+01  0.12166635228E+01  0.24236214749E+01  0.51100000000E-03 0.  1.
        -12    1    3    3    0    0 -0.21676217812E+01 -0.49830444377E+01  0.19800632224E+02  0.20532762905E+02  0.00000000000E+00 0.  1.
</event>
<event>
 7    1  0.4519840E-010  0.4778727E+02  0.7816164E-02  0.1312668E+00
        -11   -1    0    0    0    0  0.00000000000E+00  0.00000000000E+00  0.45593999997E+02  0.45594000000E+02  0.51100000000E-03 0. -1.
         11   -1    0    0    0    0 -0.00000000000E+00 -0.00000000000E+00 -0.45593999997E+02  0.45594000000E+02  0.51100000000E-03 0.  1.
    9900012    2    1    2    0    0 -0.83802166734E+01 -0.10544018282E+02 -0.41257959537E+02  0.47787267539E+02  0.19999984016E+02 0.  0.
         12    1    1    2    0    0  0.83802166734E+01  0.10544018282E+02  0.41257959537E+02  0.43400732461E+02  0.00000000000E+00 0. -1.
         11    1    3    3    0    0 -0.27334243037E+00 -0.31869461808E+01 -0.23317359143E+01  0.39583247313E+01  0.51100000000E-03 0. -1.
        -11    1    3    3    0    0 -0.10038447836E+02 -0.11474454910E+02 -0.33062068372E+02  0.36407882604E+02  0.51100000000E-03 0.  1.
         12    1    3    3    0    0  0.19315735931E+01  0.41173828083E+01 -0.58641552507E+01  0.74210602032E+01  0.00000000000E+00 0. -1.
</event>
<event>
 7    1  0.4519840E-010  0.4778727E+02  0.7816164E-02  0.1312668E+00
        -11   -1    0    0    0    0  0.00000000000E+00  0.00000000000E+00  0.45593999997E+02  0.45594000000E+02  0.51100000000E-03 0. -1.
         11   -1    0    0    0    0 -0.00000000000E+00 -0.00000000000E+00 -0.45593999997E+02  0.45594000000E+02  0.51100000000E-03 0.  1.
    9900012    2    1    2    0    0  0.43053089119E+02  0.53036153459E+01 -0.13878584571E+01  0.47787274550E+02  0.20000015985E+02 0.  0.
         12    1    1    2    0    0 -0.43053089119E+02 -0.53036153459E+01  0.13878584571E+01  0.43400725450E+02  0.00000000000E+00 0. -1.
         11    1    3    3    0    0  0.19411393091E+01  0.24898862600E+01  0.36795250618E+01  0.48483461455E+01  0.51100000000E-03 0. -1.
        -11    1    3    3    0    0  0.86647008747E+01  0.32508926627E+01  0.25647461963E+01  0.96032946255E+01  0.51100000000E-03 0.  1.
        -12    1    3    3    0    0  0.32447248936E+02 -0.43716357679E+00 -0.76321297153E+01  0.33335633779E+02  0.00000000000E+00 0.  1.
</event>
<event>
 7    1  0.4519840E-010  0.4778727E+02  0.7816164E-02  0.1312668E+00
        -11   -1    0    0    0    0  0.00000000000E+00  0.00000000000E+00  0.45593999997E+02  0.45594000000E+02  0.51100000000E-03 0. -1.
         11   -1    0    0    0    0 -0.00000000000E+00 -0.00000000000E+00 -0.45593999997E+02  0.45594000000E+02  0.51100000000E-03 0.  1.
    9900012    2    1    2    0    0  0.11468311879E+02 -0.22882848975E+02  0.35049627085E+02  0.47787270589E+02  0.19999997925E+02 0.  0.
        -12    1    1    2    0    0 -0.11468311879E+02  0.22882848975E+02 -0.35049627085E+02  0.43400729411E+02  0.00000000000E+00 0.  1.
         11    1    3    3    0    0 -0.20257452551E+01 -0.14660924324E+01  0.67046968257E+01  0.71558389197E+01  0.51100000000E-03 0. -1.
        -11    1    3    3    0    0 -0.21562865828E+01 -0.53509097936E+01  0.10457995848E+02  0.11943679703E+02  0.51100000000E-03 0.  1.
         12    1    3    3    0    0  0.15650343717E+02 -0.16065846749E+02  0.17886934412E+02  0.28687751966E+02  0.00000000000E+00 0. -1.
</event>
<event>
 7    1  0.4519840E-010  0.4778725E+02  0.7816164E-02  0.1312668E+00
        -11   -1    0    0    0    0  0.00000000000E+00  0.00000000000E+00  0.45593999997E+02  0.45594000000E+02  0.51100000000E-03 0. -1.
         11   -1    0    0    0    0 -0.00000000000E+00 -0.00000000000E+00 -0.45593999997E+02  0.45594000000E+02  0.51100000000E-03 0.  1.
    9900012    2    1    2    0    0 -0.29629108365E+01 -0.41748765683E+02  0.11484203581E+02  0.47787248756E+02  0.19999898376E+02 0.  0.
        -12    1    1    2    0    0  0.29629108365E+01  0.41748765683E+02 -0.11484203581E+02  0.43400751244E+02  0.00000000000E+00 0.  1.
         11    1    3    3    0    0  0.21497822780E+01 -0.17549603058E+02  0.49236868899E+01  0.18353550724E+02  0.51100000000E-03 0. -1.
        -11    1    3    3    0    0 -0.87522970431E+01 -0.22266305087E+02  0.32434350114E+01  0.24143548138E+02  0.51100000000E-03 0.  1.
         12    1    3    3    0    0  0.36396039287E+01 -0.19328575377E+01  0.33170816797E+01  0.52901498928E+01  0.00000000000E+00 0. -1.
</event>
<event>
 7    1  0.4519840E-010  0.4778727E+02  0.7816164E-02  0.1312668E+00
        -11   -1    0    0    0    0  0.00000000000E+00  0.00000000000E+00  0.45593999997E+02  0.45594000000E+02  0.51100000000E-03 0.  1.
         11   -1    0    0    0    0 -0.00000000000E+00 -0.00000000000E+00 -0.45593999997E+02  0.45594000000E+02  0.51100000000E-03 0. -1.
    9900012    2    1    2    0    0  0.20233351404E+02 -0.30320130734E+02  0.23556832986E+02  0.47787271699E+02  0.20000002983E+02 0.  0.
        -12    1    1    2    0    0 -0.20233351404E+02  0.30320130734E+02 -0.23556832986E+02  0.43400728301E+02  0.00000000000E+00 0.  1.
         11    1    3    3    0    0  0.60791453987E+01 -0.87383575993E+01  0.22466416457E+01  0.10879443977E+02  0.51100000000E-03 0. -1.
        -11    1    3    3    0    0  0.14760835096E+02 -0.11879935170E+02  0.19170993678E+02  0.26954445111E+02  0.51100000000E-03 0.  1.
         12    1    3    3    0    0 -0.60662909066E+00 -0.97018379648E+01  0.21391976618E+01  0.99533826102E+01  0.00000000000E+00 0. -1.
</event>
<event>
 7    1  0.4519840E-010  0.4778726E+02  0.7816164E-02  0.1312668E+00
        -11   -1    0    0    0    0  0.00000000000E+00  0.00000000000E+00  0.45593999997E+02  0.45594000000E+02  0.51100000000E-03 0. -1.
         11   -1    0    0    0    0 -0.00000000000E+00 -0.00000000000E+00 -0.45593999997E+02  0.45594000000E+02  0.51100000000E-03 0.  1.
    9900012    2    1    2    0    0  0.15623647534E+02  0.38332933465E+02 -0.13042685967E+02  0.47787264896E+02  0.19999971969E+02 0.  0.
        -12    1    1    2    0    0 -0.15623647534E+02 -0.38332933465E+02  0.13042685967E+02  0.43400735104E+02  0.00000000000E+00 0.  1.
         11    1    3    3    0    0  0.13758555409E+02  0.21526478468E+02 -0.86840301203E+01  0.26983318950E+02  0.51100000000E-03 0. -1.
        -11    1    3    3    0    0  0.57114991253E+01  0.10397328465E+02 -0.57788509175E+01  0.13195483305E+02  0.51100000000E-03 0.  1.
        -12    1    3    3    0    0 -0.38464070007E+01  0.64091265317E+01  0.14201950711E+01  0.76084626406E+01  0.00000000000E+00 0.  1.
</event>
<event>
 7    1  0.4519840E-010  0.4778727E+02  0.7816164E-02  0.1312668E+00
        -11   -1    0    0    0    0  0.00000000000E+00  0.00000000000E+00  0.45593999997E+02  0.45594000000E+02  0.51100000000E-03 0. -1.
         11   -1    0    0    0    0 -0.00000000000E+00 -0.00000000000E+00 -0.45593999997E+02  0.45594000000E+02  0.51100000000E-03 0.  1.
    9900012    2    1    2    0    0  0.25930466404E+01 -0.81871476879E+00 -0.43315458562E+02  0.47787272643E+02  0.20000007286E+02 0.  0.
         12    1    1    2    0    0 -0.25930466404E+01  0.81871476879E+00  0.43315458562E+02  0.43400727357E+02  0.00000000000E+00 0. -1.
         11    1    3    3    0    0 -0.11063868228E+01 -0.31475742711E+00 -0.40505118013E+01  0.42106781108E+01  0.51100000000E-03 0. -1.
        -11    1    3    3    0    0  0.10901409240E+02 -0.28990123313E+01 -0.24648213216E+02  0.27106814843E+02  0.51100000000E-03 0.  1.
         12    1    3    3    0    0 -0.72019757769E+01  0.23950549896E+01 -0.14616733545E+02  0.16469779689E+02  0.00000000000E+00 0. -1.
</event>
<event>
 7    1  0.4519840E-010  0.4778731E+02  0.7816164E-02  0.1312668E+00
        -11   -1    0    0    0    0  0.00000000000E+00  0.00000000000E+00  0.45593999997E+02  0.45594000000E+02  0.51100000000E-03 0. -1.
         11   -1    0    0    0    0 -0.00000000000E+00 -0.00000000000E+00 -0.45593999997E+02  0.45594000000E+02  0.51100000000E-03 0.  1.
    9900012    2    1    2    0    0  0.12980909287E+02  0.37553442931E+02  0.17460104013E+02  0.47787305143E+02  0.20000155470E+02 0.  0.
        -12    1    1    2    0    0 -0.12980909287E+02 -0.37553442931E+02 -0.17460104013E+02  0.43400694857E+02  0.00000000000E+00 0.  1.
         11    1    3    3    0    0  0.99086832746E-01  0.19904894776E+02  0.11961487401E+02  0.23222657801E+02  0.51100000000E-03 0. -1.
        -11    1    3    3    0    0  0.39341319220E+01  0.10582279396E+02  0.66538675416E+01  0.13104807695E+02  0.51100000000E-03 0.  1.
        -12    1    3    3    0    0  0.89476905323E+01  0.70662687593E+01 -0.11552509294E+01  0.11459839648E+02  0.00000000000E+00 0.  1.
</event>
<event>
 7    1  0.4519840E-010  0.4778727E+02  0.7816164E-02  0.1312668E+00
        -11   -1    0    0    0    0  0.00000000000E+00  0.00000000000E+00  0.45593999997E+02  0.45594000000E+02  0.51100000000E-03 0. -1.
         11   -1    0    0    0    0 -0.00000000000E+00 -0.00000000000E+00 -0.45593999997E+02  0.45594000000E+02  0.51100000000E-03 0.  1.
    9900012    2    1    2    0    0 -0.27318079955E+02  0.44591901002E+01  0.33428450261E+02  0.47787272407E+02  0.20000006213E+02 0.  0.
        -12    1    1    2    0    0  0.27318079955E+02 -0.44591901002E+01 -0.33428450261E+02  0.43400727593E+02  0.00000000000E+00 0.  1.
         11    1    3    3    0    0 -0.13771472441E+02  0.95907849874E+01  0.13927859086E+02  0.21808756701E+02  0.51100000000E-03 0. -1.
        -11    1    3    3    0    0  0.13569796976E+01 -0.73459256046E+00  0.11018708855E+01  0.18960853987E+01  0.51100000000E-03 0.  1.
        -12    1    3    3    0    0 -0.14903587211E+02 -0.43970023267E+01  0.18398720290E+02  0.24082430308E+02  0.00000000000E+00 0.  1.
</event>
<event>
 7    1  0.4519840E-010  0.4778727E+02  0.7816164E-02  0.1312668E+00
        -11   -1    0    0    0    0  0.00000000000E+00  0.00000000000E+00  0.45593999997E+02  0.45594000000E+02  0.51100000000E-03 0.  1.
         11   -1    0    0    0    0 -0.00000000000E+00 -0.00000000000E+00 -0.45593999997E+02  0.45594000000E+02  0.51100000000E-03 0. -1.
    9900012    2    1    2    0    0  0.18995297441E+02  0.12623167760E+02 -0.36925025133E+02  0.47787272238E+02  0.20000005441E+02 0.  0.
         12    1    1    2    0    0 -0.18995297441E+02 -0.12623167760E+02  0.36925025133E+02  0.43400727762E+02  0.00000000000E+00 0. -1.
         11    1    3    3    0    0  0.36792625248E+01  0.72574569563E+01 -0.11707694148E+02  0.14257550867E+02  0.51100000000E-03 0. -1.
        -11    1    3    3    0    0  0.61969294263E+01  0.10013087450E+02 -0.11996977512E+02  0.16810452828E+02  0.51100000000E-03 0.  1.
         12    1    3    3    0    0  0.91191054903E+01 -0.46473766466E+01 -0.13220353473E+02  0.16719268543E+02  0.00000000000E+00 0. -1.
</event>
<event>
 7    1  0.4519840E-010  0.4778727E+02  0.7816164E-02  0.1312668E+00
        -11   -1    0    0    0    0  0.00000000000E+00  0.00000000000E+00  0.45593999997E+02  0.45594000000E+02  0.51100000000E-03 0. -1.
         11   -1    0    0    0    0 -0.00000000000E+00 -0.00000000000E+00 -0.45593999997E+02  0.45594000000E+02  0.51100000000E-03 0.  1.
    9900012    2    1    2    0    0 -0.97520755829E+01  0.11387302762E+02 -0.40728976958E+02  0.47787271822E+02  0.20000003545E+02 0.  0.
         12    1    1    2    0    0  0.97520755829E+01 -0.11387302762E+02  0.40728976958E+02  0.43400728178E+02  0.00000000000E+00 0. -1.
         11    1    3    3    0    0  0.34322787992E+01 -0.73533426987E+00 -0.94360022035E+00  0.36347814076E+01  0.51100000000E-03 0. -1.
        -11    1    3    3    0    0 -0.66033715189E+00  0.22850157645E+00  0.82903513010E-01  0.70365572420E+00  0.51100000000E-03 0.  1.
        -12    1    3    3    0    0 -0.12524017230E+02  0.11894135456E+02 -0.39868280250E+02  0.43448834690E+02  0.00000000000E+00 0.  1.
</event>
<event>
 7    1  0.4519840E-010  0.4778727E+02  0.7816164E-02  0.1312668E+00
        -11   -1    0    0    0    0  0.00000000000E+00  0.00000000000E+00  0.45593999997E+02  0.45594000000E+02  0.51100000000E-03 0. -1.
         11   -1    0    0    0    0 -0.00000000000E+00 -0.00000000000E+00 -0.45593999997E+02  0.45594000000E+02  0.51100000000E-03 0.  1.
    9900012    2    1    2    0    0  0.81772188550E+01 -0.11782650503E+02  0.40962490721E+02  0.47787269509E+02  0.19999993000E+02 0.  0.
        -12    1    1    2    0    0 -0.81772188550E+01  0.11782650503E+02 -0.40962490721E+02  0.43400730491E+02  0.00000000000E+00 0.  1.
         11    1    3    3    0    0  0.14954537579E+01 -0.10406196008E+02  0.21099160979E+02  0.23573287670E+02  0.51100000000E-03 0. -1.
        -11    1    3    3    0    0 -0.32345512495E+01 -0.13166039737E+01  0.27906447873E+01  0.44702870600E+01  0.51100000000E-03 0.  1.
        -12    1    3    3    0    0  0.99163163467E+01 -0.59850522032E-01  0.17072684955E+02  0.19743694779E+02  0.00000000000E+00 0.  1.
</event>
<event>
 7    1  0.4519840E-010  0.4778727E+02  0.7816164E-02  0.1312668E+00
        -11   -1    0    0    0    0  0.00000000000E+00  0.00000000000E+00  0.45593999997E+02  0.45594000000E+02  0.51100000000E-03 0. -1.
         11   -1    0    0    0    0 -0.00000000000E+00 -0.00000000000E+00 -0.45593999997E+02  0.45594000000E+02  0.51100000000E-03 0.  1.
    9900012    2    1    2    0    0  0.55330100983E+01 -0.16772665046E+01  0.43013900843E+02  0.47787273169E+02  0.20000009689E+02 0.  0.
        -12    1    1    2    0    0 -0.55330100983E+01  0.16772665046E+01 -0.43013900843E+02  0.43400726831E+02  0.00000000000E+00 0.  1.
         11    1    3    3    0    0 -0.21302246993E+01 -0.31673529539E+00  0.20505695247E+02  0.20618479971E+02  0.51100000000E-03 0. -1.
        -11    1    3    3    0    0  0.18604756691E+01 -0.33119613662E+01  0.20312803850E+02  0.20664957254E+02  0.51100000000E-03 0.  1.
        -12    1    3    3    0    0  0.58027591285E+01  0.19514301570E+01  0.21954017469E+01  0.65038359444E+01  0.00000000000E+00 0.  1.
</event>
<event>
 7    1  0.4519840E-010  0.4778727E+02  0.7816164E-02  0.1312668E+00
        -11   -1    0    0    0    0  0.00000000000E+00  0.00000000000E+00  0.45593999997E+02  0.45594000000E+02  0.51100000000E-03 0. -1.
         11   -1    0    0    0    0 -0.00000000000E+00 -0.00000000000E+00 -0.45593999997E+02  0.45594000000E+02  0.51100000000E-03 0.  1.
    9900012    2    1    2    0    0 -0.13294200102E+02  0.37161582985E+02  0.18052817595E+02  0.47787271557E+02  0.20000002335E+02 0.  0.
        -12    1    1    2    0    0  0.13294200102E+02 -0.37161582985E+02 -0.18052817595E+02  0.43400728443E+02  0.00000000000E+00 0.  1.
         11    1    3    3    0    0  0.35174185616E+01  0.14226395323E+02  0.75575220094E+01  0.16488744537E+02  0.51100000000E-03 0. -1.
        -11    1    3    3    0    0 -0.30555001678E+01  0.99382395961E+01  0.21599574130E+01  0.10619326901E+02  0.51100000000E-03 0.  1.
        -12    1    3    3    0    0 -0.13756118496E+02  0.12996948066E+02  0.83353381724E+01  0.20679200119E+02  0.00000000000E+00 0.  1.
</event>
<event>
 7    1  0.4519840E-010  0.4778727E+02  0.7816164E-02  0.1312668E+00
        -11   -1    0    0    0    0  0.00000000000E+00  0.00000000000E+00  0.45593999997E+02  0.45594000000E+02  0.51100000000E-03 0. -1.
         11   -1    0    0    0    0 -0.00000000000E+00 -0.00000000000E+00 -0.45593999997E+02  0.45594000000E+02  0.51100000000E-03 0.  1.
    9900012    2    1    2    0    0 -0.31968748073E+02 -0.21557806129E+01  0.29274139684E+02  0.47787268467E+02  0.19999988248E+02 0.  0.
        -12    1    1    2    0    0  0.31968748073E+02  0.21557806129E+01 -0.29274139684E+02  0.43400731533E+02  0.00000000000E+00 0.  1.
         11    1    3    3    0    0 -0.18670614303E+02 -0.97704400050E+01  0.15432402230E+02  0.26119195532E+02  0.51100000000E-03 0. -1.
        -11    1    3    3    0    0 -0.17301840205E+00  0.15470433330E+01 -0.12858637362E+00  0.15619901274E+01  0.51100000000E-03 0.  1.
         12    1    3    3    0    0 -0.13125115367E+02  0.60676160591E+01  0.13970323827E+02  0.20106082808E+02  0.00000000000E+00 0. -1.
</event>
<event>
 7    1  0.4519840E-010  0.4778727E+02  0.7816164E-02  0.1312668E+00
        -11   -1    0    0    0    0  0.00000000000E+00  0.00000000000E+00  0.45593999997E+02  0.45594000000E+02  0.51100000000E-03 0. -1.
         11   -1    0    0    0    0 -0.00000000000E+00 -0.00000000000E+00 -0.45593999997E+02  0.45594000000E+02  0.51100000000E-03 0.  1.
    9900012    2    1    2    0    0  0.96373044680E+01  0.18669593874E+02  0.37976199241E+02  0.47787273260E+02  0.20000010101E+02 0.  0.
        -12    1    1    2    0    0 -0.96373044680E+01 -0.18669593874E+02 -0.37976199241E+02  0.43400726740E+02  0.00000000000E+00 0.  1.
         11    1    3    3    0    0 -0.12448504456E-01  0.11225899851E+02  0.29640770098E+02  0.31695366139E+02  0.51100000000E-03 0. -1.
        -11    1    3    3    0    0  0.25793134505E+01  0.35602615919E+01  0.64532483441E+01  0.78085040136E+01  0.51100000000E-03 0.  1.
        -12    1    3    3    0    0  0.70704395219E+01  0.38834324307E+01  0.18821807986E+01  0.82834031072E+01  0.00000000000E+00 0.  1.
</event>
<event>
 7    1  0.4519840E-010  0.4778727E+02  0.7816164E-02  0.1312668E+00
        -11   -1    0    0    0    0  0.00000000000E+00  0.00000000000E+00  0.45593999997E+02  0.45594000000E+02  0.51100000000E-03 0.  1.
         11   -1    0    0    0    0 -0.00000000000E+00 -0.00000000000E+00 -0.45593999997E+02  0.45594000000E+02  0.51100000000E-03 0. -1.
    9900012    2    1    2    0    0 -0.43275152977E+02 -0.20832626469E+01 -0.25582286865E+01  0.47787269794E+02  0.19999994298E+02 0.  0.
        -12    1    1    2    0    0  0.43275152977E+02  0.20832626469E+01  0.25582286865E+01  0.43400730206E+02  0.00000000000E+00 0.  1.
         11    1    3    3    0    0 -0.61116648986E+01  0.22042105156E+01 -0.38627102599E+01  0.75585397163E+01  0.51100000000E-03 0. -1.
        -11    1    3    3    0    0 -0.17141468060E+02  0.40146944461E+01  0.48604295761E+01  0.18263939189E+02  0.51100000000E-03 0.  1.
         12    1    3    3    0    0 -0.20022020018E+02 -0.83021676086E+01 -0.35559480027E+01  0.21964790889E+02  0.00000000000E+00 0. -1.
</event>
<event>
 7    1  0.4519840E-010  0.4778727E+02  0.7816164E-02  0.1312668E+00
        -11   -1    0    0    0    0  0.00000000000E+00  0.00000000000E+00  0.45593999997E+02  0.45594000000E+02  0.51100000000E-03 0. -1.
         11   -1    0    0    0    0 -0.00000000000E+00 -0.00000000000E+00 -0.45593999997E+02  0.45594000000E+02  0.51100000000E-03 0.  1.
    9900012    2    1    2    0    0  0.26263422021E+00 -0.78057747396E+01  0.42692204918E+02  0.47787268937E+02  0.19999990391E+02 0.  0.
        -12    1    1    2    0    0 -0.26263422021E+00  0.78057747396E+01 -0.42692204918E+02  0.43400731063E+02  0.00000000000E+00 0.  1.
         11    1    3    3    0    0 -0.39698063712E+01  0.52409687478E+00  0.75495068549E+01  0.85457061833E+01  0.51100000000E-03 0.  1.
        -11    1    3    3    0    0 -0.68985369476E+00 -0.24307185144E+01 -0.66997004142E+00  0.26140295970E+01  0.51100000000E-03 0. -1.
         12    1    3    3    0    0  0.49222942861E+01 -0.58991531000E+01  0.35812668105E+02  0.36627533157E+02  0.00000000000E+00 0. -1.
</event>
<event>
 7    1  0.4519840E-010  0.4778727E+02  0.7816164E-02  0.1312668E+00
        -11   -1    0    0    0    0  0.00000000000E+00  0.00000000000E+00  0.45593999997E+02  0.45594000000E+02  0.51100000000E-03 0.  1.
         11   -1    0    0    0    0 -0.00000000000E+00 -0.00000000000E+00 -0.45593999997E+02  0.45594000000E+02  0.51100000000E-03 0. -1.
    9900012    2    1    2    0    0  0.43276601092E+02 -0.45249107168E+00 -0.32487176771E+01  0.47787272854E+02  0.20000008250E+02 0.  0.
         12    1    1    2    0    0 -0.43276601092E+02  0.45249107168E+00  0.32487176771E+01  0.43400727146E+02  0.00000000000E+00 0. -1.
         11    1    3    3    0    0  0.88754383002E+01 -0.23884735300E+01 -0.17330043302E+01  0.93531553549E+01  0.51100000000E-03 0. -1.
        -11    1    3    3    0    0 -0.89965524030E+00 -0.31595619139E+00  0.26507261034E+01  0.28170120701E+01  0.51100000000E-03 0.  1.
        -12    1    3    3    0    0  0.35300818032E+02  0.22519386497E+01 -0.41664394504E+01  0.35617105429E+02  0.00000000000E+00 0.  1.
</event>
<event>
 7    1  0.4519840E-010  0.4778727E+02  0.7816164E-02  0.1312668E+00
        -11   -1    0    0    0    0  0.00000000000E+00  0.00000000000E+00  0.45593999997E+02  0.45594000000E+02  0.51100000000E-03 0. -1.
         11   -1    0    0    0    0 -0.00000000000E+00 -0.00000000000E+00 -0.45593999997E+02  0.45594000000E+02  0.51100000000E-03 0.  1.
    9900012    2    1    2    0    0  0.64508488524E+01  0.29293016540E+02  0.31367640369E+02  0.47787272688E+02  0.20000007492E+02 0.  0.
        -12    1    1    2    0    0 -0.64508488524E+01 -0.29293016540E+02 -0.31367640369E+02  0.43400727312E+02  0.00000000000E+00 0.  1.
         11    1    3    3    0    0  0.11123954122E+01  0.20273344846E+02  0.19154087064E+02  0.27912810434E+02  0.51100000000E-03 0. -1.
        -11    1    3    3    0    0 -0.10532193471E+00 -0.11233875145E+01  0.72518777389E+01  0.73391295955E+01  0.51100000000E-03 0.  1.
         12    1    3    3    0    0  0.54437753749E+01  0.10143059208E+02  0.49616755664E+01  0.12535332658E+02  0.00000000000E+00 0. -1.
</event>
<event>
 7    1  0.4519840E-010  0.4778727E+02  0.7816164E-02  0.1312668E+00
        -11   -1    0    0    0    0  0.00000000000E+00  0.00000000000E+00  0.45593999997E+02  0.45594000000E+02  0.51100000000E-03 0. -1.
         11   -1    0    0    0    0 -0.00000000000E+00 -0.00000000000E+00 -0.45593999997E+02  0.45594000000E+02  0.51100000000E-03 0.  1.
    9900012    2    1    2    0    0  0.43386678514E+02  0.68843714456E+00 -0.86350575550E+00  0.47787268896E+02  0.19999990203E+02 0.  0.
         12    1    1    2    0    0 -0.43386678514E+02 -0.68843714456E+00  0.86350575550E+00  0.43400731104E+02  0.00000000000E+00 0. -1.
         11    1    3    3    0    0  0.22173479300E+02 -0.31941697438E+00  0.16160474370E+01  0.22234586145E+02  0.51100000000E-03 0.  1.
        -11    1    3    3    0    0  0.18840066736E+02  0.31766554944E+01 -0.67004786404E+01  0.20246868129E+02  0.51100000000E-03 0. -1.
         12    1    3    3    0    0  0.23731324788E+01 -0.21688013755E+01  0.42209254479E+01  0.53058146222E+01  0.00000000000E+00 0. -1.
</event>
<event>
 7    1  0.4519840E-010  0.4778727E+02  0.7816164E-02  0.1312668E+00
        -11   -1    0    0    0    0  0.00000000000E+00  0.00000000000E+00  0.45593999997E+02  0.45594000000E+02  0.51100000000E-03 0. -1.
         11   -1    0    0    0    0 -0.00000000000E+00 -0.00000000000E+00 -0.45593999997E+02  0.45594000000E+02  0.51100000000E-03 0.  1.
    9900012    2    1    2    0    0 -0.13090584278E+02 -0.20905642036E+02 -0.35710142742E+02  0.47787267744E+02  0.19999984954E+02 0.  0.
         12    1    1    2    0    0  0.13090584278E+02  0.20905642036E+02  0.35710142742E+02  0.43400732256E+02  0.00000000000E+00 0. -1.
         11    1    3    3    0    0 -0.97372520271E+01 -0.11134548379E+02 -0.22449554031E+02  0.26884469887E+02  0.51100000000E-03 0. -1.
        -11    1    3    3    0    0 -0.20712495793E+01 -0.10515722374E+02 -0.15114551769E+02  0.18528900866E+02  0.51100000000E-03 0.  1.
         12    1    3    3    0    0 -0.12820826715E+01  0.74462871683E+00  0.18539630585E+01  0.23738969912E+01  0.00000000000E+00 0. -1.
</event>
<event>
 7    1  0.4519840E-010  0.4778728E+02  0.7816164E-02  0.1312668E+00
        -11   -1    0    0    0    0  0.00000000000E+00  0.00000000000E+00  0.45593999997E+02  0.45594000000E+02  0.51100000000E-03 0. -1.
         11   -1    0    0    0    0 -0.00000000000E+00 -0.00000000000E+00 -0.45593999997E+02  0.45594000000E+02  0.51100000000E-03 0.  1.
    9900012    2    1    2    0    0  0.73391072818E+01 -0.24679981341E+02 -0.34937925925E+02  0.47787278317E+02  0.20000033159E+02 0.  0.
         12    1    1    2    0    0 -0.73391072818E+01  0.24679981341E+02  0.34937925925E+02  0.43400721683E+02  0.00000000000E+00 0. -1.
         11    1    3    3    0    0  0.42124095739E+01 -0.10472271031E+01 -0.18818431434E+01  0.47310054852E+01  0.51100000000E-03 0. -1.
        -11    1    3    3    0    0  0.53644657217E+01 -0.16044114985E+02 -0.12512036627E+02  0.21041439565E+02  0.51100000000E-03 0.  1.
         12    1    3    3    0    0 -0.22377680138E+01 -0.75886392527E+01 -0.20544046154E+02  0.22014833267E+02  0.00000000000E+00 0. -1.
</event>
<event>
 7    1  0.4519840E-010  0.4778728E+02  0.7816164E-02  0.1312668E+00
        -11   -1    0    0    0    0  0.00000000000E+00  0.00000000000E+00  0.45593999997E+02  0.45594000000E+02  0.51100000000E-03 0. -1.
         11   -1    0    0    0    0 -0.00000000000E+00 -0.00000000000E+00 -0.45593999997E+02  0.45594000000E+02  0.51100000000E-03 0.  1.
    9900012    2    1    2    0    0  0.15092048825E+02  0.18003750520E+02 -0.36492705222E+02  0.47787279903E+02  0.20000040388E+02 0.  0.
         12    1    1    2    0    0 -0.15092048825E+02 -0.18003750520E+02  0.36492705222E+02  0.43400720097E+02  0.00000000000E+00 0. -1.
         11    1    3    3    0    0 -0.19239959801E+01 -0.11193463348E+01 -0.51847731782E+01  0.56423904437E+01  0.51100000000E-03 0. -1.
        -11    1    3    3    0    0  0.19091787326E+01  0.59259862290E+01 -0.15176079138E+02  0.16403525672E+02  0.51100000000E-03 0.  1.
        -12    1    3    3    0    0  0.15106866073E+02  0.13197110626E+02 -0.16131852906E+02  0.25741363787E+02  0.00000000000E+00 0.  1.
</event>
<event>
 7    1  0.4519840E-010  0.4778727E+02  0.7816164E-02  0.1312668E+00
        -11   -1    0    0    0    0  0.00000000000E+00  0.00000000000E+00  0.45593999997E+02  0.45594000000E+02  0.51100000000E-03 0. -1.
         11   -1    0    0    0    0 -0.00000000000E+00 -0.00000000000E+00 -0.45593999997E+02  0.45594000000E+02  0.51100000000E-03 0.  1.
    9900012    2    1    2    0    0 -0.94311601632E+01 -0.13759197445E+02 -0.40066953372E+02  0.47787273637E+02  0.20000011819E+02 0.  0.
         12    1    1    2    0    0  0.94311601632E+01  0.13759197445E+02  0.40066953372E+02  0.43400726363E+02  0.00000000000E+00 0. -1.
         11    1    3    3    0    0 -0.77017212685E+01 -0.59232660839E+00 -0.59315465037E+01  0.97391275531E+01  0.51100000000E-03 0. -1.
        -11    1    3    3    0    0 -0.45859349639E+01 -0.38550958543E+01 -0.69785306473E+01  0.91974156042E+01  0.51100000000E-03 0.  1.
         12    1    3    3    0    0  0.28564960692E+01 -0.93117749825E+01 -0.27156876221E+02  0.28850730479E+02  0.00000000000E+00 0. -1.
</event>
<event>
 7    1  0.7163097E-010  0.4778727E+02  0.7816164E-02  0.1312668E+00
        -11   -1    0    0    0    0  0.00000000000E+00  0.00000000000E+00  0.45593999997E+02  0.45594000000E+02  0.51100000000E-03 0. -1.
         11   -1    0    0    0    0 -0.00000000000E+00 -0.00000000000E+00 -0.45593999997E+02  0.45594000000E+02  0.51100000000E-03 0.  1.
    9900012    2    1    2    0    0 -0.10374246937E+02 -0.33370887115E+02 -0.25736793629E+02  0.47787266680E+02  0.19999980101E+02 0.  0.
         12    1    1    2    0    0  0.10374246937E+02  0.33370887115E+02  0.25736793629E+02  0.43400733320E+02  0.00000000000E+00 0. -1.
         11    1    3    3    0    0  0.43609610270E+00 -0.11618995307E+02 -0.27011189940E+01  0.11936803418E+02  0.51100000000E-03 0. -1.
        -11    1    3    3    0    0 -0.37287429490E+01 -0.13508512732E+02 -0.51657420548E+01  0.14935472254E+02  0.51100000000E-03 0.  1.
        -12    1    3    3    0    0 -0.70816000909E+01 -0.82433790765E+01 -0.17869932581E+02  0.20914991008E+02  0.00000000000E+00 0.  1.
</event>
<event>
 7    1  0.4519840E-010  0.4778727E+02  0.7816164E-02  0.1312668E+00
        -11   -1    0    0    0    0  0.00000000000E+00  0.00000000000E+00  0.45593999997E+02  0.45594000000E+02  0.51100000000E-03 0. -1.
         11   -1    0    0    0    0 -0.00000000000E+00 -0.00000000000E+00 -0.45593999997E+02  0.45594000000E+02  0.51100000000E-03 0.  1.
    9900012    2    1    2    0    0  0.10183834257E+02  0.38809585993E+02  0.16544747864E+02  0.47787272737E+02  0.20000007716E+02 0.  0.
        -12    1    1    2    0    0 -0.10183834257E+02 -0.38809585993E+02 -0.16544747864E+02  0.43400727263E+02  0.00000000000E+00 0.  1.
         11    1    3    3    0    0  0.64858648299E+01  0.33422327283E+02  0.12425457494E+02  0.36242383997E+02  0.51100000000E-03 0. -1.
        -11    1    3    3    0    0  0.27884837715E+01  0.62276839239E+01  0.61371309227E+01  0.91773669984E+01  0.51100000000E-03 0.  1.
        -12    1    3    3    0    0  0.90948565586E+00 -0.84042521396E+00 -0.20178405529E+01  0.23675217412E+01  0.00000000000E+00 0.  1.
</event>
<event>
 7    1  0.4519840E-010  0.4778728E+02  0.7816164E-02  0.1312668E+00
        -11   -1    0    0    0    0  0.00000000000E+00  0.00000000000E+00  0.45593999997E+02  0.45594000000E+02  0.51100000000E-03 0. -1.
         11   -1    0    0    0    0 -0.00000000000E+00 -0.00000000000E+00 -0.45593999997E+02  0.45594000000E+02  0.51100000000E-03 0.  1.
    9900012    2    1    2    0    0  0.13744551036E+02  0.29046567971E+02  0.29172026439E+02  0.47787275114E+02  0.20000018555E+02 0.  0.
        -12    1    1    2    0    0 -0.13744551036E+02 -0.29046567971E+02 -0.29172026439E+02  0.43400724886E+02  0.00000000000E+00 0.  1.
         11    1    3    3    0    0  0.33845154150E+01  0.54669309436E+01  0.10877915785E+02  0.12636112164E+02  0.51100000000E-03 0. -1.
        -11    1    3    3    0    0  0.13900242956E+01  0.36711530665E+01  0.11700458536E+02  0.12341404401E+02  0.51100000000E-03 0.  1.
        -12    1    3    3    0    0  0.89700113252E+01  0.19908483961E+02  0.65936521176E+01  0.22809758549E+02  0.00000000000E+00 0.  1.
</event>
<event>
 7    1  0.4519840E-010  0.4778727E+02  0.7816164E-02  0.1312668E+00
        -11   -1    0    0    0    0  0.00000000000E+00  0.00000000000E+00  0.45593999997E+02  0.45594000000E+02  0.51100000000E-03 0. -1.
         11   -1    0    0    0    0 -0.00000000000E+00 -0.00000000000E+00 -0.45593999997E+02  0.45594000000E+02  0.51100000000E-03 0.  1.
    9900012    2    1    2    0    0  0.14193742551E+02  0.18505869295E+02 -0.36601828379E+02  0.47787269975E+02  0.19999995124E+02 0.  0.
         12    1    1    2    0    0 -0.14193742551E+02 -0.18505869295E+02  0.36601828379E+02  0.43400730025E+02  0.00000000000E+00 0. -1.
         11    1    3    3    0    0  0.11537055142E+02  0.85168961644E+01 -0.75865273374E+01  0.16223333780E+02  0.51100000000E-03 0. -1.
        -11    1    3    3    0    0  0.30771760350E+00  0.26766557146E+01 -0.16915345434E+01  0.31812678779E+01  0.51100000000E-03 0.  1.
        -12    1    3    3    0    0  0.23489698056E+01  0.73123174161E+01 -0.27323766499E+02  0.28382668317E+02  0.00000000000E+00 0.  1.
</event>
<event>
 7    1  0.4519840E-010  0.4778731E+02  0.7816164E-02  0.1312668E+00
        -11   -1    0    0    0    0  0.00000000000E+00  0.00000000000E+00  0.45593999997E+02  0.45594000000E+02  0.51100000000E-03 0. -1.
         11   -1    0    0    0    0 -0.00000000000E+00 -0.00000000000E+00 -0.45593999997E+02  0.45594000000E+02  0.51100000000E-03 0.  1.
    9900012    2    1    2    0    0  0.18781004739E+02  0.12318816686E+02  0.37136776183E+02  0.47787314190E+02  0.20000196717E+02 0.  0.
        -12    1    1    2    0    0 -0.18781004739E+02 -0.12318816686E+02 -0.37136776183E+02  0.43400685810E+02  0.00000000000E+00 0.  1.
         11    1    3    3    0    0  0.37179251068E+01  0.19219193455E+01  0.10746941761E+02  0.11533147816E+02  0.51100000000E-03 0. -1.
        -11    1    3    3    0    0  0.13314123188E+02  0.12748767611E+02  0.27511346099E+02  0.33116025068E+02  0.51100000000E-03 0.  1.
        -12    1    3    3    0    0  0.17489564442E+01 -0.23518702705E+01 -0.11215116777E+01  0.31381413059E+01  0.00000000000E+00 0.  1.
</event>
<event>
 7    1  0.4519840E-010  0.4778727E+02  0.7816164E-02  0.1312668E+00
        -11   -1    0    0    0    0  0.00000000000E+00  0.00000000000E+00  0.45593999997E+02  0.45594000000E+02  0.51100000000E-03 0. -1.
         11   -1    0    0    0    0 -0.00000000000E+00 -0.00000000000E+00 -0.45593999997E+02  0.45594000000E+02  0.51100000000E-03 0.  1.
    9900012    2    1    2    0    0  0.16434338294E+02 -0.81429911266E+01  0.39334813115E+02  0.47787270716E+02  0.19999998502E+02 0.  0.
        -12    1    1    2    0    0 -0.16434338294E+02  0.81429911266E+01 -0.39334813115E+02  0.43400729284E+02  0.00000000000E+00 0.  1.
         11    1    3    3    0    0  0.42138020350E+01  0.53818177899E+01  0.60872050654E+01  0.91528223015E+01  0.51100000000E-03 0. -1.
        -11    1    3    3    0    0  0.19360515981E+00 -0.33446783678E+01  0.10031094659E+02  0.10575784447E+02  0.51100000000E-03 0.  1.
        -12    1    3    3    0    0  0.12026931099E+02 -0.10180130549E+02  0.23216513390E+02  0.28058663967E+02  0.00000000000E+00 0.  1.
</event>
<event>
 7    1  0.4519840E-010  0.4778724E+02  0.7816164E-02  0.1312668E+00
        -11   -1    0    0    0    0  0.00000000000E+00  0.00000000000E+00  0.45593999997E+02  0.45594000000E+02  0.51100000000E-03 0.  1.
         11   -1    0    0    0    0 -0.00000000000E+00 -0.00000000000E+00 -0.45593999997E+02  0.45594000000E+02  0.51100000000E-03 0. -1.
    9900012    2    1    2    0    0  0.30980005546E+02  0.13961437923E+02 -0.26998955090E+02  0.47787238850E+02  0.19999853210E+02 0.  0.
         12    1    1    2    0    0 -0.30980005546E+02 -0.13961437923E+02  0.26998955090E+02  0.43400761150E+02  0.00000000000E+00 0. -1.
         11    1    3    3    0    0  0.12528194414E+01 -0.24699937950E+01  0.13257161876E+01  0.30704966327E+01  0.51100000000E-03 0. -1.
        -11    1    3    3    0    0  0.92758205621E+01  0.51710111909E+01 -0.50818088831E+01  0.11773061863E+02  0.51100000000E-03 0.  1.
        -12    1    3    3    0    0  0.20451365542E+02  0.11260420527E+02 -0.23242862395E+02  0.32943680354E+02  0.00000000000E+00 0.  1.
</event>
<event>
 7    1  0.4519840E-010  0.4778728E+02  0.7816164E-02  0.1312668E+00
        -11   -1    0    0    0    0  0.00000000000E+00  0.00000000000E+00  0.45593999997E+02  0.45594000000E+02  0.51100000000E-03 0. -1.
         11   -1    0    0    0    0 -0.00000000000E+00 -0.00000000000E+00 -0.45593999997E+02  0.45594000000E+02  0.51100000000E-03 0.  1.
    9900012    2    1    2    0    0 -0.19713118148E+02 -0.19783330177E+02 -0.33221002256E+02  0.47787283751E+02  0.20000057935E+02 0.  0.
         12    1    1    2    0    0  0.19713118148E+02  0.19783330177E+02  0.33221002256E+02  0.43400716249E+02  0.00000000000E+00 0. -1.
         11    1    3    3    0    0  0.71472075514E+00  0.86820325402E+00 -0.73660315761E+01  0.74513773283E+01  0.51100000000E-03 0. -1.
        -11    1    3    3    0    0  0.16056405847E+00 -0.51355654593E+01 -0.35435233019E+01  0.62415039098E+01  0.51100000000E-03 0.  1.
        -12    1    3    3    0    0 -0.20588402962E+02 -0.15515967972E+02 -0.22311447378E+02  0.34094402513E+02  0.00000000000E+00 0.  1.
</event>
<event>
 7    1  0.4519840E-010  0.4778727E+02  0.7816164E-02  0.1312668E+00
        -11   -1    0    0    0    0  0.00000000000E+00  0.00000000000E+00  0.45593999997E+02  0.45594000000E+02  0.51100000000E-03 0. -1.
         11   -1    0    0    0    0 -0.00000000000E+00 -0.00000000000E+00 -0.45593999997E+02  0.45594000000E+02  0.51100000000E-03 0.  1.
    9900012    2    1    2    0    0 -0.60161418370E+00 -0.30241472439E+02 -0.31124180230E+02  0.47787272012E+02  0.20000004411E+02 0.  0.
         12    1    1    2    0    0  0.60161418370E+00  0.30241472439E+02  0.31124180230E+02  0.43400727988E+02  0.00000000000E+00 0. -1.
         11    1    3    3    0    0 -0.37344291444E-01 -0.81746477422E+01 -0.22813012575E+01  0.84870840690E+01  0.51100000000E-03 0. -1.
        -11    1    3    3    0    0  0.58822178155E+01 -0.31249366713E+01 -0.79514424607E+01  0.10372615538E+02  0.51100000000E-03 0.  1.
        -12    1    3    3    0    0 -0.64464877077E+01 -0.18941888025E+02 -0.20891436512E+02  0.28927572405E+02  0.00000000000E+00 0.  1.
</event>
<event>
 7    1  0.4519840E-010  0.4778724E+02  0.7816164E-02  0.1312668E+00
        -11   -1    0    0    0    0  0.00000000000E+00  0.00000000000E+00  0.45593999997E+02  0.45594000000E+02  0.51100000000E-03 0. -1.
         11   -1    0    0    0    0 -0.00000000000E+00 -0.00000000000E+00 -0.45593999997E+02  0.45594000000E+02  0.51100000000E-03 0.  1.
    9900012    2    1    2    0    0  0.42608281583E+01  0.28301049973E+02 -0.32627010864E+02  0.47787240512E+02  0.19999860792E+02 0.  0.
         12    1    1    2    0    0 -0.42608281583E+01 -0.28301049973E+02  0.32627010864E+02  0.43400759488E+02  0.00000000000E+00 0. -1.
         11    1    3    3    0    0  0.74616865821E+01  0.65208456446E+01 -0.11451777420E+02  0.15144021953E+02  0.51100000000E-03 0.  1.
        -11    1    3    3    0    0  0.31565716643E+01  0.11636833322E+02 -0.64770985311E+01  0.13686951453E+02  0.51100000000E-03 0. -1.
         12    1    3    3    0    0 -0.63574300881E+01  0.10143371007E+02 -0.14698134913E+02  0.18956267107E+02  0.00000000000E+00 0. -1.
</event>
<event>
 7    1  0.4519840E-010  0.4778727E+02  0.7816164E-02  0.1312668E+00
        -11   -1    0    0    0    0  0.00000000000E+00  0.00000000000E+00  0.45593999997E+02  0.45594000000E+02  0.51100000000E-03 0.  1.
         11   -1    0    0    0    0 -0.00000000000E+00 -0.00000000000E+00 -0.45593999997E+02  0.45594000000E+02  0.51100000000E-03 0. -1.
    9900012    2    1    2    0    0 -0.40704168203E+02  0.18607560077E+01 -0.14944285579E+02  0.47787269666E+02  0.19999993716E+02 0.  0.
         12    1    1    2    0    0  0.40704168203E+02 -0.18607560077E+01  0.14944285579E+02  0.43400730334E+02  0.00000000000E+00 0. -1.
         11    1    3    3    0    0 -0.85265332581E+01 -0.37097444798E+01 -0.48799128699E+01  0.10501310556E+02  0.51100000000E-03 0. -1.
        -11    1    3    3    0    0 -0.28280290974E+02  0.46204538102E+01 -0.13799442845E+02  0.31804843563E+02  0.51100000000E-03 0.  1.
        -12    1    3    3    0    0 -0.38973439711E+01  0.95004667727E+00  0.37350701365E+01  0.54811155472E+01  0.00000000000E+00 0.  1.
</event>
<event>
 7    1  0.4519840E-010  0.4778727E+02  0.7816164E-02  0.1312668E+00
        -11   -1    0    0    0    0  0.00000000000E+00  0.00000000000E+00  0.45593999997E+02  0.45594000000E+02  0.51100000000E-03 0. -1.
         11   -1    0    0    0    0 -0.00000000000E+00 -0.00000000000E+00 -0.45593999997E+02  0.45594000000E+02  0.51100000000E-03 0.  1.
    9900012    2    1    2    0    0 -0.33083320457E+02  0.27810164343E+02  0.39638280209E+01  0.47787271137E+02  0.20000000423E+02 0.  0.
         12    1    1    2    0    0  0.33083320457E+02 -0.27810164343E+02 -0.39638280209E+01  0.43400728863E+02  0.00000000000E+00 0. -1.
         11    1    3    3    0    0  0.65674542055E-01 -0.13071683715E+01  0.15591741407E+01  0.20356882274E+01  0.51100000000E-03 0. -1.
        -11    1    3    3    0    0 -0.69026819348E+01  0.57855369027E+01 -0.43311093245E+01  0.99938963066E+01  0.51100000000E-03 0.  1.
         12    1    3    3    0    0 -0.26246313064E+02  0.23331795812E+02  0.67357632047E+01  0.35757686603E+02  0.00000000000E+00 0. -1.
</event>
<event>
 7    1  0.4519840E-010  0.4778727E+02  0.7816164E-02  0.1312668E+00
        -11   -1    0    0    0    0  0.00000000000E+00  0.00000000000E+00  0.45593999997E+02  0.45594000000E+02  0.51100000000E-03 0.  1.
         11   -1    0    0    0    0 -0.00000000000E+00 -0.00000000000E+00 -0.45593999997E+02  0.45594000000E+02  0.51100000000E-03 0. -1.
    9900012    2    1    2    0    0 -0.12945860199E+02 -0.41161866098E+02 -0.46614047375E+01  0.47787271768E+02  0.20000003298E+02 0.  0.
         12    1    1    2    0    0  0.12945860199E+02  0.41161866098E+02  0.46614047375E+01  0.43400728232E+02  0.00000000000E+00 0. -1.
         11    1    3    3    0    0  0.32074817543E+01 -0.46838920431E+01 -0.14672280465E+01  0.58634070537E+01  0.51100000000E-03 0. -1.
        -11    1    3    3    0    0 -0.14489484973E+01 -0.16397008735E+02 -0.42898879970E+01  0.17010716813E+02  0.51100000000E-03 0.  1.
         12    1    3    3    0    0 -0.14704393456E+02 -0.20080965320E+02  0.10957113060E+01  0.24913147901E+02  0.00000000000E+00 0. -1.
</event>
<event>
 7    1  0.4519840E-010  0.4778727E+02  0.7816164E-02  0.1312668E+00
        -11   -1    0    0    0    0  0.00000000000E+00  0.00000000000E+00  0.45593999997E+02  0.45594000000E+02  0.51100000000E-03 0. -1.
         11   -1    0    0    0    0 -0.00000000000E+00 -0.00000000000E+00 -0.45593999997E+02  0.45594000000E+02  0.51100000000E-03 0.  1.
    9900012    2    1    2    0    0 -0.66566133855E+01 -0.26833379576E+02  0.33455685250E+02  0.47787266864E+02  0.19999980938E+02 0.  0.
        -12    1    1    2    0    0  0.66566133855E+01  0.26833379576E+02 -0.33455685250E+02  0.43400733136E+02  0.00000000000E+00 0.  1.
         11    1    3    3    0    0 -0.17185261383E+01 -0.67346115304E+01  0.72737259256E+01  0.10060587143E+02  0.51100000000E-03 0. -1.
        -11    1    3    3    0    0  0.52490315196E+01 -0.95320893149E+01  0.17691616050E+02  0.20770323477E+02  0.51100000000E-03 0.  1.
         12    1    3    3    0    0 -0.10187118767E+02 -0.10566678731E+02  0.84903432742E+01  0.16956356244E+02  0.00000000000E+00 0. -1.
</event>
<event>
 7    1  0.4519840E-010  0.4778727E+02  0.7816164E-02  0.1312668E+00
        -11   -1    0    0    0    0  0.00000000000E+00  0.00000000000E+00  0.45593999997E+02  0.45594000000E+02  0.51100000000E-03 0. -1.
         11   -1    0    0    0    0 -0.00000000000E+00 -0.00000000000E+00 -0.45593999997E+02  0.45594000000E+02  0.51100000000E-03 0.  1.
    9900012    2    1    2    0    0 -0.67365861450E+01 -0.37631653476E+02 -0.20545083378E+02  0.47787269738E+02  0.19999994046E+02 0.  0.
         12    1    1    2    0    0  0.67365861450E+01  0.37631653476E+02  0.20545083378E+02  0.43400730262E+02  0.00000000000E+00 0. -1.
         11    1    3    3    0    0 -0.53407763092E+01 -0.12960455688E+02 -0.63382071774E+01  0.15384088329E+02  0.51100000000E-03 0. -1.
        -11    1    3    3    0    0 -0.80762519430E+00 -0.26428913822E+02 -0.14985782023E+02  0.30392653839E+02  0.51100000000E-03 0.  1.
         12    1    3    3    0    0 -0.58818464157E+00  0.17577160346E+01  0.77890582236E+00  0.20105275703E+01  0.00000000000E+00 0. -1.
</event>
<event>
 7    1  0.4519840E-010  0.4778727E+02  0.7816164E-02  0.1312668E+00
        -11   -1    0    0    0    0  0.00000000000E+00  0.00000000000E+00  0.45593999997E+02  0.45594000000E+02  0.51100000000E-03 0. -1.
         11   -1    0    0    0    0 -0.00000000000E+00 -0.00000000000E+00 -0.45593999997E+02  0.45594000000E+02  0.51100000000E-03 0.  1.
    9900012    2    1    2    0    0 -0.12217584533E+02  0.95761353315E+01  0.40529636981E+02  0.47787271740E+02  0.20000003170E+02 0.  0.
        -12    1    1    2    0    0  0.12217584533E+02 -0.95761353315E+01 -0.40529636981E+02  0.43400728260E+02  0.00000000000E+00 0.  1.
         11    1    3    3    0    0 -0.65679451608E+01  0.37032524584E+00  0.33629434033E+01  0.73881278426E+01  0.51100000000E-03 0. -1.
        -11    1    3    3    0    0  0.20842047425E+01  0.76368685193E+01  0.19787905606E+02  0.21312599061E+02  0.51100000000E-03 0.  1.
         12    1    3    3    0    0 -0.77338441151E+01  0.15689415664E+01  0.17378787972E+02  0.19086544836E+02  0.00000000000E+00 0. -1.
</event>
<event>
 7    1  0.4519840E-010  0.4778727E+02  0.7816164E-02  0.1312668E+00
        -11   -1    0    0    0    0  0.00000000000E+00  0.00000000000E+00  0.45593999997E+02  0.45594000000E+02  0.51100000000E-03 0. -1.
         11   -1    0    0    0    0 -0.00000000000E+00 -0.00000000000E+00 -0.45593999997E+02  0.45594000000E+02  0.51100000000E-03 0.  1.
    9900012    2    1    2    0    0 -0.17997967296E+02 -0.27892930597E+02  0.27958558064E+02  0.47787269901E+02  0.19999994788E+02 0.  0.
        -12    1    1    2    0    0  0.17997967296E+02  0.27892930597E+02 -0.27958558064E+02  0.43400730099E+02  0.00000000000E+00 0.  1.
         11    1    3    3    0    0  0.25509191643E+01 -0.10308357814E+02  0.56279301129E+01  0.12018445283E+02  0.51100000000E-03 0. -1.
        -11    1    3    3    0    0 -0.57209483814E+01 -0.83883469126E+01  0.10972035179E+02  0.14949219730E+02  0.51100000000E-03 0.  1.
        -12    1    3    3    0    0 -0.14827938079E+02 -0.91962258708E+01  0.11358592772E+02  0.20819604888E+02  0.00000000000E+00 0.  1.
</event>
<event>
 7    1  0.4519840E-010  0.4778727E+02  0.7816164E-02  0.1312668E+00
        -11   -1    0    0    0    0  0.00000000000E+00  0.00000000000E+00  0.45593999997E+02  0.45594000000E+02  0.51100000000E-03 0. -1.
         11   -1    0    0    0    0 -0.00000000000E+00 -0.00000000000E+00 -0.45593999997E+02  0.45594000000E+02  0.51100000000E-03 0.  1.
    9900012    2    1    2    0    0  0.10785217227E+02  0.34211901813E+02  0.24430476824E+02  0.47787270350E+02  0.19999996835E+02 0.  0.
        -12    1    1    2    0    0 -0.10785217227E+02 -0.34211901813E+02 -0.24430476824E+02  0.43400729650E+02  0.00000000000E+00 0.  1.
         11    1    3    3    0    0  0.19222008054E+01  0.53532388631E+00  0.36209904031E+01  0.41343680726E+01  0.51100000000E-03 0. -1.
        -11    1    3    3    0    0 -0.19760845952E+01 -0.83770189342E+00  0.66951168117E+00  0.22483106862E+01  0.51100000000E-03 0.  1.
         12    1    3    3    0    0  0.10839101017E+02  0.34514279820E+02  0.20139974739E+02  0.41404591591E+02  0.00000000000E+00 0. -1.
</event>
<event>
 7    1  0.4519840E-010  0.4778727E+02  0.7816164E-02  0.1312668E+00
        -11   -1    0    0    0    0  0.00000000000E+00  0.00000000000E+00  0.45593999997E+02  0.45594000000E+02  0.51100000000E-03 0. -1.
         11   -1    0    0    0    0 -0.00000000000E+00 -0.00000000000E+00 -0.45593999997E+02  0.45594000000E+02  0.51100000000E-03 0.  1.
    9900012    2    1    2    0    0  0.26039795689E+02 -0.36323347219E+01 -0.34530546710E+02  0.47787268772E+02  0.19999989637E+02 0.  0.
         12    1    1    2    0    0 -0.26039795689E+02  0.36323347219E+01  0.34530546710E+02  0.43400731228E+02  0.00000000000E+00 0. -1.
         11    1    3    3    0    0  0.13336969659E+02 -0.10160023247E+02 -0.14640953289E+02  0.22258893628E+02  0.51100000000E-03 0. -1.
        -11    1    3    3    0    0  0.11382097047E+02  0.24899443374E+01 -0.13229453802E+02  0.17628681294E+02  0.51100000000E-03 0.  1.
        -12    1    3    3    0    0  0.13207289830E+01  0.40377441881E+01 -0.66601396188E+01  0.78996938496E+01  0.00000000000E+00 0.  1.
</event>
<event>
 7    1  0.4519840E-010  0.4778727E+02  0.7816164E-02  0.1312668E+00
        -11   -1    0    0    0    0  0.00000000000E+00  0.00000000000E+00  0.45593999997E+02  0.45594000000E+02  0.51100000000E-03 0. -1.
         11   -1    0    0    0    0 -0.00000000000E+00 -0.00000000000E+00 -0.45593999997E+02  0.45594000000E+02  0.51100000000E-03 0.  1.
    9900012    2    1    2    0    0  0.85842699927E+01 -0.37461141833E+02  0.20164243252E+02  0.47787267925E+02  0.19999985775E+02 0.  0.
        -12    1    1    2    0    0 -0.85842699927E+01  0.37461141833E+02 -0.20164243252E+02  0.43400732075E+02  0.00000000000E+00 0.  1.
         11    1    3    3    0    0  0.53533821250E+01 -0.28572820326E+02  0.98598409596E+01  0.30696599577E+02  0.51100000000E-03 0. -1.
        -11    1    3    3    0    0  0.42797018112E+01 -0.78701551296E+01  0.27137242977E+01  0.93605282534E+01  0.51100000000E-03 0.  1.
        -12    1    3    3    0    0 -0.10488139435E+01 -0.10181663775E+01  0.75906779947E+01  0.77301400944E+01  0.00000000000E+00 0.  1.
</event>
<event>
 7    1  0.4519840E-010  0.4778728E+02  0.7816164E-02  0.1312668E+00
        -11   -1    0    0    0    0  0.00000000000E+00  0.00000000000E+00  0.45593999997E+02  0.45594000000E+02  0.51100000000E-03 0. -1.
         11   -1    0    0    0    0 -0.00000000000E+00 -0.00000000000E+00 -0.45593999997E+02  0.45594000000E+02  0.51100000000E-03 0.  1.
    9900012    2    1    2    0    0 -0.30654030686E+02  0.15156895108E+02  0.26724928407E+02  0.47787275755E+02  0.20000021478E+02 0.  0.
        -12    1    1    2    0    0  0.30654030686E+02 -0.15156895108E+02 -0.26724928407E+02  0.43400724245E+02  0.00000000000E+00 0.  1.
         11    1    3    3    0    0 -0.13184606384E+02  0.60196951072E+01  0.11540664878E+02  0.18527210280E+02  0.51100000000E-03 0. -1.
        -11    1    3    3    0    0 -0.37424260878E+01  0.57857560283E+01 -0.18435241583E+01  0.71329732528E+01  0.51100000000E-03 0.  1.
        -12    1    3    3    0    0 -0.13726998215E+02  0.33514439728E+01  0.17027787687E+02  0.22127092222E+02  0.00000000000E+00 0.  1.
</event>
<event>
 7    1  0.4519840E-010  0.4778727E+02  0.7816164E-02  0.1312668E+00
        -11   -1    0    0    0    0  0.00000000000E+00  0.00000000000E+00  0.45593999997E+02  0.45594000000E+02  0.51100000000E-03 0. -1.
         11   -1    0    0    0    0 -0.00000000000E+00 -0.00000000000E+00 -0.45593999997E+02  0.45594000000E+02  0.51100000000E-03 0.  1.
    9900012    2    1    2    0    0 -0.29596537104E+02 -0.17130040294E+01  0.31697541810E+02  0.47787267884E+02  0.19999985592E+02 0.  0.
        -12    1    1    2    0    0  0.29596537104E+02  0.17130040294E+01 -0.31697541810E+02  0.43400732116E+02  0.00000000000E+00 0.  1.
         11    1    3    3    0    0 -0.11132343581E+02  0.52560378453E+01  0.91017159625E+01  0.15310004610E+02  0.51100000000E-03 0. -1.
        -11    1    3    3    0    0 -0.76233021514E+01  0.11215684810E+01  0.22178118581E+01  0.80181881525E+01  0.51100000000E-03 0.  1.
         12    1    3    3    0    0 -0.10840891372E+02 -0.80906103558E+01  0.20378013989E+02  0.24459075122E+02  0.00000000000E+00 0. -1.
</event>
<event>
 7    1  0.4519840E-010  0.4778727E+02  0.7816164E-02  0.1312668E+00
        -11   -1    0    0    0    0  0.00000000000E+00  0.00000000000E+00  0.45593999997E+02  0.45594000000E+02  0.51100000000E-03 0. -1.
         11   -1    0    0    0    0 -0.00000000000E+00 -0.00000000000E+00 -0.45593999997E+02  0.45594000000E+02  0.51100000000E-03 0.  1.
    9900012    2    1    2    0    0 -0.35413428923E+02 -0.13027080995E+02  0.21443124946E+02  0.47787269652E+02  0.19999993651E+02 0.  0.
        -12    1    1    2    0    0  0.35413428923E+02  0.13027080995E+02 -0.21443124946E+02  0.43400730348E+02  0.00000000000E+00 0.  1.
         11    1    3    3    0    0 -0.51144386197E+01  0.35093320906E+01  0.57025561109E+01  0.84256774550E+01  0.51100000000E-03 0. -1.
        -11    1    3    3    0    0 -0.17208551119E+02 -0.12908241904E+02  0.14000811442E+02  0.25666703371E+02  0.51100000000E-03 0.  1.
         12    1    3    3    0    0 -0.13090439185E+02 -0.36281711812E+01  0.17397573934E+01  0.13694888826E+02  0.00000000000E+00 0. -1.
</event>
<event>
 7    1  0.4519840E-010  0.4778727E+02  0.7816164E-02  0.1312668E+00
        -11   -1    0    0    0    0  0.00000000000E+00  0.00000000000E+00  0.45593999997E+02  0.45594000000E+02  0.51100000000E-03 0. -1.
         11   -1    0    0    0    0 -0.00000000000E+00 -0.00000000000E+00 -0.45593999997E+02  0.45594000000E+02  0.51100000000E-03 0.  1.
    9900012    2    1    2    0    0  0.63319298065E+01  0.22531467125E+02 -0.36549456896E+02  0.47787272526E+02  0.20000006754E+02 0.  0.
         12    1    1    2    0    0 -0.63319298065E+01 -0.22531467125E+02  0.36549456896E+02  0.43400727474E+02  0.00000000000E+00 0. -1.
         11    1    3    3    0    0  0.16538858132E+01  0.88439474476E+01 -0.32281857998E+01  0.95588664892E+01  0.51100000000E-03 0. -1.
        -11    1    3    3    0    0  0.24531072802E+01  0.15074508269E+02 -0.23221114262E+02  0.27793500727E+02  0.51100000000E-03 0.  1.
        -12    1    3    3    0    0  0.22249367132E+01 -0.13869885911E+01 -0.10100156835E+02  0.10434905309E+02  0.00000000000E+00 0.  1.
</event>
<event>
 7    1  0.4519840E-010  0.4778727E+02  0.7816164E-02  0.1312668E+00
        -11   -1    0    0    0    0  0.00000000000E+00  0.00000000000E+00  0.45593999997E+02  0.45594000000E+02  0.51100000000E-03 0. -1.
         11   -1    0    0    0    0 -0.00000000000E+00 -0.00000000000E+00 -0.45593999997E+02  0.45594000000E+02  0.51100000000E-03 0.  1.
    9900012    2    1    2    0    0  0.12946280572E+02 -0.34181064725E+02 -0.23402389453E+02  0.47787271913E+02  0.20000003960E+02 0.  0.
         12    1    1    2    0    0 -0.12946280572E+02  0.34181064725E+02  0.23402389453E+02  0.43400728087E+02  0.00000000000E+00 0. -1.
         11    1    3    3    0    0 -0.11855796470E+01 -0.53311312215E+01 -0.58254212978E+01  0.79851169533E+01  0.51100000000E-03 0. -1.
        -11    1    3    3    0    0  0.25682804811E+01 -0.21940199353E+02 -0.91321616839E+01  0.23903238056E+02  0.51100000000E-03 0.  1.
         12    1    3    3    0    0  0.11563579737E+02 -0.69097341509E+01 -0.84448064708E+01  0.15898916904E+02  0.00000000000E+00 0. -1.
</event>
<event>
 7    1  0.4519840E-010  0.4778727E+02  0.7816164E-02  0.1312668E+00
        -11   -1    0    0    0    0  0.00000000000E+00  0.00000000000E+00  0.45593999997E+02  0.45594000000E+02  0.51100000000E-03 0. -1.
         11   -1    0    0    0    0 -0.00000000000E+00 -0.00000000000E+00 -0.45593999997E+02  0.45594000000E+02  0.51100000000E-03 0.  1.
    9900012    2    1    2    0    0  0.28132037758E+02 -0.73307370636E+01 -0.32225332147E+02  0.47787270901E+02  0.19999999345E+02 0.  0.
         12    1    1    2    0    0 -0.28132037758E+02  0.73307370636E+01  0.32225332147E+02  0.43400729099E+02  0.00000000000E+00 0. -1.
         11    1    3    3    0    0  0.27211004197E+02 -0.32361986769E+01 -0.31842990778E+02  0.42010567638E+02  0.51100000000E-03 0. -1.
        -11    1    3    3    0    0  0.15972828013E+01 -0.17961281313E+01 -0.17909331924E+01  0.29974706958E+01  0.51100000000E-03 0.  1.
         12    1    3    3    0    0 -0.67624924016E+00 -0.22984102554E+01  0.14085918233E+01  0.27792325670E+01  0.00000000000E+00 0. -1.
</event>
<event>
 7    1  0.4519840E-010  0.4778727E+02  0.7816164E-02  0.1312668E+00
        -11   -1    0    0    0    0  0.00000000000E+00  0.00000000000E+00  0.45593999997E+02  0.45594000000E+02  0.51100000000E-03 0. -1.
         11   -1    0    0    0    0 -0.00000000000E+00 -0.00000000000E+00 -0.45593999997E+02  0.45594000000E+02  0.51100000000E-03 0.  1.
    9900012    2    1    2    0    0 -0.15535796905E+02 -0.35129061567E+02  0.20204242002E+02  0.47787270203E+02  0.19999996164E+02 0.  0.
        -12    1    1    2    0    0  0.15535796905E+02  0.35129061567E+02 -0.20204242002E+02  0.43400729797E+02  0.00000000000E+00 0.  1.
         11    1    3    3    0    0 -0.29342671830E+00 -0.13031243920E+02  0.61606144815E+01  0.14417093618E+02  0.51100000000E-03 0. -1.
        -11    1    3    3    0    0 -0.83963779032E+01 -0.36243683449E+01  0.94295842766E+01  0.13135915183E+02  0.51100000000E-03 0.  1.
         12    1    3    3    0    0 -0.68459922831E+01 -0.18473449302E+02  0.46140432441E+01  0.20234261402E+02  0.00000000000E+00 0. -1.
</event>
<event>
 7    1  0.4519840E-010  0.4778727E+02  0.7816164E-02  0.1312668E+00
        -11   -1    0    0    0    0  0.00000000000E+00  0.00000000000E+00  0.45593999997E+02  0.45594000000E+02  0.51100000000E-03 0. -1.
         11   -1    0    0    0    0 -0.00000000000E+00 -0.00000000000E+00 -0.45593999997E+02  0.45594000000E+02  0.51100000000E-03 0.  1.
    9900012    2    1    2    0    0  0.37958892095E+01 -0.13479825102E+02  0.41079298601E+02  0.47787271513E+02  0.20000002135E+02 0.  0.
        -12    1    1    2    0    0 -0.37958892095E+01  0.13479825102E+02 -0.41079298601E+02  0.43400728487E+02  0.00000000000E+00 0.  1.
         11    1    3    3    0    0  0.20472719174E+01 -0.13136283657E+02  0.16556698286E+02  0.21233876919E+02  0.51100000000E-03 0. -1.
        -11    1    3    3    0    0 -0.35119778317E+00 -0.49626653027E+01  0.99857086320E+01  0.11156422542E+02  0.51100000000E-03 0.  1.
        -12    1    3    3    0    0  0.20998150753E+01  0.46191238570E+01  0.14536891683E+02  0.15396972052E+02  0.00000000000E+00 0.  1.
</event>
<event>
 7    1  0.4519840E-010  0.4778727E+02  0.7816164E-02  0.1312668E+00
        -11   -1    0    0    0    0  0.00000000000E+00  0.00000000000E+00  0.45593999997E+02  0.45594000000E+02  0.51100000000E-03 0. -1.
         11   -1    0    0    0    0 -0.00000000000E+00 -0.00000000000E+00 -0.45593999997E+02  0.45594000000E+02  0.51100000000E-03 0.  1.
    9900012    2    1    2    0    0  0.30818048627E+02  0.61007017070E+00 -0.30553214060E+02  0.47787271939E+02  0.20000004080E+02 0.  0.
         12    1    1    2    0    0 -0.30818048627E+02 -0.61007017070E+00  0.30553214060E+02  0.43400728061E+02  0.00000000000E+00 0. -1.
         11    1    3    3    0    0  0.67921444684E+01  0.30566801462E+01 -0.12412608011E+02  0.14475819766E+02  0.51100000000E-03 0.  1.
        -11    1    3    3    0    0  0.21889671790E+02 -0.25626747460E+01 -0.20519049930E+02  0.30112396836E+02  0.51100000000E-03 0. -1.
         12    1    3    3    0    0  0.21362323688E+01  0.11606477050E+00  0.23784438802E+01  0.31990553380E+01  0.00000000000E+00 0. -1.
</event>
<event>
 7    1  0.4519840E-010  0.4778728E+02  0.7816164E-02  0.1312668E+00
        -11   -1    0    0    0    0  0.00000000000E+00  0.00000000000E+00  0.45593999997E+02  0.45594000000E+02  0.51100000000E-03 0. -1.
         11   -1    0    0    0    0 -0.00000000000E+00 -0.00000000000E+00 -0.45593999997E+02  0.45594000000E+02  0.51100000000E-03 0.  1.
    9900012    2    1    2    0    0 -0.21335065369E+02  0.29123515615E+01 -0.37682297607E+02  0.47787281586E+02  0.20000048063E+02 0.  0.
         12    1    1    2    0    0  0.21335065369E+02 -0.29123515615E+01  0.37682297607E+02  0.43400718414E+02  0.00000000000E+00 0. -1.
         11    1    3    3    0    0 -0.51888327057E+01  0.39718445502E+01 -0.29036863871E+01  0.71505894075E+01  0.51100000000E-03 0.  1.
        -11    1    3    3    0    0 -0.12662024383E+02  0.53078052543E+01 -0.21685561236E+02  0.25666383159E+02  0.51100000000E-03 0. -1.
         12    1    3    3    0    0 -0.34842082810E+01 -0.63672982431E+01 -0.13093049983E+02  0.14970309019E+02  0.00000000000E+00 0. -1.
</event>
<event>
 7    1  0.4519840E-010  0.4778727E+02  0.7816164E-02  0.1312668E+00
        -11   -1    0    0    0    0  0.00000000000E+00  0.00000000000E+00  0.45593999997E+02  0.45594000000E+02  0.51100000000E-03 0. -1.
         11   -1    0    0    0    0 -0.00000000000E+00 -0.00000000000E+00 -0.45593999997E+02  0.45594000000E+02  0.51100000000E-03 0.  1.
    9900012    2    1    2    0    0 -0.84036521158E+01  0.10660776354E+02 -0.41223176069E+02  0.47787265368E+02  0.19999974120E+02 0.  0.
         12    1    1    2    0    0  0.84036521158E+01 -0.10660776354E+02  0.41223176069E+02  0.43400734632E+02  0.00000000000E+00 0. -1.
         11    1    3    3    0    0 -0.90841187800E+01  0.54996859644E+01 -0.21497329009E+02  0.23977133158E+02  0.51100000000E-03 0. -1.
        -11    1    3    3    0    0 -0.58811252462E+00  0.85421990378E+01 -0.17717390649E+02  0.19677931101E+02  0.51100000000E-03 0.  1.
        -12    1    3    3    0    0  0.12685791888E+01 -0.33811086483E+01 -0.20084564111E+01  0.41322011090E+01  0.00000000000E+00 0.  1.
</event>
<event>
 7    1  0.4519840E-010  0.4778727E+02  0.7816164E-02  0.1312668E+00
        -11   -1    0    0    0    0  0.00000000000E+00  0.00000000000E+00  0.45593999997E+02  0.45594000000E+02  0.51100000000E-03 0. -1.
         11   -1    0    0    0    0 -0.00000000000E+00 -0.00000000000E+00 -0.45593999997E+02  0.45594000000E+02  0.51100000000E-03 0.  1.
    9900012    2    1    2    0    0  0.24047400487E+02 -0.86490953071E+01  0.35079036551E+02  0.47787272758E+02  0.20000007812E+02 0.  0.
        -12    1    1    2    0    0 -0.24047400487E+02  0.86490953071E+01 -0.35079036551E+02  0.43400727242E+02  0.00000000000E+00 0.  1.
         11    1    3    3    0    0  0.19717745464E+02  0.59512386974E-02  0.15961002872E+02  0.25368151974E+02  0.51100000000E-03 0. -1.
        -11    1    3    3    0    0  0.13150597061E+00 -0.24074522217E+01  0.68190820215E+00  0.25056175042E+01  0.51100000000E-03 0.  1.
        -12    1    3    3    0    0  0.41981490526E+01 -0.62475943241E+01  0.18436125476E+02  0.19913503280E+02  0.00000000000E+00 0.  1.
</event>
<event>
 7    1  0.4519840E-010  0.4778728E+02  0.7816164E-02  0.1312668E+00
        -11   -1    0    0    0    0  0.00000000000E+00  0.00000000000E+00  0.45593999997E+02  0.45594000000E+02  0.51100000000E-03 0. -1.
         11   -1    0    0    0    0 -0.00000000000E+00 -0.00000000000E+00 -0.45593999997E+02  0.45594000000E+02  0.51100000000E-03 0.  1.
    9900012    2    1    2    0    0 -0.11382412059E+02  0.20225702581E+02 -0.36674027958E+02  0.47787277934E+02  0.20000031411E+02 0.  0.
         12    1    1    2    0    0  0.11382412059E+02 -0.20225702581E+02  0.36674027958E+02  0.43400722066E+02  0.00000000000E+00 0. -1.
         11    1    3    3    0    0 -0.67395029732E+01  0.10622176746E+02 -0.24724110024E+02  0.27740460629E+02  0.51100000000E-03 0. -1.
        -11    1    3    3    0    0 -0.68100530918E+01  0.11362866004E+02 -0.10483814508E+02  0.16893842483E+02  0.51100000000E-03 0.  1.
         12    1    3    3    0    0  0.21671440059E+01 -0.17593401688E+01 -0.14661034256E+01  0.31529748217E+01  0.00000000000E+00 0. -1.
</event>
<event>
 7    1  0.4519840E-010  0.4778727E+02  0.7816164E-02  0.1312668E+00
        -11   -1    0    0    0    0  0.00000000000E+00  0.00000000000E+00  0.45593999997E+02  0.45594000000E+02  0.51100000000E-03 0.  1.
         11   -1    0    0    0    0 -0.00000000000E+00 -0.00000000000E+00 -0.45593999997E+02  0.45594000000E+02  0.51100000000E-03 0. -1.
    9900012    2    1    2    0    0 -0.33806112639E+02 -0.23400699773E+02  0.13898829625E+02  0.47787268825E+02  0.19999989880E+02 0.  0.
        -12    1    1    2    0    0  0.33806112639E+02  0.23400699773E+02 -0.13898829625E+02  0.43400731175E+02  0.00000000000E+00 0.  1.
         11    1    3    3    0    0 -0.26140470352E+02 -0.99873288234E+01  0.43534159290E+01  0.28320013379E+02  0.51100000000E-03 0. -1.
        -11    1    3    3    0    0 -0.79412338879E+01 -0.72037975343E+01  0.54908158600E+01  0.12046034769E+02  0.51100000000E-03 0.  1.
        -12    1    3    3    0    0  0.27559160189E+00 -0.62095734152E+01  0.40545978360E+01  0.74212206773E+01  0.00000000000E+00 0.  1.
</event>
<event>
 7    1  0.4519840E-010  0.4778727E+02  0.7816164E-02  0.1312668E+00
        -11   -1    0    0    0    0  0.00000000000E+00  0.00000000000E+00  0.45593999997E+02  0.45594000000E+02  0.51100000000E-03 0. -1.
         11   -1    0    0    0    0 -0.00000000000E+00 -0.00000000000E+00 -0.45593999997E+02  0.45594000000E+02  0.51100000000E-03 0.  1.
    9900012    2    1    2    0    0  0.25734818926E+02  0.32435540120E+02  0.13010694012E+02  0.47787270436E+02  0.19999997225E+02 0.  0.
        -12    1    1    2    0    0 -0.25734818926E+02 -0.32435540120E+02 -0.13010694012E+02  0.43400729564E+02  0.00000000000E+00 0.  1.
         11    1    3    3    0    0  0.67653468287E+01  0.81294787815E+00 -0.14375983787E+01  0.69640140238E+01  0.51100000000E-03 0. -1.
        -11    1    3    3    0    0 -0.34584902912E+00  0.32794245442E+01  0.35248656594E+01  0.48268949719E+01  0.51100000000E-03 0.  1.
        -12    1    3    3    0    0  0.19315321126E+02  0.28343167698E+02  0.10923426731E+02  0.35996361440E+02  0.00000000000E+00 0.  1.
</event>
<event>
 7    1  0.4519840E-010  0.4778727E+02  0.7816164E-02  0.1312668E+00
        -11   -1    0    0    0    0  0.00000000000E+00  0.00000000000E+00  0.45593999997E+02  0.45594000000E+02  0.51100000000E-03 0.  1.
         11   -1    0    0    0    0 -0.00000000000E+00 -0.00000000000E+00 -0.45593999997E+02  0.45594000000E+02  0.51100000000E-03 0. -1.
    9900012    2    1    2    0    0  0.14551412242E+02 -0.33363604196E+02 -0.23637884680E+02  0.47787271028E+02  0.19999999923E+02 0.  0.
         12    1    1    2    0    0 -0.14551412242E+02  0.33363604196E+02  0.23637884680E+02  0.43400728972E+02  0.00000000000E+00 0. -1.
         11    1    3    3    0    0 -0.61128980833E+00 -0.14785769153E+01 -0.56738835137E+01  0.58951521874E+01  0.51100000000E-03 0. -1.
        -11    1    3    3    0    0  0.11652913237E+01 -0.14144413423E+02 -0.22542368257E+01  0.14370244218E+02  0.51100000000E-03 0.  1.
         12    1    3    3    0    0  0.13997410727E+02 -0.17740613858E+02 -0.15709764340E+02  0.27521874622E+02  0.00000000000E+00 0. -1.
</event>
<event>
 7    1  0.4519840E-010  0.4778730E+02  0.7816164E-02  0.1312668E+00
        -11   -1    0    0    0    0  0.00000000000E+00  0.00000000000E+00  0.45593999997E+02  0.45594000000E+02  0.51100000000E-03 0.  1.
         11   -1    0    0    0    0 -0.00000000000E+00 -0.00000000000E+00 -0.45593999997E+02  0.45594000000E+02  0.51100000000E-03 0. -1.
    9900012    2    1    2    0    0  0.27720175591E+02 -0.28692322353E+02  0.17086929571E+02  0.47787301170E+02  0.20000137353E+02 0.  0.
        -12    1    1    2    0    0 -0.27720175591E+02  0.28692322353E+02 -0.17086929571E+02  0.43400698830E+02  0.00000000000E+00 0.  1.
         11    1    3    3    0    0  0.14509467175E+02 -0.59188843832E+01  0.45687320465E+01  0.16322718610E+02  0.51100000000E-03 0. -1.
        -11    1    3    3    0    0  0.15035096107E+02 -0.18217663308E+02  0.12099356003E+02  0.26539249939E+02  0.51100000000E-03 0.  1.
         12    1    3    3    0    0 -0.18243876909E+01 -0.45557746614E+01  0.41884152180E+00  0.49253326215E+01  0.00000000000E+00 0. -1.
</event>
<event>
 7    1  0.4519840E-010  0.4778727E+02  0.7816164E-02  0.1312668E+00
        -11   -1    0    0    0    0  0.00000000000E+00  0.00000000000E+00  0.45593999997E+02  0.45594000000E+02  0.51100000000E-03 0. -1.
         11   -1    0    0    0    0 -0.00000000000E+00 -0.00000000000E+00 -0.45593999997E+02  0.45594000000E+02  0.51100000000E-03 0.  1.
    9900012    2    1    2    0    0 -0.90159414966E+01  0.41281365113E+02  0.99088325898E+01  0.47787271090E+02  0.20000000206E+02 0.  0.
        -12    1    1    2    0    0  0.90159414966E+01 -0.41281365113E+02 -0.99088325898E+01  0.43400728910E+02  0.00000000000E+00 0.  1.
         11    1    3    3    0    0 -0.22501162004E+01  0.13701017821E+02  0.74529003255E+00  0.13904544931E+02  0.51100000000E-03 0. -1.
        -11    1    3    3    0    0 -0.51289487239E+01  0.10939220470E+01 -0.12238462027E+01  0.53852186814E+01  0.51100000000E-03 0.  1.
        -12    1    3    3    0    0 -0.16368765724E+01  0.26486425244E+02  0.10387388760E+02  0.28497507477E+02  0.00000000000E+00 0.  1.
</event>
<event>
 7    1  0.4519840E-010  0.4778727E+02  0.7816164E-02  0.1312668E+00
        -11   -1    0    0    0    0  0.00000000000E+00  0.00000000000E+00  0.45593999997E+02  0.45594000000E+02  0.51100000000E-03 0. -1.
         11   -1    0    0    0    0 -0.00000000000E+00 -0.00000000000E+00 -0.45593999997E+02  0.45594000000E+02  0.51100000000E-03 0.  1.
    9900012    2    1    2    0    0  0.22700215924E+02  0.64003071435E+01  0.36432943899E+02  0.47787272637E+02  0.20000007259E+02 0.  0.
        -12    1    1    2    0    0 -0.22700215924E+02 -0.64003071435E+01 -0.36432943899E+02  0.43400727363E+02  0.00000000000E+00 0.  1.
         11    1    3    3    0    0  0.14144677387E+02  0.26852644302E+01  0.22250271151E+02  0.26502020866E+02  0.51100000000E-03 0. -1.
        -11    1    3    3    0    0  0.66663280406E+01  0.71105332690E+01  0.14405665768E+02  0.17393183130E+02  0.51100000000E-03 0.  1.
        -12    1    3    3    0    0  0.18892104959E+01 -0.33954905557E+01 -0.22299302008E+00  0.38920686401E+01  0.00000000000E+00 0.  1.
</event>
<event>
 7    1  0.4519840E-010  0.4778727E+02  0.7816164E-02  0.1312668E+00
        -11   -1    0    0    0    0  0.00000000000E+00  0.00000000000E+00  0.45593999997E+02  0.45594000000E+02  0.51100000000E-03 0.  1.
         11   -1    0    0    0    0 -0.00000000000E+00 -0.00000000000E+00 -0.45593999997E+02  0.45594000000E+02  0.51100000000E-03 0. -1.
    9900012    2    1    2    0    0 -0.19697828185E+02 -0.37876812352E+02 -0.78080677550E+01  0.47787271075E+02  0.20000000140E+02 0.  0.
        -12    1    1    2    0    0  0.19697828185E+02  0.37876812352E+02  0.78080677550E+01  0.43400728925E+02  0.00000000000E+00 0.  1.
         11    1    3    3    0    0 -0.13968271190E+02 -0.19178983614E+02 -0.81956191454E+01  0.25102075332E+02  0.51100000000E-03 0. -1.
        -11    1    3    3    0    0 -0.30184031688E+01 -0.36993916332E+01 -0.46183274575E+01  0.66426805516E+01  0.51100000000E-03 0.  1.
        -12    1    3    3    0    0 -0.27111538260E+01 -0.14998437105E+02  0.50058788480E+01  0.16042515192E+02  0.00000000000E+00 0.  1.
</event>
<event>
 7    1  0.4519840E-010  0.4778727E+02  0.7816164E-02  0.1312668E+00
        -11   -1    0    0    0    0  0.00000000000E+00  0.00000000000E+00  0.45593999997E+02  0.45594000000E+02  0.51100000000E-03 0. -1.
         11   -1    0    0    0    0 -0.00000000000E+00 -0.00000000000E+00 -0.45593999997E+02  0.45594000000E+02  0.51100000000E-03 0.  1.
    9900012    2    1    2    0    0 -0.25336321193E+02  0.29287808597E+02 -0.19593835074E+02  0.47787271009E+02  0.19999999840E+02 0.  0.
         12    1    1    2    0    0  0.25336321193E+02 -0.29287808597E+02  0.19593835074E+02  0.43400728991E+02  0.00000000000E+00 0. -1.
         11    1    3    3    0    0 -0.10836634610E+02  0.14812615872E+01 -0.43940118856E+01  0.11787032123E+02  0.51100000000E-03 0. -1.
        -11    1    3    3    0    0 -0.12564866299E+02  0.14559925860E+02 -0.94965773590E+01  0.21448829524E+02  0.51100000000E-03 0.  1.
        -12    1    3    3    0    0 -0.19348202836E+01  0.13246621150E+02 -0.57032458293E+01  0.14551409362E+02  0.00000000000E+00 0.  1.
</event>
<event>
 7    1  0.4519840E-010  0.4778727E+02  0.7816164E-02  0.1312668E+00
        -11   -1    0    0    0    0  0.00000000000E+00  0.00000000000E+00  0.45593999997E+02  0.45594000000E+02  0.51100000000E-03 0. -1.
         11   -1    0    0    0    0 -0.00000000000E+00 -0.00000000000E+00 -0.45593999997E+02  0.45594000000E+02  0.51100000000E-03 0.  1.
    9900012    2    1    2    0    0  0.16527171214E+02  0.13424012047E+01 -0.40108278920E+02  0.47787268816E+02  0.19999989842E+02 0.  0.
         12    1    1    2    0    0 -0.16527171214E+02 -0.13424012047E+01  0.40108278920E+02  0.43400731184E+02  0.00000000000E+00 0. -1.
         11    1    3    3    0    0 -0.21642788117E+01 -0.10335769485E+01 -0.67649211435E+01  0.71775025199E+01  0.51100000000E-03 0. -1.
        -11    1    3    3    0    0  0.11241359616E+02 -0.33832253749E+01 -0.26454745383E+02  0.28942493561E+02  0.51100000000E-03 0.  1.
         12    1    3    3    0    0  0.74500904096E+01  0.57592035280E+01 -0.68886123932E+01  0.11667272736E+02  0.00000000000E+00 0. -1.
</event>
<event>
 7    1  0.4519840E-010  0.4778726E+02  0.7816164E-02  0.1312668E+00
        -11   -1    0    0    0    0  0.00000000000E+00  0.00000000000E+00  0.45593999997E+02  0.45594000000E+02  0.51100000000E-03 0. -1.
         11   -1    0    0    0    0 -0.00000000000E+00 -0.00000000000E+00 -0.45593999997E+02  0.45594000000E+02  0.51100000000E-03 0.  1.
    9900012    2    1    2    0    0 -0.12246034918E+02 -0.11265503876E+02  0.40084254690E+02  0.47787257807E+02  0.19999939647E+02 0.  0.
        -12    1    1    2    0    0  0.12246034918E+02  0.11265503876E+02 -0.40084254690E+02  0.43400742193E+02  0.00000000000E+00 0.  1.
         11    1    3    3    0    0 -0.70642460503E+01 -0.77987685206E-01  0.93218704806E+01  0.11696449199E+02  0.51100000000E-03 0. -1.
        -11    1    3    3    0    0 -0.59798265712E+01  0.14743672559E+01  0.91480753885E+01  0.11028117165E+02  0.51100000000E-03 0.  1.
        -12    1    3    3    0    0  0.79803770311E+00 -0.12661883447E+02  0.21614308821E+02  0.25062691444E+02  0.00000000000E+00 0.  1.
</event>
<event>
 7    1  0.4519840E-010  0.4778727E+02  0.7816164E-02  0.1312668E+00
        -11   -1    0    0    0    0  0.00000000000E+00  0.00000000000E+00  0.45593999997E+02  0.45594000000E+02  0.51100000000E-03 0.  1.
         11   -1    0    0    0    0 -0.00000000000E+00 -0.00000000000E+00 -0.45593999997E+02  0.45594000000E+02  0.51100000000E-03 0. -1.
    9900012    2    1    2    0    0 -0.23274819237E+00 -0.28952055902E+02  0.32331835423E+02  0.47787270807E+02  0.19999998917E+02 0.  0.
        -12    1    1    2    0    0  0.23274819237E+00  0.28952055902E+02 -0.32331835423E+02  0.43400729193E+02  0.00000000000E+00 0.  1.
         11    1    3    3    0    0  0.14436474754E+00 -0.18739412140E+02  0.83951079822E+01  0.20534464854E+02  0.51100000000E-03 0. -1.
        -11    1    3    3    0    0  0.32557696716E+01 -0.42105979099E+01  0.61555848694E+01  0.81375915515E+01  0.51100000000E-03 0.  1.
        -12    1    3    3    0    0 -0.36328826115E+01 -0.60020458517E+01  0.17781142571E+02  0.19115214402E+02  0.00000000000E+00 0.  1.
</event>
<event>
 7    1  0.4519840E-010  0.4778727E+02  0.7816164E-02  0.1312668E+00
        -11   -1    0    0    0    0  0.00000000000E+00  0.00000000000E+00  0.45593999997E+02  0.45594000000E+02  0.51100000000E-03 0. -1.
         11   -1    0    0    0    0 -0.00000000000E+00 -0.00000000000E+00 -0.45593999997E+02  0.45594000000E+02  0.51100000000E-03 0.  1.
    9900012    2    1    2    0    0 -0.13371257497E+02 -0.35231424798E+02 -0.21530898381E+02  0.47787269529E+02  0.19999993092E+02 0.  0.
         12    1    1    2    0    0  0.13371257497E+02  0.35231424798E+02  0.21530898381E+02  0.43400730471E+02  0.00000000000E+00 0. -1.
         11    1    3    3    0    0 -0.87319590340E+00  0.23833461210E+00  0.61234752263E-01  0.90720693838E+00  0.51100000000E-03 0. -1.
        -11    1    3    3    0    0 -0.11920713261E+02 -0.35353421065E+02 -0.24026063932E+02  0.44375889106E+02  0.51100000000E-03 0.  1.
        -12    1    3    3    0    0 -0.57734833216E+00 -0.11633834467E+00  0.24339307988E+01  0.25041734845E+01  0.00000000000E+00 0.  1.
</event>
<event>
 7    1  0.4519840E-010  0.4778727E+02  0.7816164E-02  0.1312668E+00
        -11   -1    0    0    0    0  0.00000000000E+00  0.00000000000E+00  0.45593999997E+02  0.45594000000E+02  0.51100000000E-03 0. -1.
         11   -1    0    0    0    0 -0.00000000000E+00 -0.00000000000E+00 -0.45593999997E+02  0.45594000000E+02  0.51100000000E-03 0.  1.
    9900012    2    1    2    0    0  0.28404091014E+02  0.44312627893E+01  0.32514534962E+02  0.47787268900E+02  0.19999990222E+02 0.  0.
        -12    1    1    2    0    0 -0.28404091014E+02 -0.44312627893E+01 -0.32514534962E+02  0.43400731100E+02  0.00000000000E+00 0.  1.
         11    1    3    3    0    0  0.12505122452E+02 -0.58579187340E+01  0.12932414034E+02  0.18919319027E+02  0.51100000000E-03 0. -1.
        -11    1    3    3    0    0  0.11479976907E+01  0.13487397802E+01 -0.98392032907E+00  0.20261039380E+01  0.51100000000E-03 0.  1.
         12    1    3    3    0    0  0.14750970871E+02  0.89404417430E+01  0.20566041257E+02  0.26841845935E+02  0.00000000000E+00 0. -1.
</event>
<event>
 7    1  0.4519840E-010  0.4778727E+02  0.7816164E-02  0.1312668E+00
        -11   -1    0    0    0    0  0.00000000000E+00  0.00000000000E+00  0.45593999997E+02  0.45594000000E+02  0.51100000000E-03 0. -1.
         11   -1    0    0    0    0 -0.00000000000E+00 -0.00000000000E+00 -0.45593999997E+02  0.45594000000E+02  0.51100000000E-03 0.  1.
    9900012    2    1    2    0    0  0.24275824300E+02  0.29646858807E+02 -0.20380660573E+02  0.47787271803E+02  0.20000003460E+02 0.  0.
         12    1    1    2    0    0 -0.24275824300E+02 -0.29646858807E+02  0.20380660573E+02  0.43400728197E+02  0.00000000000E+00 0. -1.
         11    1    3    3    0    0  0.11047619751E+02  0.61230264734E+01 -0.11657872082E+02  0.17188581591E+02  0.51100000000E-03 0. -1.
        -11    1    3    3    0    0  0.11821081174E+02  0.18541169886E+02 -0.11401684731E+02  0.24769161388E+02  0.51100000000E-03 0.  1.
         12    1    3    3    0    0  0.14071233744E+01  0.49826624479E+01  0.26788962395E+01  0.58295288250E+01  0.00000000000E+00 0. -1.
</event>
<event>
 7    1  0.5455372E-010  0.4778727E+02  0.7816164E-02  0.1312668E+00
        -11   -1    0    0    0    0  0.00000000000E+00  0.00000000000E+00  0.45593999997E+02  0.45594000000E+02  0.51100000000E-03 0. -1.
         11   -1    0    0    0    0 -0.00000000000E+00 -0.00000000000E+00 -0.45593999997E+02  0.45594000000E+02  0.51100000000E-03 0.  1.
    9900012    2    1    2    0    0  0.75967132134E+01  0.22579288798E+02 -0.36277941922E+02  0.47787269541E+02  0.19999993145E+02 0.  0.
         12    1    1    2    0    0 -0.75967132134E+01 -0.22579288798E+02  0.36277941922E+02  0.43400730459E+02  0.00000000000E+00 0. -1.
         11    1    3    3    0    0  0.67388969532E+01  0.82347061890E+01 -0.42664726044E+01  0.11464113874E+02  0.51100000000E-03 0. -1.
        -11    1    3    3    0    0 -0.42084635499E+00 -0.25284303726E+00  0.47605557033E+00  0.68386433096E+00  0.51100000000E-03 0.  1.
        -12    1    3    3    0    0  0.12786626152E+01  0.14597425646E+02 -0.32487524888E+02  0.35639291336E+02  0.00000000000E+00 0.  1.
</event>
<event>
 7    1  0.4519840E-010  0.4778727E+02  0.7816164E-02  0.1312668E+00
        -11   -1    0    0    0    0  0.00000000000E+00  0.00000000000E+00  0.45593999997E+02  0.45594000000E+02  0.51100000000E-03 0. -1.
         11   -1    0    0    0    0 -0.00000000000E+00 -0.00000000000E+00 -0.45593999997E+02  0.45594000000E+02  0.51100000000E-03 0.  1.
    9900012    2    1    2    0    0  0.31615585639E+02 -0.73446456667E+01  0.28812047013E+02  0.47787272721E+02  0.20000007644E+02 0.  0.
        -12    1    1    2    0    0 -0.31615585639E+02  0.73446456667E+01 -0.28812047013E+02  0.43400727279E+02  0.00000000000E+00 0.  1.
         11    1    3    3    0    0 -0.15819487137E+01 -0.14252406957E+00  0.60068259607E+00  0.16981444831E+01  0.51100000000E-03 0. -1.
        -11    1    3    3    0    0  0.73527572207E+01 -0.43465872467E+01  0.12503573525E+01  0.86324534872E+01  0.51100000000E-03 0.  1.
         12    1    3    3    0    0  0.25844777132E+02 -0.28555343504E+01  0.26961007064E+02  0.37456674751E+02  0.00000000000E+00 0. -1.
</event>
<event>
 7    1  0.4519840E-010  0.4778727E+02  0.7816164E-02  0.1312668E+00
        -11   -1    0    0    0    0  0.00000000000E+00  0.00000000000E+00  0.45593999997E+02  0.45594000000E+02  0.51100000000E-03 0.  1.
         11   -1    0    0    0    0 -0.00000000000E+00 -0.00000000000E+00 -0.45593999997E+02  0.45594000000E+02  0.51100000000E-03 0. -1.
    9900012    2    1    2    0    0 -0.73108691663E+01  0.42274064460E+02 -0.65633532605E+01  0.47787274892E+02  0.20000017541E+02 0.  0.
        -12    1    1    2    0    0  0.73108691663E+01 -0.42274064460E+02  0.65633532605E+01  0.43400725108E+02  0.00000000000E+00 0.  1.
         11    1    3    3    0    0 -0.76498537957E+00  0.25233330615E+02  0.94457249922E+00  0.25262588822E+02  0.51100000000E-03 0. -1.
        -11    1    3    3    0    0  0.16469729620E+01 -0.41972412439E+00 -0.16471967160E+01  0.23668429523E+01  0.51100000000E-03 0.  1.
         12    1    3    3    0    0 -0.81928567487E+01  0.17460457970E+02 -0.58607290437E+01  0.20157843117E+02  0.00000000000E+00 0. -1.
</event>
<event>
 7    1  0.4519840E-010  0.4778727E+02  0.7816164E-02  0.1312668E+00
        -11   -1    0    0    0    0  0.00000000000E+00  0.00000000000E+00  0.45593999997E+02  0.45594000000E+02  0.51100000000E-03 0. -1.
         11   -1    0    0    0    0 -0.00000000000E+00 -0.00000000000E+00 -0.45593999997E+02  0.45594000000E+02  0.51100000000E-03 0.  1.
    9900012    2    1    2    0    0  0.16563209082E+02 -0.34179595841E+02 -0.21000919693E+02  0.47787270802E+02  0.19999998895E+02 0.  0.
         12    1    1    2    0    0 -0.16563209082E+02  0.34179595841E+02  0.21000919693E+02  0.43400729198E+02  0.00000000000E+00 0. -1.
         11    1    3    3    0    0  0.17433142501E+02 -0.27276589697E+02 -0.17990833811E+02  0.37035076677E+02  0.51100000000E-03 0. -1.
        -11    1    3    3    0    0  0.28419152943E+01 -0.99462703839E+00  0.30647909421E+00  0.30264988323E+01  0.51100000000E-03 0.  1.
         12    1    3    3    0    0 -0.37118487131E+01 -0.59083791053E+01 -0.33165649759E+01  0.77256952929E+01  0.00000000000E+00 0. -1.
</event>
<event>
 7    1  0.4519840E-010  0.4778727E+02  0.7816164E-02  0.1312668E+00
        -11   -1    0    0    0    0  0.00000000000E+00  0.00000000000E+00  0.45593999997E+02  0.45594000000E+02  0.51100000000E-03 0. -1.
         11   -1    0    0    0    0 -0.00000000000E+00 -0.00000000000E+00 -0.45593999997E+02  0.45594000000E+02  0.51100000000E-03 0.  1.
    9900012    2    1    2    0    0  0.15987545246E+02 -0.19250440998E+02 -0.35460430149E+02  0.47787272034E+02  0.20000004513E+02 0.  0.
         12    1    1    2    0    0 -0.15987545246E+02  0.19250440998E+02  0.35460430149E+02  0.43400727966E+02  0.00000000000E+00 0. -1.
         11    1    3    3    0    0  0.57292462660E+01 -0.95330182662E+01 -0.43295471179E+01  0.11935144681E+02  0.51100000000E-03 0. -1.
        -11    1    3    3    0    0  0.33830988795E+01 -0.36376064789E+01 -0.20792139873E+01  0.53852270138E+01  0.51100000000E-03 0.  1.
        -12    1    3    3    0    0  0.68752001003E+01 -0.60798162528E+01 -0.29051669044E+02  0.30466900340E+02  0.00000000000E+00 0.  1.
</event>
<event>
 7    1  0.4519840E-010  0.4778728E+02  0.7816164E-02  0.1312668E+00
        -11   -1    0    0    0    0  0.00000000000E+00  0.00000000000E+00  0.45593999997E+02  0.45594000000E+02  0.51100000000E-03 0. -1.
         11   -1    0    0    0    0 -0.00000000000E+00 -0.00000000000E+00 -0.45593999997E+02  0.45594000000E+02  0.51100000000E-03 0.  1.
    9900012    2    1    2    0    0 -0.23244517164E+02 -0.20017577458E+02  0.30701974238E+02  0.47787283329E+02  0.20000056009E+02 0.  0.
        -12    1    1    2    0    0  0.23244517164E+02  0.20017577458E+02 -0.30701974238E+02  0.43400716671E+02  0.00000000000E+00 0.  1.
         11    1    3    3    0    0 -0.34091411382E+00 -0.15378570827E+01 -0.78673306084E+00  0.17607316690E+01  0.51100000000E-03 0. -1.
        -11    1    3    3    0    0 -0.32193077757E+01 -0.12298372714E+02  0.94721803777E+01  0.15853583675E+02  0.51100000000E-03 0.  1.
         12    1    3    3    0    0 -0.19684295274E+02 -0.61813476609E+01  0.22016526921E+02  0.30172967985E+02  0.00000000000E+00 0. -1.
</event>
<event>
 7    1  0.4519840E-010  0.4778727E+02  0.7816164E-02  0.1312668E+00
        -11   -1    0    0    0    0  0.00000000000E+00  0.00000000000E+00  0.45593999997E+02  0.45594000000E+02  0.51100000000E-03 0. -1.
         11   -1    0    0    0    0 -0.00000000000E+00 -0.00000000000E+00 -0.45593999997E+02  0.45594000000E+02  0.51100000000E-03 0.  1.
    9900012    2    1    2    0    0  0.23856830107E+02  0.87367941189E+01  0.35187260615E+02  0.47787271621E+02  0.20000002627E+02 0.  0.
        -12    1    1    2    0    0 -0.23856830107E+02 -0.87367941189E+01 -0.35187260615E+02  0.43400728379E+02  0.00000000000E+00 0.  1.
         11    1    3    3    0    0  0.45032156085E+00 -0.14842549332E+01  0.56353600775E+01  0.58449196469E+01  0.51100000000E-03 0. -1.
        -11    1    3    3    0    0  0.16148418079E+02 -0.38020318340E+00  0.21061904884E+02  0.26542791837E+02  0.51100000000E-03 0.  1.
         12    1    3    3    0    0  0.72580904680E+01  0.10601252235E+02  0.84899956534E+01  0.15399560136E+02  0.00000000000E+00 0. -1.
</event>
<event>
 7    1  0.4519840E-010  0.4778726E+02  0.7816164E-02  0.1312668E+00
        -11   -1    0    0    0    0  0.00000000000E+00  0.00000000000E+00  0.45593999997E+02  0.45594000000E+02  0.51100000000E-03 0.  1.
         11   -1    0    0    0    0 -0.00000000000E+00 -0.00000000000E+00 -0.45593999997E+02  0.45594000000E+02  0.51100000000E-03 0. -1.
    9900012    2    1    2    0    0  0.28369289129E+02 -0.32054011765E+02  0.71657491637E+01  0.47787260409E+02  0.19999951510E+02 0.  0.
        -12    1    1    2    0    0 -0.28369289129E+02  0.32054011765E+02 -0.71657491637E+01  0.43400739591E+02  0.00000000000E+00 0.  1.
         11    1    3    3    0    0  0.41241316262E+01 -0.40252833763E+01 -0.13937798814E+01  0.59290800761E+01  0.51100000000E-03 0. -1.
        -11    1    3    3    0    0  0.10294781912E+02 -0.21694471116E+02 -0.57621073982E+00  0.24020088066E+02  0.51100000000E-03 0.  1.
         12    1    3    3    0    0  0.13950375591E+02 -0.63342572730E+01  0.91357397849E+01  0.17838092268E+02  0.00000000000E+00 0. -1.
</event>
<event>
 7    1  0.5483169E-010  0.4778727E+02  0.7816164E-02  0.1312668E+00
        -11   -1    0    0    0    0  0.00000000000E+00  0.00000000000E+00  0.45593999997E+02  0.45594000000E+02  0.51100000000E-03 0. -1.
         11   -1    0    0    0    0 -0.00000000000E+00 -0.00000000000E+00 -0.45593999997E+02  0.45594000000E+02  0.51100000000E-03 0.  1.
    9900012    2    1    2    0    0 -0.17804083258E+02  0.37323319609E+02 -0.13176035557E+02  0.47787268666E+02  0.19999989155E+02 0.  0.
         12    1    1    2    0    0  0.17804083258E+02 -0.37323319609E+02  0.13176035557E+02  0.43400731334E+02  0.00000000000E+00 0. -1.
         11    1    3    3    0    0  0.23794042222E+01  0.35847736300E+01  0.25134228066E+00  0.43099117897E+01  0.51100000000E-03 0.  1.
        -11    1    3    3    0    0 -0.74224787033E+01  0.10559266310E+02  0.16680396125E+01  0.13014363278E+02  0.51100000000E-03 0. -1.
        -12    1    3    3    0    0 -0.12761008777E+02  0.23179279669E+02 -0.15095417450E+02  0.30462993599E+02  0.00000000000E+00 0.  1.
</event>
<event>
 7    1  0.4519840E-010  0.4778729E+02  0.7816164E-02  0.1312668E+00
        -11   -1    0    0    0    0  0.00000000000E+00  0.00000000000E+00  0.45593999997E+02  0.45594000000E+02  0.51100000000E-03 0. -1.
         11   -1    0    0    0    0 -0.00000000000E+00 -0.00000000000E+00 -0.45593999997E+02  0.45594000000E+02  0.51100000000E-03 0.  1.
    9900012    2    1    2    0    0  0.28842679090E+02 -0.10870732118E+02 -0.30554032922E+02  0.47787287083E+02  0.20000073128E+02 0.  0.
         12    1    1    2    0    0 -0.28842679090E+02  0.10870732118E+02  0.30554032922E+02  0.43400712917E+02  0.00000000000E+00 0. -1.
         11    1    3    3    0    0  0.55910305220E+00  0.20729695703E+01 -0.60789240267E+01  0.64469463040E+01  0.51100000000E-03 0. -1.
        -11    1    3    3    0    0  0.49994630567E+01 -0.66738228351E+01 -0.10713713575E+02  0.13576383941E+02  0.51100000000E-03 0.  1.
         12    1    3    3    0    0  0.23284112981E+02 -0.62698788531E+01 -0.13761395320E+02  0.27763956838E+02  0.00000000000E+00 0. -1.
</event>
<event>
 7    1  0.4519840E-010  0.4778726E+02  0.7816164E-02  0.1312668E+00
        -11   -1    0    0    0    0  0.00000000000E+00  0.00000000000E+00  0.45593999997E+02  0.45594000000E+02  0.51100000000E-03 0. -1.
         11   -1    0    0    0    0 -0.00000000000E+00 -0.00000000000E+00 -0.45593999997E+02  0.45594000000E+02  0.51100000000E-03 0.  1.
    9900012    2    1    2    0    0  0.34976823142E+02 -0.12431587142E+02 -0.22487816452E+02  0.47787258016E+02  0.19999940598E+02 0.  0.
         12    1    1    2    0    0 -0.34976823142E+02  0.12431587142E+02  0.22487816452E+02  0.43400741984E+02  0.00000000000E+00 0. -1.
         11    1    3    3    0    0  0.68328585009E+01  0.54468278582E+00 -0.82097340874E+01  0.10695062818E+02  0.51100000000E-03 0. -1.
        -11    1    3    3    0    0  0.12732316341E+02 -0.64723624578E+01 -0.14513350521E+02  0.20362728177E+02  0.51100000000E-03 0.  1.
        -12    1    3    3    0    0  0.15411648300E+02 -0.65039074702E+01  0.23526815675E+00  0.16729467021E+02  0.00000000000E+00 0.  1.
</event>
<event>
 7    1  0.4519840E-010  0.4778727E+02  0.7816164E-02  0.1312668E+00
        -11   -1    0    0    0    0  0.00000000000E+00  0.00000000000E+00  0.45593999997E+02  0.45594000000E+02  0.51100000000E-03 0. -1.
         11   -1    0    0    0    0 -0.00000000000E+00 -0.00000000000E+00 -0.45593999997E+02  0.45594000000E+02  0.51100000000E-03 0.  1.
    9900012    2    1    2    0    0  0.17124688418E+02 -0.28753780075E+02  0.27633107306E+02  0.47787269115E+02  0.19999991202E+02 0.  0.
        -12    1    1    2    0    0 -0.17124688418E+02  0.28753780075E+02 -0.27633107306E+02  0.43400730885E+02  0.00000000000E+00 0.  1.
         11    1    3    3    0    0  0.78502479614E+00  0.30992729225E+00 -0.92803810149E+00  0.12544217138E+01  0.51100000000E-03 0. -1.
        -11    1    3    3    0    0  0.71082791877E+01 -0.16507682741E+02  0.56812580387E+01  0.18849613143E+02  0.51100000000E-03 0.  1.
         12    1    3    3    0    0  0.92313844346E+01 -0.12556024626E+02  0.22879887368E+02  0.27683234258E+02  0.00000000000E+00 0. -1.
</event>
<event>
 7    1  0.4519840E-010  0.4778727E+02  0.7816164E-02  0.1312668E+00
        -11   -1    0    0    0    0  0.00000000000E+00  0.00000000000E+00  0.45593999997E+02  0.45594000000E+02  0.51100000000E-03 0. -1.
         11   -1    0    0    0    0 -0.00000000000E+00 -0.00000000000E+00 -0.45593999997E+02  0.45594000000E+02  0.51100000000E-03 0.  1.
    9900012    2    1    2    0    0  0.45256252865E+01 -0.32543382993E+02 -0.28356130392E+02  0.47787271992E+02  0.20000004319E+02 0.  0.
         12    1    1    2    0    0 -0.45256252865E+01  0.32543382993E+02  0.28356130392E+02  0.43400728008E+02  0.00000000000E+00 0. -1.
         11    1    3    3    0    0  0.26852910058E+01 -0.19916331386E+02 -0.26170763094E+02  0.32996664753E+02  0.51100000000E-03 0.  1.
        -11    1    3    3    0    0  0.38715270090E+01 -0.10582119033E+02 -0.32348158397E+01  0.11723224743E+02  0.51100000000E-03 0. -1.
        -12    1    3    3    0    0 -0.20311927282E+01 -0.20449325735E+01  0.10494485414E+01  0.30673824949E+01  0.00000000000E+00 0.  1.
</event>
<event>
 7    1  0.4519840E-010  0.4778727E+02  0.7816164E-02  0.1312668E+00
        -11   -1    0    0    0    0  0.00000000000E+00  0.00000000000E+00  0.45593999997E+02  0.45594000000E+02  0.51100000000E-03 0. -1.
         11   -1    0    0    0    0 -0.00000000000E+00 -0.00000000000E+00 -0.45593999997E+02  0.45594000000E+02  0.51100000000E-03 0.  1.
    9900012    2    1    2    0    0  0.32326897130E+02 -0.20860855370E+02 -0.20085312008E+02  0.47787270475E+02  0.19999997405E+02 0.  0.
         12    1    1    2    0    0 -0.32326897130E+02  0.20860855370E+02  0.20085312008E+02  0.43400729525E+02  0.00000000000E+00 0. -1.
         11    1    3    3    0    0  0.11471794565E+02 -0.41991205462E+01 -0.64052788825E+01  0.13793559429E+02  0.51100000000E-03 0.  1.
        -11    1    3    3    0    0  0.46668763254E+01 -0.63712148802E+01 -0.12486548293E+02  0.14774505143E+02  0.51100000000E-03 0. -1.
         12    1    3    3    0    0  0.16188226240E+02 -0.10290519943E+02 -0.11934848324E+01  0.19219205903E+02  0.00000000000E+00 0. -1.
</event>
<event>
 7    1  0.4519840E-010  0.4778727E+02  0.7816164E-02  0.1312668E+00
        -11   -1    0    0    0    0  0.00000000000E+00  0.00000000000E+00  0.45593999997E+02  0.45594000000E+02  0.51100000000E-03 0. -1.
         11   -1    0    0    0    0 -0.00000000000E+00 -0.00000000000E+00 -0.45593999997E+02  0.45594000000E+02  0.51100000000E-03 0.  1.
    9900012    2    1    2    0    0 -0.20652461159E+02 -0.22461984096E+02  0.30863540403E+02  0.47787274112E+02  0.20000013985E+02 0.  0.
        -12    1    1    2    0    0  0.20652461159E+02  0.22461984096E+02 -0.30863540403E+02  0.43400725888E+02  0.00000000000E+00 0.  1.
         11    1    3    3    0    0 -0.71982858761E+01 -0.23056291962E+01  0.40271240849E+01  0.85644015670E+01  0.51100000000E-03 0. -1.
        -11    1    3    3    0    0  0.18568630589E+01 -0.68963591534E+00  0.76266350085E+01  0.78796636939E+01  0.51100000000E-03 0.  1.
        -12    1    3    3    0    0 -0.15311038341E+02 -0.19466718984E+02  0.19209781310E+02  0.31343208851E+02  0.00000000000E+00 0.  1.
</event>
<event>
 7    1  0.4519840E-010  0.4778727E+02  0.7816164E-02  0.1312668E+00
        -11   -1    0    0    0    0  0.00000000000E+00  0.00000000000E+00  0.45593999997E+02  0.45594000000E+02  0.51100000000E-03 0. -1.
         11   -1    0    0    0    0 -0.00000000000E+00 -0.00000000000E+00 -0.45593999997E+02  0.45594000000E+02  0.51100000000E-03 0.  1.
    9900012    2    1    2    0    0 -0.28538725520E+02 -0.78540976250E+01 -0.31740786451E+02  0.47787271569E+02  0.20000002391E+02 0.  0.
         12    1    1    2    0    0  0.28538725520E+02  0.78540976250E+01  0.31740786451E+02  0.43400728431E+02  0.00000000000E+00 0. -1.
         11    1    3    3    0    0 -0.23404188669E+02 -0.77543236302E+01 -0.17216093131E+02  0.30071239502E+02  0.51100000000E-03 0. -1.
        -11    1    3    3    0    0 -0.61824329525E+00 -0.34459137279E+01 -0.21085678408E+01  0.40868820380E+01  0.51100000000E-03 0.  1.
        -12    1    3    3    0    0 -0.45162935558E+01  0.33461397331E+01 -0.12416125480E+02  0.13629150029E+02  0.00000000000E+00 0.  1.
</event>
<event>
 7    1  0.4519840E-010  0.4778728E+02  0.7816164E-02  0.1312668E+00
        -11   -1    0    0    0    0  0.00000000000E+00  0.00000000000E+00  0.45593999997E+02  0.45594000000E+02  0.51100000000E-03 0. -1.
         11   -1    0    0    0    0 -0.00000000000E+00 -0.00000000000E+00 -0.45593999997E+02  0.45594000000E+02  0.51100000000E-03 0.  1.
    9900012    2    1    2    0    0  0.77515877818E+01  0.22121820615E+02 -0.36526166495E+02  0.47787275360E+02  0.20000019675E+02 0.  0.
         12    1    1    2    0    0 -0.77515877818E+01 -0.22121820615E+02  0.36526166495E+02  0.43400724640E+02  0.00000000000E+00 0. -1.
         11    1    3    3    0    0  0.75629739397E+01  0.17593052177E+02 -0.13209250798E+02  0.23263670532E+02  0.51100000000E-03 0. -1.
        -11    1    3    3    0    0  0.25967086870E+01  0.40548800325E+01 -0.11733873995E+02  0.12683404404E+02  0.51100000000E-03 0.  1.
         12    1    3    3    0    0 -0.24080948449E+01  0.47388840607E+00 -0.11583041702E+02  0.11840200424E+02  0.00000000000E+00 0. -1.
</event>
<event>
 7    1  0.4519840E-010  0.4778726E+02  0.7816164E-02  0.1312668E+00
        -11   -1    0    0    0    0  0.00000000000E+00  0.00000000000E+00  0.45593999997E+02  0.45594000000E+02  0.51100000000E-03 0. -1.
         11   -1    0    0    0    0 -0.00000000000E+00 -0.00000000000E+00 -0.45593999997E+02  0.45594000000E+02  0.51100000000E-03 0.  1.
    9900012    2    1    2    0    0 -0.30301739746E+02 -0.28549935734E+02 -0.12260924357E+02  0.47787256594E+02  0.19999934116E+02 0.  0.
         12    1    1    2    0    0  0.30301739746E+02  0.28549935734E+02  0.12260924357E+02  0.43400743406E+02  0.00000000000E+00 0. -1.
         11    1    3    3    0    0 -0.91837645364E+01 -0.12079679533E+02 -0.19961191568E+01  0.15305054088E+02  0.51100000000E-03 0. -1.
        -11    1    3    3    0    0 -0.11981034807E+02 -0.17849812763E+02 -0.82362403333E+01  0.23021656453E+02  0.51100000000E-03 0.  1.
         12    1    3    3    0    0 -0.91369404024E+01  0.13795565615E+01 -0.20285648665E+01  0.94605460541E+01  0.00000000000E+00 0. -1.
</event>
<event>
 7    1  0.4519840E-010  0.4778729E+02  0.7816164E-02  0.1312668E+00
        -11   -1    0    0    0    0  0.00000000000E+00  0.00000000000E+00  0.45593999997E+02  0.45594000000E+02  0.51100000000E-03 0. -1.
         11   -1    0    0    0    0 -0.00000000000E+00 -0.00000000000E+00 -0.45593999997E+02  0.45594000000E+02  0.51100000000E-03 0.  1.
    9900012    2    1    2    0    0  0.32786695604E+02  0.87554838633E+01 -0.27055426617E+02  0.47787285539E+02  0.20000066084E+02 0.  0.
         12    1    1    2    0    0 -0.32786695604E+02 -0.87554838633E+01  0.27055426617E+02  0.43400714461E+02  0.00000000000E+00 0. -1.
         11    1    3    3    0    0  0.22989207062E+00 -0.25777614476E+01 -0.29708688424E+01  0.39400211148E+01  0.51100000000E-03 0. -1.
        -11    1    3    3    0    0  0.19510545949E+02  0.18312003634E+01 -0.17969252526E+02  0.26587755351E+02  0.51100000000E-03 0.  1.
         12    1    3    3    0    0  0.13046257585E+02  0.95020449475E+01 -0.61153052487E+01  0.17259509073E+02  0.00000000000E+00 0. -1.
</event>
<event>
 7    1  0.4519840E-010  0.4778727E+02  0.7816164E-02  0.1312668E+00
        -11   -1    0    0    0    0  0.00000000000E+00  0.00000000000E+00  0.45593999997E+02  0.45594000000E+02  0.51100000000E-03 0. -1.
         11   -1    0    0    0    0 -0.00000000000E+00 -0.00000000000E+00 -0.45593999997E+02  0.45594000000E+02  0.51100000000E-03 0.  1.
    9900012    2    1    2    0    0  0.17144853986E+02  0.22959624206E+02 -0.32596520066E+02  0.47787268643E+02  0.19999989053E+02 0.  0.
         12    1    1    2    0    0 -0.17144853986E+02 -0.22959624206E+02  0.32596520066E+02  0.43400731357E+02  0.00000000000E+00 0. -1.
         11    1    3    3    0    0  0.43769944862E+01  0.64738222105E+01 -0.14341636068E+02  0.16332512976E+02  0.51100000000E-03 0. -1.
        -11    1    3    3    0    0 -0.27626325186E+01  0.60913049312E+01 -0.29975132763E+01  0.73294761273E+01  0.51100000000E-03 0.  1.
         12    1    3    3    0    0  0.15530492018E+02  0.10394497064E+02 -0.15257370722E+02  0.24125279540E+02  0.00000000000E+00 0. -1.
</event>
<event>
 7    1  0.4519840E-010  0.4778727E+02  0.7816164E-02  0.1312668E+00
        -11   -1    0    0    0    0  0.00000000000E+00  0.00000000000E+00  0.45593999997E+02  0.45594000000E+02  0.51100000000E-03 0. -1.
         11   -1    0    0    0    0 -0.00000000000E+00 -0.00000000000E+00 -0.45593999997E+02  0.45594000000E+02  0.51100000000E-03 0.  1.
    9900012    2    1    2    0    0 -0.10057203748E+01  0.21647373542E+02  0.37603232757E+02  0.47787269954E+02  0.19999995028E+02 0.  0.
        -12    1    1    2    0    0  0.10057203748E+01 -0.21647373542E+02 -0.37603232757E+02  0.43400730046E+02  0.00000000000E+00 0.  1.
         11    1    3    3    0    0 -0.18365907644E+00  0.60703977852E+00  0.73272690009E+01  0.73546651332E+01  0.51100000000E-03 0. -1.
        -11    1    3    3    0    0 -0.14192196919E+01  0.19251913614E+02  0.32323514977E+02  0.37649169753E+02  0.51100000000E-03 0.  1.
         12    1    3    3    0    0  0.59715839355E+00  0.17884201495E+01 -0.20475512205E+01  0.27834350682E+01  0.00000000000E+00 0. -1.
</event>
<event>
 7    1  0.4519840E-010  0.4778727E+02  0.7816164E-02  0.1312668E+00
        -11   -1    0    0    0    0  0.00000000000E+00  0.00000000000E+00  0.45593999997E+02  0.45594000000E+02  0.51100000000E-03 0. -1.
         11   -1    0    0    0    0 -0.00000000000E+00 -0.00000000000E+00 -0.45593999997E+02  0.45594000000E+02  0.51100000000E-03 0.  1.
    9900012    2    1    2    0    0 -0.20889528298E+02  0.29065718762E+01 -0.37931553967E+02  0.47787270295E+02  0.19999996582E+02 0.  0.
         12    1    1    2    0    0  0.20889528298E+02 -0.29065718762E+01  0.37931553967E+02  0.43400729705E+02  0.00000000000E+00 0. -1.
         11    1    3    3    0    0 -0.32076484074E+01 -0.23014069182E+01 -0.17195291407E+01  0.43060727856E+01  0.51100000000E-03 0. -1.
        -11    1    3    3    0    0 -0.54759748448E+01  0.89455787236E+01 -0.10867343872E+02  0.15103272569E+02  0.51100000000E-03 0.  1.
         12    1    3    3    0    0 -0.12205905046E+02 -0.37375999292E+01 -0.25344680954E+02  0.28377924940E+02  0.00000000000E+00 0. -1.
</event>
<event>
 7    1  0.4519840E-010  0.4778727E+02  0.7816164E-02  0.1312668E+00
        -11   -1    0    0    0    0  0.00000000000E+00  0.00000000000E+00  0.45593999997E+02  0.45594000000E+02  0.51100000000E-03 0. -1.
         11   -1    0    0    0    0 -0.00000000000E+00 -0.00000000000E+00 -0.45593999997E+02  0.45594000000E+02  0.51100000000E-03 0.  1.
    9900012    2    1    2    0    0 -0.39560756401E+02 -0.27768431788E+01  0.17631196804E+02  0.47787269525E+02  0.19999993070E+02 0.  0.
        -12    1    1    2    0    0  0.39560756401E+02  0.27768431788E+01 -0.17631196804E+02  0.43400730475E+02  0.00000000000E+00 0.  1.
         11    1    3    3    0    0 -0.11848302780E+02 -0.60997491156E+00  0.37314050458E+01  0.12436950270E+02  0.51100000000E-03 0. -1.
        -11    1    3    3    0    0 -0.11093293543E+02 -0.74345974752E+01  0.50325062363E+00  0.13363669507E+02  0.51100000000E-03 0.  1.
         12    1    3    3    0    0 -0.16619160079E+02  0.52677292080E+01  0.13396541135E+02  0.21986649747E+02  0.00000000000E+00 0. -1.
</event>
<event>
 7    1  0.4519840E-010  0.4778727E+02  0.7816164E-02  0.1312668E+00
        -11   -1    0    0    0    0  0.00000000000E+00  0.00000000000E+00  0.45593999997E+02  0.45594000000E+02  0.51100000000E-03 0. -1.
         11   -1    0    0    0    0 -0.00000000000E+00 -0.00000000000E+00 -0.45593999997E+02  0.45594000000E+02  0.51100000000E-03 0.  1.
    9900012    2    1    2    0    0 -0.87568099914E+01  0.10079355727E+02 -0.41295861061E+02  0.47787271044E+02  0.19999999999E+02 0.  0.
         12    1    1    2    0    0  0.87568099914E+01 -0.10079355727E+02  0.41295861061E+02  0.43400728956E+02  0.00000000000E+00 0. -1.
         11    1    3    3    0    0 -0.51174605803E+01  0.63321394546E+01 -0.24845032311E+02  0.26144980850E+02  0.51100000000E-03 0. -1.
        -11    1    3    3    0    0 -0.55454336877E+01  0.70954251948E+01 -0.15058250712E+02  0.17545592274E+02  0.51100000000E-03 0.  1.
         12    1    3    3    0    0  0.19060842766E+01 -0.33482089220E+01 -0.13925780382E+01  0.40966979200E+01  0.00000000000E+00 0. -1.
</event>
<event>
 7    1  0.4519840E-010  0.4778728E+02  0.7816164E-02  0.1312668E+00
        -11   -1    0    0    0    0  0.00000000000E+00  0.00000000000E+00  0.45593999997E+02  0.45594000000E+02  0.51100000000E-03 0. -1.
         11   -1    0    0    0    0 -0.00000000000E+00 -0.00000000000E+00 -0.45593999997E+02  0.45594000000E+02  0.51100000000E-03 0.  1.
    9900012    2    1    2    0    0 -0.28010827365E+02  0.15672986682E+02  0.29212563421E+02  0.47787276241E+02  0.20000023691E+02 0.  0.
        -12    1    1    2    0    0  0.28010827365E+02 -0.15672986682E+02 -0.29212563421E+02  0.43400723759E+02  0.00000000000E+00 0.  1.
         11    1    3    3    0    0 -0.66286934534E+01  0.64677315891E+01  0.27292761327E+01  0.96550544938E+01  0.51100000000E-03 0. -1.
        -11    1    3    3    0    0 -0.27737710043E+01  0.82291488622E+01  0.10102002326E+02  0.13321529486E+02  0.51100000000E-03 0.  1.
        -12    1    3    3    0    0 -0.18608362908E+02  0.97610623114E+00  0.16381284962E+02  0.24810692261E+02  0.00000000000E+00 0.  1.
</event>
<event>
 7    1  0.4519840E-010  0.4778727E+02  0.7816164E-02  0.1312668E+00
        -11   -1    0    0    0    0  0.00000000000E+00  0.00000000000E+00  0.45593999997E+02  0.45594000000E+02  0.51100000000E-03 0. -1.
         11   -1    0    0    0    0 -0.00000000000E+00 -0.00000000000E+00 -0.45593999997E+02  0.45594000000E+02  0.51100000000E-03 0.  1.
    9900012    2    1    2    0    0 -0.29867409411E+01 -0.66368676660E+01  0.42786147109E+02  0.47787273989E+02  0.20000013425E+02 0.  0.
        -12    1    1    2    0    0  0.29867409411E+01  0.66368676660E+01 -0.42786147109E+02  0.43400726011E+02  0.00000000000E+00 0.  1.
         11    1    3    3    0    0 -0.81693266755E-01 -0.32302755190E+01  0.12350634942E+02  0.12766343934E+02  0.51100000000E-03 0. -1.
        -11    1    3    3    0    0 -0.97002055528E+01 -0.34884677657E+01  0.15536226211E+02  0.18645045461E+02  0.51100000000E-03 0.  1.
         12    1    3    3    0    0  0.67951578784E+01  0.81875618626E-01  0.14899285956E+02  0.16375884593E+02  0.00000000000E+00 0. -1.
</event>
<event>
 7    1  0.4519840E-010  0.4778729E+02  0.7816164E-02  0.1312668E+00
        -11   -1    0    0    0    0  0.00000000000E+00  0.00000000000E+00  0.45593999997E+02  0.45594000000E+02  0.51100000000E-03 0. -1.
         11   -1    0    0    0    0 -0.00000000000E+00 -0.00000000000E+00 -0.45593999997E+02  0.45594000000E+02  0.51100000000E-03 0.  1.
    9900012    2    1    2    0    0  0.39889054014E+02 -0.16422675262E+02  0.47729622353E+01  0.47787285013E+02  0.20000063688E+02 0.  0.
        -12    1    1    2    0    0 -0.39889054014E+02  0.16422675262E+02 -0.47729622353E+01  0.43400714987E+02  0.00000000000E+00 0.  1.
         11    1    3    3    0    0  0.93005243299E+01 -0.57379792563E+01  0.56912039095E+01  0.12321280816E+02  0.51100000000E-03 0. -1.
        -11    1    3    3    0    0  0.56008313115E+01 -0.73595409317E+01 -0.39884841710E+01  0.10071750610E+02  0.51100000000E-03 0.  1.
         12    1    3    3    0    0  0.24987698373E+02 -0.33251550738E+01  0.30702424968E+01  0.25394253587E+02  0.00000000000E+00 0. -1.
</event>
<event>
 7    1  0.4519840E-010  0.4778727E+02  0.7816164E-02  0.1312668E+00
        -11   -1    0    0    0    0  0.00000000000E+00  0.00000000000E+00  0.45593999997E+02  0.45594000000E+02  0.51100000000E-03 0. -1.
         11   -1    0    0    0    0 -0.00000000000E+00 -0.00000000000E+00 -0.45593999997E+02  0.45594000000E+02  0.51100000000E-03 0.  1.
    9900012    2    1    2    0    0 -0.21573090620E+02  0.48428642513E+01  0.37346641535E+02  0.47787271814E+02  0.20000003511E+02 0.  0.
        -12    1    1    2    0    0  0.21573090620E+02 -0.48428642513E+01 -0.37346641535E+02  0.43400728186E+02  0.00000000000E+00 0.  1.
         11    1    3    3    0    0 -0.15064673111E+02  0.21564388998E+01  0.25100217114E+02  0.29353287790E+02  0.51100000000E-03 0. -1.
        -11    1    3    3    0    0 -0.77876108729E+01  0.62022478180E+01  0.79769707847E+01  0.12757226355E+02  0.51100000000E-03 0.  1.
         12    1    3    3    0    0  0.12791933644E+01 -0.35158224665E+01  0.42694536372E+01  0.56767576697E+01  0.00000000000E+00 0. -1.
</event>
<event>
 7    1  0.4519840E-010  0.4778727E+02  0.7816164E-02  0.1312668E+00
        -11   -1    0    0    0    0  0.00000000000E+00  0.00000000000E+00  0.45593999997E+02  0.45594000000E+02  0.51100000000E-03 0. -1.
         11   -1    0    0    0    0 -0.00000000000E+00 -0.00000000000E+00 -0.45593999997E+02  0.45594000000E+02  0.51100000000E-03 0.  1.
    9900012    2    1    2    0    0  0.12740314351E+02 -0.27936365520E+01  0.41394484707E+02  0.47787269832E+02  0.19999994473E+02 0.  0.
        -12    1    1    2    0    0 -0.12740314351E+02  0.27936365520E+01 -0.41394484707E+02  0.43400730168E+02  0.00000000000E+00 0.  1.
         11    1    3    3    0    0 -0.11236123092E+01  0.30597423556E+01  0.89165116705E+01  0.94936140924E+01  0.51100000000E-03 0. -1.
        -11    1    3    3    0    0  0.22127615571E+01 -0.91294624425E+00 -0.93077071199E+00  0.25682910530E+01  0.51100000000E-03 0.  1.
         12    1    3    3    0    0  0.11651165103E+02 -0.49404326633E+01  0.33408743748E+02  0.35725364687E+02  0.00000000000E+00 0. -1.
</event>
<event>
 7    1  0.4519840E-010  0.4778727E+02  0.7816164E-02  0.1312668E+00
        -11   -1    0    0    0    0  0.00000000000E+00  0.00000000000E+00  0.45593999997E+02  0.45594000000E+02  0.51100000000E-03 0. -1.
         11   -1    0    0    0    0 -0.00000000000E+00 -0.00000000000E+00 -0.45593999997E+02  0.45594000000E+02  0.51100000000E-03 0.  1.
    9900012    2    1    2    0    0  0.30580448697E+01 -0.17011929809E+02  0.39810371193E+02  0.47787273637E+02  0.20000011823E+02 0.  0.
        -12    1    1    2    0    0 -0.30580448697E+01  0.17011929809E+02 -0.39810371193E+02  0.43400726363E+02  0.00000000000E+00 0.  1.
         11    1    3    3    0    0  0.48019571892E+01 -0.27877061141E+00  0.14467972863E+02  0.15246597814E+02  0.51100000000E-03 0. -1.
        -11    1    3    3    0    0 -0.23753732978E+01  0.83821096215E+00  0.53704033000E+01  0.59317980231E+01  0.51100000000E-03 0.  1.
        -12    1    3    3    0    0  0.63146097831E+00 -0.17571370160E+02  0.19971995030E+02  0.26608877800E+02  0.00000000000E+00 0.  1.
</event>
<event>
 7    1  0.4519840E-010  0.4778727E+02  0.7816164E-02  0.1312668E+00
        -11   -1    0    0    0    0  0.00000000000E+00  0.00000000000E+00  0.45593999997E+02  0.45594000000E+02  0.51100000000E-03 0.  1.
         11   -1    0    0    0    0 -0.00000000000E+00 -0.00000000000E+00 -0.45593999997E+02  0.45594000000E+02  0.51100000000E-03 0. -1.
    9900012    2    1    2    0    0  0.14044061484E+02 -0.38909859921E+02  0.13130515048E+02  0.47787270888E+02  0.19999999286E+02 0.  0.
        -12    1    1    2    0    0 -0.14044061484E+02  0.38909859921E+02 -0.13130515048E+02  0.43400729112E+02  0.00000000000E+00 0.  1.
         11    1    3    3    0    0  0.73233525825E+01 -0.18504366773E+02  0.37759250932E+01  0.20255880462E+02  0.51100000000E-03 0. -1.
        -11    1    3    3    0    0  0.26448325570E+01 -0.54976819582E+01 -0.38412331964E+01  0.72093494088E+01  0.51100000000E-03 0.  1.
        -12    1    3    3    0    0  0.40758763442E+01 -0.14907811190E+02  0.13195823152E+02  0.20322041017E+02  0.00000000000E+00 0.  1.
</event>
<event>
 7    1  0.4519840E-010  0.4778727E+02  0.7816164E-02  0.1312668E+00
        -11   -1    0    0    0    0  0.00000000000E+00  0.00000000000E+00  0.45593999997E+02  0.45594000000E+02  0.51100000000E-03 0. -1.
         11   -1    0    0    0    0 -0.00000000000E+00 -0.00000000000E+00 -0.45593999997E+02  0.45594000000E+02  0.51100000000E-03 0.  1.
    9900012    2    1    2    0    0  0.24473698555E+02  0.21584620911E+02  0.28614078898E+02  0.47787270835E+02  0.19999999047E+02 0.  0.
        -12    1    1    2    0    0 -0.24473698555E+02 -0.21584620911E+02 -0.28614078898E+02  0.43400729165E+02  0.00000000000E+00 0.  1.
         11    1    3    3    0    0 -0.38030848334E+00  0.40820479206E+01  0.17165115629E+01  0.44445654427E+01  0.51100000000E-03 0. -1.
        -11    1    3    3    0    0  0.33665311805E+01  0.94804515166E+01  0.36959756452E+01  0.10717869629E+02  0.51100000000E-03 0.  1.
         12    1    3    3    0    0  0.21487475857E+02  0.80221214743E+01  0.23201591690E+02  0.32624835764E+02  0.00000000000E+00 0. -1.
</event>
<event>
 7    1  0.4519840E-010  0.4778727E+02  0.7816164E-02  0.1312668E+00
        -11   -1    0    0    0    0  0.00000000000E+00  0.00000000000E+00  0.45593999997E+02  0.45594000000E+02  0.51100000000E-03 0. -1.
         11   -1    0    0    0    0 -0.00000000000E+00 -0.00000000000E+00 -0.45593999997E+02  0.45594000000E+02  0.51100000000E-03 0.  1.
    9900012    2    1    2    0    0  0.13372400762E+02 -0.22555278928E+02 -0.34584122718E+02  0.47787271275E+02  0.20000001052E+02 0.  0.
         12    1    1    2    0    0 -0.13372400762E+02  0.22555278928E+02  0.34584122718E+02  0.43400728725E+02  0.00000000000E+00 0. -1.
         11    1    3    3    0    0  0.89696070230E+01 -0.14653063702E+02 -0.15372245763E+02  0.23053677929E+02  0.51100000000E-03 0. -1.
        -11    1    3    3    0    0  0.74419170927E+01 -0.45899041622E+01 -0.18102429549E+02  0.20103415284E+02  0.51100000000E-03 0.  1.
        -12    1    3    3    0    0 -0.30391233537E+01 -0.33123110637E+01 -0.11094474063E+01  0.46301780623E+01  0.00000000000E+00 0.  1.
</event>
<event>
 7    1  0.4519840E-010  0.4778730E+02  0.7816164E-02  0.1312668E+00
        -11   -1    0    0    0    0  0.00000000000E+00  0.00000000000E+00  0.45593999997E+02  0.45594000000E+02  0.51100000000E-03 0. -1.
         11   -1    0    0    0    0 -0.00000000000E+00 -0.00000000000E+00 -0.45593999997E+02  0.45594000000E+02  0.51100000000E-03 0.  1.
    9900012    2    1    2    0    0 -0.37493071309E+01 -0.15815864238E+02  0.40242040044E+02  0.47787301244E+02  0.20000137694E+02 0.  0.
        -12    1    1    2    0    0  0.37493071309E+01  0.15815864238E+02 -0.40242040044E+02  0.43400698756E+02  0.00000000000E+00 0.  1.
         11    1    3    3    0    0 -0.57215334912E+01 -0.12867473021E+02  0.21676823187E+02  0.25849419165E+02  0.51100000000E-03 0. -1.
        -11    1    3    3    0    0 -0.18097146562E+01 -0.16211181088E+01 -0.47905591939E+00  0.24764058421E+01  0.51100000000E-03 0.  1.
         12    1    3    3    0    0  0.37819410165E+01 -0.13272731089E+01  0.19044272776E+02  0.19461476237E+02  0.00000000000E+00 0. -1.
</event>
<event>
 7    1  0.4519840E-010  0.4778727E+02  0.7816164E-02  0.1312668E+00
        -11   -1    0    0    0    0  0.00000000000E+00  0.00000000000E+00  0.45593999997E+02  0.45594000000E+02  0.51100000000E-03 0.  1.
         11   -1    0    0    0    0 -0.00000000000E+00 -0.00000000000E+00 -0.45593999997E+02  0.45594000000E+02  0.51100000000E-03 0. -1.
    9900012    2    1    2    0    0  0.17644885450E+02  0.35172294096E+02  0.18308227008E+02  0.47787269237E+02  0.19999991760E+02 0.  0.
         12    1    1    2    0    0 -0.17644885450E+02 -0.35172294096E+02 -0.18308227008E+02  0.43400730763E+02  0.00000000000E+00 0. -1.
         11    1    3    3    0    0  0.74926649936E+00 -0.33369134417E+00  0.17768735912E+01  0.19570463000E+01  0.51100000000E-03 0. -1.
        -11    1    3    3    0    0  0.15356421893E+02  0.22585347851E+02  0.37091794431E+01  0.27562214049E+02  0.51100000000E-03 0.  1.
        -12    1    3    3    0    0  0.15391970581E+01  0.12920637590E+02  0.12822173974E+02  0.18268008888E+02  0.00000000000E+00 0.  1.
</event>
<event>
 7    1  0.4519840E-010  0.4778727E+02  0.7816164E-02  0.1312668E+00
        -11   -1    0    0    0    0  0.00000000000E+00  0.00000000000E+00  0.45593999997E+02  0.45594000000E+02  0.51100000000E-03 0. -1.
         11   -1    0    0    0    0 -0.00000000000E+00 -0.00000000000E+00 -0.45593999997E+02  0.45594000000E+02  0.51100000000E-03 0.  1.
    9900012    2    1    2    0    0 -0.12382273655E+02  0.37941038798E+02 -0.17052278234E+02  0.47787270526E+02  0.19999997634E+02 0.  0.
         12    1    1    2    0    0  0.12382273655E+02 -0.37941038798E+02  0.17052278234E+02  0.43400729474E+02  0.00000000000E+00 0. -1.
         11    1    3    3    0    0  0.12143639619E+01  0.20734689917E+01 -0.65624112667E+01  0.69885045171E+01  0.51100000000E-03 0. -1.
        -11    1    3    3    0    0  0.21736876832E+00  0.10810899222E+02 -0.30508106407E+01  0.11235223051E+02  0.51100000000E-03 0.  1.
        -12    1    3    3    0    0 -0.13814006385E+02  0.25056670584E+02 -0.74390563263E+01  0.29563542958E+02  0.00000000000E+00 0.  1.
</event>
<event>
 7    1  0.4519840E-010  0.4778729E+02  0.7816164E-02  0.1312668E+00
        -11   -1    0    0    0    0  0.00000000000E+00  0.00000000000E+00  0.45593999997E+02  0.45594000000E+02  0.51100000000E-03 0. -1.
         11   -1    0    0    0    0 -0.00000000000E+00 -0.00000000000E+00 -0.45593999997E+02  0.45594000000E+02  0.51100000000E-03 0.  1.
    9900012    2    1    2    0    0  0.12513729855E+02 -0.11011490000E+02  0.40072128824E+02  0.47787287386E+02  0.20000074509E+02 0.  0.
        -12    1    1    2    0    0 -0.12513729855E+02  0.11011490000E+02 -0.40072128824E+02  0.43400712614E+02  0.00000000000E+00 0.  1.
         11    1    3    3    0    0  0.57933691231E+00  0.79625619825E+00  0.96993484354E+01  0.97492058920E+01  0.51100000000E-03 0. -1.
        -11    1    3    3    0    0 -0.32663110248E+00  0.33018433293E+01  0.59371194047E+01  0.68013413629E+01  0.51100000000E-03 0.  1.
        -12    1    3    3    0    0  0.12261024045E+02 -0.15109589527E+02  0.24435660984E+02  0.31236740131E+02  0.00000000000E+00 0.  1.
</event>
<event>
 7    1  0.4519840E-010  0.4778727E+02  0.7816164E-02  0.1312668E+00
        -11   -1    0    0    0    0  0.00000000000E+00  0.00000000000E+00  0.45593999997E+02  0.45594000000E+02  0.51100000000E-03 0. -1.
         11   -1    0    0    0    0 -0.00000000000E+00 -0.00000000000E+00 -0.45593999997E+02  0.45594000000E+02  0.51100000000E-03 0.  1.
    9900012    2    1    2    0    0 -0.27948904908E+02 -0.50229005390E+01 -0.32821522808E+02  0.47787272185E+02  0.20000005202E+02 0.  0.
         12    1    1    2    0    0  0.27948904908E+02  0.50229005390E+01  0.32821522808E+02  0.43400727815E+02  0.00000000000E+00 0. -1.
         11    1    3    3    0    0 -0.10437203801E+02 -0.60833155699E+00 -0.26907974681E+01  0.10795632531E+02  0.51100000000E-03 0. -1.
        -11    1    3    3    0    0 -0.43173990118E+01 -0.63501512907E+01 -0.75604427720E+01  0.10776114829E+02  0.51100000000E-03 0.  1.
        -12    1    3    3    0    0 -0.13194302095E+02  0.19355823087E+01 -0.22570282568E+02  0.26215524825E+02  0.00000000000E+00 0.  1.
</event>
<event>
 7    1  0.4519840E-010  0.4778727E+02  0.7816164E-02  0.1312668E+00
        -11   -1    0    0    0    0  0.00000000000E+00  0.00000000000E+00  0.45593999997E+02  0.45594000000E+02  0.51100000000E-03 0. -1.
         11   -1    0    0    0    0 -0.00000000000E+00 -0.00000000000E+00 -0.45593999997E+02  0.45594000000E+02  0.51100000000E-03 0.  1.
    9900012    2    1    2    0    0  0.16621658787E+02  0.36691512656E+02 -0.16157871550E+02  0.47787268959E+02  0.19999990493E+02 0.  0.
         12    1    1    2    0    0 -0.16621658787E+02 -0.36691512656E+02  0.16157871550E+02  0.43400731041E+02  0.00000000000E+00 0. -1.
         11    1    3    3    0    0  0.58426858852E+01  0.89050652499E+01  0.60962814769E+00  0.10668121306E+02  0.51100000000E-03 0. -1.
        -11    1    3    3    0    0  0.10435392963E+02  0.29164829483E+02 -0.13966758795E+02  0.33978744187E+02  0.51100000000E-03 0.  1.
        -12    1    3    3    0    0  0.34357993877E+00 -0.13783820763E+01 -0.28007409032E+01  0.31404034661E+01  0.00000000000E+00 0.  1.
</event>
<event>
 7    1  0.4519840E-010  0.4778727E+02  0.7816164E-02  0.1312668E+00
        -11   -1    0    0    0    0  0.00000000000E+00  0.00000000000E+00  0.45593999997E+02  0.45594000000E+02  0.51100000000E-03 0. -1.
         11   -1    0    0    0    0 -0.00000000000E+00 -0.00000000000E+00 -0.45593999997E+02  0.45594000000E+02  0.51100000000E-03 0.  1.
    9900012    2    1    2    0    0 -0.11789425514E+02 -0.20110454027E+02 -0.36608778363E+02  0.47787267652E+02  0.19999984531E+02 0.  0.
         12    1    1    2    0    0  0.11789425514E+02  0.20110454027E+02  0.36608778363E+02  0.43400732348E+02  0.00000000000E+00 0. -1.
         11    1    3    3    0    0 -0.61217839794E+01 -0.17827068147E+02 -0.18604592999E+02  0.26484174118E+02  0.51100000000E-03 0. -1.
        -11    1    3    3    0    0 -0.26400436920E+01 -0.58211822637E+01 -0.12882767353E+02  0.14381296485E+02  0.51100000000E-03 0.  1.
         12    1    3    3    0    0 -0.30275978426E+01  0.35377963830E+01 -0.51214180111E+01  0.69217970491E+01  0.00000000000E+00 0. -1.
</event>
<event>
 7    1  0.4519840E-010  0.4778728E+02  0.7816164E-02  0.1312668E+00
        -11   -1    0    0    0    0  0.00000000000E+00  0.00000000000E+00  0.45593999997E+02  0.45594000000E+02  0.51100000000E-03 0.  1.
         11   -1    0    0    0    0 -0.00000000000E+00 -0.00000000000E+00 -0.45593999997E+02  0.45594000000E+02  0.51100000000E-03 0. -1.
    9900012    2    1    2    0    0 -0.37922584548E+02 -0.34210842718E+00  0.21104095433E+02  0.47787282252E+02  0.20000051099E+02 0.  0.
        -12    1    1    2    0    0  0.37922584548E+02  0.34210842718E+00 -0.21104095433E+02  0.43400717748E+02  0.00000000000E+00 0.  1.
         11    1    3    3    0    0 -0.27732591479E+01 -0.45478401286E+01  0.45480678535E+01  0.70041942861E+01  0.51100000000E-03 0. -1.
        -11    1    3    3    0    0 -0.30452007036E+01  0.41732915575E+01  0.21883124494E+01  0.56105544634E+01  0.51100000000E-03 0.  1.
         12    1    3    3    0    0 -0.32104124697E+02  0.32440143927E-01  0.14367715130E+02  0.35172533502E+02  0.00000000000E+00 0. -1.
</event>
<event>
 7    1  0.4519840E-010  0.4778727E+02  0.7816164E-02  0.1312668E+00
        -11   -1    0    0    0    0  0.00000000000E+00  0.00000000000E+00  0.45593999997E+02  0.45594000000E+02  0.51100000000E-03 0. -1.
         11   -1    0    0    0    0 -0.00000000000E+00 -0.00000000000E+00 -0.45593999997E+02  0.45594000000E+02  0.51100000000E-03 0.  1.
    9900012    2    1    2    0    0  0.35308286619E+02 -0.71798704632E+01 -0.24195002271E+02  0.47787265228E+02  0.19999973480E+02 0.  0.
         12    1    1    2    0    0 -0.35308286619E+02  0.71798704632E+01  0.24195002271E+02  0.43400734772E+02  0.00000000000E+00 0. -1.
         11    1    3    3    0    0 -0.17738052228E+00 -0.10533229319E+01 -0.28737866854E+00  0.11061373372E+01  0.51100000000E-03 0. -1.
        -11    1    3    3    0    0  0.36924896882E+02 -0.60224067934E+01 -0.24889678691E+02  0.44935659547E+02  0.51100000000E-03 0.  1.
        -12    1    3    3    0    0 -0.14392297410E+01 -0.10414073793E+00  0.98205508827E+00  0.17454683432E+01  0.00000000000E+00 0.  1.
</event>
<event>
 7    1  0.4519840E-010  0.4778726E+02  0.7816164E-02  0.1312668E+00
        -11   -1    0    0    0    0  0.00000000000E+00  0.00000000000E+00  0.45593999997E+02  0.45594000000E+02  0.51100000000E-03 0. -1.
         11   -1    0    0    0    0 -0.00000000000E+00 -0.00000000000E+00 -0.45593999997E+02  0.45594000000E+02  0.51100000000E-03 0.  1.
    9900012    2    1    2    0    0  0.75066540234E+01 -0.12057602710E+02  0.41010834302E+02  0.47787260745E+02  0.19999953040E+02 0.  0.
        -12    1    1    2    0    0 -0.75066540234E+01  0.12057602710E+02 -0.41010834302E+02  0.43400739255E+02  0.00000000000E+00 0.  1.
         11    1    3    3    0    0 -0.49117165639E+00 -0.12268592383E+02  0.21886312441E+02  0.25095224271E+02  0.51100000000E-03 0. -1.
        -11    1    3    3    0    0  0.18805623932E+01  0.26152159569E+01  0.13977327563E+02  0.14343693927E+02  0.51100000000E-03 0.  1.
        -12    1    3    3    0    0  0.61172632866E+01 -0.24042262834E+01  0.51471942986E+01  0.83483425473E+01  0.00000000000E+00 0.  1.
</event>
<event>
 7    1  0.4519840E-010  0.4778727E+02  0.7816164E-02  0.1312668E+00
        -11   -1    0    0    0    0  0.00000000000E+00  0.00000000000E+00  0.45593999997E+02  0.45594000000E+02  0.51100000000E-03 0. -1.
         11   -1    0    0    0    0 -0.00000000000E+00 -0.00000000000E+00 -0.45593999997E+02  0.45594000000E+02  0.51100000000E-03 0.  1.
    9900012    2    1    2    0    0 -0.32715728710E+02  0.28397595365E+02  0.26231632693E+01  0.47787270593E+02  0.19999997942E+02 0.  0.
        -12    1    1    2    0    0  0.32715728710E+02 -0.28397595365E+02 -0.26231632693E+01  0.43400729407E+02  0.00000000000E+00 0.  1.
         11    1    3    3    0    0 -0.53287017866E+00  0.90843079266E+00 -0.75933801911E+00  0.12983803837E+01  0.51100000000E-03 0.  1.
        -11    1    3    3    0    0 -0.30943115055E+02  0.23592666729E+02 -0.28711420683E+01  0.39017095608E+02  0.51100000000E-03 0. -1.
        -12    1    3    3    0    0 -0.12397434765E+01  0.38964978431E+01  0.62536433567E+01  0.74717946011E+01  0.00000000000E+00 0.  1.
</event>
<event>
 7    1  0.4519840E-010  0.4778721E+02  0.7816164E-02  0.1312668E+00
        -11   -1    0    0    0    0  0.00000000000E+00  0.00000000000E+00  0.45593999997E+02  0.45594000000E+02  0.51100000000E-03 0. -1.
         11   -1    0    0    0    0 -0.00000000000E+00 -0.00000000000E+00 -0.45593999997E+02  0.45594000000E+02  0.51100000000E-03 0.  1.
    9900012    2    1    2    0    0  0.20907719245E+02  0.24453537372E+02 -0.29129378238E+02  0.47787206337E+02  0.19999704972E+02 0.  0.
         12    1    1    2    0    0 -0.20907719245E+02 -0.24453537372E+02  0.29129378238E+02  0.43400793663E+02  0.00000000000E+00 0. -1.
         11    1    3    3    0    0  0.16014850897E+01  0.73942766506E+01 -0.54348243482E+01  0.93154386710E+01  0.51100000000E-03 0. -1.
        -11    1    3    3    0    0  0.53444937808E+01 -0.20698975263E+00 -0.12518091201E+02  0.13612827263E+02  0.51100000000E-03 0.  1.
         12    1    3    3    0    0  0.13961740374E+02  0.17266250474E+02 -0.11176462689E+02  0.24858940403E+02  0.00000000000E+00 0. -1.
</event>
<event>
 7    1  0.4519840E-010  0.4778726E+02  0.7816164E-02  0.1312668E+00
        -11   -1    0    0    0    0  0.00000000000E+00  0.00000000000E+00  0.45593999997E+02  0.45594000000E+02  0.51100000000E-03 0. -1.
         11   -1    0    0    0    0 -0.00000000000E+00 -0.00000000000E+00 -0.45593999997E+02  0.45594000000E+02  0.51100000000E-03 0.  1.
    9900012    2    1    2    0    0  0.32508767497E+02  0.97343815273E+01 -0.27056349809E+02  0.47787260227E+02  0.19999950677E+02 0.  0.
         12    1    1    2    0    0 -0.32508767497E+02 -0.97343815273E+01  0.27056349809E+02  0.43400739773E+02  0.00000000000E+00 0. -1.
         11    1    3    3    0    0  0.10108172512E+02  0.45556030627E+01 -0.66409679070E+01  0.12924052221E+02  0.51100000000E-03 0. -1.
        -11    1    3    3    0    0  0.23698282362E+02  0.29741901161E+01 -0.13378764626E+02  0.27376006592E+02  0.51100000000E-03 0.  1.
        -12    1    3    3    0    0 -0.12976873773E+01  0.22045883485E+01 -0.70366172759E+01  0.74872014132E+01  0.00000000000E+00 0.  1.
</event>
<event>
 7    1  0.4519840E-010  0.4778727E+02  0.7816164E-02  0.1312668E+00
        -11   -1    0    0    0    0  0.00000000000E+00  0.00000000000E+00  0.45593999997E+02  0.45594000000E+02  0.51100000000E-03 0. -1.
         11   -1    0    0    0    0 -0.00000000000E+00 -0.00000000000E+00 -0.45593999997E+02  0.45594000000E+02  0.51100000000E-03 0.  1.
    9900012    2    1    2    0    0  0.32609591912E+01 -0.10984412933E+02 -0.41860870717E+02  0.47787266371E+02  0.19999978693E+02 0.  0.
         12    1    1    2    0    0 -0.32609591912E+01  0.10984412933E+02  0.41860870717E+02  0.43400733629E+02  0.00000000000E+00 0. -1.
         11    1    3    3    0    0 -0.61100443620E+00 -0.20050538236E+00 -0.56939082416E+01  0.57301064697E+01  0.51100000000E-03 0.  1.
        -11    1    3    3    0    0  0.10020127502E+02 -0.15573316856E+01 -0.20410539929E+02  0.22790752019E+02  0.51100000000E-03 0. -1.
         12    1    3    3    0    0 -0.61481638750E+01 -0.92265758653E+01 -0.15756422547E+02  0.19266407883E+02  0.00000000000E+00 0. -1.
</event>
<event>
 7    1  0.4519840E-010  0.4778727E+02  0.7816164E-02  0.1312668E+00
        -11   -1    0    0    0    0  0.00000000000E+00  0.00000000000E+00  0.45593999997E+02  0.45594000000E+02  0.51100000000E-03 0. -1.
         11   -1    0    0    0    0 -0.00000000000E+00 -0.00000000000E+00 -0.45593999997E+02  0.45594000000E+02  0.51100000000E-03 0.  1.
    9900012    2    1    2    0    0 -0.11897190678E+02  0.76592828127E+01 -0.41029447833E+02  0.47787270182E+02  0.19999996070E+02 0.  0.
         12    1    1    2    0    0  0.11897190678E+02 -0.76592828127E+01  0.41029447833E+02  0.43400729818E+02  0.00000000000E+00 0. -1.
         11    1    3    3    0    0 -0.43006748687E+01 -0.24727349455E+01 -0.14412070485E+02  0.15241981445E+02  0.51100000000E-03 0. -1.
        -11    1    3    3    0    0 -0.89909183888E+00 -0.13005152681E+00 -0.16850621250E+02  0.16875091594E+02  0.51100000000E-03 0.  1.
        -12    1    3    3    0    0 -0.66974239706E+01  0.10262069285E+02 -0.97667560979E+01  0.15670197144E+02  0.00000000000E+00 0.  1.
</event>
<event>
 7    1  0.4519840E-010  0.4778727E+02  0.7816164E-02  0.1312668E+00
        -11   -1    0    0    0    0  0.00000000000E+00  0.00000000000E+00  0.45593999997E+02  0.45594000000E+02  0.51100000000E-03 0. -1.
         11   -1    0    0    0    0 -0.00000000000E+00 -0.00000000000E+00 -0.45593999997E+02  0.45594000000E+02  0.51100000000E-03 0.  1.
    9900012    2    1    2    0    0 -0.10697340655E+02 -0.94996611937E+01  0.40974948387E+02  0.47787273564E+02  0.20000011486E+02 0.  0.
        -12    1    1    2    0    0  0.10697340655E+02  0.94996611937E+01 -0.40974948387E+02  0.43400726436E+02  0.00000000000E+00 0.  1.
         11    1    3    3    0    0 -0.32953743381E+01 -0.79304525773E+01  0.57100695997E+01  0.10312927092E+02  0.51100000000E-03 0. -1.
        -11    1    3    3    0    0 -0.70340282269E+01  0.21753539400E+01  0.13413225079E+02  0.15301121695E+02  0.51100000000E-03 0.  1.
        -12    1    3    3    0    0 -0.36793808959E+00 -0.37445625563E+01  0.21851653709E+02  0.22173224776E+02  0.00000000000E+00 0.  1.
</event>
<event>
 7    1  0.4519840E-010  0.4778727E+02  0.7816164E-02  0.1312668E+00
        -11   -1    0    0    0    0  0.00000000000E+00  0.00000000000E+00  0.45593999997E+02  0.45594000000E+02  0.51100000000E-03 0. -1.
         11   -1    0    0    0    0 -0.00000000000E+00 -0.00000000000E+00 -0.45593999997E+02  0.45594000000E+02  0.51100000000E-03 0.  1.
    9900012    2    1    2    0    0  0.23910293932E+02 -0.35464417475E+02  0.73618182429E+01  0.47787269239E+02  0.19999991770E+02 0.  0.
        -12    1    1    2    0    0 -0.23910293932E+02  0.35464417475E+02 -0.73618182429E+01  0.43400730761E+02  0.00000000000E+00 0.  1.
         11    1    3    3    0    0  0.66354077447E+01 -0.14324357588E+02  0.82596925489E+01  0.17816800429E+02  0.51100000000E-03 0. -1.
        -11    1    3    3    0    0  0.61607666365E+01 -0.20802742685E+01  0.36300272711E+01  0.74471259444E+01  0.51100000000E-03 0.  1.
         12    1    3    3    0    0  0.11114119550E+02 -0.19059785618E+02 -0.45279015771E+01  0.22523342866E+02  0.00000000000E+00 0. -1.
</event>
<event>
 7    1  0.4519840E-010  0.4778727E+02  0.7816164E-02  0.1312668E+00
        -11   -1    0    0    0    0  0.00000000000E+00  0.00000000000E+00  0.45593999997E+02  0.45594000000E+02  0.51100000000E-03 0. -1.
         11   -1    0    0    0    0 -0.00000000000E+00 -0.00000000000E+00 -0.45593999997E+02  0.45594000000E+02  0.51100000000E-03 0.  1.
    9900012    2    1    2    0    0 -0.13455883808E+01  0.13202443058E+02  0.41322005150E+02  0.47787271661E+02  0.20000002809E+02 0.  0.
        -12    1    1    2    0    0  0.13455883808E+01 -0.13202443058E+02 -0.41322005150E+02  0.43400728339E+02  0.00000000000E+00 0.  1.
         11    1    3    3    0    0 -0.88653852267E+01  0.86828797567E+01  0.18064155825E+02  0.21915774730E+02  0.51100000000E-03 0. -1.
        -11    1    3    3    0    0  0.19387429027E+01  0.31517696089E+01  0.28515393221E+01  0.46715792273E+01  0.51100000000E-03 0.  1.
         12    1    3    3    0    0  0.55810539432E+01  0.13677936928E+01  0.20406310002E+02  0.21199917703E+02  0.00000000000E+00 0. -1.
</event>
<event>
 7    1  0.4519840E-010  0.4778727E+02  0.7816164E-02  0.1312668E+00
        -11   -1    0    0    0    0  0.00000000000E+00  0.00000000000E+00  0.45593999997E+02  0.45594000000E+02  0.51100000000E-03 0. -1.
         11   -1    0    0    0    0 -0.00000000000E+00 -0.00000000000E+00 -0.45593999997E+02  0.45594000000E+02  0.51100000000E-03 0.  1.
    9900012    2    1    2    0    0  0.14763793577E+02 -0.21749069278E+02 -0.34534497371E+02  0.47787272772E+02  0.20000007878E+02 0.  0.
         12    1    1    2    0    0 -0.14763793577E+02  0.21749069278E+02  0.34534497371E+02  0.43400727228E+02  0.00000000000E+00 0. -1.
         11    1    3    3    0    0  0.58934845979E+00 -0.12796530474E+02 -0.13396916128E+02  0.18535800112E+02  0.51100000000E-03 0. -1.
        -11    1    3    3    0    0  0.79205733413E+01  0.97691248168E+00 -0.11846426548E+02  0.14283825198E+02  0.51100000000E-03 0.  1.
        -12    1    3    3    0    0  0.62538717754E+01 -0.99294512850E+01 -0.92911546942E+01  0.14967647462E+02  0.00000000000E+00 0.  1.
</event>
<event>
 7    1  0.4519840E-010  0.4778727E+02  0.7816164E-02  0.1312668E+00
        -11   -1    0    0    0    0  0.00000000000E+00  0.00000000000E+00  0.45593999997E+02  0.45594000000E+02  0.51100000000E-03 0. -1.
         11   -1    0    0    0    0 -0.00000000000E+00 -0.00000000000E+00 -0.45593999997E+02  0.45594000000E+02  0.51100000000E-03 0.  1.
    9900012    2    1    2    0    0  0.54401451992E+01 -0.93726777517E+01 -0.42025953986E+02  0.47787273319E+02  0.20000010369E+02 0.  0.
         12    1    1    2    0    0 -0.54401451992E+01  0.93726777517E+01  0.42025953986E+02  0.43400726681E+02  0.00000000000E+00 0. -1.
         11    1    3    3    0    0 -0.11755817985E+01 -0.13810635051E+01 -0.14595478914E+02  0.14707730415E+02  0.51100000000E-03 0. -1.
        -11    1    3    3    0    0  0.28786963349E+01  0.92968202426E+00 -0.21546992936E+02  0.21758311196E+02  0.51100000000E-03 0.  1.
         12    1    3    3    0    0  0.37370306628E+01 -0.89212962708E+01 -0.58834821359E+01  0.11321231707E+02  0.00000000000E+00 0. -1.
</event>
<event>
 7    1  0.4519840E-010  0.4778727E+02  0.7816164E-02  0.1312668E+00
        -11   -1    0    0    0    0  0.00000000000E+00  0.00000000000E+00  0.45593999997E+02  0.45594000000E+02  0.51100000000E-03 0. -1.
         11   -1    0    0    0    0 -0.00000000000E+00 -0.00000000000E+00 -0.45593999997E+02  0.45594000000E+02  0.51100000000E-03 0.  1.
    9900012    2    1    2    0    0  0.30247206484E+02 -0.17252677662E+02  0.25905110840E+02  0.47787272423E+02  0.20000006284E+02 0.  0.
        -12    1    1    2    0    0 -0.30247206484E+02  0.17252677662E+02 -0.25905110840E+02  0.43400727577E+02  0.00000000000E+00 0.  1.
         11    1    3    3    0    0  0.17770346018E+02 -0.10167683221E+02  0.18076502530E+02  0.27311662777E+02  0.51100000000E-03 0. -1.
        -11    1    3    3    0    0  0.11261192881E+02 -0.10263082239E+02  0.49546965192E+01  0.16021683433E+02  0.51100000000E-03 0.  1.
         12    1    3    3    0    0  0.12156675844E+01  0.31780877978E+01  0.28739117909E+01  0.44539262127E+01  0.00000000000E+00 0. -1.
</event>
<event>
 7    1  0.4519840E-010  0.4778727E+02  0.7816164E-02  0.1312668E+00
        -11   -1    0    0    0    0  0.00000000000E+00  0.00000000000E+00  0.45593999997E+02  0.45594000000E+02  0.51100000000E-03 0. -1.
         11   -1    0    0    0    0 -0.00000000000E+00 -0.00000000000E+00 -0.45593999997E+02  0.45594000000E+02  0.51100000000E-03 0.  1.
    9900012    2    1    2    0    0 -0.30673042750E+02  0.53508674346E+01 -0.30235009214E+02  0.47787272864E+02  0.20000008294E+02 0.  0.
         12    1    1    2    0    0  0.30673042750E+02 -0.53508674346E+01  0.30235009214E+02  0.43400727136E+02  0.00000000000E+00 0. -1.
         11    1    3    3    0    0 -0.14571561511E+02  0.15851054453E+01 -0.62712143414E+01  0.15942744234E+02  0.51100000000E-03 0. -1.
        -11    1    3    3    0    0 -0.78570956344E+01 -0.38951849367E+01 -0.59274404948E+01  0.10584940651E+02  0.51100000000E-03 0.  1.
        -12    1    3    3    0    0 -0.82443856043E+01  0.76609469260E+01 -0.18036354377E+02  0.21259587979E+02  0.00000000000E+00 0.  1.
</event>
<event>
 7    1  0.4519840E-010  0.4778727E+02  0.7816164E-02  0.1312668E+00
        -11   -1    0    0    0    0  0.00000000000E+00  0.00000000000E+00  0.45593999997E+02  0.45594000000E+02  0.51100000000E-03 0. -1.
         11   -1    0    0    0    0 -0.00000000000E+00 -0.00000000000E+00 -0.45593999997E+02  0.45594000000E+02  0.51100000000E-03 0.  1.
    9900012    2    1    2    0    0  0.24663814449E+02  0.79155798187E+01  0.34823309324E+02  0.47787273977E+02  0.20000013372E+02 0.  0.
        -12    1    1    2    0    0 -0.24663814449E+02 -0.79155798187E+01 -0.34823309324E+02  0.43400726023E+02  0.00000000000E+00 0.  1.
         11    1    3    3    0    0  0.14355371441E+02  0.39512883618E+01  0.17688799068E+02  0.23121050617E+02  0.51100000000E-03 0. -1.
        -11    1    3    3    0    0  0.91866050174E+01  0.25339167519E+01  0.24096654246E+01  0.98295947816E+01  0.51100000000E-03 0.  1.
        -12    1    3    3    0    0  0.11218379910E+01  0.14303747050E+01  0.14724844831E+02  0.14836628578E+02  0.00000000000E+00 0.  1.
</event>
<event>
 7    1  0.4519840E-010  0.4778727E+02  0.7816164E-02  0.1312668E+00
        -11   -1    0    0    0    0  0.00000000000E+00  0.00000000000E+00  0.45593999997E+02  0.45594000000E+02  0.51100000000E-03 0. -1.
         11   -1    0    0    0    0 -0.00000000000E+00 -0.00000000000E+00 -0.45593999997E+02  0.45594000000E+02  0.51100000000E-03 0.  1.
    9900012    2    1    2    0    0 -0.28967684336E+02 -0.14921474784E+02 -0.28667853423E+02  0.47787274598E+02  0.20000016201E+02 0.  0.
         12    1    1    2    0    0  0.28967684336E+02  0.14921474784E+02  0.28667853423E+02  0.43400725402E+02  0.00000000000E+00 0. -1.
         11    1    3    3    0    0 -0.19122931708E+02 -0.11389118563E+02 -0.12046000075E+02  0.25308193472E+02  0.51100000000E-03 0. -1.
        -11    1    3    3    0    0 -0.66151620939E+01 -0.74615319533E+01 -0.12043077641E+02  0.15635553970E+02  0.51100000000E-03 0.  1.
        -12    1    3    3    0    0 -0.32295905344E+01  0.39291757322E+01 -0.45787757069E+01  0.68435271555E+01  0.00000000000E+00 0.  1.
</event>
<event>
 7    1  0.4519840E-010  0.4778727E+02  0.7816164E-02  0.1312668E+00
        -11   -1    0    0    0    0  0.00000000000E+00  0.00000000000E+00  0.45593999997E+02  0.45594000000E+02  0.51100000000E-03 0.  1.
         11   -1    0    0    0    0 -0.00000000000E+00 -0.00000000000E+00 -0.45593999997E+02  0.45594000000E+02  0.51100000000E-03 0. -1.
    9900012    2    1    2    0    0  0.10340899357E+02  0.28541780294E+02 -0.31017025181E+02  0.47787271055E+02  0.20000000047E+02 0.  0.
         12    1    1    2    0    0 -0.10340899357E+02 -0.28541780294E+02  0.31017025181E+02  0.43400728945E+02  0.00000000000E+00 0. -1.
         11    1    3    3    0    0 -0.11693524229E+01 -0.12713928731E+01  0.41237672809E-01  0.17278673946E+01  0.51100000000E-03 0. -1.
        -11    1    3    3    0    0 -0.40772138083E+00  0.59878817851E+01 -0.11630937442E+02  0.13088150023E+02  0.51100000000E-03 0.  1.
        -12    1    3    3    0    0  0.11917973160E+02  0.23825291382E+02 -0.19427325412E+02  0.32971253637E+02  0.00000000000E+00 0.  1.
</event>
<event>
 7    1  0.4519840E-010  0.4778727E+02  0.7816164E-02  0.1312668E+00
        -11   -1    0    0    0    0  0.00000000000E+00  0.00000000000E+00  0.45593999997E+02  0.45594000000E+02  0.51100000000E-03 0. -1.
         11   -1    0    0    0    0 -0.00000000000E+00 -0.00000000000E+00 -0.45593999997E+02  0.45594000000E+02  0.51100000000E-03 0.  1.
    9900012    2    1    2    0    0  0.56872479804E+01  0.33217661672E+02 -0.27347128399E+02  0.47787271110E+02  0.20000000297E+02 0.  0.
         12    1    1    2    0    0 -0.56872479804E+01 -0.33217661672E+02  0.27347128399E+02  0.43400728890E+02  0.00000000000E+00 0. -1.
         11    1    3    3    0    0 -0.17558434363E+01  0.19627722743E+02 -0.11071154583E+02  0.22603118155E+02  0.51100000000E-03 0. -1.
        -11    1    3    3    0    0  0.52531613386E+01  0.74186145406E+01 -0.17593102312E+01  0.92588724207E+01  0.51100000000E-03 0.  1.
         12    1    3    3    0    0  0.21899300781E+01  0.61713243882E+01 -0.14516663585E+02  0.15925280534E+02  0.00000000000E+00 0. -1.
</event>
<event>
 7    1  0.4519840E-010  0.4778727E+02  0.7816164E-02  0.1312668E+00
        -11   -1    0    0    0    0  0.00000000000E+00  0.00000000000E+00  0.45593999997E+02  0.45594000000E+02  0.51100000000E-03 0. -1.
         11   -1    0    0    0    0 -0.00000000000E+00 -0.00000000000E+00 -0.45593999997E+02  0.45594000000E+02  0.51100000000E-03 0.  1.
    9900012    2    1    2    0    0 -0.32878871099E+02 -0.27122826414E+02 -0.81826269123E+01  0.47787271197E+02  0.20000000696E+02 0.  0.
         12    1    1    2    0    0  0.32878871099E+02  0.27122826414E+02  0.81826269123E+01  0.43400728803E+02  0.00000000000E+00 0. -1.
         11    1    3    3    0    0 -0.61907713804E+01 -0.38261749665E+01 -0.13777235488E+01  0.74069823543E+01  0.51100000000E-03 0. -1.
        -11    1    3    3    0    0 -0.20677353313E+02 -0.13373854517E+02 -0.12319346164E+02  0.27535054292E+02  0.51100000000E-03 0.  1.
         12    1    3    3    0    0 -0.60107464052E+01 -0.99227969307E+01  0.55144428003E+01  0.12845234551E+02  0.00000000000E+00 0. -1.
</event>
<event>
 7    1  0.4519840E-010  0.4778727E+02  0.7816164E-02  0.1312668E+00
        -11   -1    0    0    0    0  0.00000000000E+00  0.00000000000E+00  0.45593999997E+02  0.45594000000E+02  0.51100000000E-03 0. -1.
         11   -1    0    0    0    0 -0.00000000000E+00 -0.00000000000E+00 -0.45593999997E+02  0.45594000000E+02  0.51100000000E-03 0.  1.
    9900012    2    1    2    0    0  0.16820731044E+02  0.25550343893E+02 -0.30787437881E+02  0.47787269624E+02  0.19999993524E+02 0.  0.
         12    1    1    2    0    0 -0.16820731044E+02 -0.25550343893E+02  0.30787437881E+02  0.43400730376E+02  0.00000000000E+00 0. -1.
         11    1    3    3    0    0  0.31732427812E+01  0.94119993869E+01 -0.86018206887E+01  0.13139502336E+02  0.51100000000E-03 0. -1.
        -11    1    3    3    0    0  0.12822803897E+02  0.14539853194E+02 -0.24797694116E+02  0.31476296866E+02  0.51100000000E-03 0.  1.
         12    1    3    3    0    0  0.82468436602E+00  0.15984913122E+01  0.26120769243E+01  0.31714704220E+01  0.00000000000E+00 0. -1.
</event>
<event>
 7    1  0.4519840E-010  0.4778727E+02  0.7816164E-02  0.1312668E+00
        -11   -1    0    0    0    0  0.00000000000E+00  0.00000000000E+00  0.45593999997E+02  0.45594000000E+02  0.51100000000E-03 0. -1.
         11   -1    0    0    0    0 -0.00000000000E+00 -0.00000000000E+00 -0.45593999997E+02  0.45594000000E+02  0.51100000000E-03 0.  1.
    9900012    2    1    2    0    0  0.32425508492E+02  0.19806831119E+01  0.28779965145E+02  0.47787273044E+02  0.20000009115E+02 0.  0.
        -12    1    1    2    0    0 -0.32425508492E+02 -0.19806831119E+01 -0.28779965145E+02  0.43400726956E+02  0.00000000000E+00 0.  1.
         11    1    3    3    0    0  0.66036491944E+01 -0.35515015852E+01  0.96926454661E+01  0.12254334849E+02  0.51100000000E-03 0. -1.
        -11    1    3    3    0    0  0.19040114814E+02 -0.20264187607E+01  0.87840816602E+01  0.21066381654E+02  0.51100000000E-03 0.  1.
         12    1    3    3    0    0  0.67817444842E+01  0.75586034578E+01  0.10303238019E+02  0.14466556541E+02  0.00000000000E+00 0. -1.
</event>
<event>
 7    1  0.4519840E-010  0.4778726E+02  0.7816164E-02  0.1312668E+00
        -11   -1    0    0    0    0  0.00000000000E+00  0.00000000000E+00  0.45593999997E+02  0.45594000000E+02  0.51100000000E-03 0. -1.
         11   -1    0    0    0    0 -0.00000000000E+00 -0.00000000000E+00 -0.45593999997E+02  0.45594000000E+02  0.51100000000E-03 0.  1.
    9900012    2    1    2    0    0 -0.20770517262E+02  0.14159778998E+02  0.35379516945E+02  0.47787263280E+02  0.19999964598E+02 0.  0.
        -12    1    1    2    0    0  0.20770517262E+02 -0.14159778998E+02 -0.35379516945E+02  0.43400736720E+02  0.00000000000E+00 0.  1.
         11    1    3    3    0    0  0.15044584407E+01 -0.33514815140E+00  0.79445498564E-01  0.15433830799E+01  0.51100000000E-03 0. -1.
        -11    1    3    3    0    0 -0.21299892703E+01 -0.10318498948E+01  0.10342632594E+02  0.10609977273E+02  0.51100000000E-03 0.  1.
         12    1    3    3    0    0 -0.20144986432E+02  0.15526777044E+02  0.24957438852E+02  0.35633902927E+02  0.00000000000E+00 0. -1.
</event>
<event>
 7    1  0.4519840E-010  0.4778727E+02  0.7816164E-02  0.1312668E+00
        -11   -1    0    0    0    0  0.00000000000E+00  0.00000000000E+00  0.45593999997E+02  0.45594000000E+02  0.51100000000E-03 0. -1.
         11   -1    0    0    0    0 -0.00000000000E+00 -0.00000000000E+00 -0.45593999997E+02  0.45594000000E+02  0.51100000000E-03 0.  1.
    9900012    2    1    2    0    0 -0.29734921163E+02  0.21400468311E+02  0.23269672980E+02  0.47787271192E+02  0.20000000673E+02 0.  0.
        -12    1    1    2    0    0  0.29734921163E+02 -0.21400468311E+02 -0.23269672980E+02  0.43400728808E+02  0.00000000000E+00 0.  1.
         11    1    3    3    0    0 -0.31296236663E+01  0.29316977091E+01  0.36862472524E+01  0.56548929978E+01  0.51100000000E-03 0. -1.
        -11    1    3    3    0    0 -0.16179052898E+01  0.76817565307E+01 -0.11289305934E+01  0.79310456732E+01  0.51100000000E-03 0.  1.
        -12    1    3    3    0    0 -0.24987392206E+02  0.10787014072E+02  0.20712356321E+02  0.34201332521E+02  0.00000000000E+00 0.  1.
</event>
<event>
 7    1  0.4519840E-010  0.4778727E+02  0.7816164E-02  0.1312668E+00
        -11   -1    0    0    0    0  0.00000000000E+00  0.00000000000E+00  0.45593999997E+02  0.45594000000E+02  0.51100000000E-03 0.  1.
         11   -1    0    0    0    0 -0.00000000000E+00 -0.00000000000E+00 -0.45593999997E+02  0.45594000000E+02  0.51100000000E-03 0. -1.
    9900012    2    1    2    0    0  0.35937323769E+00 -0.40104464573E+02  0.16586925233E+02  0.47787270553E+02  0.19999997760E+02 0.  0.
        -12    1    1    2    0    0 -0.35937323769E+00  0.40104464573E+02 -0.16586925233E+02  0.43400729447E+02  0.00000000000E+00 0.  1.
         11    1    3    3    0    0  0.32049933126E+01 -0.22587444450E+01  0.81127420714E+00  0.40040073304E+01  0.51100000000E-03 0. -1.
        -11    1    3    3    0    0 -0.35109377880E+01 -0.14616134582E+02  0.13891620424E+02  0.20467906404E+02  0.51100000000E-03 0.  1.
         12    1    3    3    0    0  0.66531771314E+00 -0.23229585546E+02  0.18840306020E+01  0.23315356819E+02  0.00000000000E+00 0. -1.
</event>
<event>
 7    1  0.4519840E-010  0.4778727E+02  0.7816164E-02  0.1312668E+00
        -11   -1    0    0    0    0  0.00000000000E+00  0.00000000000E+00  0.45593999997E+02  0.45594000000E+02  0.51100000000E-03 0.  1.
         11   -1    0    0    0    0 -0.00000000000E+00 -0.00000000000E+00 -0.45593999997E+02  0.45594000000E+02  0.51100000000E-03 0. -1.
    9900012    2    1    2    0    0  0.13718213366E+02  0.40957516427E+02 -0.42327083473E+01  0.47787270170E+02  0.19999996012E+02 0.  0.
        -12    1    1    2    0    0 -0.13718213366E+02 -0.40957516427E+02  0.42327083473E+01  0.43400729830E+02  0.00000000000E+00 0.  1.
         11    1    3    3    0    0  0.92275884209E+01  0.23734771559E+02 -0.57729826526E+01  0.26111589343E+02  0.51100000000E-03 0.  1.
        -11    1    3    3    0    0  0.44422887463E+01  0.18887205914E+02  0.27785999168E+01  0.19600538113E+02  0.51100000000E-03 0. -1.
        -12    1    3    3    0    0  0.48336198943E-01 -0.16644610464E+01 -0.12383256115E+01  0.20751427139E+01  0.00000000000E+00 0.  1.
</event>
<event>
 7    1  0.4519840E-010  0.4778727E+02  0.7816164E-02  0.1312668E+00
        -11   -1    0    0    0    0  0.00000000000E+00  0.00000000000E+00  0.45593999997E+02  0.45594000000E+02  0.51100000000E-03 0. -1.
         11   -1    0    0    0    0 -0.00000000000E+00 -0.00000000000E+00 -0.45593999997E+02  0.45594000000E+02  0.51100000000E-03 0.  1.
    9900012    2    1    2    0    0  0.19007806521E+01 -0.13853468228E+02  0.41086394039E+02  0.47787270465E+02  0.19999997356E+02 0.  0.
        -12    1    1    2    0    0 -0.19007806521E+01  0.13853468228E+02 -0.41086394039E+02  0.43400729535E+02  0.00000000000E+00 0.  1.
         11    1    3    3    0    0 -0.93096931198E+00 -0.24602479948E+01  0.14126614752E+02  0.14369438704E+02  0.51100000000E-03 0. -1.
        -11    1    3    3    0    0 -0.50044657627E+01 -0.84886244222E+01  0.20863090474E+02  0.23073143837E+02  0.51100000000E-03 0.  1.
        -12    1    3    3    0    0  0.78362157267E+01 -0.29045958112E+01  0.60966888136E+01  0.10344687923E+02  0.00000000000E+00 0.  1.
</event>
<event>
 7    1  0.4519840E-010  0.4778728E+02  0.7816164E-02  0.1312668E+00
        -11   -1    0    0    0    0  0.00000000000E+00  0.00000000000E+00  0.45593999997E+02  0.45594000000E+02  0.51100000000E-03 0. -1.
         11   -1    0    0    0    0 -0.00000000000E+00 -0.00000000000E+00 -0.45593999997E+02  0.45594000000E+02  0.51100000000E-03 0.  1.
    9900012    2    1    2    0    0  0.14140329382E+02 -0.39321572111E+02  0.11725509800E+02  0.47787279633E+02  0.20000039158E+02 0.  0.
        -12    1    1    2    0    0 -0.14140329382E+02  0.39321572111E+02 -0.11725509800E+02  0.43400720367E+02  0.00000000000E+00 0.  1.
         11    1    3    3    0    0  0.27364905847E+01 -0.17883284376E+02  0.74486905873E+01  0.19564846857E+02  0.51100000000E-03 0. -1.
        -11    1    3    3    0    0  0.10011466388E+02 -0.23238432014E+02  0.26852521254E+01  0.25445328863E+02  0.51100000000E-03 0.  1.
        -12    1    3    3    0    0  0.13923724093E+01  0.18001442791E+01  0.15915670877E+01  0.27771039135E+01  0.00000000000E+00 0.  1.
</event>
<event>
 7    1  0.4519840E-010  0.4778727E+02  0.7816164E-02  0.1312668E+00
        -11   -1    0    0    0    0  0.00000000000E+00  0.00000000000E+00  0.45593999997E+02  0.45594000000E+02  0.51100000000E-03 0. -1.
         11   -1    0    0    0    0 -0.00000000000E+00 -0.00000000000E+00 -0.45593999997E+02  0.45594000000E+02  0.51100000000E-03 0.  1.
    9900012    2    1    2    0    0  0.32435740194E+02 -0.10591389891E+02 -0.26821051335E+02  0.47787267558E+02  0.19999984106E+02 0.  0.
         12    1    1    2    0    0 -0.32435740194E+02  0.10591389891E+02  0.26821051335E+02  0.43400732442E+02  0.00000000000E+00 0. -1.
         11    1    3    3    0    0  0.39228438931E+01 -0.56273940579E+01 -0.18303804422E+01  0.70997578069E+01  0.51100000000E-03 0. -1.
        -11    1    3    3    0    0  0.16502994226E+02 -0.44134664722E+01 -0.57977124994E+01  0.18039982683E+02  0.51100000000E-03 0.  1.
         12    1    3    3    0    0  0.12009902075E+02 -0.55052936118E+00 -0.19192958393E+02  0.22647527068E+02  0.00000000000E+00 0. -1.
</event>
<event>
 7    1  0.4519840E-010  0.4778727E+02  0.7816164E-02  0.1312668E+00
        -11   -1    0    0    0    0  0.00000000000E+00  0.00000000000E+00  0.45593999997E+02  0.45594000000E+02  0.51100000000E-03 0.  1.
         11   -1    0    0    0    0 -0.00000000000E+00 -0.00000000000E+00 -0.45593999997E+02  0.45594000000E+02  0.51100000000E-03 0. -1.
    9900012    2    1    2    0    0  0.40338809551E+02  0.19289611928E+01  0.15896010547E+02  0.47787267303E+02  0.19999982943E+02 0.  0.
         12    1    1    2    0    0 -0.40338809551E+02 -0.19289611928E+01 -0.15896010547E+02  0.43400732697E+02  0.00000000000E+00 0. -1.
         11    1    3    3    0    0 -0.51346282821E+00 -0.16204216863E+01 -0.66060358426E+00  0.18236797620E+01  0.51100000000E-03 0. -1.
        -11    1    3    3    0    0  0.40720915454E+02  0.39328228227E+01  0.13796849415E+02  0.43174218057E+02  0.51100000000E-03 0.  1.
        -12    1    3    3    0    0  0.13135692549E+00 -0.38343994351E+00  0.27597647164E+01  0.27893694847E+01  0.00000000000E+00 0.  1.
</event>
<event>
 7    1  0.4519840E-010  0.4778727E+02  0.7816164E-02  0.1312668E+00
        -11   -1    0    0    0    0  0.00000000000E+00  0.00000000000E+00  0.45593999997E+02  0.45594000000E+02  0.51100000000E-03 0. -1.
         11   -1    0    0    0    0 -0.00000000000E+00 -0.00000000000E+00 -0.45593999997E+02  0.45594000000E+02  0.51100000000E-03 0.  1.
    9900012    2    1    2    0    0  0.30206066316E+02  0.10110205699E+02  0.29478814350E+02  0.47787271929E+02  0.20000004035E+02 0.  0.
        -12    1    1    2    0    0 -0.30206066316E+02 -0.10110205699E+02 -0.29478814350E+02  0.43400728071E+02  0.00000000000E+00 0.  1.
         11    1    3    3    0    0  0.51621603662E+01  0.44628288951E+01  0.14491192072E+01  0.69760080370E+01  0.51100000000E-03 0. -1.
        -11    1    3    3    0    0  0.24783458123E+00  0.48303877899E+01  0.50908052544E+01  0.70221340474E+01  0.51100000000E-03 0.  1.
         12    1    3    3    0    0  0.24796071368E+02  0.81698901377E+00  0.22938889889E+02  0.33789129845E+02  0.00000000000E+00 0. -1.
</event>
<event>
 7    1  0.4519840E-010  0.4778727E+02  0.7816164E-02  0.1312668E+00
        -11   -1    0    0    0    0  0.00000000000E+00  0.00000000000E+00  0.45593999997E+02  0.45594000000E+02  0.51100000000E-03 0. -1.
         11   -1    0    0    0    0 -0.00000000000E+00 -0.00000000000E+00 -0.45593999997E+02  0.45594000000E+02  0.51100000000E-03 0.  1.
    9900012    2    1    2    0    0 -0.28171036566E+02 -0.63254406357E+01 -0.32403774810E+02  0.47787272790E+02  0.20000007959E+02 0.  0.
         12    1    1    2    0    0  0.28171036566E+02  0.63254406357E+01  0.32403774810E+02  0.43400727210E+02  0.00000000000E+00 0. -1.
         11    1    3    3    0    0 -0.53163449268E+01 -0.12912375502E+01 -0.11193168023E+01  0.55842356824E+01  0.51100000000E-03 0.  1.
        -11    1    3    3    0    0 -0.90605867157E+01  0.16980350311E+01 -0.24510840380E+01  0.95386250488E+01  0.51100000000E-03 0. -1.
        -12    1    3    3    0    0 -0.13794104923E+02 -0.67322381166E+01 -0.28833373969E+02  0.32664412059E+02  0.00000000000E+00 0.  1.
</event>
<event>
 7    1  0.4519840E-010  0.4778728E+02  0.7816164E-02  0.1312668E+00
        -11   -1    0    0    0    0  0.00000000000E+00  0.00000000000E+00  0.45593999997E+02  0.45594000000E+02  0.51100000000E-03 0. -1.
         11   -1    0    0    0    0 -0.00000000000E+00 -0.00000000000E+00 -0.45593999997E+02  0.45594000000E+02  0.51100000000E-03 0.  1.
    9900012    2    1    2    0    0  0.36822722480E+02 -0.14050302754E+01  0.22928918961E+02  0.47787281969E+02  0.20000049808E+02 0.  0.
        -12    1    1    2    0    0 -0.36822722480E+02  0.14050302754E+01 -0.22928918961E+02  0.43400718031E+02  0.00000000000E+00 0.  1.
         11    1    3    3    0    0  0.24344365206E+02  0.20145631852E+01  0.14682013445E+02  0.28500317563E+02  0.51100000000E-03 0. -1.
        -11    1    3    3    0    0  0.69977564276E+01  0.35634849304E+01  0.11809784565E+01  0.79411416210E+01  0.51100000000E-03 0.  1.
        -12    1    3    3    0    0  0.54806008461E+01 -0.69830783910E+01  0.70659270595E+01  0.11345822785E+02  0.00000000000E+00 0.  1.
</event>
<event>
 7    1  0.4519840E-010  0.4778727E+02  0.7816164E-02  0.1312668E+00
        -11   -1    0    0    0    0  0.00000000000E+00  0.00000000000E+00  0.45593999997E+02  0.45594000000E+02  0.51100000000E-03 0.  1.
         11   -1    0    0    0    0 -0.00000000000E+00 -0.00000000000E+00 -0.45593999997E+02  0.45594000000E+02  0.51100000000E-03 0. -1.
    9900012    2    1    2    0    0  0.21184742802E+02  0.34789053017E+02 -0.14985047349E+02  0.47787272109E+02  0.20000004855E+02 0.  0.
         12    1    1    2    0    0 -0.21184742802E+02 -0.34789053017E+02  0.14985047349E+02  0.43400727891E+02  0.00000000000E+00 0. -1.
         11    1    3    3    0    0  0.58018932879E+01  0.15996476910E+02 -0.77943311888E+01  0.18716325446E+02  0.51100000000E-03 0. -1.
        -11    1    3    3    0    0 -0.13635948212E+01  0.80529092802E+01 -0.32482054553E+01  0.87897427523E+01  0.51100000000E-03 0.  1.
         12    1    3    3    0    0  0.16746444336E+02  0.10739666827E+02 -0.39425107045E+01  0.20281203911E+02  0.00000000000E+00 0. -1.
</event>
<event>
 7    1  0.4519840E-010  0.4778727E+02  0.7816164E-02  0.1312668E+00
        -11   -1    0    0    0    0  0.00000000000E+00  0.00000000000E+00  0.45593999997E+02  0.45594000000E+02  0.51100000000E-03 0. -1.
         11   -1    0    0    0    0 -0.00000000000E+00 -0.00000000000E+00 -0.45593999997E+02  0.45594000000E+02  0.51100000000E-03 0.  1.
    9900012    2    1    2    0    0  0.40081338789E+02  0.11304967122E+02  0.12219127792E+02  0.47787273223E+02  0.20000009933E+02 0.  0.
        -12    1    1    2    0    0 -0.40081338789E+02 -0.11304967122E+02 -0.12219127792E+02  0.43400726777E+02  0.00000000000E+00 0.  1.
         11    1    3    3    0    0  0.46165847601E+01  0.11236719548E+01  0.41847453361E+01  0.63314759178E+01  0.51100000000E-03 0. -1.
        -11    1    3    3    0    0  0.37361898215E+02  0.10338724492E+02  0.76822403931E+01  0.39519836539E+02  0.51100000000E-03 0.  1.
        -12    1    3    3    0    0 -0.18971441860E+01 -0.15742932504E+00  0.35214206322E+00  0.19359607661E+01  0.00000000000E+00 0.  1.
</event>
<event>
 7    1  0.4519840E-010  0.4778727E+02  0.7816164E-02  0.1312668E+00
        -11   -1    0    0    0    0  0.00000000000E+00  0.00000000000E+00  0.45593999997E+02  0.45594000000E+02  0.51100000000E-03 0. -1.
         11   -1    0    0    0    0 -0.00000000000E+00 -0.00000000000E+00 -0.45593999997E+02  0.45594000000E+02  0.51100000000E-03 0.  1.
    9900012    2    1    2    0    0  0.16498428065E+02  0.14277926719E+02 -0.37517542786E+02  0.47787270320E+02  0.19999996698E+02 0.  0.
         12    1    1    2    0    0 -0.16498428065E+02 -0.14277926719E+02  0.37517542786E+02  0.43400729680E+02  0.00000000000E+00 0. -1.
         11    1    3    3    0    0  0.15663587115E+02  0.43480626452E+01 -0.27637296976E+02  0.32063589857E+02  0.51100000000E-03 0. -1.
        -11    1    3    3    0    0  0.24135424267E+01  0.70817924044E+01 -0.99712427111E+01  0.12466060010E+02  0.51100000000E-03 0.  1.
        -12    1    3    3    0    0 -0.15787014764E+01  0.28480716692E+01  0.90996900884E-01  0.32576204537E+01  0.00000000000E+00 0.  1.
</event>
<event>
 7    1  0.5855196E-010  0.4778727E+02  0.7816164E-02  0.1312668E+00
        -11   -1    0    0    0    0  0.00000000000E+00  0.00000000000E+00  0.45593999997E+02  0.45594000000E+02  0.51100000000E-03 0. -1.
         11   -1    0    0    0    0 -0.00000000000E+00 -0.00000000000E+00 -0.45593999997E+02  0.45594000000E+02  0.51100000000E-03 0.  1.
    9900012    2    1    2    0    0 -0.15042600350E+02 -0.18031202166E+02 -0.36499580236E+02  0.47787269197E+02  0.19999991577E+02 0.  0.
         12    1    1    2    0    0  0.15042600350E+02  0.18031202166E+02  0.36499580236E+02  0.43400730803E+02  0.00000000000E+00 0. -1.
         11    1    3    3    0    0 -0.92707567640E+00 -0.99222850199E+01 -0.77291439186E+01  0.12611537389E+02  0.51100000000E-03 0. -1.
        -11    1    3    3    0    0 -0.48884456909E+01  0.52612647720E+00 -0.15341999300E+01  0.51504834753E+01  0.51100000000E-03 0.  1.
        -12    1    3    3    0    0 -0.92270789824E+01 -0.86350436231E+01 -0.27236236387E+02  0.30025248333E+02  0.00000000000E+00 0.  1.
</event>
<event>
 7    1  0.4519840E-010  0.4778728E+02  0.7816164E-02  0.1312668E+00
        -11   -1    0    0    0    0  0.00000000000E+00  0.00000000000E+00  0.45593999997E+02  0.45594000000E+02  0.51100000000E-03 0. -1.
         11   -1    0    0    0    0 -0.00000000000E+00 -0.00000000000E+00 -0.45593999997E+02  0.45594000000E+02  0.51100000000E-03 0.  1.
    9900012    2    1    2    0    0 -0.50635061792E+01  0.28732194329E+02  0.32131678388E+02  0.47787276022E+02  0.20000022694E+02 0.  0.
        -12    1    1    2    0    0  0.50635061792E+01 -0.28732194329E+02 -0.32131678388E+02  0.43400723978E+02  0.00000000000E+00 0.  1.
         11    1    3    3    0    0  0.67857985521E+00 -0.36806480375E+00  0.50761786461E+00  0.92391475648E+00  0.51100000000E-03 0. -1.
        -11    1    3    3    0    0  0.60223324031E+01  0.11704834209E+02  0.15823936501E+02  0.20583211559E+02  0.51100000000E-03 0.  1.
         12    1    3    3    0    0 -0.11764418437E+02  0.17395424924E+02  0.15800124022E+02  0.26280149706E+02  0.00000000000E+00 0. -1.
</event>
<event>
 7    1  0.4519840E-010  0.4778727E+02  0.7816164E-02  0.1312668E+00
        -11   -1    0    0    0    0  0.00000000000E+00  0.00000000000E+00  0.45593999997E+02  0.45594000000E+02  0.51100000000E-03 0. -1.
         11   -1    0    0    0    0 -0.00000000000E+00 -0.00000000000E+00 -0.45593999997E+02  0.45594000000E+02  0.51100000000E-03 0.  1.
    9900012    2    1    2    0    0 -0.16189981539E+01  0.27704137329E+02 -0.33368893293E+02  0.47787269363E+02  0.19999992335E+02 0.  0.
         12    1    1    2    0    0  0.16189981539E+01 -0.27704137329E+02  0.33368893293E+02  0.43400730637E+02  0.00000000000E+00 0. -1.
         11    1    3    3    0    0 -0.10828287131E+01  0.92662773788E+01 -0.17790664632E+02  0.20088408667E+02  0.51100000000E-03 0. -1.
        -11    1    3    3    0    0 -0.41169594617E+01  0.11864976411E+02 -0.15833454908E+02  0.20209535251E+02  0.51100000000E-03 0.  1.
         12    1    3    3    0    0  0.35807900209E+01  0.65728835390E+01  0.25522624663E+00  0.74893254455E+01  0.00000000000E+00 0. -1.
</event>
<event>
 7    1  0.4519840E-010  0.4778728E+02  0.7816164E-02  0.1312668E+00
        -11   -1    0    0    0    0  0.00000000000E+00  0.00000000000E+00  0.45593999997E+02  0.45594000000E+02  0.51100000000E-03 0. -1.
         11   -1    0    0    0    0 -0.00000000000E+00 -0.00000000000E+00 -0.45593999997E+02  0.45594000000E+02  0.51100000000E-03 0.  1.
    9900012    2    1    2    0    0 -0.29112951080E+02 -0.82068182839E+01 -0.31124058934E+02  0.47787276142E+02  0.20000023242E+02 0.  0.
         12    1    1    2    0    0  0.29112951080E+02  0.82068182839E+01  0.31124058934E+02  0.43400723858E+02  0.00000000000E+00 0. -1.
         11    1    3    3    0    0 -0.12795719490E+02 -0.56855098262E+01 -0.20928449921E+02  0.25180458209E+02  0.51100000000E-03 0.  1.
        -11    1    3    3    0    0  0.28271545059E+00  0.37779944963E+00 -0.49293561163E+01  0.49518897840E+01  0.51100000000E-03 0. -1.
        -12    1    3    3    0    0 -0.16599947040E+02 -0.28991079074E+01 -0.52662528966E+01  0.17654928149E+02  0.00000000000E+00 0.  1.
</event>
<event>
 7    1  0.4519840E-010  0.4778728E+02  0.7816164E-02  0.1312668E+00
        -11   -1    0    0    0    0  0.00000000000E+00  0.00000000000E+00  0.45593999997E+02  0.45594000000E+02  0.51100000000E-03 0. -1.
         11   -1    0    0    0    0 -0.00000000000E+00 -0.00000000000E+00 -0.45593999997E+02  0.45594000000E+02  0.51100000000E-03 0.  1.
    9900012    2    1    2    0    0 -0.15771865097E+02 -0.35273692686E+02 -0.19764555014E+02  0.47787276973E+02  0.20000027031E+02 0.  0.
         12    1    1    2    0    0  0.15771865097E+02  0.35273692686E+02  0.19764555014E+02  0.43400723027E+02  0.00000000000E+00 0. -1.
         11    1    3    3    0    0 -0.62557355292E+00 -0.63717191685E+01  0.47555070938E-01  0.64025314664E+01  0.51100000000E-03 0. -1.
        -11    1    3    3    0    0 -0.10106924202E+02 -0.10545762416E+02 -0.10301253453E+01  0.14643229843E+02  0.51100000000E-03 0.  1.
        -12    1    3    3    0    0 -0.50393673425E+01 -0.18356211102E+02 -0.18781984740E+02  0.26741515663E+02  0.00000000000E+00 0.  1.
</event>
<event>
 7    1  0.4519840E-010  0.4778727E+02  0.7816164E-02  0.1312668E+00
        -11   -1    0    0    0    0  0.00000000000E+00  0.00000000000E+00  0.45593999997E+02  0.45594000000E+02  0.51100000000E-03 0. -1.
         11   -1    0    0    0    0 -0.00000000000E+00 -0.00000000000E+00 -0.45593999997E+02  0.45594000000E+02  0.51100000000E-03 0.  1.
    9900012    2    1    2    0    0  0.24078973691E+02  0.34986375501E+02 -0.89319432383E+01  0.47787273569E+02  0.20000011511E+02 0.  0.
         12    1    1    2    0    0 -0.24078973691E+02 -0.34986375501E+02  0.89319432383E+01  0.43400726431E+02  0.00000000000E+00 0. -1.
         11    1    3    3    0    0  0.13626929297E+02  0.12054941094E+02 -0.11937380569E+02  0.21760419618E+02  0.51100000000E-03 0. -1.
        -11    1    3    3    0    0  0.10560099718E+02  0.20156277793E+02  0.13530795073E+01  0.22795220221E+02  0.51100000000E-03 0.  1.
         12    1    3    3    0    0 -0.10805532342E+00  0.27751566141E+01  0.16523578239E+01  0.32316337298E+01  0.00000000000E+00 0. -1.
</event>
<event>
 7    1  0.4519840E-010  0.4778727E+02  0.7816164E-02  0.1312668E+00
        -11   -1    0    0    0    0  0.00000000000E+00  0.00000000000E+00  0.45593999997E+02  0.45594000000E+02  0.51100000000E-03 0.  1.
         11   -1    0    0    0    0 -0.00000000000E+00 -0.00000000000E+00 -0.45593999997E+02  0.45594000000E+02  0.51100000000E-03 0. -1.
    9900012    2    1    2    0    0  0.22721636841E+02  0.27946274032E+02  0.24214802860E+02  0.47787266244E+02  0.19999978112E+02 0.  0.
        -12    1    1    2    0    0 -0.22721636841E+02 -0.27946274032E+02 -0.24214802860E+02  0.43400733756E+02  0.00000000000E+00 0.  1.
         11    1    3    3    0    0 -0.18694144927E+01  0.32875355273E+00  0.31765725725E+01  0.37004598381E+01  0.51100000000E-03 0. -1.
        -11    1    3    3    0    0 -0.82070952140E-01  0.46266940309E+01  0.47622899891E+01  0.66402138142E+01  0.51100000000E-03 0.  1.
         12    1    3    3    0    0  0.24673122286E+02  0.22990826448E+02  0.16275940299E+02  0.37446592592E+02  0.00000000000E+00 0. -1.
</event>
<event>
 7    1  0.4519840E-010  0.4778727E+02  0.7816164E-02  0.1312668E+00
        -11   -1    0    0    0    0  0.00000000000E+00  0.00000000000E+00  0.45593999997E+02  0.45594000000E+02  0.51100000000E-03 0. -1.
         11   -1    0    0    0    0 -0.00000000000E+00 -0.00000000000E+00 -0.45593999997E+02  0.45594000000E+02  0.51100000000E-03 0.  1.
    9900012    2    1    2    0    0 -0.98774543486E+01 -0.35400688683E+02  0.23083562776E+02  0.47787265743E+02  0.19999975827E+02 0.  0.
        -12    1    1    2    0    0  0.98774543486E+01  0.35400688683E+02 -0.23083562776E+02  0.43400734257E+02  0.00000000000E+00 0.  1.
         11    1    3    3    0    0 -0.51477559814E+01 -0.90266057273E-01 -0.95151872445E-02  0.51485561476E+01  0.51100000000E-03 0. -1.
        -11    1    3    3    0    0 -0.68630549831E-01 -0.26886710432E+01  0.64393816884E+00  0.27655593932E+01  0.51100000000E-03 0.  1.
         12    1    3    3    0    0 -0.46610678173E+01 -0.32621751582E+02  0.22449139795E+02  0.39873150202E+02  0.00000000000E+00 0. -1.
</event>
<event>
 7    1  0.4519840E-010  0.4778727E+02  0.7816164E-02  0.1312668E+00
        -11   -1    0    0    0    0  0.00000000000E+00  0.00000000000E+00  0.45593999997E+02  0.45594000000E+02  0.51100000000E-03 0. -1.
         11   -1    0    0    0    0 -0.00000000000E+00 -0.00000000000E+00 -0.45593999997E+02  0.45594000000E+02  0.51100000000E-03 0.  1.
    9900012    2    1    2    0    0  0.20373924627E+01 -0.10274807481E+02  0.42117700552E+02  0.47787270321E+02  0.19999996704E+02 0.  0.
        -12    1    1    2    0    0 -0.20373924627E+01  0.10274807481E+02 -0.42117700552E+02  0.43400729679E+02  0.00000000000E+00 0.  1.
         11    1    3    3    0    0  0.45748950083E+01  0.19037938255E+01  0.13002892261E+02  0.13915074656E+02  0.51100000000E-03 0. -1.
        -11    1    3    3    0    0 -0.25404159229E+01 -0.98499057792E+00  0.48619334549E-01  0.27251208415E+01  0.51100000000E-03 0.  1.
         12    1    3    3    0    0  0.29133772122E-02 -0.11193610728E+02  0.29066188957E+02  0.31147074824E+02  0.00000000000E+00 0. -1.
</event>
<event>
 7    1  0.4519840E-010  0.4778726E+02  0.7816164E-02  0.1312668E+00
        -11   -1    0    0    0    0  0.00000000000E+00  0.00000000000E+00  0.45593999997E+02  0.45594000000E+02  0.51100000000E-03 0. -1.
         11   -1    0    0    0    0 -0.00000000000E+00 -0.00000000000E+00 -0.45593999997E+02  0.45594000000E+02  0.51100000000E-03 0.  1.
    9900012    2    1    2    0    0 -0.14523496997E+02 -0.25272399718E+02  0.32155846000E+02  0.47787255946E+02  0.19999931158E+02 0.  0.
        -12    1    1    2    0    0  0.14523496997E+02  0.25272399718E+02 -0.32155846000E+02  0.43400744054E+02  0.00000000000E+00 0.  1.
         11    1    3    3    0    0  0.53881089488E+00 -0.11547997976E+02  0.94806116402E+01  0.14950871940E+02  0.51100000000E-03 0. -1.
        -11    1    3    3    0    0 -0.94250610175E+01 -0.13086348182E+02  0.21767870397E+02  0.27091040324E+02  0.51100000000E-03 0.  1.
        -12    1    3    3    0    0 -0.56372468740E+01 -0.63805355991E+00  0.90736396245E+00  0.57453436820E+01  0.00000000000E+00 0.  1.
</event>
<event>
 7    1  0.4519840E-010  0.4778727E+02  0.7816164E-02  0.1312668E+00
        -11   -1    0    0    0    0  0.00000000000E+00  0.00000000000E+00  0.45593999997E+02  0.45594000000E+02  0.51100000000E-03 0. -1.
         11   -1    0    0    0    0 -0.00000000000E+00 -0.00000000000E+00 -0.45593999997E+02  0.45594000000E+02  0.51100000000E-03 0.  1.
    9900012    2    1    2    0    0  0.27967942631E+02 -0.18191729923E+01  0.33137714907E+02  0.47787270114E+02  0.19999995757E+02 0.  0.
        -12    1    1    2    0    0 -0.27967942631E+02  0.18191729923E+01 -0.33137714907E+02  0.43400729886E+02  0.00000000000E+00 0.  1.
         11    1    3    3    0    0  0.18033281563E+02 -0.14340084810E+01  0.13199937746E+02  0.22394061289E+02  0.51100000000E-03 0. -1.
        -11    1    3    3    0    0  0.11180516140E+02 -0.61417333007E+00  0.89555448854E+01  0.14338163568E+02  0.51100000000E-03 0.  1.
        -12    1    3    3    0    0 -0.12458550713E+01  0.22900881871E+00  0.10982232275E+02  0.11055045257E+02  0.00000000000E+00 0.  1.
</event>
<event>
 7    1  0.4519840E-010  0.4778727E+02  0.7816164E-02  0.1312668E+00
        -11   -1    0    0    0    0  0.00000000000E+00  0.00000000000E+00  0.45593999997E+02  0.45594000000E+02  0.51100000000E-03 0. -1.
         11   -1    0    0    0    0 -0.00000000000E+00 -0.00000000000E+00 -0.45593999997E+02  0.45594000000E+02  0.51100000000E-03 0.  1.
    9900012    2    1    2    0    0  0.25880056459E+02  0.66956737508E+01  0.34190851102E+02  0.47787266500E+02  0.19999979278E+02 0.  0.
        -12    1    1    2    0    0 -0.25880056459E+02 -0.66956737508E+01 -0.34190851102E+02  0.43400733500E+02  0.00000000000E+00 0.  1.
         11    1    3    3    0    0  0.22192303631E+02  0.75810958271E+01  0.22580446665E+02  0.32555305654E+02  0.51100000000E-03 0. -1.
        -11    1    3    3    0    0  0.37240300149E+01  0.14566901838E+01  0.12181419913E+02  0.12820972553E+02  0.51100000000E-03 0.  1.
        -12    1    3    3    0    0 -0.36277186757E-01 -0.23421122601E+01 -0.57101547615E+00  0.24109882926E+01  0.00000000000E+00 0.  1.
</event>
<event>
 7    1  0.4519840E-010  0.4778729E+02  0.7816164E-02  0.1312668E+00
        -11   -1    0    0    0    0  0.00000000000E+00  0.00000000000E+00  0.45593999997E+02  0.45594000000E+02  0.51100000000E-03 0. -1.
         11   -1    0    0    0    0 -0.00000000000E+00 -0.00000000000E+00 -0.45593999997E+02  0.45594000000E+02  0.51100000000E-03 0.  1.
    9900012    2    1    2    0    0 -0.25641671663E+02 -0.93365772274E+01 -0.33748402547E+02  0.47787289470E+02  0.20000084009E+02 0.  0.
         12    1    1    2    0    0  0.25641671663E+02  0.93365772274E+01  0.33748402547E+02  0.43400710530E+02  0.00000000000E+00 0. -1.
         11    1    3    3    0    0 -0.21073853951E+01  0.32213997145E+00 -0.84916300452E+01  0.87551486823E+01  0.51100000000E-03 0. -1.
        -11    1    3    3    0    0 -0.18978704969E+02 -0.28899185645E+01 -0.24068634864E+02  0.30787043640E+02  0.51100000000E-03 0.  1.
         12    1    3    3    0    0 -0.45555812992E+01 -0.67687986343E+01 -0.11881376383E+01  0.82450971476E+01  0.00000000000E+00 0. -1.
</event>
<event>
 7    1  0.4519840E-010  0.4778727E+02  0.7816164E-02  0.1312668E+00
        -11   -1    0    0    0    0  0.00000000000E+00  0.00000000000E+00  0.45593999997E+02  0.45594000000E+02  0.51100000000E-03 0. -1.
         11   -1    0    0    0    0 -0.00000000000E+00 -0.00000000000E+00 -0.45593999997E+02  0.45594000000E+02  0.51100000000E-03 0.  1.
    9900012    2    1    2    0    0 -0.24100119021E+02 -0.28754983124E+02  0.21816477873E+02  0.47787268462E+02  0.19999988223E+02 0.  0.
        -12    1    1    2    0    0  0.24100119021E+02  0.28754983124E+02 -0.21816477873E+02  0.43400731538E+02  0.00000000000E+00 0.  1.
         11    1    3    3    0    0 -0.14987584791E+02 -0.11988538663E+02  0.91545030725E+01  0.21263999716E+02  0.51100000000E-03 0. -1.
        -11    1    3    3    0    0 -0.11928914505E+02 -0.89573589913E+01  0.70252912775E+01  0.16489026629E+02  0.51100000000E-03 0.  1.
        -12    1    3    3    0    0  0.28163802750E+01 -0.78090854695E+01  0.56366835231E+01  0.10034242117E+02  0.00000000000E+00 0.  1.
</event>
<event>
 7    1  0.4519840E-010  0.4778726E+02  0.7816164E-02  0.1312668E+00
        -11   -1    0    0    0    0  0.00000000000E+00  0.00000000000E+00  0.45593999997E+02  0.45594000000E+02  0.51100000000E-03 0. -1.
         11   -1    0    0    0    0 -0.00000000000E+00 -0.00000000000E+00 -0.45593999997E+02  0.45594000000E+02  0.51100000000E-03 0.  1.
    9900012    2    1    2    0    0  0.29683100604E+02  0.30284978853E+02 -0.92389365889E+01  0.47787258591E+02  0.19999943220E+02 0.  0.
         12    1    1    2    0    0 -0.29683100604E+02 -0.30284978853E+02  0.92389365889E+01  0.43400741409E+02  0.00000000000E+00 0. -1.
         11    1    3    3    0    0  0.65581061603E-01 -0.93521299810E-01  0.10605834862E+01  0.10667167860E+01  0.51100000000E-03 0. -1.
        -11    1    3    3    0    0  0.73779182066E+01  0.41807187960E+00  0.15912042339E+01  0.75591264267E+01  0.51100000000E-03 0.  1.
        -12    1    3    3    0    0  0.22239601335E+02  0.29960428273E+02 -0.11890724309E+02  0.39161415378E+02  0.00000000000E+00 0.  1.
</event>
<event>
 7    1  0.4519840E-010  0.4778733E+02  0.7816164E-02  0.1312668E+00
        -11   -1    0    0    0    0  0.00000000000E+00  0.00000000000E+00  0.45593999997E+02  0.45594000000E+02  0.51100000000E-03 0. -1.
         11   -1    0    0    0    0 -0.00000000000E+00 -0.00000000000E+00 -0.45593999997E+02  0.45594000000E+02  0.51100000000E-03 0.  1.
    9900012    2    1    2    0    0 -0.28779991902E+02  0.15589657773E+02  0.28500758102E+02  0.47787325170E+02  0.20000246777E+02 0.  0.
        -12    1    1    2    0    0  0.28779991902E+02 -0.15589657773E+02 -0.28500758102E+02  0.43400674830E+02  0.00000000000E+00 0.  1.
         11    1    3    3    0    0 -0.36764421409E+01 -0.32678206428E+01  0.33964739605E+01  0.59775341232E+01  0.51100000000E-03 0. -1.
        -11    1    3    3    0    0 -0.49118259202E+01  0.23630176190E+01  0.10735804513E+02  0.12040240236E+02  0.51100000000E-03 0.  1.
        -12    1    3    3    0    0 -0.20191723841E+02  0.16494460796E+02  0.14368479629E+02  0.29769550811E+02  0.00000000000E+00 0.  1.
</event>
<event>
 7    1  0.4519840E-010  0.4778727E+02  0.7816164E-02  0.1312668E+00
        -11   -1    0    0    0    0  0.00000000000E+00  0.00000000000E+00  0.45593999997E+02  0.45594000000E+02  0.51100000000E-03 0. -1.
         11   -1    0    0    0    0 -0.00000000000E+00 -0.00000000000E+00 -0.45593999997E+02  0.45594000000E+02  0.51100000000E-03 0.  1.
    9900012    2    1    2    0    0 -0.94968846898E+01  0.37928253893E+01 -0.42178752554E+02  0.47787268321E+02  0.19999987582E+02 0.  0.
         12    1    1    2    0    0  0.94968846898E+01 -0.37928253893E+01  0.42178752554E+02  0.43400731679E+02  0.00000000000E+00 0. -1.
         11    1    3    3    0    0  0.45524194779E+00 -0.31518491241E+00 -0.97872505747E-01  0.56228644705E+00  0.51100000000E-03 0. -1.
        -11    1    3    3    0    0  0.26353162822E+01 -0.93019081263E-01 -0.27035028225E+02  0.27163326303E+02  0.51100000000E-03 0.  1.
         12    1    3    3    0    0 -0.12587442920E+02  0.42010293829E+01 -0.15045851823E+02  0.20061655570E+02  0.00000000000E+00 0. -1.
</event>
<event>
 7    1  0.4519840E-010  0.4778727E+02  0.7816164E-02  0.1312668E+00
        -11   -1    0    0    0    0  0.00000000000E+00  0.00000000000E+00  0.45593999997E+02  0.45594000000E+02  0.51100000000E-03 0. -1.
         11   -1    0    0    0    0 -0.00000000000E+00 -0.00000000000E+00 -0.45593999997E+02  0.45594000000E+02  0.51100000000E-03 0.  1.
    9900012    2    1    2    0    0  0.27783922542E+02 -0.21848109026E+02 -0.25186047045E+02  0.47787272061E+02  0.20000004637E+02 0.  0.
         12    1    1    2    0    0 -0.27783922542E+02  0.21848109026E+02  0.25186047045E+02  0.43400727939E+02  0.00000000000E+00 0. -1.
         11    1    3    3    0    0  0.14239630807E+02 -0.10958325228E+02 -0.19404635183E+02  0.26446017548E+02  0.51100000000E-03 0. -1.
        -11    1    3    3    0    0 -0.51252808568E+00 -0.12548521820E+01 -0.39799136559E+01  0.42044086394E+01  0.51100000000E-03 0.  1.
         12    1    3    3    0    0  0.14056819821E+02 -0.96349316167E+01 -0.18014982064E+01  0.17136845874E+02  0.00000000000E+00 0. -1.
</event>
<event>
 7    1  0.4519840E-010  0.4778727E+02  0.7816164E-02  0.1312668E+00
        -11   -1    0    0    0    0  0.00000000000E+00  0.00000000000E+00  0.45593999997E+02  0.45594000000E+02  0.51100000000E-03 0. -1.
         11   -1    0    0    0    0 -0.00000000000E+00 -0.00000000000E+00 -0.45593999997E+02  0.45594000000E+02  0.51100000000E-03 0.  1.
    9900012    2    1    2    0    0  0.58062754898E+01 -0.38552283455E+01  0.42837455123E+02  0.47787272102E+02  0.20000004822E+02 0.  0.
        -12    1    1    2    0    0 -0.58062754898E+01  0.38552283455E+01 -0.42837455123E+02  0.43400727898E+02  0.00000000000E+00 0.  1.
         11    1    3    3    0    0 -0.32098880060E+01  0.41483348802E+01  0.13719200098E+02  0.14687699441E+02  0.51100000000E-03 0. -1.
        -11    1    3    3    0    0  0.10900071177E+01  0.30198129684E+00 -0.57160481860E+00  0.12672965517E+01  0.51100000000E-03 0.  1.
        -12    1    3    3    0    0  0.79261563782E+01 -0.83055445226E+01  0.29689859844E+02  0.31832276109E+02  0.00000000000E+00 0.  1.
</event>
<event>
 7    1  0.4519840E-010  0.4778727E+02  0.7816164E-02  0.1312668E+00
        -11   -1    0    0    0    0  0.00000000000E+00  0.00000000000E+00  0.45593999997E+02  0.45594000000E+02  0.51100000000E-03 0.  1.
         11   -1    0    0    0    0 -0.00000000000E+00 -0.00000000000E+00 -0.45593999997E+02  0.45594000000E+02  0.51100000000E-03 0. -1.
    9900012    2    1    2    0    0  0.31851872425E+02  0.29011589851E+02  0.52353505941E+01  0.47787273986E+02  0.20000013413E+02 0.  0.
        -12    1    1    2    0    0 -0.31851872425E+02 -0.29011589851E+02 -0.52353505941E+01  0.43400726014E+02  0.00000000000E+00 0.  1.
         11    1    3    3    0    0  0.12832541895E+02  0.31495629990E+01 -0.56994643597E+00  0.13225684019E+02  0.51100000000E-03 0. -1.
        -11    1    3    3    0    0  0.25045769809E+01  0.34154256291E+01  0.51749347955E+01  0.66871509988E+01  0.51100000000E-03 0.  1.
         12    1    3    3    0    0  0.16514753550E+02  0.22446601223E+02  0.63036223455E+00  0.27874438969E+02  0.00000000000E+00 0. -1.
</event>
<event>
 7    1  0.4519840E-010  0.4778727E+02  0.7816164E-02  0.1312668E+00
        -11   -1    0    0    0    0  0.00000000000E+00  0.00000000000E+00  0.45593999997E+02  0.45594000000E+02  0.51100000000E-03 0. -1.
         11   -1    0    0    0    0 -0.00000000000E+00 -0.00000000000E+00 -0.45593999997E+02  0.45594000000E+02  0.51100000000E-03 0.  1.
    9900012    2    1    2    0    0 -0.23110205911E+01  0.13681508391E+02  0.41122972778E+02  0.47787269843E+02  0.19999994522E+02 0.  0.
        -12    1    1    2    0    0  0.23110205911E+01 -0.13681508391E+02 -0.41122972778E+02  0.43400730157E+02  0.00000000000E+00 0.  1.
         11    1    3    3    0    0 -0.77827043135E+00  0.89072457589E-01  0.30545590703E+00  0.84079863182E+00  0.51100000000E-03 0. -1.
        -11    1    3    3    0    0  0.55331851075E+01 -0.18802140231E+01  0.72217241509E+01  0.92900291808E+01  0.51100000000E-03 0.  1.
         12    1    3    3    0    0 -0.70659352673E+01  0.15472649956E+02  0.33595792721E+02  0.37656442030E+02  0.00000000000E+00 0. -1.
</event>
<event>
 7    1  0.4519840E-010  0.4778726E+02  0.7816164E-02  0.1312668E+00
        -11   -1    0    0    0    0  0.00000000000E+00  0.00000000000E+00  0.45593999997E+02  0.45594000000E+02  0.51100000000E-03 0. -1.
         11   -1    0    0    0    0 -0.00000000000E+00 -0.00000000000E+00 -0.45593999997E+02  0.45594000000E+02  0.51100000000E-03 0.  1.
    9900012    2    1    2    0    0  0.12169861658E+02  0.28493142154E+02 -0.30391763943E+02  0.47787262700E+02  0.19999961954E+02 0.  0.
         12    1    1    2    0    0 -0.12169861658E+02 -0.28493142154E+02  0.30391763943E+02  0.43400737300E+02  0.00000000000E+00 0. -1.
         11    1    3    3    0    0  0.79625093317E+01  0.35893344355E+01 -0.35471654913E+01  0.94269432920E+01  0.51100000000E-03 0. -1.
        -11    1    3    3    0    0 -0.21592218622E+00  0.49706370178E+01 -0.12367287511E+02  0.13330553455E+02  0.51100000000E-03 0.  1.
         12    1    3    3    0    0  0.44232745129E+01  0.19933170701E+02 -0.14477310940E+02  0.25029765953E+02  0.00000000000E+00 0. -1.
</event>
<event>
 7    1  0.4519840E-010  0.4778727E+02  0.7816164E-02  0.1312668E+00
        -11   -1    0    0    0    0  0.00000000000E+00  0.00000000000E+00  0.45593999997E+02  0.45594000000E+02  0.51100000000E-03 0. -1.
         11   -1    0    0    0    0 -0.00000000000E+00 -0.00000000000E+00 -0.45593999997E+02  0.45594000000E+02  0.51100000000E-03 0.  1.
    9900012    2    1    2    0    0  0.12692816747E+02  0.39161405688E+02 -0.13744078124E+02  0.47787274477E+02  0.20000015649E+02 0.  0.
         12    1    1    2    0    0 -0.12692816747E+02 -0.39161405688E+02  0.13744078124E+02  0.43400725523E+02  0.00000000000E+00 0. -1.
         11    1    3    3    0    0  0.27445960253E+01  0.95177763401E+00 -0.11593770772E+01  0.31277537427E+01  0.51100000000E-03 0. -1.
        -11    1    3    3    0    0 -0.34344129490E+01  0.16595636550E+02 -0.83316827978E+01  0.18884577923E+02  0.51100000000E-03 0.  1.
        -12    1    3    3    0    0  0.13382633671E+02  0.21613991504E+02 -0.42530182491E+01  0.25774942812E+02  0.00000000000E+00 0.  1.
</event>
<event>
 7    1  0.4519840E-010  0.4778727E+02  0.7816164E-02  0.1312668E+00
        -11   -1    0    0    0    0  0.00000000000E+00  0.00000000000E+00  0.45593999997E+02  0.45594000000E+02  0.51100000000E-03 0. -1.
         11   -1    0    0    0    0 -0.00000000000E+00 -0.00000000000E+00 -0.45593999997E+02  0.45594000000E+02  0.51100000000E-03 0.  1.
    9900012    2    1    2    0    0 -0.19345060200E+02  0.24172098900E+02 -0.30415481334E+02  0.47787271617E+02  0.20000002611E+02 0.  0.
         12    1    1    2    0    0  0.19345060200E+02 -0.24172098900E+02  0.30415481334E+02  0.43400728383E+02  0.00000000000E+00 0. -1.
         11    1    3    3    0    0 -0.74448760323E+01  0.11058020859E+02 -0.93799113967E+00  0.13363601015E+02  0.51100000000E-03 0.  1.
        -11    1    3    3    0    0 -0.20113539107E+01  0.29722837750E+01 -0.67085740574E+01  0.76082180265E+01  0.51100000000E-03 0. -1.
        -12    1    3    3    0    0 -0.98888302574E+01  0.10141794267E+02 -0.22768916137E+02  0.26815452576E+02  0.00000000000E+00 0.  1.
</event>
<event>
 7    1  0.4519840E-010  0.4778727E+02  0.7816164E-02  0.1312668E+00
        -11   -1    0    0    0    0  0.00000000000E+00  0.00000000000E+00  0.45593999997E+02  0.45594000000E+02  0.51100000000E-03 0. -1.
         11   -1    0    0    0    0 -0.00000000000E+00 -0.00000000000E+00 -0.45593999997E+02  0.45594000000E+02  0.51100000000E-03 0.  1.
    9900012    2    1    2    0    0 -0.62143015197E+01  0.12231192205E+02 -0.41175278815E+02  0.47787271993E+02  0.20000004323E+02 0.  0.
         12    1    1    2    0    0  0.62143015197E+01 -0.12231192205E+02  0.41175278815E+02  0.43400728007E+02  0.00000000000E+00 0. -1.
         11    1    3    3    0    0 -0.39539159766E+01  0.10130271979E+01 -0.18071293674E+02  0.18526503474E+02  0.51100000000E-03 0. -1.
        -11    1    3    3    0    0  0.32526733465E+01  0.12109695005E+01 -0.14629627708E+02  0.15035702118E+02  0.51100000000E-03 0.  1.
        -12    1    3    3    0    0 -0.55130588897E+01  0.10007195506E+02 -0.84743574324E+01  0.14225066401E+02  0.00000000000E+00 0.  1.
</event>
<event>
 7    1  0.4519840E-010  0.4778727E+02  0.7816164E-02  0.1312668E+00
        -11   -1    0    0    0    0  0.00000000000E+00  0.00000000000E+00  0.45593999997E+02  0.45594000000E+02  0.51100000000E-03 0. -1.
         11   -1    0    0    0    0 -0.00000000000E+00 -0.00000000000E+00 -0.45593999997E+02  0.45594000000E+02  0.51100000000E-03 0.  1.
    9900012    2    1    2    0    0 -0.46253606126E+01  0.11342142034E+02 -0.41636344728E+02  0.47787270178E+02  0.19999996050E+02 0.  0.
         12    1    1    2    0    0  0.46253606126E+01 -0.11342142034E+02  0.41636344728E+02  0.43400729822E+02  0.00000000000E+00 0. -1.
         11    1    3    3    0    0 -0.25172180246E+01  0.72777949756E+01 -0.43256045808E+01  0.88325274718E+01  0.51100000000E-03 0. -1.
        -11    1    3    3    0    0 -0.29450729595E+01  0.43222623428E+01 -0.75699577070E+01  0.92010687664E+01  0.51100000000E-03 0.  1.
        -12    1    3    3    0    0  0.83693037155E+00 -0.25791528398E+00 -0.29740782441E+02  0.29753673940E+02  0.00000000000E+00 0.  1.
</event>
<event>
 7    1  0.4519840E-010  0.4778727E+02  0.7816164E-02  0.1312668E+00
        -11   -1    0    0    0    0  0.00000000000E+00  0.00000000000E+00  0.45593999997E+02  0.45594000000E+02  0.51100000000E-03 0. -1.
         11   -1    0    0    0    0 -0.00000000000E+00 -0.00000000000E+00 -0.45593999997E+02  0.45594000000E+02  0.51100000000E-03 0.  1.
    9900012    2    1    2    0    0  0.77387747658E+01 -0.36289886809E+02  0.22511754023E+02  0.47787267417E+02  0.19999983463E+02 0.  0.
        -12    1    1    2    0    0 -0.77387747658E+01  0.36289886809E+02 -0.22511754023E+02  0.43400732583E+02  0.00000000000E+00 0.  1.
         11    1    3    3    0    0  0.45330398090E+01 -0.21723955992E+02  0.38437138615E+01  0.22522274538E+02  0.51100000000E-03 0. -1.
        -11    1    3    3    0    0  0.22438914893E+01 -0.12300949487E+02  0.93111273412E+01  0.15589916610E+02  0.51100000000E-03 0.  1.
        -12    1    3    3    0    0  0.96184346754E+00 -0.22649813305E+01  0.93569128208E+01  0.96750762694E+01  0.00000000000E+00 0.  1.
</event>
<event>
 7    1  0.4519840E-010  0.4778729E+02  0.7816164E-02  0.1312668E+00
        -11   -1    0    0    0    0  0.00000000000E+00  0.00000000000E+00  0.45593999997E+02  0.45594000000E+02  0.51100000000E-03 0. -1.
         11   -1    0    0    0    0 -0.00000000000E+00 -0.00000000000E+00 -0.45593999997E+02  0.45594000000E+02  0.51100000000E-03 0.  1.
    9900012    2    1    2    0    0 -0.11864877137E+02 -0.19513559722E+02 -0.36906201756E+02  0.47787285138E+02  0.20000064257E+02 0.  0.
         12    1    1    2    0    0  0.11864877137E+02  0.19513559722E+02  0.36906201756E+02  0.43400714862E+02  0.00000000000E+00 0. -1.
         11    1    3    3    0    0  0.32994999957E+00 -0.13971506484E+02 -0.26359580815E+02  0.29835203392E+02  0.51100000000E-03 0. -1.
        -11    1    3    3    0    0 -0.40191843525E+01 -0.36477338680E+01 -0.69584347503E+01  0.88249430404E+01  0.51100000000E-03 0.  1.
        -12    1    3    3    0    0 -0.81756427837E+01 -0.18943193694E+01 -0.35881861908E+01  0.91271387050E+01  0.00000000000E+00 0.  1.
</event>
<event>
 7    1  0.4519840E-010  0.4778727E+02  0.7816164E-02  0.1312668E+00
        -11   -1    0    0    0    0  0.00000000000E+00  0.00000000000E+00  0.45593999997E+02  0.45594000000E+02  0.51100000000E-03 0. -1.
         11   -1    0    0    0    0 -0.00000000000E+00 -0.00000000000E+00 -0.45593999997E+02  0.45594000000E+02  0.51100000000E-03 0.  1.
    9900012    2    1    2    0    0 -0.36395332261E+02  0.17220057470E+02  0.16201016203E+02  0.47787268259E+02  0.19999987301E+02 0.  0.
        -12    1    1    2    0    0  0.36395332261E+02 -0.17220057470E+02 -0.16201016203E+02  0.43400731741E+02  0.00000000000E+00 0.  1.
         11    1    3    3    0    0 -0.20228481314E+01 -0.25351843750E+01 -0.60648438768E+00  0.32995299592E+01  0.51100000000E-03 0. -1.
        -11    1    3    3    0    0 -0.18795137303E+02  0.15943201392E+02  0.67353104434E+01  0.25550093227E+02  0.51100000000E-03 0.  1.
         12    1    3    3    0    0 -0.15577346826E+02  0.38120404534E+01  0.10072190147E+02  0.18937645073E+02  0.00000000000E+00 0. -1.
</event>
<event>
 7    1  0.4519840E-010  0.4778727E+02  0.7816164E-02  0.1312668E+00
        -11   -1    0    0    0    0  0.00000000000E+00  0.00000000000E+00  0.45593999997E+02  0.45594000000E+02  0.51100000000E-03 0. -1.
         11   -1    0    0    0    0 -0.00000000000E+00 -0.00000000000E+00 -0.45593999997E+02  0.45594000000E+02  0.51100000000E-03 0.  1.
    9900012    2    1    2    0    0 -0.22971048930E+02  0.11184437921E+02 -0.35083653069E+02  0.47787268979E+02  0.19999990582E+02 0.  0.
         12    1    1    2    0    0  0.22971048930E+02 -0.11184437921E+02  0.35083653069E+02  0.43400731021E+02  0.00000000000E+00 0. -1.
         11    1    3    3    0    0  0.28278416394E+01  0.36565283008E+01 -0.37943236218E+01  0.59802825652E+01  0.51100000000E-03 0. -1.
        -11    1    3    3    0    0 -0.70806074104E+01  0.17685936946E+01 -0.13514288054E+02  0.15359000841E+02  0.51100000000E-03 0.  1.
        -12    1    3    3    0    0 -0.18718283159E+02  0.57593159255E+01 -0.17775041392E+02  0.26447985573E+02  0.00000000000E+00 0.  1.
</event>
<event>
 7    1  0.4519840E-010  0.4778727E+02  0.7816164E-02  0.1312668E+00
        -11   -1    0    0    0    0  0.00000000000E+00  0.00000000000E+00  0.45593999997E+02  0.45594000000E+02  0.51100000000E-03 0.  1.
         11   -1    0    0    0    0 -0.00000000000E+00 -0.00000000000E+00 -0.45593999997E+02  0.45594000000E+02  0.51100000000E-03 0. -1.
    9900012    2    1    2    0    0 -0.73500658284E+01 -0.21347400503E+02 -0.37065998300E+02  0.47787271828E+02  0.20000003573E+02 0.  0.
         12    1    1    2    0    0  0.73500658284E+01  0.21347400503E+02  0.37065998300E+02  0.43400728172E+02  0.00000000000E+00 0. -1.
         11    1    3    3    0    0  0.15844908164E+01  0.12592524829E+01 -0.46421273485E+01  0.50641558569E+01  0.51100000000E-03 0. -1.
        -11    1    3    3    0    0 -0.84736369416E+01 -0.22499713595E+02 -0.33679935776E+02  0.41380885793E+02  0.51100000000E-03 0.  1.
         12    1    3    3    0    0 -0.46091970317E+00 -0.10693939043E+00  0.12560648251E+01  0.13422301780E+01  0.00000000000E+00 0. -1.
</event>
<event>
 7    1  0.4519840E-010  0.4778727E+02  0.7816164E-02  0.1312668E+00
        -11   -1    0    0    0    0  0.00000000000E+00  0.00000000000E+00  0.45593999997E+02  0.45594000000E+02  0.51100000000E-03 0. -1.
         11   -1    0    0    0    0 -0.00000000000E+00 -0.00000000000E+00 -0.45593999997E+02  0.45594000000E+02  0.51100000000E-03 0.  1.
    9900012    2    1    2    0    0 -0.25877315524E+02 -0.56401656444E+01 -0.34382788708E+02  0.47787273202E+02  0.20000009839E+02 0.  0.
         12    1    1    2    0    0  0.25877315524E+02  0.56401656444E+01  0.34382788708E+02  0.43400726798E+02  0.00000000000E+00 0. -1.
         11    1    3    3    0    0  0.37632077162E+00  0.47128081264E+01 -0.44929961120E+01  0.65222076081E+01  0.51100000000E-03 0. -1.
        -11    1    3    3    0    0 -0.77367899494E+01 -0.15279748127E+01 -0.94367894375E+01  0.12298195839E+02  0.51100000000E-03 0.  1.
         12    1    3    3    0    0 -0.18516846346E+02 -0.88249989582E+01 -0.20453003159E+02  0.28966869755E+02  0.00000000000E+00 0. -1.
</event>
<event>
 7    1  0.4519840E-010  0.4778727E+02  0.7816164E-02  0.1312668E+00
        -11   -1    0    0    0    0  0.00000000000E+00  0.00000000000E+00  0.45593999997E+02  0.45594000000E+02  0.51100000000E-03 0. -1.
         11   -1    0    0    0    0 -0.00000000000E+00 -0.00000000000E+00 -0.45593999997E+02  0.45594000000E+02  0.51100000000E-03 0.  1.
    9900012    2    1    2    0    0 -0.11961580756E+02  0.38896054157E+02  0.15087771018E+02  0.47787271003E+02  0.19999999810E+02 0.  0.
        -12    1    1    2    0    0  0.11961580756E+02 -0.38896054157E+02 -0.15087771018E+02  0.43400728997E+02  0.00000000000E+00 0.  1.
         11    1    3    3    0    0 -0.72459282518E+01  0.32667606477E+02  0.58322442864E+01  0.33966028070E+02  0.51100000000E-03 0.  1.
        -11    1    3    3    0    0 -0.29818070980E+01  0.74356051413E+01  0.63174032693E+01  0.10202400782E+02  0.51100000000E-03 0. -1.
        -12    1    3    3    0    0 -0.17338454062E+01 -0.12071574615E+01  0.29381234627E+01  0.36188421507E+01  0.00000000000E+00 0.  1.
</event>
<event>
 7    1  0.4519840E-010  0.4778727E+02  0.7816164E-02  0.1312668E+00
        -11   -1    0    0    0    0  0.00000000000E+00  0.00000000000E+00  0.45593999997E+02  0.45594000000E+02  0.51100000000E-03 0. -1.
         11   -1    0    0    0    0 -0.00000000000E+00 -0.00000000000E+00 -0.45593999997E+02  0.45594000000E+02  0.51100000000E-03 0.  1.
    9900012    2    1    2    0    0  0.26498881385E+02  0.21144948084E+02  0.27098404165E+02  0.47787273595E+02  0.20000011631E+02 0.  0.
        -12    1    1    2    0    0 -0.26498881385E+02 -0.21144948084E+02 -0.27098404165E+02  0.43400726405E+02  0.00000000000E+00 0.  1.
         11    1    3    3    0    0  0.32084371749E+01  0.52886081590E+01  0.38439474451E+01  0.72828138508E+01  0.51100000000E-03 0. -1.
        -11    1    3    3    0    0  0.22627607341E+02  0.83579919611E+01  0.22417712678E+02  0.32930509950E+02  0.51100000000E-03 0.  1.
        -12    1    3    3    0    0  0.66283686955E+00  0.74983479638E+01  0.83674404236E+00  0.75739497948E+01  0.00000000000E+00 0.  1.
</event>
<event>
 7    1  0.4519840E-010  0.4778727E+02  0.7816164E-02  0.1312668E+00
        -11   -1    0    0    0    0  0.00000000000E+00  0.00000000000E+00  0.45593999997E+02  0.45594000000E+02  0.51100000000E-03 0. -1.
         11   -1    0    0    0    0 -0.00000000000E+00 -0.00000000000E+00 -0.45593999997E+02  0.45594000000E+02  0.51100000000E-03 0.  1.
    9900012    2    1    2    0    0 -0.32076656102E+02  0.78997790003E+01  0.28147910260E+02  0.47787271585E+02  0.20000002464E+02 0.  0.
        -12    1    1    2    0    0  0.32076656102E+02 -0.78997790003E+01 -0.28147910260E+02  0.43400728415E+02  0.00000000000E+00 0.  1.
         11    1    3    3    0    0 -0.14462051328E+02 -0.91367145185E+00  0.18768789382E+02  0.23711878443E+02  0.51100000000E-03 0. -1.
        -11    1    3    3    0    0 -0.75661896691E-01 -0.68325312334E+00  0.30852875899E+01  0.31609427908E+01  0.51100000000E-03 0.  1.
        -12    1    3    3    0    0 -0.17538942877E+02  0.94967035755E+01  0.62938332883E+01  0.20914450351E+02  0.00000000000E+00 0.  1.
</event>
<event>
 7    1  0.4519840E-010  0.4778727E+02  0.7816164E-02  0.1312668E+00
        -11   -1    0    0    0    0  0.00000000000E+00  0.00000000000E+00  0.45593999997E+02  0.45594000000E+02  0.51100000000E-03 0. -1.
         11   -1    0    0    0    0 -0.00000000000E+00 -0.00000000000E+00 -0.45593999997E+02  0.45594000000E+02  0.51100000000E-03 0.  1.
    9900012    2    1    2    0    0 -0.25009171895E+02  0.30489074093E+02  0.18126798977E+02  0.47787272368E+02  0.20000006033E+02 0.  0.
        -12    1    1    2    0    0  0.25009171895E+02 -0.30489074093E+02 -0.18126798977E+02  0.43400727632E+02  0.00000000000E+00 0.  1.
         11    1    3    3    0    0 -0.13435137278E+02  0.28613218300E+02  0.14057316973E+02  0.34595192381E+02  0.51100000000E-03 0. -1.
        -11    1    3    3    0    0 -0.38790600694E-01 -0.36101102537E+00  0.97631219778E+00  0.10416426642E+01  0.51100000000E-03 0.  1.
         12    1    3    3    0    0 -0.11535244016E+02  0.22368668181E+01  0.30931698055E+01  0.12150437322E+02  0.00000000000E+00 0. -1.
</event>
<event>
 7    1  0.1024171E-009  0.4778727E+02  0.7816164E-02  0.1312668E+00
        -11   -1    0    0    0    0  0.00000000000E+00  0.00000000000E+00  0.45593999997E+02  0.45594000000E+02  0.51100000000E-03 0. -1.
         11   -1    0    0    0    0 -0.00000000000E+00 -0.00000000000E+00 -0.45593999997E+02  0.45594000000E+02  0.51100000000E-03 0.  1.
    9900012    2    1    2    0    0 -0.80134544277E+01  0.25042788645E+02 -0.34529210563E+02  0.47787273081E+02  0.20000009284E+02 0.  0.
         12    1    1    2    0    0  0.80134544277E+01 -0.25042788645E+02  0.34529210563E+02  0.43400726919E+02  0.00000000000E+00 0. -1.
         11    1    3    3    0    0 -0.24259305326E+01  0.91354315515E+01 -0.18344069418E+01  0.96284109629E+01  0.51100000000E-03 0.  1.
        -11    1    3    3    0    0 -0.12239308844E+01 -0.69393326098E+00 -0.21648102429E+00  0.14235218563E+01  0.51100000000E-03 0. -1.
        -12    1    3    3    0    0 -0.43635930107E+01  0.16601290355E+02 -0.32478322597E+02  0.36735340262E+02  0.00000000000E+00 0.  1.
</event>
<event>
 7    1  0.4519840E-010  0.4778727E+02  0.7816164E-02  0.1312668E+00
        -11   -1    0    0    0    0  0.00000000000E+00  0.00000000000E+00  0.45593999997E+02  0.45594000000E+02  0.51100000000E-03 0. -1.
         11   -1    0    0    0    0 -0.00000000000E+00 -0.00000000000E+00 -0.45593999997E+02  0.45594000000E+02  0.51100000000E-03 0.  1.
    9900012    2    1    2    0    0 -0.11160968599E+02 -0.23249715324E+02 -0.34907115861E+02  0.47787271660E+02  0.20000002805E+02 0.  0.
         12    1    1    2    0    0  0.11160968599E+02  0.23249715324E+02  0.34907115861E+02  0.43400728340E+02  0.00000000000E+00 0. -1.
         11    1    3    3    0    0  0.15444026980E+01 -0.69258192950E+00 -0.35004423339E+01  0.38881803220E+01  0.51100000000E-03 0. -1.
        -11    1    3    3    0    0 -0.11183026578E+02 -0.22203249311E+02 -0.33228233902E+02  0.41498914346E+02  0.51100000000E-03 0.  1.
         12    1    3    3    0    0 -0.15223447190E+01 -0.35388408408E+00  0.18215603752E+01  0.24001769912E+01  0.00000000000E+00 0. -1.
</event>
<event>
 7    1  0.4519840E-010  0.4778728E+02  0.7816164E-02  0.1312668E+00
        -11   -1    0    0    0    0  0.00000000000E+00  0.00000000000E+00  0.45593999997E+02  0.45594000000E+02  0.51100000000E-03 0. -1.
         11   -1    0    0    0    0 -0.00000000000E+00 -0.00000000000E+00 -0.45593999997E+02  0.45594000000E+02  0.51100000000E-03 0.  1.
    9900012    2    1    2    0    0 -0.40088316503E+02  0.84161734339E+01 -0.14342837707E+02  0.47787284697E+02  0.20000062249E+02 0.  0.
         12    1    1    2    0    0  0.40088316503E+02 -0.84161734339E+01  0.14342837707E+02  0.43400715303E+02  0.00000000000E+00 0. -1.
         11    1    3    3    0    0 -0.32904289749E+01  0.24799728745E+01  0.52910607846E+00  0.41541716142E+01  0.51100000000E-03 0. -1.
        -11    1    3    3    0    0 -0.12160622760E+02 -0.43330563267E+01 -0.10382029218E+02  0.16566310814E+02  0.51100000000E-03 0.  1.
        -12    1    3    3    0    0 -0.24637264768E+02  0.10269256886E+02 -0.44899145671E+01  0.27066802269E+02  0.00000000000E+00 0.  1.
</event>
<event>
 7    1  0.4519840E-010  0.4778727E+02  0.7816164E-02  0.1312668E+00
        -11   -1    0    0    0    0  0.00000000000E+00  0.00000000000E+00  0.45593999997E+02  0.45594000000E+02  0.51100000000E-03 0. -1.
         11   -1    0    0    0    0 -0.00000000000E+00 -0.00000000000E+00 -0.45593999997E+02  0.45594000000E+02  0.51100000000E-03 0.  1.
    9900012    2    1    2    0    0  0.29712596941E+02 -0.46047990186E+01  0.31298255096E+02  0.47787270017E+02  0.19999995316E+02 0.  0.
        -12    1    1    2    0    0 -0.29712596941E+02  0.46047990186E+01 -0.31298255096E+02  0.43400729983E+02  0.00000000000E+00 0.  1.
         11    1    3    3    0    0  0.19225312627E+02 -0.41924126793E+01  0.20248225717E+02  0.28234369386E+02  0.51100000000E-03 0. -1.
        -11    1    3    3    0    0  0.21996554972E+01 -0.54859078593E+01  0.66166155945E+01  0.88720500187E+01  0.51100000000E-03 0.  1.
         12    1    3    3    0    0  0.82876288170E+01  0.50735215200E+01  0.44334137845E+01  0.10680850612E+02  0.00000000000E+00 0. -1.
</event>
<event>
 7    1  0.4519840E-010  0.4778728E+02  0.7816164E-02  0.1312668E+00
        -11   -1    0    0    0    0  0.00000000000E+00  0.00000000000E+00  0.45593999997E+02  0.45594000000E+02  0.51100000000E-03 0. -1.
         11   -1    0    0    0    0 -0.00000000000E+00 -0.00000000000E+00 -0.45593999997E+02  0.45594000000E+02  0.51100000000E-03 0.  1.
    9900012    2    1    2    0    0  0.59340800494E+00 -0.70672675468E+01 -0.42817337648E+02  0.47787276424E+02  0.20000024528E+02 0.  0.
         12    1    1    2    0    0 -0.59340800494E+00  0.70672675468E+01  0.42817337648E+02  0.43400723576E+02  0.00000000000E+00 0. -1.
         11    1    3    3    0    0  0.20794084775E-01  0.31726421390E+01 -0.15789979727E+01  0.35439138526E+01  0.51100000000E-03 0. -1.
        -11    1    3    3    0    0  0.63267432624E+01 -0.37679306692E+01 -0.18491760058E+02  0.19904024019E+02  0.51100000000E-03 0.  1.
        -12    1    3    3    0    0 -0.57541293423E+01 -0.64719790166E+01 -0.22746579618E+02  0.24339338553E+02  0.00000000000E+00 0.  1.
</event>
<event>
 7    1  0.4519840E-010  0.4778728E+02  0.7816164E-02  0.1312668E+00
        -11   -1    0    0    0    0  0.00000000000E+00  0.00000000000E+00  0.45593999997E+02  0.45594000000E+02  0.51100000000E-03 0.  1.
         11   -1    0    0    0    0 -0.00000000000E+00 -0.00000000000E+00 -0.45593999997E+02  0.45594000000E+02  0.51100000000E-03 0. -1.
    9900012    2    1    2    0    0  0.30627495492E+01 -0.43273723825E+02  0.12755962262E+01  0.47787277031E+02  0.20000027296E+02 0.  0.
        -12    1    1    2    0    0 -0.30627495492E+01  0.43273723825E+02 -0.12755962262E+01  0.43400722969E+02  0.00000000000E+00 0.  1.
         11    1    3    3    0    0  0.27587951901E+01 -0.13534006730E+01 -0.36568579191E+01  0.47765316270E+01  0.51100000000E-03 0.  1.
        -11    1    3    3    0    0 -0.20412561166E+01 -0.11884283747E+02 -0.16554450698E+01  0.12171418379E+02  0.51100000000E-03 0. -1.
         12    1    3    3    0    0  0.23452104757E+01 -0.30036039405E+02  0.65878992151E+01  0.30839327025E+02  0.00000000000E+00 0. -1.
</event>
<event>
 7    1  0.4519840E-010  0.4778728E+02  0.7816164E-02  0.1312668E+00
        -11   -1    0    0    0    0  0.00000000000E+00  0.00000000000E+00  0.45593999997E+02  0.45594000000E+02  0.51100000000E-03 0. -1.
         11   -1    0    0    0    0 -0.00000000000E+00 -0.00000000000E+00 -0.45593999997E+02  0.45594000000E+02  0.51100000000E-03 0.  1.
    9900012    2    1    2    0    0  0.20477257562E+02  0.24257938323E+02 -0.29594883275E+02  0.47787276907E+02  0.20000026730E+02 0.  0.
         12    1    1    2    0    0 -0.20477257562E+02 -0.24257938323E+02  0.29594883275E+02  0.43400723093E+02  0.00000000000E+00 0. -1.
         11    1    3    3    0    0  0.11303740206E+02  0.69321437885E+01 -0.19641176371E+02  0.23698206043E+02  0.51100000000E-03 0. -1.
        -11    1    3    3    0    0  0.54927409555E+00  0.41717059793E+01 -0.68764830577E+01  0.80616904130E+01  0.51100000000E-03 0.  1.
         12    1    3    3    0    0  0.86242432600E+01  0.13154088556E+02 -0.30772238463E+01  0.16027380452E+02  0.00000000000E+00 0. -1.
</event>
<event>
 7    1  0.4519840E-010  0.4778727E+02  0.7816164E-02  0.1312668E+00
        -11   -1    0    0    0    0  0.00000000000E+00  0.00000000000E+00  0.45593999997E+02  0.45594000000E+02  0.51100000000E-03 0. -1.
         11   -1    0    0    0    0 -0.00000000000E+00 -0.00000000000E+00 -0.45593999997E+02  0.45594000000E+02  0.51100000000E-03 0.  1.
    9900012    2    1    2    0    0  0.81056063472E+01 -0.71554256597E+00  0.42631099305E+02  0.47787268630E+02  0.19999988994E+02 0.  0.
        -12    1    1    2    0    0 -0.81056063472E+01  0.71554256597E+00 -0.42631099305E+02  0.43400731370E+02  0.00000000000E+00 0.  1.
         11    1    3    3    0    0  0.30267976316E+01  0.50853345697E+01  0.61450256853E+01  0.85313230230E+01  0.51100000000E-03 0. -1.
        -11    1    3    3    0    0  0.57829373316E+01 -0.55734134012E+01  0.10308508430E+02  0.13067924373E+02  0.51100000000E-03 0.  1.
         12    1    3    3    0    0 -0.70412861598E+00 -0.22746373455E+00  0.26177565190E+02  0.26188021234E+02  0.00000000000E+00 0. -1.
</event>
<event>
 7    1  0.4519840E-010  0.4778727E+02  0.7816164E-02  0.1312668E+00
        -11   -1    0    0    0    0  0.00000000000E+00  0.00000000000E+00  0.45593999997E+02  0.45594000000E+02  0.51100000000E-03 0. -1.
         11   -1    0    0    0    0 -0.00000000000E+00 -0.00000000000E+00 -0.45593999997E+02  0.45594000000E+02  0.51100000000E-03 0.  1.
    9900012    2    1    2    0    0  0.90672793391E+01 -0.11959341488E+02  0.40723234560E+02  0.47787271475E+02  0.20000001965E+02 0.  0.
        -12    1    1    2    0    0 -0.90672793391E+01  0.11959341488E+02 -0.40723234560E+02  0.43400728525E+02  0.00000000000E+00 0.  1.
         11    1    3    3    0    0  0.27507429807E+01  0.96923589899E+00  0.17298593717E+02  0.17542729264E+02  0.51100000000E-03 0. -1.
        -11    1    3    3    0    0  0.79148149178E+01 -0.21164648400E+01  0.95761758234E+01  0.12602652985E+02  0.51100000000E-03 0.  1.
         12    1    3    3    0    0 -0.15982785593E+01 -0.10812112547E+02  0.13848465019E+02  0.17641889226E+02  0.00000000000E+00 0. -1.
</event>
<event>
 7    1  0.4519840E-010  0.4778727E+02  0.7816164E-02  0.1312668E+00
        -11   -1    0    0    0    0  0.00000000000E+00  0.00000000000E+00  0.45593999997E+02  0.45594000000E+02  0.51100000000E-03 0. -1.
         11   -1    0    0    0    0 -0.00000000000E+00 -0.00000000000E+00 -0.45593999997E+02  0.45594000000E+02  0.51100000000E-03 0.  1.
    9900012    2    1    2    0    0 -0.15835974424E+02  0.32328153987E+02  0.24243259775E+02  0.47787271082E+02  0.20000000170E+02 0.  0.
        -12    1    1    2    0    0  0.15835974424E+02 -0.32328153987E+02 -0.24243259775E+02  0.43400728918E+02  0.00000000000E+00 0.  1.
         11    1    3    3    0    0 -0.13754321106E+02  0.10414990499E+02  0.12931732762E+02  0.21561147665E+02  0.51100000000E-03 0. -1.
        -11    1    3    3    0    0  0.31794876062E+00  0.17192121729E+01 -0.14037195974E+01  0.22421442592E+01  0.51100000000E-03 0.  1.
        -12    1    3    3    0    0 -0.23996020792E+01  0.20193951315E+02  0.12715246610E+02  0.23983979157E+02  0.00000000000E+00 0.  1.
</event>
<event>
 7    1  0.4519840E-010  0.4778727E+02  0.7816164E-02  0.1312668E+00
        -11   -1    0    0    0    0  0.00000000000E+00  0.00000000000E+00  0.45593999997E+02  0.45594000000E+02  0.51100000000E-03 0. -1.
         11   -1    0    0    0    0 -0.00000000000E+00 -0.00000000000E+00 -0.45593999997E+02  0.45594000000E+02  0.51100000000E-03 0.  1.
    9900012    2    1    2    0    0  0.22641292874E+02  0.33662408821E+02 -0.15421970704E+02  0.47787273151E+02  0.20000009606E+02 0.  0.
         12    1    1    2    0    0 -0.22641292874E+02 -0.33662408821E+02  0.15421970704E+02  0.43400726849E+02  0.00000000000E+00 0. -1.
         11    1    3    3    0    0  0.60533096887E+01  0.11220295775E+02  0.10478993635E+01  0.12792016604E+02  0.51100000000E-03 0. -1.
        -11    1    3    3    0    0  0.86994375383E+01  0.17013038656E+02 -0.44364522706E+01  0.19616467745E+02  0.51100000000E-03 0.  1.
         12    1    3    3    0    0  0.78885456467E+01  0.54290743905E+01 -0.12033417797E+02  0.15378788802E+02  0.00000000000E+00 0. -1.
</event>
<event>
 7    1  0.4519840E-010  0.4778727E+02  0.7816164E-02  0.1312668E+00
        -11   -1    0    0    0    0  0.00000000000E+00  0.00000000000E+00  0.45593999997E+02  0.45594000000E+02  0.51100000000E-03 0. -1.
         11   -1    0    0    0    0 -0.00000000000E+00 -0.00000000000E+00 -0.45593999997E+02  0.45594000000E+02  0.51100000000E-03 0.  1.
    9900012    2    1    2    0    0 -0.34467993595E+02 -0.20141881116E+02  0.17026019942E+02  0.47787270600E+02  0.19999997973E+02 0.  0.
        -12    1    1    2    0    0  0.34467993595E+02  0.20141881116E+02 -0.17026019942E+02  0.43400729400E+02  0.00000000000E+00 0.  1.
         11    1    3    3    0    0 -0.92612521400E+00 -0.13378109161E+00  0.43519869589E+01  0.44514487579E+01  0.51100000000E-03 0. -1.
        -11    1    3    3    0    0 -0.28538272597E+01 -0.46083236043E+01  0.64769373878E+01  0.84458092956E+01  0.51100000000E-03 0.  1.
         12    1    3    3    0    0 -0.30688041122E+02 -0.15399776420E+02  0.61970955955E+01  0.34890012546E+02  0.00000000000E+00 0. -1.
</event>
<event>
 7    1  0.4519840E-010  0.4778722E+02  0.7816164E-02  0.1312668E+00
        -11   -1    0    0    0    0  0.00000000000E+00  0.00000000000E+00  0.45593999997E+02  0.45594000000E+02  0.51100000000E-03 0. -1.
         11   -1    0    0    0    0 -0.00000000000E+00 -0.00000000000E+00 -0.45593999997E+02  0.45594000000E+02  0.51100000000E-03 0.  1.
    9900012    2    1    2    0    0 -0.42350011298E+02  0.85094308689E+01 -0.42064174421E+01  0.47787218690E+02  0.19999761294E+02 0.  0.
         12    1    1    2    0    0  0.42350011298E+02 -0.85094308689E+01  0.42064174421E+01  0.43400781310E+02  0.00000000000E+00 0. -1.
         11    1    3    3    0    0 -0.34217836962E+02  0.70474813405E+01 -0.43971938971E+00  0.34938813847E+02  0.51100000000E-03 0. -1.
        -11    1    3    3    0    0 -0.60610768563E+01  0.51246774546E+01 -0.15306344508E+01  0.80834283417E+01  0.51100000000E-03 0.  1.
        -12    1    3    3    0    0 -0.20710974793E+01 -0.36627279263E+01 -0.22360636015E+01  0.47649765016E+01  0.00000000000E+00 0.  1.
</event>
<event>
 7    1  0.4519840E-010  0.4778727E+02  0.7816164E-02  0.1312668E+00
        -11   -1    0    0    0    0  0.00000000000E+00  0.00000000000E+00  0.45593999997E+02  0.45594000000E+02  0.51100000000E-03 0. -1.
         11   -1    0    0    0    0 -0.00000000000E+00 -0.00000000000E+00 -0.45593999997E+02  0.45594000000E+02  0.51100000000E-03 0.  1.
    9900012    2    1    2    0    0  0.15664490835E+02 -0.38696848302E+02  0.11865949695E+02  0.47787273004E+02  0.20000008933E+02 0.  0.
        -12    1    1    2    0    0 -0.15664490835E+02  0.38696848302E+02 -0.11865949695E+02  0.43400726996E+02  0.00000000000E+00 0.  1.
         11    1    3    3    0    0  0.31294511064E+01 -0.21786413123E+01  0.44839289737E+01  0.58860480373E+01  0.51100000000E-03 0. -1.
        -11    1    3    3    0    0 -0.30256315639E+01 -0.10096450129E+02  0.10632394332E+01  0.10593546616E+02  0.51100000000E-03 0.  1.
        -12    1    3    3    0    0  0.15560671292E+02 -0.26421756861E+02  0.63187812880E+01  0.31307678350E+02  0.00000000000E+00 0.  1.
</event>
<event>
 7    1  0.4519840E-010  0.4778727E+02  0.7816164E-02  0.1312668E+00
        -11   -1    0    0    0    0  0.00000000000E+00  0.00000000000E+00  0.45593999997E+02  0.45594000000E+02  0.51100000000E-03 0.  1.
         11   -1    0    0    0    0 -0.00000000000E+00 -0.00000000000E+00 -0.45593999997E+02  0.45594000000E+02  0.51100000000E-03 0. -1.
    9900012    2    1    2    0    0  0.20466966280E+02  0.20426883445E+02 -0.32364624920E+02  0.47787271640E+02  0.20000002716E+02 0.  0.
         12    1    1    2    0    0 -0.20466966280E+02 -0.20426883445E+02  0.32364624920E+02  0.43400728360E+02  0.00000000000E+00 0. -1.
         11    1    3    3    0    0  0.16925092226E+02  0.19528081128E+02 -0.28456009302E+02  0.38438901716E+02  0.51100000000E-03 0. -1.
        -11    1    3    3    0    0  0.26352978251E+01  0.37324029651E+01 -0.43880765517E+01  0.63348908914E+01  0.51100000000E-03 0.  1.
        -12    1    3    3    0    0  0.90657622909E+00 -0.28336006487E+01  0.47946093449E+00  0.30134790331E+01  0.00000000000E+00 0.  1.
</event>
<event>
 7    1  0.4519840E-010  0.4778728E+02  0.7816164E-02  0.1312668E+00
        -11   -1    0    0    0    0  0.00000000000E+00  0.00000000000E+00  0.45593999997E+02  0.45594000000E+02  0.51100000000E-03 0. -1.
         11   -1    0    0    0    0 -0.00000000000E+00 -0.00000000000E+00 -0.45593999997E+02  0.45594000000E+02  0.51100000000E-03 0.  1.
    9900012    2    1    2    0    0  0.38574983122E+02  0.18615633689E+01  0.19802214165E+02  0.47787280803E+02  0.20000044491E+02 0.  0.
        -12    1    1    2    0    0 -0.38574983122E+02 -0.18615633689E+01 -0.19802214165E+02  0.43400719197E+02  0.00000000000E+00 0.  1.
         11    1    3    3    0    0  0.18334207733E+02 -0.23133103824E+01  0.17003321138E+02  0.25111899731E+02  0.51100000000E-03 0. -1.
        -11    1    3    3    0    0 -0.18624158217E+00  0.19415083012E+01  0.34384706939E+00  0.19804977856E+01  0.51100000000E-03 0.  1.
        -12    1    3    3    0    0  0.20427016971E+02  0.22333654502E+01  0.24550459580E+01  0.20694883286E+02  0.00000000000E+00 0.  1.
</event>
<event>
 7    1  0.4519840E-010  0.4778727E+02  0.7816164E-02  0.1312668E+00
        -11   -1    0    0    0    0  0.00000000000E+00  0.00000000000E+00  0.45593999997E+02  0.45594000000E+02  0.51100000000E-03 0. -1.
         11   -1    0    0    0    0 -0.00000000000E+00 -0.00000000000E+00 -0.45593999997E+02  0.45594000000E+02  0.51100000000E-03 0.  1.
    9900012    2    1    2    0    0 -0.28953370921E+02 -0.15364374456E+02 -0.28447523395E+02  0.47787271003E+02  0.19999999813E+02 0.  0.
         12    1    1    2    0    0  0.28953370921E+02  0.15364374456E+02  0.28447523395E+02  0.43400728997E+02  0.00000000000E+00 0. -1.
         11    1    3    3    0    0 -0.36996712650E+00  0.16317305347E+01 -0.43917862397E+01  0.46997028469E+01  0.51100000000E-03 0. -1.
        -11    1    3    3    0    0 -0.15918624998E+02 -0.10348225332E+02 -0.21276966416E+02  0.28516621284E+02  0.51100000000E-03 0.  1.
         12    1    3    3    0    0 -0.12664778797E+02 -0.66478796583E+01 -0.27787707390E+01  0.14570946872E+02  0.00000000000E+00 0. -1.
</event>
<event>
 7    1  0.4519840E-010  0.4778726E+02  0.7816164E-02  0.1312668E+00
        -11   -1    0    0    0    0  0.00000000000E+00  0.00000000000E+00  0.45593999997E+02  0.45594000000E+02  0.51100000000E-03 0. -1.
         11   -1    0    0    0    0 -0.00000000000E+00 -0.00000000000E+00 -0.45593999997E+02  0.45594000000E+02  0.51100000000E-03 0.  1.
    9900012    2    1    2    0    0 -0.47847082272E+01  0.30058026698E+02 -0.30939386240E+02  0.47787262418E+02  0.19999960668E+02 0.  0.
         12    1    1    2    0    0  0.47847082272E+01 -0.30058026698E+02  0.30939386240E+02  0.43400737582E+02  0.00000000000E+00 0. -1.
         11    1    3    3    0    0 -0.15808590675E+01  0.14880587596E+02 -0.41866707922E+01  0.15538957982E+02  0.51100000000E-03 0. -1.
        -11    1    3    3    0    0 -0.29009017433E+00  0.32579160553E+01 -0.55259600343E+00  0.33171572072E+01  0.51100000000E-03 0.  1.
        -12    1    3    3    0    0 -0.29137589853E+01  0.11919523047E+02 -0.26200119444E+02  0.28931147229E+02  0.00000000000E+00 0.  1.
</event>
<event>
 7    1  0.4519840E-010  0.4778727E+02  0.7816164E-02  0.1312668E+00
        -11   -1    0    0    0    0  0.00000000000E+00  0.00000000000E+00  0.45593999997E+02  0.45594000000E+02  0.51100000000E-03 0. -1.
         11   -1    0    0    0    0 -0.00000000000E+00 -0.00000000000E+00 -0.45593999997E+02  0.45594000000E+02  0.51100000000E-03 0.  1.
    9900012    2    1    2    0    0  0.25446285253E+02  0.21185145797E+02 -0.28058864385E+02  0.47787266063E+02  0.19999977290E+02 0.  0.
         12    1    1    2    0    0 -0.25446285253E+02 -0.21185145797E+02  0.28058864385E+02  0.43400733937E+02  0.00000000000E+00 0. -1.
         11    1    3    3    0    0  0.11666230205E+02  0.12315151323E+02 -0.99631833391E+01  0.19673050140E+02  0.51100000000E-03 0. -1.
        -11    1    3    3    0    0  0.16673943599E+02  0.74392123749E+01 -0.14829002982E+02  0.23521513676E+02  0.51100000000E-03 0.  1.
        -12    1    3    3    0    0 -0.28938885508E+01  0.14307820992E+01 -0.32666780639E+01  0.45927022474E+01  0.00000000000E+00 0.  1.
</event>
<event>
 7    1  0.4519840E-010  0.4778727E+02  0.7816164E-02  0.1312668E+00
        -11   -1    0    0    0    0  0.00000000000E+00  0.00000000000E+00  0.45593999997E+02  0.45594000000E+02  0.51100000000E-03 0. -1.
         11   -1    0    0    0    0 -0.00000000000E+00 -0.00000000000E+00 -0.45593999997E+02  0.45594000000E+02  0.51100000000E-03 0.  1.
    9900012    2    1    2    0    0  0.13258934280E+02 -0.27497313136E+02 -0.30849982888E+02  0.47787274060E+02  0.20000013748E+02 0.  0.
         12    1    1    2    0    0 -0.13258934280E+02  0.27497313136E+02  0.30849982888E+02  0.43400725940E+02  0.00000000000E+00 0. -1.
         11    1    3    3    0    0 -0.97856627830E+00  0.32545677982E+00 -0.52369295851E+01  0.53375037065E+01  0.51100000000E-03 0. -1.
        -11    1    3    3    0    0  0.14186744092E+01 -0.14081191937E+02 -0.62637742795E+01  0.15476675093E+02  0.51100000000E-03 0.  1.
         12    1    3    3    0    0  0.12818826149E+02 -0.13741577979E+02 -0.19349279024E+02  0.26973095260E+02  0.00000000000E+00 0. -1.
</event>
<event>
 7    1  0.4519840E-010  0.4778727E+02  0.7816164E-02  0.1312668E+00
        -11   -1    0    0    0    0  0.00000000000E+00  0.00000000000E+00  0.45593999997E+02  0.45594000000E+02  0.51100000000E-03 0. -1.
         11   -1    0    0    0    0 -0.00000000000E+00 -0.00000000000E+00 -0.45593999997E+02  0.45594000000E+02  0.51100000000E-03 0.  1.
    9900012    2    1    2    0    0  0.30135152563E+02  0.10398862248E+02 -0.29450967395E+02  0.47787271474E+02  0.20000001958E+02 0.  0.
         12    1    1    2    0    0 -0.30135152563E+02 -0.10398862248E+02  0.29450967395E+02  0.43400728526E+02  0.00000000000E+00 0. -1.
         11    1    3    3    0    0  0.18775801333E+02  0.90500713657E+01 -0.10306464997E+02  0.23252047833E+02  0.51100000000E-03 0. -1.
        -11    1    3    3    0    0 -0.14173262233E+01 -0.14045421764E+01 -0.11762962670E+01  0.23162956455E+01  0.51100000000E-03 0.  1.
        -12    1    3    3    0    0  0.12776677453E+02  0.27533330590E+01 -0.17968206132E+02  0.22218927995E+02  0.00000000000E+00 0.  1.
</event>
<event>
 7    1  0.4519840E-010  0.4778727E+02  0.7816164E-02  0.1312668E+00
        -11   -1    0    0    0    0  0.00000000000E+00  0.00000000000E+00  0.45593999997E+02  0.45594000000E+02  0.51100000000E-03 0. -1.
         11   -1    0    0    0    0 -0.00000000000E+00 -0.00000000000E+00 -0.45593999997E+02  0.45594000000E+02  0.51100000000E-03 0.  1.
    9900012    2    1    2    0    0  0.59678810775E+01 -0.32457909410E+02  0.28186731252E+02  0.47787270669E+02  0.19999998287E+02 0.  0.
        -12    1    1    2    0    0 -0.59678810775E+01  0.32457909410E+02 -0.28186731252E+02  0.43400729331E+02  0.00000000000E+00 0.  1.
         11    1    3    3    0    0 -0.26626092148E+01 -0.33681818991E+01  0.63232342385E+01  0.76431295051E+01  0.51100000000E-03 0.  1.
        -11    1    3    3    0    0  0.24575699781E+01  0.20892860131E+00  0.54881624707E+01  0.60169119092E+01  0.51100000000E-03 0. -1.
         12    1    3    3    0    0  0.61729203142E+01 -0.29298656112E+02  0.16375334542E+02  0.34127229254E+02  0.00000000000E+00 0. -1.
</event>
<event>
 7    1  0.4519840E-010  0.4778727E+02  0.7816164E-02  0.1312668E+00
        -11   -1    0    0    0    0  0.00000000000E+00  0.00000000000E+00  0.45593999997E+02  0.45594000000E+02  0.51100000000E-03 0. -1.
         11   -1    0    0    0    0 -0.00000000000E+00 -0.00000000000E+00 -0.45593999997E+02  0.45594000000E+02  0.51100000000E-03 0.  1.
    9900012    2    1    2    0    0 -0.21892825588E+02 -0.12564427520E+02  0.35305279058E+02  0.47787269816E+02  0.19999994399E+02 0.  0.
        -12    1    1    2    0    0  0.21892825588E+02  0.12564427520E+02 -0.35305279058E+02  0.43400730184E+02  0.00000000000E+00 0.  1.
         11    1    3    3    0    0 -0.56034308789E+01 -0.42884423357E+01  0.27483014829E+01  0.75724722901E+01  0.51100000000E-03 0.  1.
        -11    1    3    3    0    0 -0.17603023977E+02 -0.83591071314E+01  0.21253403215E+02  0.28834844782E+02  0.51100000000E-03 0. -1.
        -12    1    3    3    0    0  0.13136292679E+01  0.83121947325E-01  0.11303574361E+02  0.11379952743E+02  0.00000000000E+00 0.  1.
</event>
<event>
 7    1  0.4519840E-010  0.4778727E+02  0.7816164E-02  0.1312668E+00
        -11   -1    0    0    0    0  0.00000000000E+00  0.00000000000E+00  0.45593999997E+02  0.45594000000E+02  0.51100000000E-03 0. -1.
         11   -1    0    0    0    0 -0.00000000000E+00 -0.00000000000E+00 -0.45593999997E+02  0.45594000000E+02  0.51100000000E-03 0.  1.
    9900012    2    1    2    0    0  0.11811471971E+02 -0.12938899358E+02  0.39707650603E+02  0.47787268403E+02  0.19999987957E+02 0.  0.
        -12    1    1    2    0    0 -0.11811471971E+02  0.12938899358E+02 -0.39707650603E+02  0.43400731597E+02  0.00000000000E+00 0.  1.
         11    1    3    3    0    0 -0.37954489763E+01 -0.17593237675E+01  0.68421758140E+01  0.80197271264E+01  0.51100000000E-03 0. -1.
        -11    1    3    3    0    0 -0.80259085994E-01 -0.49814093428E+01  0.11601795417E+02  0.12626263807E+02  0.51100000000E-03 0.  1.
         12    1    3    3    0    0  0.15687180034E+02 -0.61981662474E+01  0.21263679372E+02  0.27141277470E+02  0.00000000000E+00 0. -1.
</event>
<event>
 7    1  0.4519840E-010  0.4778727E+02  0.7816164E-02  0.1312668E+00
        -11   -1    0    0    0    0  0.00000000000E+00  0.00000000000E+00  0.45593999997E+02  0.45594000000E+02  0.51100000000E-03 0. -1.
         11   -1    0    0    0    0 -0.00000000000E+00 -0.00000000000E+00 -0.45593999997E+02  0.45594000000E+02  0.51100000000E-03 0.  1.
    9900012    2    1    2    0    0 -0.18910915247E+02  0.21512695054E+02  0.32606816085E+02  0.47787271675E+02  0.20000002874E+02 0.  0.
        -12    1    1    2    0    0  0.18910915247E+02 -0.21512695054E+02 -0.32606816085E+02  0.43400728325E+02  0.00000000000E+00 0.  1.
         11    1    3    3    0    0 -0.71808611106E+01  0.40000694806E+01  0.59450487086E+01  0.10144403706E+02  0.51100000000E-03 0. -1.
        -11    1    3    3    0    0 -0.53809246670E+01  0.77645792538E+01  0.10402407826E+01  0.95039540407E+01  0.51100000000E-03 0.  1.
         12    1    3    3    0    0 -0.63491294695E+01  0.97480463191E+01  0.25621526594E+02  0.28138913928E+02  0.00000000000E+00 0. -1.
</event>
<event>
 7    1  0.4519840E-010  0.4778727E+02  0.7816164E-02  0.1312668E+00
        -11   -1    0    0    0    0  0.00000000000E+00  0.00000000000E+00  0.45593999997E+02  0.45594000000E+02  0.51100000000E-03 0. -1.
         11   -1    0    0    0    0 -0.00000000000E+00 -0.00000000000E+00 -0.45593999997E+02  0.45594000000E+02  0.51100000000E-03 0.  1.
    9900012    2    1    2    0    0  0.19622391830E+02 -0.28865932132E+02  0.25794245950E+02  0.47787269325E+02  0.19999992163E+02 0.  0.
        -12    1    1    2    0    0 -0.19622391830E+02  0.28865932132E+02 -0.25794245950E+02  0.43400730675E+02  0.00000000000E+00 0.  1.
         11    1    3    3    0    0  0.94073782922E+01 -0.49650890086E+01  0.43300191395E+01  0.11484769967E+02  0.51100000000E-03 0. -1.
        -11    1    3    3    0    0  0.75613303692E+01 -0.78251543772E+01  0.15528816728E+02  0.18961827633E+02  0.51100000000E-03 0.  1.
        -12    1    3    3    0    0  0.26536831684E+01 -0.16075688746E+02  0.59354100832E+01  0.17340671725E+02  0.00000000000E+00 0.  1.
</event>
<event>
 7    1  0.4519840E-010  0.4778727E+02  0.7816164E-02  0.1312668E+00
        -11   -1    0    0    0    0  0.00000000000E+00  0.00000000000E+00  0.45593999997E+02  0.45594000000E+02  0.51100000000E-03 0. -1.
         11   -1    0    0    0    0 -0.00000000000E+00 -0.00000000000E+00 -0.45593999997E+02  0.45594000000E+02  0.51100000000E-03 0.  1.
    9900012    2    1    2    0    0  0.21683329060E+02 -0.17027760901E+02 -0.33518830989E+02  0.47787269231E+02  0.19999991730E+02 0.  0.
         12    1    1    2    0    0 -0.21683329060E+02  0.17027760901E+02  0.33518830989E+02  0.43400730769E+02  0.00000000000E+00 0. -1.
         11    1    3    3    0    0 -0.13122032143E+01  0.10411521312E+01 -0.52084619711E+01  0.54711928682E+01  0.51100000000E-03 0. -1.
        -11    1    3    3    0    0  0.18984962807E+01 -0.40451256066E+01 -0.10317739058E+02  0.11243801351E+02  0.51100000000E-03 0.  1.
         12    1    3    3    0    0  0.21097035994E+02 -0.14023787426E+02 -0.17992629960E+02  0.31072275011E+02  0.00000000000E+00 0. -1.
</event>
<event>
 7    1  0.4519840E-010  0.4778732E+02  0.7816164E-02  0.1312668E+00
        -11   -1    0    0    0    0  0.00000000000E+00  0.00000000000E+00  0.45593999997E+02  0.45594000000E+02  0.51100000000E-03 0. -1.
         11   -1    0    0    0    0 -0.00000000000E+00 -0.00000000000E+00 -0.45593999997E+02  0.45594000000E+02  0.51100000000E-03 0.  1.
    9900012    2    1    2    0    0  0.17670480513E+01  0.12748040685E+02 -0.41448566330E+02  0.47787324303E+02  0.20000242827E+02 0.  0.
         12    1    1    2    0    0 -0.17670480513E+01 -0.12748040685E+02  0.41448566330E+02  0.43400675697E+02  0.00000000000E+00 0. -1.
         11    1    3    3    0    0 -0.28905033053E+01  0.54455511246E+01 -0.23034593904E+01  0.65814103225E+01  0.51100000000E-03 0. -1.
        -11    1    3    3    0    0  0.38882073037E+00  0.72892554600E+01 -0.14947569486E+02  0.16634730552E+02  0.51100000000E-03 0.  1.
        -12    1    3    3    0    0  0.42687306262E+01  0.13234099958E-01 -0.24197537453E+02  0.24571183429E+02  0.00000000000E+00 0.  1.
</event>
<event>
 7    1  0.4519840E-010  0.4778727E+02  0.7816164E-02  0.1312668E+00
        -11   -1    0    0    0    0  0.00000000000E+00  0.00000000000E+00  0.45593999997E+02  0.45594000000E+02  0.51100000000E-03 0. -1.
         11   -1    0    0    0    0 -0.00000000000E+00 -0.00000000000E+00 -0.45593999997E+02  0.45594000000E+02  0.51100000000E-03 0.  1.
    9900012    2    1    2    0    0  0.18208411320E+02  0.11378496822E+02  0.37717456723E+02  0.47787274495E+02  0.20000015731E+02 0.  0.
        -12    1    1    2    0    0 -0.18208411320E+02 -0.11378496822E+02 -0.37717456723E+02  0.43400725505E+02  0.00000000000E+00 0.  1.
         11    1    3    3    0    0  0.38591916575E+01 -0.29949585024E+01  0.10488605940E+02  0.11570392885E+02  0.51100000000E-03 0. -1.
        -11    1    3    3    0    0  0.35602731569E+01 -0.78968033780E+00  0.54902903964E+00  0.36878954886E+01  0.51100000000E-03 0.  1.
         12    1    3    3    0    0  0.10788946506E+02  0.15163135662E+02  0.26679821743E+02  0.32528986121E+02  0.00000000000E+00 0. -1.
</event>
<event>
 7    1  0.4519840E-010  0.4778727E+02  0.7816164E-02  0.1312668E+00
        -11   -1    0    0    0    0  0.00000000000E+00  0.00000000000E+00  0.45593999997E+02  0.45594000000E+02  0.51100000000E-03 0. -1.
         11   -1    0    0    0    0 -0.00000000000E+00 -0.00000000000E+00 -0.45593999997E+02  0.45594000000E+02  0.51100000000E-03 0.  1.
    9900012    2    1    2    0    0  0.23549147579E+02 -0.71426310516E+01  0.35749735941E+02  0.47787272473E+02  0.20000006514E+02 0.  0.
        -12    1    1    2    0    0 -0.23549147579E+02  0.71426310516E+01 -0.35749735941E+02  0.43400727527E+02  0.00000000000E+00 0.  1.
         11    1    3    3    0    0  0.13005650174E+02 -0.57074877716E+01  0.16574481221E+02  0.21827408942E+02  0.51100000000E-03 0. -1.
        -11    1    3    3    0    0  0.92375626263E+01 -0.46194904995E+01  0.19920131692E+02  0.22438446974E+02  0.51100000000E-03 0.  1.
         12    1    3    3    0    0  0.13059347787E+01  0.31843472195E+01 -0.74487697242E+00  0.35214165565E+01  0.00000000000E+00 0. -1.
</event>
<event>
 7    1  0.4519840E-010  0.4778726E+02  0.7816164E-02  0.1312668E+00
        -11   -1    0    0    0    0  0.00000000000E+00  0.00000000000E+00  0.45593999997E+02  0.45594000000E+02  0.51100000000E-03 0. -1.
         11   -1    0    0    0    0 -0.00000000000E+00 -0.00000000000E+00 -0.45593999997E+02  0.45594000000E+02  0.51100000000E-03 0.  1.
    9900012    2    1    2    0    0 -0.25045475269E+02 -0.27834550501E+02 -0.21945067856E+02  0.47787262262E+02  0.19999959955E+02 0.  0.
         12    1    1    2    0    0  0.25045475269E+02  0.27834550501E+02  0.21945067856E+02  0.43400737738E+02  0.00000000000E+00 0. -1.
         11    1    3    3    0    0  0.20008949216E+00 -0.25015089029E+00  0.11312306814E+00  0.33971806318E+00  0.51100000000E-03 0. -1.
        -11    1    3    3    0    0 -0.27025560459E+02 -0.26514832873E+02 -0.16106718341E+02  0.41144181318E+02  0.51100000000E-03 0.  1.
        -12    1    3    3    0    0  0.17799956975E+01 -0.10695667379E+01 -0.59514725833E+01  0.63033628802E+01  0.00000000000E+00 0.  1.
</event>
<event>
 7    1  0.4519840E-010  0.4778728E+02  0.7816164E-02  0.1312668E+00
        -11   -1    0    0    0    0  0.00000000000E+00  0.00000000000E+00  0.45593999997E+02  0.45594000000E+02  0.51100000000E-03 0. -1.
         11   -1    0    0    0    0 -0.00000000000E+00 -0.00000000000E+00 -0.45593999997E+02  0.45594000000E+02  0.51100000000E-03 0.  1.
    9900012    2    1    2    0    0  0.87633263789E+01  0.26631899998E+02 -0.33129573080E+02  0.47787278818E+02  0.20000035441E+02 0.  0.
         12    1    1    2    0    0 -0.87633263789E+01 -0.26631899998E+02  0.33129573080E+02  0.43400721182E+02  0.00000000000E+00 0. -1.
         11    1    3    3    0    0 -0.40816856995E+01  0.32935227824E+01 -0.28073856884E+01  0.59488541024E+01  0.51100000000E-03 0. -1.
        -11    1    3    3    0    0 -0.19339748579E+01  0.16777020263E+01 -0.20690966742E+01  0.32918238332E+01  0.51100000000E-03 0.  1.
        -12    1    3    3    0    0  0.14778986936E+02  0.21660675189E+02 -0.28253090717E+02  0.38546600882E+02  0.00000000000E+00 0.  1.
</event>
<event>
 7    1  0.4519840E-010  0.4778728E+02  0.7816164E-02  0.1312668E+00
        -11   -1    0    0    0    0  0.00000000000E+00  0.00000000000E+00  0.45593999997E+02  0.45594000000E+02  0.51100000000E-03 0.  1.
         11   -1    0    0    0    0 -0.00000000000E+00 -0.00000000000E+00 -0.45593999997E+02  0.45594000000E+02  0.51100000000E-03 0. -1.
    9900012    2    1    2    0    0  0.30793730021E+02 -0.30040976548E+02  0.57365757012E+01  0.47787281327E+02  0.20000046881E+02 0.  0.
         12    1    1    2    0    0 -0.30793730021E+02  0.30040976548E+02 -0.57365757012E+01  0.43400718673E+02  0.00000000000E+00 0. -1.
         11    1    3    3    0    0  0.54570748936E+01 -0.14022395453E+01  0.65482475568E+01  0.86386045437E+01  0.51100000000E-03 0. -1.
        -11    1    3    3    0    0  0.96413059629E+01 -0.87455395349E+01  0.34193683249E+01  0.13458503722E+02  0.51100000000E-03 0.  1.
        -12    1    3    3    0    0  0.15695349165E+02 -0.19893197468E+02 -0.42310401805E+01  0.25690173061E+02  0.00000000000E+00 0.  1.
</event>
<event>
 7    1  0.4519840E-010  0.4778727E+02  0.7816164E-02  0.1312668E+00
        -11   -1    0    0    0    0  0.00000000000E+00  0.00000000000E+00  0.45593999997E+02  0.45594000000E+02  0.51100000000E-03 0. -1.
         11   -1    0    0    0    0 -0.00000000000E+00 -0.00000000000E+00 -0.45593999997E+02  0.45594000000E+02  0.51100000000E-03 0.  1.
    9900012    2    1    2    0    0 -0.19942949158E+01  0.17331119842E+02  0.39740137822E+02  0.47787268654E+02  0.19999989103E+02 0.  0.
        -12    1    1    2    0    0  0.19942949158E+01 -0.17331119842E+02 -0.39740137822E+02  0.43400731346E+02  0.00000000000E+00 0.  1.
         11    1    3    3    0    0  0.17151251982E+01 -0.34267796015E+01  0.23646259599E+01  0.45028800866E+01  0.51100000000E-03 0. -1.
        -11    1    3    3    0    0 -0.26705064662E+01  0.29563257918E+01  0.74751363540E+01  0.84704858624E+01  0.51100000000E-03 0.  1.
         12    1    3    3    0    0 -0.10389136479E+01  0.17801573652E+02  0.29900375508E+02  0.34813902706E+02  0.00000000000E+00 0. -1.
</event>
<event>
 7    1  0.4519840E-010  0.4778727E+02  0.7816164E-02  0.1312668E+00
        -11   -1    0    0    0    0  0.00000000000E+00  0.00000000000E+00  0.45593999997E+02  0.45594000000E+02  0.51100000000E-03 0. -1.
         11   -1    0    0    0    0 -0.00000000000E+00 -0.00000000000E+00 -0.45593999997E+02  0.45594000000E+02  0.51100000000E-03 0.  1.
    9900012    2    1    2    0    0  0.13301562631E+02 -0.37577141934E+02 -0.17165371934E+02  0.47787272380E+02  0.20000006088E+02 0.  0.
         12    1    1    2    0    0 -0.13301562631E+02  0.37577141934E+02  0.17165371934E+02  0.43400727620E+02  0.00000000000E+00 0. -1.
         11    1    3    3    0    0  0.18895973332E+01  0.85152319820E-01 -0.36559460225E+01  0.41162811589E+01  0.51100000000E-03 0. -1.
        -11    1    3    3    0    0  0.11934664972E+02 -0.16562821852E+02 -0.70758664802E+01  0.21606276458E+02  0.51100000000E-03 0.  1.
         12    1    3    3    0    0 -0.52269967384E+00 -0.21099472402E+02 -0.64335594314E+01  0.22064714762E+02  0.00000000000E+00 0. -1.
</event>
<event>
 7    1  0.4519840E-010  0.4778726E+02  0.7816164E-02  0.1312668E+00
        -11   -1    0    0    0    0  0.00000000000E+00  0.00000000000E+00  0.45593999997E+02  0.45594000000E+02  0.51100000000E-03 0. -1.
         11   -1    0    0    0    0 -0.00000000000E+00 -0.00000000000E+00 -0.45593999997E+02  0.45594000000E+02  0.51100000000E-03 0.  1.
    9900012    2    1    2    0    0 -0.81397373810E+01  0.26399792773E+02  0.33472672334E+02  0.47787260648E+02  0.19999952598E+02 0.  0.
        -12    1    1    2    0    0  0.81397373810E+01 -0.26399792773E+02 -0.33472672334E+02  0.43400739352E+02  0.00000000000E+00 0.  1.
         11    1    3    3    0    0 -0.22750068373E+01  0.13931189281E+02  0.15094295666E+02  0.20666191057E+02  0.51100000000E-03 0. -1.
        -11    1    3    3    0    0  0.24045308910E+00  0.13580830454E+02  0.10988956175E+02  0.17471517724E+02  0.51100000000E-03 0.  1.
         12    1    3    3    0    0 -0.61051836328E+01 -0.11122269616E+01  0.73894204932E+01  0.96495518667E+01  0.00000000000E+00 0. -1.
</event>
<event>
 7    1  0.4519840E-010  0.4778727E+02  0.7816164E-02  0.1312668E+00
        -11   -1    0    0    0    0  0.00000000000E+00  0.00000000000E+00  0.45593999997E+02  0.45594000000E+02  0.51100000000E-03 0. -1.
         11   -1    0    0    0    0 -0.00000000000E+00 -0.00000000000E+00 -0.45593999997E+02  0.45594000000E+02  0.51100000000E-03 0.  1.
    9900012    2    1    2    0    0 -0.28932069968E+02  0.14478808635E+02 -0.28929618783E+02  0.47787269418E+02  0.19999992585E+02 0.  0.
         12    1    1    2    0    0  0.28932069968E+02 -0.14478808635E+02  0.28929618783E+02  0.43400730582E+02  0.00000000000E+00 0. -1.
         11    1    3    3    0    0 -0.19071127920E+02  0.73487579155E+01 -0.15277528108E+02  0.25516955704E+02  0.51100000000E-03 0. -1.
        -11    1    3    3    0    0 -0.11276748596E+02  0.70240724379E+01 -0.61585170840E+01  0.14643428063E+02  0.51100000000E-03 0.  1.
         12    1    3    3    0    0  0.14158065477E+01  0.10597828140E+00 -0.74935735910E+01  0.76268856514E+01  0.00000000000E+00 0. -1.
</event>
<event>
 7    1  0.4519840E-010  0.4778727E+02  0.7816164E-02  0.1312668E+00
        -11   -1    0    0    0    0  0.00000000000E+00  0.00000000000E+00  0.45593999997E+02  0.45594000000E+02  0.51100000000E-03 0. -1.
         11   -1    0    0    0    0 -0.00000000000E+00 -0.00000000000E+00 -0.45593999997E+02  0.45594000000E+02  0.51100000000E-03 0.  1.
    9900012    2    1    2    0    0 -0.23001351032E+02  0.20480636084E+02  0.30579483037E+02  0.47787269747E+02  0.19999994084E+02 0.  0.
        -12    1    1    2    0    0  0.23001351032E+02 -0.20480636084E+02 -0.30579483037E+02  0.43400730253E+02  0.00000000000E+00 0.  1.
         11    1    3    3    0    0 -0.19886648760E+02  0.98033984750E+01  0.21205535760E+02  0.30679963620E+02  0.51100000000E-03 0. -1.
        -11    1    3    3    0    0 -0.34889792716E+01  0.14829331126E+01 -0.24082667707E+00  0.37986925019E+01  0.51100000000E-03 0.  1.
        -12    1    3    3    0    0  0.37427700035E+00  0.91943044961E+01  0.96147739540E+01  0.13308613625E+02  0.00000000000E+00 0.  1.
</event>
<event>
 7    1  0.4519840E-010  0.4778727E+02  0.7816164E-02  0.1312668E+00
        -11   -1    0    0    0    0  0.00000000000E+00  0.00000000000E+00  0.45593999997E+02  0.45594000000E+02  0.51100000000E-03 0. -1.
         11   -1    0    0    0    0 -0.00000000000E+00 -0.00000000000E+00 -0.45593999997E+02  0.45594000000E+02  0.51100000000E-03 0.  1.
    9900012    2    1    2    0    0  0.12468266152E+02  0.17544679365E+02  0.37687530777E+02  0.47787269465E+02  0.19999992800E+02 0.  0.
        -12    1    1    2    0    0 -0.12468266152E+02 -0.17544679365E+02 -0.37687530777E+02  0.43400730535E+02  0.00000000000E+00 0.  1.
         11    1    3    3    0    0  0.24921640089E+01  0.65448835247E+01  0.14080521553E+02  0.15726012504E+02  0.51100000000E-03 0. -1.
        -11    1    3    3    0    0  0.42567798295E+00  0.10730426954E+02  0.18065402137E+02  0.21016232274E+02  0.51100000000E-03 0.  1.
        -12    1    3    3    0    0  0.95504241604E+01  0.26936888599E+00  0.55416070868E+01  0.11045024687E+02  0.00000000000E+00 0.  1.
</event>
<event>
 7    1  0.4519840E-010  0.4778727E+02  0.7816164E-02  0.1312668E+00
        -11   -1    0    0    0    0  0.00000000000E+00  0.00000000000E+00  0.45593999997E+02  0.45594000000E+02  0.51100000000E-03 0. -1.
         11   -1    0    0    0    0 -0.00000000000E+00 -0.00000000000E+00 -0.45593999997E+02  0.45594000000E+02  0.51100000000E-03 0.  1.
    9900012    2    1    2    0    0 -0.62692667999E+00 -0.37131622619E+02 -0.22460465461E+02  0.47787274844E+02  0.20000017322E+02 0.  0.
         12    1    1    2    0    0  0.62692667999E+00  0.37131622619E+02  0.22460465461E+02  0.43400725156E+02  0.00000000000E+00 0. -1.
         11    1    3    3    0    0  0.26419599824E+01 -0.11199798880E+01 -0.40806414397E+01  0.49885811929E+01  0.51100000000E-03 0. -1.
        -11    1    3    3    0    0  0.40456892212E+01 -0.24584689725E+02 -0.13782863343E+02  0.28473529678E+02  0.51100000000E-03 0.  1.
         12    1    3    3    0    0 -0.73145758835E+01 -0.11426953006E+02 -0.45969606789E+01  0.14325163973E+02  0.00000000000E+00 0. -1.
</event>
<event>
 7    1  0.4519840E-010  0.4778727E+02  0.7816164E-02  0.1312668E+00
        -11   -1    0    0    0    0  0.00000000000E+00  0.00000000000E+00  0.45593999997E+02  0.45594000000E+02  0.51100000000E-03 0. -1.
         11   -1    0    0    0    0 -0.00000000000E+00 -0.00000000000E+00 -0.45593999997E+02  0.45594000000E+02  0.51100000000E-03 0.  1.
    9900012    2    1    2    0    0 -0.26213904565E+02 -0.19224391707E+02 -0.28755474295E+02  0.47787270386E+02  0.19999996999E+02 0.  0.
         12    1    1    2    0    0  0.26213904565E+02  0.19224391707E+02  0.28755474295E+02  0.43400729614E+02  0.00000000000E+00 0. -1.
         11    1    3    3    0    0 -0.77060126715E+01 -0.79064800083E+01 -0.13236664138E+01  0.11119674026E+02  0.51100000000E-03 0. -1.
        -11    1    3    3    0    0 -0.17188442307E+02 -0.91720535109E+01 -0.16750778641E+02  0.25693534204E+02  0.51100000000E-03 0.  1.
        -12    1    3    3    0    0 -0.13194495871E+01 -0.21458581873E+01 -0.10681029240E+02  0.10974062156E+02  0.00000000000E+00 0.  1.
</event>
<event>
 7    1  0.4519840E-010  0.4778727E+02  0.7816164E-02  0.1312668E+00
        -11   -1    0    0    0    0  0.00000000000E+00  0.00000000000E+00  0.45593999997E+02  0.45594000000E+02  0.51100000000E-03 0. -1.
         11   -1    0    0    0    0 -0.00000000000E+00 -0.00000000000E+00 -0.45593999997E+02  0.45594000000E+02  0.51100000000E-03 0.  1.
    9900012    2    1    2    0    0 -0.88973671438E+01 -0.54519834142E+01 -0.42127615292E+02  0.47787271487E+02  0.20000002017E+02 0.  0.
         12    1    1    2    0    0  0.88973671438E+01  0.54519834142E+01  0.42127615292E+02  0.43400728513E+02  0.00000000000E+00 0. -1.
         11    1    3    3    0    0 -0.56317269455E-01  0.27365128140E+01 -0.20698931418E+02  0.20879114831E+02  0.51100000000E-03 0. -1.
        -11    1    3    3    0    0 -0.67043476813E+01  0.10410369187E+01 -0.83538376151E+01  0.10761906841E+02  0.51100000000E-03 0.  1.
        -12    1    3    3    0    0 -0.21367021931E+01 -0.92295331469E+01 -0.13074846259E+02  0.16146249814E+02  0.00000000000E+00 0.  1.
</event>
<event>
 7    1  0.4519840E-010  0.4778725E+02  0.7816164E-02  0.1312668E+00
        -11   -1    0    0    0    0  0.00000000000E+00  0.00000000000E+00  0.45593999997E+02  0.45594000000E+02  0.51100000000E-03 0. -1.
         11   -1    0    0    0    0 -0.00000000000E+00 -0.00000000000E+00 -0.45593999997E+02  0.45594000000E+02  0.51100000000E-03 0.  1.
    9900012    2    1    2    0    0  0.21271276970E+02  0.93051893568E+01 -0.36668394012E+02  0.47787252399E+02  0.19999914990E+02 0.  0.
         12    1    1    2    0    0 -0.21271276970E+02 -0.93051893568E+01  0.36668394012E+02  0.43400747601E+02  0.00000000000E+00 0. -1.
         11    1    3    3    0    0  0.66873548892E+01  0.43371532415E+01 -0.80650306792E+01  0.11339150487E+02  0.51100000000E-03 0. -1.
        -11    1    3    3    0    0  0.13108216732E+02 -0.22587817687E+01 -0.24817412417E+02  0.28157261946E+02  0.51100000000E-03 0.  1.
         12    1    3    3    0    0  0.14757053487E+01  0.72268178840E+01 -0.37859509153E+01  0.82908399658E+01  0.00000000000E+00 0. -1.
</event>
<event>
 7    1  0.4519840E-010  0.4778725E+02  0.7816164E-02  0.1312668E+00
        -11   -1    0    0    0    0  0.00000000000E+00  0.00000000000E+00  0.45593999997E+02  0.45594000000E+02  0.51100000000E-03 0. -1.
         11   -1    0    0    0    0 -0.00000000000E+00 -0.00000000000E+00 -0.45593999997E+02  0.45594000000E+02  0.51100000000E-03 0.  1.
    9900012    2    1    2    0    0 -0.41506144378E+02  0.13176819924E+01 -0.12614641666E+02  0.47787245498E+02  0.19999883525E+02 0.  0.
         12    1    1    2    0    0  0.41506144378E+02 -0.13176819924E+01  0.12614641666E+02  0.43400754502E+02  0.00000000000E+00 0. -1.
         11    1    3    3    0    0 -0.13791586805E+01  0.26645188703E+01  0.33824122264E+00  0.30192957560E+01  0.51100000000E-03 0. -1.
        -11    1    3    3    0    0 -0.18833093776E+02  0.45594661015E+01 -0.45878637846E+00  0.19382585935E+02  0.51100000000E-03 0.  1.
         12    1    3    3    0    0 -0.21293891921E+02 -0.59063029795E+01 -0.12494096510E+02  0.25385363808E+02  0.00000000000E+00 0. -1.
</event>
<event>
 7    1  0.4519840E-010  0.4778727E+02  0.7816164E-02  0.1312668E+00
        -11   -1    0    0    0    0  0.00000000000E+00  0.00000000000E+00  0.45593999997E+02  0.45594000000E+02  0.51100000000E-03 0. -1.
         11   -1    0    0    0    0 -0.00000000000E+00 -0.00000000000E+00 -0.45593999997E+02  0.45594000000E+02  0.51100000000E-03 0.  1.
    9900012    2    1    2    0    0  0.17900139755E+02  0.85633448109E+01  0.38598933080E+02  0.47787268295E+02  0.19999987466E+02 0.  0.
        -12    1    1    2    0    0 -0.17900139755E+02 -0.85633448109E+01 -0.38598933080E+02  0.43400731705E+02  0.00000000000E+00 0.  1.
         11    1    3    3    0    0  0.18065824684E+02  0.10429639133E+01  0.28014279877E+02  0.33350587289E+02  0.51100000000E-03 0.  1.
        -11    1    3    3    0    0 -0.82888101319E+00  0.18847995062E+01 -0.37711968862E+00  0.20932588071E+01  0.51100000000E-03 0. -1.
        -12    1    3    3    0    0  0.66319608349E+00  0.56355813913E+01  0.10961772892E+02  0.12343422199E+02  0.00000000000E+00 0.  1.
</event>
<event>
 7    1  0.4519840E-010  0.4778727E+02  0.7816164E-02  0.1312668E+00
        -11   -1    0    0    0    0  0.00000000000E+00  0.00000000000E+00  0.45593999997E+02  0.45594000000E+02  0.51100000000E-03 0. -1.
         11   -1    0    0    0    0 -0.00000000000E+00 -0.00000000000E+00 -0.45593999997E+02  0.45594000000E+02  0.51100000000E-03 0.  1.
    9900012    2    1    2    0    0 -0.33378635566E+02  0.39147755748E+01  0.27462057979E+02  0.47787269494E+02  0.19999992930E+02 0.  0.
        -12    1    1    2    0    0  0.33378635566E+02 -0.39147755748E+01 -0.27462057979E+02  0.43400730506E+02  0.00000000000E+00 0.  1.
         11    1    3    3    0    0 -0.69752032554E+01  0.36046088310E+01  0.25178070396E+01  0.82453634140E+01  0.51100000000E-03 0. -1.
        -11    1    3    3    0    0 -0.83440926524E+00  0.31697789803E+01  0.82359517161E+01  0.88642336689E+01  0.51100000000E-03 0.  1.
         12    1    3    3    0    0 -0.25569023045E+02 -0.28596122364E+01  0.16708299223E+02  0.30677672411E+02  0.00000000000E+00 0. -1.
</event>
<event>
 7    1  0.4519840E-010  0.4778727E+02  0.7816164E-02  0.1312668E+00
        -11   -1    0    0    0    0  0.00000000000E+00  0.00000000000E+00  0.45593999997E+02  0.45594000000E+02  0.51100000000E-03 0. -1.
         11   -1    0    0    0    0 -0.00000000000E+00 -0.00000000000E+00 -0.45593999997E+02  0.45594000000E+02  0.51100000000E-03 0.  1.
    9900012    2    1    2    0    0 -0.19887552962E+02 -0.25529488081E+02  0.28919782471E+02  0.47787270252E+02  0.19999996387E+02 0.  0.
        -12    1    1    2    0    0  0.19887552962E+02  0.25529488081E+02 -0.28919782471E+02  0.43400729748E+02  0.00000000000E+00 0.  1.
         11    1    3    3    0    0  0.10383839469E+01  0.47942946663E-01  0.53681491078E+01  0.54678665723E+01  0.51100000000E-03 0. -1.
        -11    1    3    3    0    0 -0.12164225275E+02 -0.68223089265E+01  0.13080516406E+02  0.19120988085E+02  0.51100000000E-03 0.  1.
        -12    1    3    3    0    0 -0.87617116336E+01 -0.18755122101E+02  0.10471116957E+02  0.23198415595E+02  0.00000000000E+00 0.  1.
</event>
<event>
 7    1  0.4519840E-010  0.4778727E+02  0.7816164E-02  0.1312668E+00
        -11   -1    0    0    0    0  0.00000000000E+00  0.00000000000E+00  0.45593999997E+02  0.45594000000E+02  0.51100000000E-03 0. -1.
         11   -1    0    0    0    0 -0.00000000000E+00 -0.00000000000E+00 -0.45593999997E+02  0.45594000000E+02  0.51100000000E-03 0.  1.
    9900012    2    1    2    0    0  0.31951742874E+02 -0.28690921237E+02  0.62881478440E+01  0.47787266856E+02  0.19999980904E+02 0.  0.
        -12    1    1    2    0    0 -0.31951742874E+02  0.28690921237E+02 -0.62881478440E+01  0.43400733144E+02  0.00000000000E+00 0.  1.
         11    1    3    3    0    0  0.38381137916E+01  0.18792758124E+00 -0.27815347678E+01  0.47437717250E+01  0.51100000000E-03 0. -1.
        -11    1    3    3    0    0  0.11352740402E+02 -0.14444468352E+02  0.99752235452E+01  0.20905321467E+02  0.51100000000E-03 0.  1.
         12    1    3    3    0    0  0.16760888680E+02 -0.14434380466E+02 -0.90554093339E+00  0.22138173664E+02  0.00000000000E+00 0. -1.
</event>
<event>
 7    1  0.4519840E-010  0.4778727E+02  0.7816164E-02  0.1312668E+00
        -11   -1    0    0    0    0  0.00000000000E+00  0.00000000000E+00  0.45593999997E+02  0.45594000000E+02  0.51100000000E-03 0. -1.
         11   -1    0    0    0    0 -0.00000000000E+00 -0.00000000000E+00 -0.45593999997E+02  0.45594000000E+02  0.51100000000E-03 0.  1.
    9900012    2    1    2    0    0  0.25879352411E+02 -0.33424259244E+02 -0.98336864535E+01  0.47787269863E+02  0.19999994612E+02 0.  0.
         12    1    1    2    0    0 -0.25879352411E+02  0.33424259244E+02  0.98336864535E+01  0.43400730137E+02  0.00000000000E+00 0. -1.
         11    1    3    3    0    0  0.17933595745E+01 -0.60641512777E+01  0.13753023426E+01  0.64715937818E+01  0.51100000000E-03 0. -1.
        -11    1    3    3    0    0  0.80811197598E+01 -0.58799986700E+01  0.37026093059E+01  0.10657776356E+02  0.51100000000E-03 0.  1.
        -12    1    3    3    0    0  0.16004873076E+02 -0.21480109296E+02 -0.14911598102E+02  0.30657899724E+02  0.00000000000E+00 0.  1.
</event>
<event>
 7    1  0.6067714E-010  0.4778727E+02  0.7816164E-02  0.1312668E+00
        -11   -1    0    0    0    0  0.00000000000E+00  0.00000000000E+00  0.45593999997E+02  0.45594000000E+02  0.51100000000E-03 0. -1.
         11   -1    0    0    0    0 -0.00000000000E+00 -0.00000000000E+00 -0.45593999997E+02  0.45594000000E+02  0.51100000000E-03 0.  1.
    9900012    2    1    2    0    0  0.84611478905E+01 -0.25330534389E+02 -0.34211052044E+02  0.47787273301E+02  0.20000010289E+02 0.  0.
         12    1    1    2    0    0 -0.84611478905E+01  0.25330534389E+02  0.34211052044E+02  0.43400726699E+02  0.00000000000E+00 0. -1.
         11    1    3    3    0    0  0.61818752047E+01 -0.19558638335E+01 -0.52329903910E+01  0.83321769709E+01  0.51100000000E-03 0. -1.
        -11    1    3    3    0    0  0.33723141001E+01 -0.12291271655E+01 -0.94177551401E+00  0.37108216554E+01  0.51100000000E-03 0.  1.
        -12    1    3    3    0    0 -0.10930414143E+01 -0.22145543390E+02 -0.28036286139E+02  0.35744274675E+02  0.00000000000E+00 0.  1.
</event>
<event>
 7    1  0.4519840E-010  0.4778728E+02  0.7816164E-02  0.1312668E+00
        -11   -1    0    0    0    0  0.00000000000E+00  0.00000000000E+00  0.45593999997E+02  0.45594000000E+02  0.51100000000E-03 0. -1.
         11   -1    0    0    0    0 -0.00000000000E+00 -0.00000000000E+00 -0.45593999997E+02  0.45594000000E+02  0.51100000000E-03 0.  1.
    9900012    2    1    2    0    0  0.19127869943E+01  0.40649813831E+02  0.15084964172E+02  0.47787282695E+02  0.20000053118E+02 0.  0.
        -12    1    1    2    0    0 -0.19127869943E+01 -0.40649813831E+02 -0.15084964172E+02  0.43400717305E+02  0.00000000000E+00 0.  1.
         11    1    3    3    0    0  0.24626968690E+01  0.88324916467E+01  0.98587125151E+01  0.13463728951E+02  0.51100000000E-03 0. -1.
        -11    1    3    3    0    0 -0.18437470545E+01  0.22875629324E+02  0.88391005047E+01  0.24593159988E+02  0.51100000000E-03 0.  1.
         12    1    3    3    0    0  0.12938371798E+01  0.89416928595E+01 -0.36128488480E+01  0.97303937556E+01  0.00000000000E+00 0. -1.
</event>
<event>
 7    1  0.4519840E-010  0.4778728E+02  0.7816164E-02  0.1312668E+00
        -11   -1    0    0    0    0  0.00000000000E+00  0.00000000000E+00  0.45593999997E+02  0.45594000000E+02  0.51100000000E-03 0. -1.
         11   -1    0    0    0    0 -0.00000000000E+00 -0.00000000000E+00 -0.45593999997E+02  0.45594000000E+02  0.51100000000E-03 0.  1.
    9900012    2    1    2    0    0 -0.25387312958E+02  0.11854184270E+01  0.35180988231E+02  0.47787276400E+02  0.20000024418E+02 0.  0.
        -12    1    1    2    0    0  0.25387312958E+02 -0.11854184270E+01 -0.35180988231E+02  0.43400723600E+02  0.00000000000E+00 0.  1.
         11    1    3    3    0    0 -0.10073020350E+02  0.18952701782E+01  0.21002017287E+02  0.23369692304E+02  0.51100000000E-03 0. -1.
        -11    1    3    3    0    0 -0.64717093679E+00 -0.44599702650E+01  0.17661261253E+01  0.48403891102E+01  0.51100000000E-03 0.  1.
         12    1    3    3    0    0 -0.14667121672E+02  0.37501185138E+01  0.12412844819E+02  0.19577194986E+02  0.00000000000E+00 0. -1.
</event>
<event>
 7    1  0.4519840E-010  0.4778727E+02  0.7816164E-02  0.1312668E+00
        -11   -1    0    0    0    0  0.00000000000E+00  0.00000000000E+00  0.45593999997E+02  0.45594000000E+02  0.51100000000E-03 0. -1.
         11   -1    0    0    0    0 -0.00000000000E+00 -0.00000000000E+00 -0.45593999997E+02  0.45594000000E+02  0.51100000000E-03 0.  1.
    9900012    2    1    2    0    0  0.42889405471E+02 -0.11485033880E+01  0.65423980988E+01  0.47787272649E+02  0.20000007316E+02 0.  0.
         12    1    1    2    0    0 -0.42889405471E+02  0.11485033880E+01 -0.65423980988E+01  0.43400727351E+02  0.00000000000E+00 0. -1.
         11    1    3    3    0    0  0.17380501135E+01 -0.21187385219E+01  0.26583381770E+01  0.38179357309E+01  0.51100000000E-03 0. -1.
        -11    1    3    3    0    0  0.66392979483E+01  0.48115734285E+01 -0.26857481599E+01  0.86281376637E+01  0.51100000000E-03 0.  1.
        -12    1    3    3    0    0  0.34512057409E+02 -0.38413382946E+01  0.65698080817E+01  0.35341199255E+02  0.00000000000E+00 0.  1.
</event>
<event>
 7    1  0.4519840E-010  0.4778727E+02  0.7816164E-02  0.1312668E+00
        -11   -1    0    0    0    0  0.00000000000E+00  0.00000000000E+00  0.45593999997E+02  0.45594000000E+02  0.51100000000E-03 0. -1.
         11   -1    0    0    0    0 -0.00000000000E+00 -0.00000000000E+00 -0.45593999997E+02  0.45594000000E+02  0.51100000000E-03 0.  1.
    9900012    2    1    2    0    0  0.47983334017E+01 -0.17259917362E+02 -0.39530931990E+02  0.47787270342E+02  0.19999996800E+02 0.  0.
         12    1    1    2    0    0 -0.47983334017E+01  0.17259917362E+02  0.39530931990E+02  0.43400729658E+02  0.00000000000E+00 0. -1.
         11    1    3    3    0    0  0.44351370431E+00  0.47053636624E+00  0.10385469242E+01  0.12233923544E+01  0.51100000000E-03 0. -1.
        -11    1    3    3    0    0  0.79166702778E-01  0.21142063727E+01 -0.72034514590E+01  0.75077193032E+01  0.51100000000E-03 0.  1.
        -12    1    3    3    0    0  0.42756529946E+01 -0.19844660101E+02 -0.33366027456E+02  0.39056158685E+02  0.00000000000E+00 0.  1.
</event>
<event>
 7    1  0.4519840E-010  0.4778727E+02  0.7816164E-02  0.1312668E+00
        -11   -1    0    0    0    0  0.00000000000E+00  0.00000000000E+00  0.45593999997E+02  0.45594000000E+02  0.51100000000E-03 0. -1.
         11   -1    0    0    0    0 -0.00000000000E+00 -0.00000000000E+00 -0.45593999997E+02  0.45594000000E+02  0.51100000000E-03 0.  1.
    9900012    2    1    2    0    0 -0.38956734404E+02 -0.52640997223E+01 -0.18392536344E+02  0.47787270807E+02  0.19999998918E+02 0.  0.
         12    1    1    2    0    0  0.38956734404E+02  0.52640997223E+01  0.18392536344E+02  0.43400729193E+02  0.00000000000E+00 0. -1.
         11    1    3    3    0    0 -0.18927334717E+01 -0.30037089680E+01 -0.44920778470E+01  0.57256852170E+01  0.51100000000E-03 0. -1.
        -11    1    3    3    0    0 -0.27419115868E+02 -0.55825628515E+01 -0.15090410051E+02  0.31791404479E+02  0.51100000000E-03 0.  1.
        -12    1    3    3    0    0 -0.96448850649E+01  0.33221720973E+01  0.11899515546E+01  0.10270181111E+02  0.00000000000E+00 0.  1.
</event>
<event>
 7    1  0.4519840E-010  0.4778727E+02  0.7816164E-02  0.1312668E+00
        -11   -1    0    0    0    0  0.00000000000E+00  0.00000000000E+00  0.45593999997E+02  0.45594000000E+02  0.51100000000E-03 0. -1.
         11   -1    0    0    0    0 -0.00000000000E+00 -0.00000000000E+00 -0.45593999997E+02  0.45594000000E+02  0.51100000000E-03 0.  1.
    9900012    2    1    2    0    0 -0.14928609642E+02 -0.14380199444E+02  0.38130958175E+02  0.47787268518E+02  0.19999988479E+02 0.  0.
        -12    1    1    2    0    0  0.14928609642E+02  0.14380199444E+02 -0.38130958175E+02  0.43400731482E+02  0.00000000000E+00 0.  1.
         11    1    3    3    0    0 -0.63830067792E+01  0.51104590770E+00  0.15605122845E+01  0.65908377551E+01  0.51100000000E-03 0. -1.
        -11    1    3    3    0    0  0.12188518377E+01 -0.45329202661E+01  0.79797069620E+01  0.92578987574E+01  0.51100000000E-03 0.  1.
         12    1    3    3    0    0 -0.97644547001E+01 -0.10358325086E+02  0.28590738928E+02  0.31938532005E+02  0.00000000000E+00 0. -1.
</event>
<event>
 7    1  0.4519840E-010  0.4778727E+02  0.7816164E-02  0.1312668E+00
        -11   -1    0    0    0    0  0.00000000000E+00  0.00000000000E+00  0.45593999997E+02  0.45594000000E+02  0.51100000000E-03 0. -1.
         11   -1    0    0    0    0 -0.00000000000E+00 -0.00000000000E+00 -0.45593999997E+02  0.45594000000E+02  0.51100000000E-03 0.  1.
    9900012    2    1    2    0    0 -0.36144807639E+02  0.77076906003E+01 -0.22754509899E+02  0.47787270348E+02  0.19999996823E+02 0.  0.
         12    1    1    2    0    0  0.36144807639E+02 -0.77076906003E+01  0.22754509899E+02  0.43400729652E+02  0.00000000000E+00 0. -1.
         11    1    3    3    0    0  0.17503450550E+01 -0.67736888374E+00 -0.32214783780E+00  0.19042888192E+01  0.51100000000E-03 0. -1.
        -11    1    3    3    0    0 -0.27669735564E+01  0.40959595922E-02 -0.51508387354E+01  0.58469906257E+01  0.51100000000E-03 0.  1.
         12    1    3    3    0    0 -0.35128179137E+02  0.83809635245E+01 -0.17281523326E+02  0.40035990903E+02  0.00000000000E+00 0. -1.
</event>
<event>
 7    1  0.4519840E-010  0.4778727E+02  0.7816164E-02  0.1312668E+00
        -11   -1    0    0    0    0  0.00000000000E+00  0.00000000000E+00  0.45593999997E+02  0.45594000000E+02  0.51100000000E-03 0. -1.
         11   -1    0    0    0    0 -0.00000000000E+00 -0.00000000000E+00 -0.45593999997E+02  0.45594000000E+02  0.51100000000E-03 0.  1.
    9900012    2    1    2    0    0  0.22278973595E+02  0.19897864180E+02  0.31485643388E+02  0.47787269558E+02  0.19999993222E+02 0.  0.
        -12    1    1    2    0    0 -0.22278973595E+02 -0.19897864180E+02 -0.31485643388E+02  0.43400730442E+02  0.00000000000E+00 0.  1.
         11    1    3    3    0    0  0.13148581157E+01  0.23414582684E+01  0.29429879094E+01  0.39840251986E+01  0.51100000000E-03 0. -1.
        -11    1    3    3    0    0  0.21560520012E+02  0.20244838565E+02  0.22495339633E+02  0.37158442072E+02  0.51100000000E-03 0.  1.
        -12    1    3    3    0    0 -0.59640453342E+00 -0.26884326539E+01  0.60473158458E+01  0.66448022876E+01  0.00000000000E+00 0.  1.
</event>
<event>
 7    1  0.4519840E-010  0.4778728E+02  0.7816164E-02  0.1312668E+00
        -11   -1    0    0    0    0  0.00000000000E+00  0.00000000000E+00  0.45593999997E+02  0.45594000000E+02  0.51100000000E-03 0. -1.
         11   -1    0    0    0    0 -0.00000000000E+00 -0.00000000000E+00 -0.45593999997E+02  0.45594000000E+02  0.51100000000E-03 0.  1.
    9900012    2    1    2    0    0 -0.29781915288E+01  0.32482177873E+02 -0.28629727321E+02  0.47787276611E+02  0.20000025381E+02 0.  0.
         12    1    1    2    0    0  0.29781915288E+01 -0.32482177873E+02  0.28629727321E+02  0.43400723389E+02  0.00000000000E+00 0. -1.
         11    1    3    3    0    0 -0.43886202761E+01  0.15986470947E+02 -0.69444057982E+01  0.17973647749E+02  0.51100000000E-03 0. -1.
        -11    1    3    3    0    0 -0.52837689046E+01  0.81095320528E+01 -0.11330901244E+02  0.14902081976E+02  0.51100000000E-03 0.  1.
         12    1    3    3    0    0  0.66941976520E+01  0.83861748740E+01 -0.10354420279E+02  0.14911546886E+02  0.00000000000E+00 0. -1.
</event>
<event>
 7    1  0.4519840E-010  0.4778727E+02  0.7816164E-02  0.1312668E+00
        -11   -1    0    0    0    0  0.00000000000E+00  0.00000000000E+00  0.45593999997E+02  0.45594000000E+02  0.51100000000E-03 0.  1.
         11   -1    0    0    0    0 -0.00000000000E+00 -0.00000000000E+00 -0.45593999997E+02  0.45594000000E+02  0.51100000000E-03 0. -1.
    9900012    2    1    2    0    0  0.11752476523E+02  0.37226301717E+02  0.18965894271E+02  0.47787269713E+02  0.19999993928E+02 0.  0.
        -12    1    1    2    0    0 -0.11752476523E+02 -0.37226301717E+02 -0.18965894271E+02  0.43400730287E+02  0.00000000000E+00 0.  1.
         11    1    3    3    0    0 -0.63099527111E+00  0.10926159501E+02  0.11557365382E+02  0.15917028972E+02  0.51100000000E-03 0. -1.
        -11    1    3    3    0    0  0.50502256837E+01  0.12752915742E+02  0.89661990826E+01  0.16387018204E+02  0.51100000000E-03 0.  1.
        -12    1    3    3    0    0  0.73332461108E+01  0.13547226474E+02 -0.15576701936E+01  0.15483222536E+02  0.00000000000E+00 0.  1.
</event>
<event>
 7    1  0.4519840E-010  0.4778727E+02  0.7816164E-02  0.1312668E+00
        -11   -1    0    0    0    0  0.00000000000E+00  0.00000000000E+00  0.45593999997E+02  0.45594000000E+02  0.51100000000E-03 0. -1.
         11   -1    0    0    0    0 -0.00000000000E+00 -0.00000000000E+00 -0.45593999997E+02  0.45594000000E+02  0.51100000000E-03 0.  1.
    9900012    2    1    2    0    0  0.76665452745E+01 -0.60780419809E+01  0.42283626278E+02  0.47787267726E+02  0.19999984868E+02 0.  0.
        -12    1    1    2    0    0 -0.76665452745E+01  0.60780419809E+01 -0.42283626278E+02  0.43400732274E+02  0.00000000000E+00 0.  1.
         11    1    3    3    0    0  0.20525686217E+01 -0.41986488262E+01  0.22510544638E+01  0.51873824201E+01  0.51100000000E-03 0. -1.
        -11    1    3    3    0    0 -0.18221645942E+01  0.34160667140E+01  0.46111989070E+01  0.60210423702E+01  0.51100000000E-03 0.  1.
         12    1    3    3    0    0  0.74361412470E+01 -0.52954598687E+01  0.35421372907E+02  0.36578842935E+02  0.00000000000E+00 0. -1.
</event>
<event>
 7    1  0.4519840E-010  0.4778729E+02  0.7816164E-02  0.1312668E+00
        -11   -1    0    0    0    0  0.00000000000E+00  0.00000000000E+00  0.45593999997E+02  0.45594000000E+02  0.51100000000E-03 0. -1.
         11   -1    0    0    0    0 -0.00000000000E+00 -0.00000000000E+00 -0.45593999997E+02  0.45594000000E+02  0.51100000000E-03 0.  1.
    9900012    2    1    2    0    0  0.59449868376E+00 -0.34460708267E+02 -0.26376658409E+02  0.47787286275E+02  0.20000069444E+02 0.  0.
         12    1    1    2    0    0 -0.59449868376E+00  0.34460708267E+02  0.26376658409E+02  0.43400713725E+02  0.00000000000E+00 0. -1.
         11    1    3    3    0    0 -0.30467079971E+00 -0.12666443575E+02 -0.10282461863E+01  0.12711762569E+02  0.51100000000E-03 0. -1.
        -11    1    3    3    0    0  0.30793883223E+01 -0.15580404866E+02 -0.23264202293E+02  0.28168328968E+02  0.51100000000E-03 0.  1.
        -12    1    3    3    0    0 -0.21802188388E+01 -0.62138598264E+01 -0.20842099297E+01  0.69071947387E+01  0.00000000000E+00 0.  1.
</event>
<event>
 7    1  0.4519840E-010  0.4778727E+02  0.7816164E-02  0.1312668E+00
        -11   -1    0    0    0    0  0.00000000000E+00  0.00000000000E+00  0.45593999997E+02  0.45594000000E+02  0.51100000000E-03 0. -1.
         11   -1    0    0    0    0 -0.00000000000E+00 -0.00000000000E+00 -0.45593999997E+02  0.45594000000E+02  0.51100000000E-03 0.  1.
    9900012    2    1    2    0    0 -0.25989199439E+02  0.19965689999E+02  0.28452694445E+02  0.47787273211E+02  0.20000009879E+02 0.  0.
        -12    1    1    2    0    0  0.25989199439E+02 -0.19965689999E+02 -0.28452694445E+02  0.43400726789E+02  0.00000000000E+00 0.  1.
         11    1    3    3    0    0 -0.12840554806E+02  0.79536229434E+01  0.11498176060E+02  0.18982834841E+02  0.51100000000E-03 0. -1.
        -11    1    3    3    0    0 -0.88911715184E+01 -0.15879083100E+01  0.63381193641E+01  0.11033863381E+02  0.51100000000E-03 0.  1.
         12    1    3    3    0    0 -0.42574731147E+01  0.13599975365E+02  0.10616399021E+02  0.17770574989E+02  0.00000000000E+00 0. -1.
</event>
<event>
 7    1  0.4519840E-010  0.4778727E+02  0.7816164E-02  0.1312668E+00
        -11   -1    0    0    0    0  0.00000000000E+00  0.00000000000E+00  0.45593999997E+02  0.45594000000E+02  0.51100000000E-03 0.  1.
         11   -1    0    0    0    0 -0.00000000000E+00 -0.00000000000E+00 -0.45593999997E+02  0.45594000000E+02  0.51100000000E-03 0. -1.
    9900012    2    1    2    0    0 -0.27648946243E+02 -0.33442285159E+02  0.87910399401E+00  0.47787268568E+02  0.19999988709E+02 0.  0.
         12    1    1    2    0    0  0.27648946243E+02  0.33442285159E+02 -0.87910399401E+00  0.43400731432E+02  0.00000000000E+00 0. -1.
         11    1    3    3    0    0 -0.98593035376E+01 -0.42308501968E+01  0.54274258026E+00  0.10742463842E+02  0.51100000000E-03 0.  1.
        -11    1    3    3    0    0 -0.60163868732E+01 -0.16000476759E+01  0.29991785538E+01  0.69102920222E+01  0.51100000000E-03 0. -1.
        -12    1    3    3    0    0 -0.11773255832E+02 -0.27611387286E+02 -0.26628171401E+01  0.30134512704E+02  0.00000000000E+00 0.  1.
</event>
<event>
 7    1  0.4519840E-010  0.4778727E+02  0.7816164E-02  0.1312668E+00
        -11   -1    0    0    0    0  0.00000000000E+00  0.00000000000E+00  0.45593999997E+02  0.45594000000E+02  0.51100000000E-03 0. -1.
         11   -1    0    0    0    0 -0.00000000000E+00 -0.00000000000E+00 -0.45593999997E+02  0.45594000000E+02  0.51100000000E-03 0.  1.
    9900012    2    1    2    0    0  0.21349279432E+02  0.31635687521E+02 -0.20664338533E+02  0.47787270234E+02  0.19999996306E+02 0.  0.
         12    1    1    2    0    0 -0.21349279432E+02 -0.31635687521E+02  0.20664338533E+02  0.43400729766E+02  0.00000000000E+00 0. -1.
         11    1    3    3    0    0  0.12196409354E+01  0.32880411097E+01 -0.39777918712E+01  0.53029771621E+01  0.51100000000E-03 0. -1.
        -11    1    3    3    0    0  0.13329637496E+02  0.54647053979E+01 -0.10491184783E+02  0.17821537512E+02  0.51100000000E-03 0.  1.
        -12    1    3    3    0    0  0.68000010002E+01  0.22882941013E+02 -0.61953618787E+01  0.24662755560E+02  0.00000000000E+00 0.  1.
</event>
<event>
 7    1  0.4519840E-010  0.4778727E+02  0.7816164E-02  0.1312668E+00
        -11   -1    0    0    0    0  0.00000000000E+00  0.00000000000E+00  0.45593999997E+02  0.45594000000E+02  0.51100000000E-03 0. -1.
         11   -1    0    0    0    0 -0.00000000000E+00 -0.00000000000E+00 -0.45593999997E+02  0.45594000000E+02  0.51100000000E-03 0.  1.
    9900012    2    1    2    0    0 -0.24249996457E+02 -0.35890678230E+02  0.27240675446E+01  0.47787266643E+02  0.19999979930E+02 0.  0.
        -12    1    1    2    0    0  0.24249996457E+02  0.35890678230E+02 -0.27240675446E+01  0.43400733357E+02  0.00000000000E+00 0.  1.
         11    1    3    3    0    0 -0.13384656138E+02 -0.18904324980E+02 -0.29819101881E+01  0.23354106952E+02  0.51100000000E-03 0. -1.
        -11    1    3    3    0    0 -0.80056067830E+01 -0.20408523823E+01  0.24179101558E+00  0.82651849082E+01  0.51100000000E-03 0.  1.
        -12    1    3    3    0    0 -0.28597335354E+01 -0.14945500868E+02  0.54641867171E+01  0.16167974782E+02  0.00000000000E+00 0.  1.
</event>
<event>
 7    1  0.4519840E-010  0.4778727E+02  0.7816164E-02  0.1312668E+00
        -11   -1    0    0    0    0  0.00000000000E+00  0.00000000000E+00  0.45593999997E+02  0.45594000000E+02  0.51100000000E-03 0. -1.
         11   -1    0    0    0    0 -0.00000000000E+00 -0.00000000000E+00 -0.45593999997E+02  0.45594000000E+02  0.51100000000E-03 0.  1.
    9900012    2    1    2    0    0  0.71662125315E+01  0.41847038114E+02  0.90052286191E+01  0.47787270243E+02  0.19999996347E+02 0.  0.
        -12    1    1    2    0    0 -0.71662125315E+01 -0.41847038114E+02 -0.90052286191E+01  0.43400729757E+02  0.00000000000E+00 0.  1.
         11    1    3    3    0    0 -0.76981609957E+00  0.48524331516E+01 -0.17749478697E+01  0.52239031882E+01  0.51100000000E-03 0. -1.
        -11    1    3    3    0    0  0.88769974520E+01  0.75926715828E+01  0.42499587320E+01  0.12430281373E+02  0.51100000000E-03 0.  1.
         12    1    3    3    0    0 -0.94096882091E+00  0.29401933379E+02  0.65302177567E+01  0.30133085682E+02  0.00000000000E+00 0. -1.
</event>
<event>
 7    1  0.4519840E-010  0.4778727E+02  0.7816164E-02  0.1312668E+00
        -11   -1    0    0    0    0  0.00000000000E+00  0.00000000000E+00  0.45593999997E+02  0.45594000000E+02  0.51100000000E-03 0. -1.
         11   -1    0    0    0    0 -0.00000000000E+00 -0.00000000000E+00 -0.45593999997E+02  0.45594000000E+02  0.51100000000E-03 0.  1.
    9900012    2    1    2    0    0  0.70300267436E+01 -0.32606152677E+02  0.27767623540E+02  0.47787269759E+02  0.19999994137E+02 0.  0.
        -12    1    1    2    0    0 -0.70300267436E+01  0.32606152677E+02 -0.27767623540E+02  0.43400730241E+02  0.00000000000E+00 0.  1.
         11    1    3    3    0    0 -0.11181823822E+01 -0.31137560885E+01 -0.16070018766E+01  0.36780788614E+01  0.51100000000E-03 0. -1.
        -11    1    3    3    0    0 -0.20955894450E+01 -0.14499534518E+02  0.14806736562E+02  0.20829484973E+02  0.51100000000E-03 0.  1.
         12    1    3    3    0    0  0.10243798571E+02 -0.14992862071E+02  0.14567888854E+02  0.23279705924E+02  0.00000000000E+00 0. -1.
</event>
<event>
 7    1  0.6171384E-010  0.4778727E+02  0.7816164E-02  0.1312668E+00
        -11   -1    0    0    0    0  0.00000000000E+00  0.00000000000E+00  0.45593999997E+02  0.45594000000E+02  0.51100000000E-03 0. -1.
         11   -1    0    0    0    0 -0.00000000000E+00 -0.00000000000E+00 -0.45593999997E+02  0.45594000000E+02  0.51100000000E-03 0.  1.
    9900012    2    1    2    0    0 -0.21446034966E+02  0.25686630887E+01 -0.37644293197E+02  0.47787271249E+02  0.20000000930E+02 0.  0.
         12    1    1    2    0    0  0.21446034966E+02 -0.25686630887E+01  0.37644293197E+02  0.43400728751E+02  0.00000000000E+00 0. -1.
         11    1    3    3    0    0 -0.55707358678E+01  0.47300169010E+01 -0.25559857919E+01  0.77420424710E+01  0.51100000000E-03 0. -1.
        -11    1    3    3    0    0 -0.46190128999E+01 -0.17795160931E+01 -0.24595513950E+01  0.55273276564E+01  0.51100000000E-03 0.  1.
        -12    1    3    3    0    0 -0.11256286199E+02 -0.38183771927E+00 -0.32628756010E+02  0.34517901121E+02  0.00000000000E+00 0.  1.
</event>
<event>
 7    1  0.4519840E-010  0.4778728E+02  0.7816164E-02  0.1312668E+00
        -11   -1    0    0    0    0  0.00000000000E+00  0.00000000000E+00  0.45593999997E+02  0.45594000000E+02  0.51100000000E-03 0. -1.
         11   -1    0    0    0    0 -0.00000000000E+00 -0.00000000000E+00 -0.45593999997E+02  0.45594000000E+02  0.51100000000E-03 0.  1.
    9900012    2    1    2    0    0  0.23488471940E+02  0.68709102762E+01 -0.35842778074E+02  0.47787280396E+02  0.20000042637E+02 0.  0.
         12    1    1    2    0    0 -0.23488471940E+02 -0.68709102762E+01  0.35842778074E+02  0.43400719604E+02  0.00000000000E+00 0. -1.
         11    1    3    3    0    0  0.14188502050E+02 -0.16972762677E+01 -0.92664025120E+01  0.17031164168E+02  0.51100000000E-03 0. -1.
        -11    1    3    3    0    0  0.13911967470E+01 -0.18796683506E+01 -0.48435218082E+01  0.53785021395E+01  0.51100000000E-03 0.  1.
        -12    1    3    3    0    0  0.79087731431E+01  0.10447854894E+02 -0.21732853754E+02  0.25377614088E+02  0.00000000000E+00 0.  1.
</event>
<event>
 7    1  0.4519840E-010  0.4778728E+02  0.7816164E-02  0.1312668E+00
        -11   -1    0    0    0    0  0.00000000000E+00  0.00000000000E+00  0.45593999997E+02  0.45594000000E+02  0.51100000000E-03 0. -1.
         11   -1    0    0    0    0 -0.00000000000E+00 -0.00000000000E+00 -0.45593999997E+02  0.45594000000E+02  0.51100000000E-03 0.  1.
    9900012    2    1    2    0    0  0.26896544502E+02 -0.25609724725E+01  0.33965272368E+02  0.47787280960E+02  0.20000045208E+02 0.  0.
        -12    1    1    2    0    0 -0.26896544502E+02  0.25609724725E+01 -0.33965272368E+02  0.43400719040E+02  0.00000000000E+00 0.  1.
         11    1    3    3    0    0  0.55247662434E+01 -0.26287095837E+01  0.16446602404E+01  0.63354608110E+01  0.51100000000E-03 0. -1.
        -11    1    3    3    0    0 -0.63778697210E+00  0.12228142845E+01 -0.85485639844E+00  0.16225987548E+01  0.51100000000E-03 0.  1.
        -12    1    3    3    0    0  0.22009565230E+02 -0.11550771733E+01  0.33175468527E+02  0.39829221394E+02  0.00000000000E+00 0.  1.
</event>
<event>
 7    1  0.4519840E-010  0.4778727E+02  0.7816164E-02  0.1312668E+00
        -11   -1    0    0    0    0  0.00000000000E+00  0.00000000000E+00  0.45593999997E+02  0.45594000000E+02  0.51100000000E-03 0. -1.
         11   -1    0    0    0    0 -0.00000000000E+00 -0.00000000000E+00 -0.45593999997E+02  0.45594000000E+02  0.51100000000E-03 0.  1.
    9900012    2    1    2    0    0 -0.62900084680E+01 -0.23996379654E+01 -0.42875411183E+02  0.47787270133E+02  0.19999995845E+02 0.  0.
         12    1    1    2    0    0  0.62900084680E+01  0.23996379654E+01  0.42875411183E+02  0.43400729867E+02  0.00000000000E+00 0. -1.
         11    1    3    3    0    0 -0.34829958023E+01  0.16493229986E+00 -0.16404805832E+02  0.16771288474E+02  0.51100000000E-03 0. -1.
        -11    1    3    3    0    0 -0.79948815480E+01  0.18858405067E+01 -0.86468382430E+01  0.11926539198E+02  0.51100000000E-03 0.  1.
         12    1    3    3    0    0  0.51878688823E+01 -0.44504107720E+01 -0.17823767107E+02  0.19089442461E+02  0.00000000000E+00 0. -1.
</event>
<event>
 7    1  0.4519840E-010  0.4778727E+02  0.7816164E-02  0.1312668E+00
        -11   -1    0    0    0    0  0.00000000000E+00  0.00000000000E+00  0.45593999997E+02  0.45594000000E+02  0.51100000000E-03 0. -1.
         11   -1    0    0    0    0 -0.00000000000E+00 -0.00000000000E+00 -0.45593999997E+02  0.45594000000E+02  0.51100000000E-03 0.  1.
    9900012    2    1    2    0    0  0.15015289996E+02  0.24987086536E+02  0.32152914729E+02  0.47787270135E+02  0.19999995854E+02 0.  0.
        -12    1    1    2    0    0 -0.15015289996E+02 -0.24987086536E+02 -0.32152914729E+02  0.43400729865E+02  0.00000000000E+00 0.  1.
         11    1    3    3    0    0 -0.11336259755E-01  0.19463006585E+01 -0.12661995268E+01  0.23219552681E+01  0.51100000000E-03 0. -1.
        -11    1    3    3    0    0 -0.10360524849E+01  0.95750316767E+00 -0.84989997053E+00  0.16469812654E+01  0.51100000000E-03 0.  1.
         12    1    3    3    0    0  0.16062678741E+02  0.22083282710E+02  0.34269014226E+02  0.43818333602E+02  0.00000000000E+00 0. -1.
</event>
<event>
 7    1  0.4519840E-010  0.4778728E+02  0.7816164E-02  0.1312668E+00
        -11   -1    0    0    0    0  0.00000000000E+00  0.00000000000E+00  0.45593999997E+02  0.45594000000E+02  0.51100000000E-03 0.  1.
         11   -1    0    0    0    0 -0.00000000000E+00 -0.00000000000E+00 -0.45593999997E+02  0.45594000000E+02  0.51100000000E-03 0. -1.
    9900012    2    1    2    0    0  0.28459249221E+02 -0.32422846331E+02 -0.47384244269E+01  0.47787280001E+02  0.20000040834E+02 0.  0.
        -12    1    1    2    0    0 -0.28459249221E+02  0.32422846331E+02  0.47384244269E+01  0.43400719999E+02  0.00000000000E+00 0.  1.
         11    1    3    3    0    0  0.19922972033E+02 -0.18789808781E+02  0.74676542823E+00  0.27395973929E+02  0.51100000000E-03 0. -1.
        -11    1    3    3    0    0  0.73827335466E+01 -0.13717292228E+02 -0.83582886652E+00  0.15600239448E+02  0.51100000000E-03 0.  1.
        -12    1    3    3    0    0  0.11535436415E+01  0.84254678351E-01 -0.46493609887E+01  0.47910666231E+01  0.00000000000E+00 0.  1.
</event>
<event>
 7    1  0.4519840E-010  0.4778727E+02  0.7816164E-02  0.1312668E+00
        -11   -1    0    0    0    0  0.00000000000E+00  0.00000000000E+00  0.45593999997E+02  0.45594000000E+02  0.51100000000E-03 0. -1.
         11   -1    0    0    0    0 -0.00000000000E+00 -0.00000000000E+00 -0.45593999997E+02  0.45594000000E+02  0.51100000000E-03 0.  1.
    9900012    2    1    2    0    0  0.18148814313E+02 -0.34183344007E+02 -0.19640333787E+02  0.47787272129E+02  0.20000004944E+02 0.  0.
         12    1    1    2    0    0 -0.18148814313E+02  0.34183344007E+02  0.19640333787E+02  0.43400727871E+02  0.00000000000E+00 0. -1.
         11    1    3    3    0    0  0.75326336797E+01 -0.14604835906E+02 -0.13786551405E+02  0.21450193517E+02  0.51100000000E-03 0. -1.
        -11    1    3    3    0    0  0.60314647459E+01 -0.19273533923E+02 -0.73707885042E+01  0.21498283659E+02  0.51100000000E-03 0.  1.
        -12    1    3    3    0    0  0.45847158876E+01 -0.30497417843E+00  0.15170061228E+01  0.48387949529E+01  0.00000000000E+00 0.  1.
</event>
<event>
 7    1  0.4519840E-010  0.4778727E+02  0.7816164E-02  0.1312668E+00
        -11   -1    0    0    0    0  0.00000000000E+00  0.00000000000E+00  0.45593999997E+02  0.45594000000E+02  0.51100000000E-03 0. -1.
         11   -1    0    0    0    0 -0.00000000000E+00 -0.00000000000E+00 -0.45593999997E+02  0.45594000000E+02  0.51100000000E-03 0.  1.
    9900012    2    1    2    0    0  0.25810818707E+02 -0.40995029173E+01  0.34649949395E+02  0.47787270979E+02  0.19999999700E+02 0.  0.
        -12    1    1    2    0    0 -0.25810818707E+02  0.40995029173E+01 -0.34649949395E+02  0.43400729021E+02  0.00000000000E+00 0.  1.
         11    1    3    3    0    0  0.73992821931E+01  0.30700135644E+01  0.81774020116E+01  0.11447456669E+02  0.51100000000E-03 0. -1.
        -11    1    3    3    0    0  0.60374266975E+01 -0.20007978612E+01  0.20850088223E+02  0.21798621341E+02  0.51100000000E-03 0.  1.
        -12    1    3    3    0    0  0.12374109817E+02 -0.51687186206E+01  0.56224591601E+01  0.14541192968E+02  0.00000000000E+00 0.  1.
</event>
<event>
 7    1  0.4519840E-010  0.4778727E+02  0.7816164E-02  0.1312668E+00
        -11   -1    0    0    0    0  0.00000000000E+00  0.00000000000E+00  0.45593999997E+02  0.45594000000E+02  0.51100000000E-03 0.  1.
         11   -1    0    0    0    0 -0.00000000000E+00 -0.00000000000E+00 -0.45593999997E+02  0.45594000000E+02  0.51100000000E-03 0. -1.
    9900012    2    1    2    0    0  0.79936690059E+01  0.31615797561E+02  0.28638538868E+02  0.47787270650E+02  0.19999998202E+02 0.  0.
        -12    1    1    2    0    0 -0.79936690059E+01 -0.31615797561E+02 -0.28638538868E+02  0.43400729350E+02  0.00000000000E+00 0.  1.
         11    1    3    3    0    0  0.29541959604E+01 -0.13347772093E+01  0.43181384904E+01  0.53995577832E+01  0.51100000000E-03 0.  1.
        -11    1    3    3    0    0  0.66422875948E+01  0.13503294193E+02  0.12585557769E+02  0.19617726758E+02  0.51100000000E-03 0. -1.
        -12    1    3    3    0    0 -0.16028145492E+01  0.19447280577E+02  0.11734842609E+02  0.22769986109E+02  0.00000000000E+00 0.  1.
</event>
<event>
 7    1  0.4519840E-010  0.4778727E+02  0.7816164E-02  0.1312668E+00
        -11   -1    0    0    0    0  0.00000000000E+00  0.00000000000E+00  0.45593999997E+02  0.45594000000E+02  0.51100000000E-03 0. -1.
         11   -1    0    0    0    0 -0.00000000000E+00 -0.00000000000E+00 -0.45593999997E+02  0.45594000000E+02  0.51100000000E-03 0.  1.
    9900012    2    1    2    0    0  0.27207549182E+02  0.28184525215E+01 -0.33696124022E+02  0.47787272112E+02  0.20000004866E+02 0.  0.
         12    1    1    2    0    0 -0.27207549182E+02 -0.28184525215E+01  0.33696124022E+02  0.43400727888E+02  0.00000000000E+00 0. -1.
         11    1    3    3    0    0  0.90137273829E+01 -0.30334701186E+00 -0.48463134878E+01  0.10238459622E+02  0.51100000000E-03 0. -1.
        -11    1    3    3    0    0  0.76402835467E+01  0.87267972337E+01 -0.10466311304E+02  0.15622886904E+02  0.51100000000E-03 0.  1.
         12    1    3    3    0    0  0.10553538253E+02 -0.56049977003E+01 -0.18383499230E+02  0.21925925586E+02  0.00000000000E+00 0. -1.
</event>
<event>
 7    1  0.4519840E-010  0.4778730E+02  0.7816164E-02  0.1312668E+00
        -11   -1    0    0    0    0  0.00000000000E+00  0.00000000000E+00  0.45593999997E+02  0.45594000000E+02  0.51100000000E-03 0. -1.
         11   -1    0    0    0    0 -0.00000000000E+00 -0.00000000000E+00 -0.45593999997E+02  0.45594000000E+02  0.51100000000E-03 0.  1.
    9900012    2    1    2    0    0 -0.13185901077E+02 -0.17387790812E+02  0.37515558466E+02  0.47787304343E+02  0.20000151820E+02 0.  0.
        -12    1    1    2    0    0  0.13185901077E+02  0.17387790812E+02 -0.37515558466E+02  0.43400695657E+02  0.00000000000E+00 0.  1.
         11    1    3    3    0    0 -0.19677624342E+01 -0.29155488648E+01  0.80943717184E+00  0.36093909427E+01  0.51100000000E-03 0.  1.
        -11    1    3    3    0    0 -0.47505421614E+01 -0.22053384071E+01  0.32970706132E+00  0.52478448266E+01  0.51100000000E-03 0. -1.
         12    1    3    3    0    0 -0.64675964818E+01 -0.12266903540E+02  0.36376414233E+02  0.38930068573E+02  0.00000000000E+00 0. -1.
</event>
<event>
 7    1  0.4519840E-010  0.4778727E+02  0.7816164E-02  0.1312668E+00
        -11   -1    0    0    0    0  0.00000000000E+00  0.00000000000E+00  0.45593999997E+02  0.45594000000E+02  0.51100000000E-03 0. -1.
         11   -1    0    0    0    0 -0.00000000000E+00 -0.00000000000E+00 -0.45593999997E+02  0.45594000000E+02  0.51100000000E-03 0.  1.
    9900012    2    1    2    0    0  0.66172469569E+01  0.37098045085E+02 -0.21530692687E+02  0.47787266896E+02  0.19999981085E+02 0.  0.
         12    1    1    2    0    0 -0.66172469569E+01 -0.37098045085E+02  0.21530692687E+02  0.43400733104E+02  0.00000000000E+00 0. -1.
         11    1    3    3    0    0 -0.33350945105E+01  0.43413158842E+01 -0.57256079988E+01  0.79216454236E+01  0.51100000000E-03 0. -1.
        -11    1    3    3    0    0 -0.33390454324E+00  0.20783254675E+02 -0.82141954336E+01  0.22350126935E+02  0.51100000000E-03 0.  1.
         12    1    3    3    0    0  0.10286246011E+02  0.11973474526E+02 -0.75908892546E+01  0.17515494537E+02  0.00000000000E+00 0. -1.
</event>
<event>
 7    1  0.4519840E-010  0.4778727E+02  0.7816164E-02  0.1312668E+00
        -11   -1    0    0    0    0  0.00000000000E+00  0.00000000000E+00  0.45593999997E+02  0.45594000000E+02  0.51100000000E-03 0. -1.
         11   -1    0    0    0    0 -0.00000000000E+00 -0.00000000000E+00 -0.45593999997E+02  0.45594000000E+02  0.51100000000E-03 0.  1.
    9900012    2    1    2    0    0 -0.34770159273E+02  0.23789512583E+02  0.10426799203E+02  0.47787273895E+02  0.20000012999E+02 0.  0.
        -12    1    1    2    0    0  0.34770159273E+02 -0.23789512583E+02 -0.10426799203E+02  0.43400726105E+02  0.00000000000E+00 0.  1.
         11    1    3    3    0    0 -0.10735885092E+02  0.42720792692E+01 -0.30424861254E+01  0.11948498319E+02  0.51100000000E-03 0.  1.
        -11    1    3    3    0    0 -0.17718596264E+02  0.12282932312E+02  0.32293413710E+01  0.21800177194E+02  0.51100000000E-03 0. -1.
         12    1    3    3    0    0 -0.63156779167E+01  0.72345010012E+01  0.10239943957E+02  0.14038598382E+02  0.00000000000E+00 0. -1.
</event>
<event>
 7    1  0.4519840E-010  0.4778727E+02  0.7816164E-02  0.1312668E+00
        -11   -1    0    0    0    0  0.00000000000E+00  0.00000000000E+00  0.45593999997E+02  0.45594000000E+02  0.51100000000E-03 0. -1.
         11   -1    0    0    0    0 -0.00000000000E+00 -0.00000000000E+00 -0.45593999997E+02  0.45594000000E+02  0.51100000000E-03 0.  1.
    9900012    2    1    2    0    0 -0.18648673368E+02 -0.35724404109E+02 -0.16112636627E+02  0.47787272744E+02  0.20000007748E+02 0.  0.
         12    1    1    2    0    0  0.18648673368E+02  0.35724404109E+02  0.16112636627E+02  0.43400727256E+02  0.00000000000E+00 0. -1.
         11    1    3    3    0    0 -0.19191734085E+01 -0.57803756638E+01 -0.10249667179E+02  0.11922736553E+02  0.51100000000E-03 0. -1.
        -11    1    3    3    0    0 -0.61899830504E+00 -0.85575636893E+01 -0.82870715101E+00  0.86198498247E+01  0.51100000000E-03 0.  1.
        -12    1    3    3    0    0 -0.16110501654E+02 -0.21386464756E+02 -0.50342622969E+01  0.27244686366E+02  0.00000000000E+00 0.  1.
</event>
<event>
 7    1  0.4519840E-010  0.4778729E+02  0.7816164E-02  0.1312668E+00
        -11   -1    0    0    0    0  0.00000000000E+00  0.00000000000E+00  0.45593999997E+02  0.45594000000E+02  0.51100000000E-03 0. -1.
         11   -1    0    0    0    0 -0.00000000000E+00 -0.00000000000E+00 -0.45593999997E+02  0.45594000000E+02  0.51100000000E-03 0.  1.
    9900012    2    1    2    0    0  0.33230808269E+02 -0.15938268584E+02 -0.22919564626E+02  0.47787291869E+02  0.20000094946E+02 0.  0.
         12    1    1    2    0    0 -0.33230808269E+02  0.15938268584E+02  0.22919564626E+02  0.43400708131E+02  0.00000000000E+00 0. -1.
         11    1    3    3    0    0  0.86536200679E+01 -0.30089038443E+01 -0.15467213348E+02  0.17977022324E+02  0.51100000000E-03 0. -1.
        -11    1    3    3    0    0  0.19603295781E+01 -0.90051291418E+00  0.15515333755E+01  0.26572677019E+01  0.51100000000E-03 0.  1.
        -12    1    3    3    0    0  0.22616858623E+02 -0.12028851826E+02 -0.90038846532E+01  0.27153001843E+02  0.00000000000E+00 0.  1.
</event>
<event>
 7    1  0.4519840E-010  0.4778727E+02  0.7816164E-02  0.1312668E+00
        -11   -1    0    0    0    0  0.00000000000E+00  0.00000000000E+00  0.45593999997E+02  0.45594000000E+02  0.51100000000E-03 0. -1.
         11   -1    0    0    0    0 -0.00000000000E+00 -0.00000000000E+00 -0.45593999997E+02  0.45594000000E+02  0.51100000000E-03 0.  1.
    9900012    2    1    2    0    0  0.16097134907E+02 -0.31512194161E+02 -0.25129402605E+02  0.47787274104E+02  0.20000013948E+02 0.  0.
         12    1    1    2    0    0 -0.16097134907E+02  0.31512194161E+02  0.25129402605E+02  0.43400725896E+02  0.00000000000E+00 0. -1.
         11    1    3    3    0    0  0.44250464746E+01 -0.20710526054E+02 -0.12654722509E+02  0.24670811250E+02  0.51100000000E-03 0. -1.
        -11    1    3    3    0    0  0.76985881547E+01 -0.10834438151E+02 -0.42029686258E+01  0.13939808289E+02  0.51100000000E-03 0.  1.
         12    1    3    3    0    0  0.39735002776E+01  0.32770043000E-01 -0.82717114705E+01  0.91766545638E+01  0.00000000000E+00 0. -1.
</event>
<event>
 7    1  0.4519840E-010  0.4778727E+02  0.7816164E-02  0.1312668E+00
        -11   -1    0    0    0    0  0.00000000000E+00  0.00000000000E+00  0.45593999997E+02  0.45594000000E+02  0.51100000000E-03 0. -1.
         11   -1    0    0    0    0 -0.00000000000E+00 -0.00000000000E+00 -0.45593999997E+02  0.45594000000E+02  0.51100000000E-03 0.  1.
    9900012    2    1    2    0    0  0.10522883108E+02 -0.12454561205E+02 -0.40221587488E+02  0.47787271161E+02  0.20000000532E+02 0.  0.
         12    1    1    2    0    0 -0.10522883108E+02  0.12454561205E+02  0.40221587488E+02  0.43400728839E+02  0.00000000000E+00 0. -1.
         11    1    3    3    0    0 -0.42184259594E+01 -0.17746809525E+01 -0.23414447334E+01  0.51407172417E+01  0.51100000000E-03 0. -1.
        -11    1    3    3    0    0  0.35781185901E+01 -0.14615242761E+01 -0.30373783445E+01  0.49157556208E+01  0.51100000000E-03 0.  1.
         12    1    3    3    0    0  0.11163190477E+02 -0.92183559767E+01 -0.34842764410E+02  0.37730798299E+02  0.00000000000E+00 0. -1.
</event>
<event>
 7    1  0.4519840E-010  0.4778727E+02  0.7816164E-02  0.1312668E+00
        -11   -1    0    0    0    0  0.00000000000E+00  0.00000000000E+00  0.45593999997E+02  0.45594000000E+02  0.51100000000E-03 0.  1.
         11   -1    0    0    0    0 -0.00000000000E+00 -0.00000000000E+00 -0.45593999997E+02  0.45594000000E+02  0.51100000000E-03 0. -1.
    9900012    2    1    2    0    0 -0.32422089982E+02 -0.22638682002E+02  0.17886340848E+02  0.47787273848E+02  0.20000012783E+02 0.  0.
         12    1    1    2    0    0  0.32422089982E+02  0.22638682002E+02 -0.17886340848E+02  0.43400726152E+02  0.00000000000E+00 0. -1.
         11    1    3    3    0    0 -0.14168265744E+02 -0.47786818295E+01  0.27761699664E+01  0.15207980608E+02  0.51100000000E-03 0. -1.
        -11    1    3    3    0    0 -0.17504583687E+02 -0.85950094940E+01  0.11259605574E+02  0.22518067328E+02  0.51100000000E-03 0.  1.
        -12    1    3    3    0    0 -0.74924055113E+00 -0.92649906782E+01  0.38505653080E+01  0.10061225912E+02  0.00000000000E+00 0.  1.
</event>
<event>
 7    1  0.4519840E-010  0.4778726E+02  0.7816164E-02  0.1312668E+00
        -11   -1    0    0    0    0  0.00000000000E+00  0.00000000000E+00  0.45593999997E+02  0.45594000000E+02  0.51100000000E-03 0. -1.
         11   -1    0    0    0    0 -0.00000000000E+00 -0.00000000000E+00 -0.45593999997E+02  0.45594000000E+02  0.51100000000E-03 0.  1.
    9900012    2    1    2    0    0  0.67661440537E+01  0.17000690608E+01 -0.42836350087E+02  0.47787264650E+02  0.19999970845E+02 0.  0.
         12    1    1    2    0    0 -0.67661440537E+01 -0.17000690608E+01  0.42836350087E+02  0.43400735350E+02  0.00000000000E+00 0. -1.
         11    1    3    3    0    0  0.11342401948E+02  0.32148121946E+01 -0.26021018820E+02  0.28567088058E+02  0.51100000000E-03 0. -1.
        -11    1    3    3    0    0  0.78230272548E+00 -0.19564454688E+01 -0.68230673402E+00  0.22147729380E+01  0.51100000000E-03 0.  1.
         12    1    3    3    0    0 -0.53585606200E+01  0.44170233501E+00 -0.16133024533E+02  0.17005403654E+02  0.00000000000E+00 0. -1.
</event>
<event>
 7    1  0.4519840E-010  0.4778727E+02  0.7816164E-02  0.1312668E+00
        -11   -1    0    0    0    0  0.00000000000E+00  0.00000000000E+00  0.45593999997E+02  0.45594000000E+02  0.51100000000E-03 0. -1.
         11   -1    0    0    0    0 -0.00000000000E+00 -0.00000000000E+00 -0.45593999997E+02  0.45594000000E+02  0.51100000000E-03 0.  1.
    9900012    2    1    2    0    0  0.17940862174E+02 -0.53456652316E+01  0.39155748041E+02  0.47787271009E+02  0.19999999838E+02 0.  0.
        -12    1    1    2    0    0 -0.17940862174E+02  0.53456652316E+01 -0.39155748041E+02  0.43400728991E+02  0.00000000000E+00 0.  1.
         11    1    3    3    0    0  0.10697681973E-01 -0.41162653293E+01  0.10561179597E+02  0.11335001960E+02  0.51100000000E-03 0. -1.
        -11    1    3    3    0    0  0.24775266675E+01  0.44232906738E+01  0.26256483989E+01  0.57094367979E+01  0.51100000000E-03 0.  1.
         12    1    3    3    0    0  0.15452637824E+02 -0.56526905762E+01  0.25968920045E+02  0.30742832251E+02  0.00000000000E+00 0. -1.
</event>
<event>
 7    1  0.4519840E-010  0.4778728E+02  0.7816164E-02  0.1312668E+00
        -11   -1    0    0    0    0  0.00000000000E+00  0.00000000000E+00  0.45593999997E+02  0.45594000000E+02  0.51100000000E-03 0. -1.
         11   -1    0    0    0    0 -0.00000000000E+00 -0.00000000000E+00 -0.45593999997E+02  0.45594000000E+02  0.51100000000E-03 0.  1.
    9900012    2    1    2    0    0 -0.33339240268E+02  0.19805419580E+02 -0.19490081190E+02  0.47787275914E+02  0.20000022202E+02 0.  0.
         12    1    1    2    0    0  0.33339240268E+02 -0.19805419580E+02  0.19490081190E+02  0.43400724086E+02  0.00000000000E+00 0. -1.
         11    1    3    3    0    0 -0.83296644746E+01  0.59904031194E+01 -0.26708088362E+01  0.10601955475E+02  0.51100000000E-03 0. -1.
        -11    1    3    3    0    0 -0.25741225065E+02  0.78550611396E+01 -0.11916161660E+02  0.29433103172E+02  0.51100000000E-03 0.  1.
         12    1    3    3    0    0  0.73164927103E+00  0.59599553212E+01 -0.49031106933E+01  0.77522172672E+01  0.00000000000E+00 0. -1.
</event>
<event>
 7    1  0.4519840E-010  0.4778727E+02  0.7816164E-02  0.1312668E+00
        -11   -1    0    0    0    0  0.00000000000E+00  0.00000000000E+00  0.45593999997E+02  0.45594000000E+02  0.51100000000E-03 0. -1.
         11   -1    0    0    0    0 -0.00000000000E+00 -0.00000000000E+00 -0.45593999997E+02  0.45594000000E+02  0.51100000000E-03 0.  1.
    9900012    2    1    2    0    0  0.72416110440E+01 -0.32650538970E+02  0.27660884749E+02  0.47787272234E+02  0.20000005423E+02 0.  0.
        -12    1    1    2    0    0 -0.72416110440E+01  0.32650538970E+02 -0.27660884749E+02  0.43400727766E+02  0.00000000000E+00 0.  1.
         11    1    3    3    0    0 -0.10134879327E+01 -0.11485624569E+02  0.11255810074E+02  0.16113348200E+02  0.51100000000E-03 0.  1.
        -11    1    3    3    0    0  0.16093703331E+01 -0.14663006073E+02  0.16814138665E+02  0.22367589930E+02  0.51100000000E-03 0. -1.
        -12    1    3    3    0    0  0.66457286436E+01 -0.65019083277E+01 -0.40906398955E+00  0.93063341039E+01  0.00000000000E+00 0.  1.
</event>
<event>
 7    1  0.4519840E-010  0.4778727E+02  0.7816164E-02  0.1312668E+00
        -11   -1    0    0    0    0  0.00000000000E+00  0.00000000000E+00  0.45593999997E+02  0.45594000000E+02  0.51100000000E-03 0.  1.
         11   -1    0    0    0    0 -0.00000000000E+00 -0.00000000000E+00 -0.45593999997E+02  0.45594000000E+02  0.51100000000E-03 0. -1.
    9900012    2    1    2    0    0 -0.16180322607E+02  0.35916110084E+02 -0.18216837680E+02  0.47787274450E+02  0.20000015526E+02 0.  0.
         12    1    1    2    0    0  0.16180322607E+02 -0.35916110084E+02  0.18216837680E+02  0.43400725550E+02  0.00000000000E+00 0. -1.
         11    1    3    3    0    0 -0.60343977351E+00 -0.29451218688E-01  0.24261832423E+01  0.25002744492E+01  0.51100000000E-03 0. -1.
        -11    1    3    3    0    0 -0.22205769709E+01  0.12407244332E+02 -0.29249941884E+01  0.12939330170E+02  0.51100000000E-03 0.  1.
        -12    1    3    3    0    0 -0.13356305862E+02  0.23538316971E+02 -0.17718026734E+02  0.32347669830E+02  0.00000000000E+00 0.  1.
</event>
<event>
 7    1  0.4519840E-010  0.4778727E+02  0.7816164E-02  0.1312668E+00
        -11   -1    0    0    0    0  0.00000000000E+00  0.00000000000E+00  0.45593999997E+02  0.45594000000E+02  0.51100000000E-03 0. -1.
         11   -1    0    0    0    0 -0.00000000000E+00 -0.00000000000E+00 -0.45593999997E+02  0.45594000000E+02  0.51100000000E-03 0.  1.
    9900012    2    1    2    0    0 -0.15141405060E+02 -0.29206311159E+02 -0.28308174259E+02  0.47787268571E+02  0.19999988722E+02 0.  0.
         12    1    1    2    0    0  0.15141405060E+02  0.29206311159E+02  0.28308174259E+02  0.43400731429E+02  0.00000000000E+00 0. -1.
         11    1    3    3    0    0  0.25917798867E+00 -0.16181259295E+02 -0.10877179722E+02  0.19499060607E+02  0.51100000000E-03 0. -1.
        -11    1    3    3    0    0 -0.55297089431E+01 -0.87707075262E+01 -0.40657689227E+01  0.11137031413E+02  0.51100000000E-03 0.  1.
        -12    1    3    3    0    0 -0.98708741052E+01 -0.42543443382E+01 -0.13365225614E+02  0.17151176550E+02  0.00000000000E+00 0.  1.
</event>
<event>
 7    1  0.4519840E-010  0.4778728E+02  0.7816164E-02  0.1312668E+00
        -11   -1    0    0    0    0  0.00000000000E+00  0.00000000000E+00  0.45593999997E+02  0.45594000000E+02  0.51100000000E-03 0. -1.
         11   -1    0    0    0    0 -0.00000000000E+00 -0.00000000000E+00 -0.45593999997E+02  0.45594000000E+02  0.51100000000E-03 0.  1.
    9900012    2    1    2    0    0 -0.18149596235E+02  0.12367592770E+02 -0.37433375644E+02  0.47787276429E+02  0.20000024549E+02 0.  0.
         12    1    1    2    0    0  0.18149596235E+02 -0.12367592770E+02  0.37433375644E+02  0.43400723571E+02  0.00000000000E+00 0. -1.
         11    1    3    3    0    0  0.43125052001E+00 -0.14295692857E+01 -0.11196894577E+02  0.11296021148E+02  0.51100000000E-03 0. -1.
        -11    1    3    3    0    0 -0.10507568192E+02  0.39977793358E+01 -0.18424935132E+02  0.21584009447E+02  0.51100000000E-03 0.  1.
         12    1    3    3    0    0 -0.80732785635E+01  0.97993827200E+01 -0.78115459347E+01  0.14907245834E+02  0.00000000000E+00 0. -1.
</event>
<event>
 7    1  0.4519840E-010  0.4778727E+02  0.7816164E-02  0.1312668E+00
        -11   -1    0    0    0    0  0.00000000000E+00  0.00000000000E+00  0.45593999997E+02  0.45594000000E+02  0.51100000000E-03 0. -1.
         11   -1    0    0    0    0 -0.00000000000E+00 -0.00000000000E+00 -0.45593999997E+02  0.45594000000E+02  0.51100000000E-03 0.  1.
    9900012    2    1    2    0    0  0.32159456210E+02  0.24208386206E+02  0.16227955773E+02  0.47787272644E+02  0.20000007294E+02 0.  0.
        -12    1    1    2    0    0 -0.32159456210E+02 -0.24208386206E+02 -0.16227955773E+02  0.43400727356E+02  0.00000000000E+00 0.  1.
         11    1    3    3    0    0  0.21431136658E+01 -0.83895871747E+00  0.58985126311E+01  0.63316063865E+01  0.51100000000E-03 0. -1.
        -11    1    3    3    0    0  0.53514464690E+01  0.30533617336E+01 -0.15246546269E+01  0.63470913952E+01  0.51100000000E-03 0.  1.
         12    1    3    3    0    0  0.24664896076E+02  0.21993983190E+02  0.11854097769E+02  0.35108574863E+02  0.00000000000E+00 0. -1.
</event>
<event>
 7    1  0.4519840E-010  0.4778727E+02  0.7816164E-02  0.1312668E+00
        -11   -1    0    0    0    0  0.00000000000E+00  0.00000000000E+00  0.45593999997E+02  0.45594000000E+02  0.51100000000E-03 0. -1.
         11   -1    0    0    0    0 -0.00000000000E+00 -0.00000000000E+00 -0.45593999997E+02  0.45594000000E+02  0.51100000000E-03 0.  1.
    9900012    2    1    2    0    0 -0.13944626136E+01  0.10882918460E+02 -0.41990959997E+02  0.47787272337E+02  0.20000005893E+02 0.  0.
         12    1    1    2    0    0  0.13944626136E+01 -0.10882918460E+02  0.41990959997E+02  0.43400727663E+02  0.00000000000E+00 0. -1.
         11    1    3    3    0    0  0.14111358162E+01  0.43095213157E+01 -0.20653120056E+02  0.21145085637E+02  0.51100000000E-03 0. -1.
        -11    1    3    3    0    0 -0.42930432394E+01  0.29412392186E+01 -0.22047750038E+02  0.22653573458E+02  0.51100000000E-03 0.  1.
         12    1    3    3    0    0  0.14874448097E+01  0.36321579252E+01  0.70991009692E+00  0.39886132429E+01  0.00000000000E+00 0. -1.
</event>
<event>
 7    1  0.4519840E-010  0.4778727E+02  0.7816164E-02  0.1312668E+00
        -11   -1    0    0    0    0  0.00000000000E+00  0.00000000000E+00  0.45593999997E+02  0.45594000000E+02  0.51100000000E-03 0. -1.
         11   -1    0    0    0    0 -0.00000000000E+00 -0.00000000000E+00 -0.45593999997E+02  0.45594000000E+02  0.51100000000E-03 0.  1.
    9900012    2    1    2    0    0 -0.25088696498E+02  0.13508461128E+01  0.35388644974E+02  0.47787266477E+02  0.19999979175E+02 0.  0.
        -12    1    1    2    0    0  0.25088696498E+02 -0.13508461128E+01 -0.35388644974E+02  0.43400733523E+02  0.00000000000E+00 0.  1.
         11    1    3    3    0    0 -0.14998784046E+02 -0.32383028734E+01  0.13035530344E+02  0.20133931061E+02  0.51100000000E-03 0. -1.
        -11    1    3    3    0    0 -0.84923251763E+01 -0.25842738366E+01  0.13344292849E+02  0.16027108600E+02  0.51100000000E-03 0.  1.
        -12    1    3    3    0    0 -0.15975872761E+01  0.71734228229E+01  0.90088217812E+01  0.11626226816E+02  0.00000000000E+00 0.  1.
</event>
<event>
 7    1  0.4519840E-010  0.4778727E+02  0.7816164E-02  0.1312668E+00
        -11   -1    0    0    0    0  0.00000000000E+00  0.00000000000E+00  0.45593999997E+02  0.45594000000E+02  0.51100000000E-03 0. -1.
         11   -1    0    0    0    0 -0.00000000000E+00 -0.00000000000E+00 -0.45593999997E+02  0.45594000000E+02  0.51100000000E-03 0.  1.
    9900012    2    1    2    0    0  0.11750247627E+02 -0.22442987902E+02 -0.35240138103E+02  0.47787270066E+02  0.19999995539E+02 0.  0.
         12    1    1    2    0    0 -0.11750247627E+02  0.22442987902E+02  0.35240138103E+02  0.43400729934E+02  0.00000000000E+00 0. -1.
         11    1    3    3    0    0  0.12897326127E+00 -0.78702398760E+01 -0.26533780921E+01  0.83064869451E+01  0.51100000000E-03 0.  1.
        -11    1    3    3    0    0  0.24611246008E+01 -0.12672811930E+02 -0.17963940321E+02  0.22121492912E+02  0.51100000000E-03 0. -1.
         12    1    3    3    0    0  0.91601497653E+01 -0.18999360959E+01 -0.14622819690E+02  0.17359290209E+02  0.00000000000E+00 0. -1.
</event>
<event>
 7    1  0.4519840E-010  0.4778727E+02  0.7816164E-02  0.1312668E+00
        -11   -1    0    0    0    0  0.00000000000E+00  0.00000000000E+00  0.45593999997E+02  0.45594000000E+02  0.51100000000E-03 0. -1.
         11   -1    0    0    0    0 -0.00000000000E+00 -0.00000000000E+00 -0.45593999997E+02  0.45594000000E+02  0.51100000000E-03 0.  1.
    9900012    2    1    2    0    0  0.87905414057E+01 -0.31932045748E+02  0.28048071328E+02  0.47787268796E+02  0.19999989748E+02 0.  0.
        -12    1    1    2    0    0 -0.87905414057E+01  0.31932045748E+02 -0.28048071328E+02  0.43400731204E+02  0.00000000000E+00 0.  1.
         11    1    3    3    0    0  0.31145064043E+01 -0.41083177445E+01 -0.14874124083E+01  0.53657078532E+01  0.51100000000E-03 0. -1.
        -11    1    3    3    0    0 -0.32593991099E+01 -0.56109793696E+01  0.69241454083E+01  0.94894974546E+01  0.51100000000E-03 0.  1.
         12    1    3    3    0    0  0.89354341113E+01 -0.22212748634E+02  0.22611338328E+02  0.32932063488E+02  0.00000000000E+00 0. -1.
</event>
<event>
 7    1  0.4519840E-010  0.4778727E+02  0.7816164E-02  0.1312668E+00
        -11   -1    0    0    0    0  0.00000000000E+00  0.00000000000E+00  0.45593999997E+02  0.45594000000E+02  0.51100000000E-03 0. -1.
         11   -1    0    0    0    0 -0.00000000000E+00 -0.00000000000E+00 -0.45593999997E+02  0.45594000000E+02  0.51100000000E-03 0.  1.
    9900012    2    1    2    0    0  0.31715189110E+02  0.17760036225E+01  0.29573903339E+02  0.47787272266E+02  0.20000005569E+02 0.  0.
        -12    1    1    2    0    0 -0.31715189110E+02 -0.17760036225E+01 -0.29573903339E+02  0.43400727734E+02  0.00000000000E+00 0.  1.
         11    1    3    3    0    0  0.51947099454E+01 -0.59360997309E+00  0.83166042038E+01  0.98236088054E+01  0.51100000000E-03 0. -1.
        -11    1    3    3    0    0  0.15992557987E+02 -0.47424746038E+01  0.51686455553E+01  0.17463329393E+02  0.51100000000E-03 0.  1.
        -12    1    3    3    0    0  0.10527921177E+02  0.71120881994E+01  0.16088653580E+02  0.20500334068E+02  0.00000000000E+00 0.  1.
</event>
<event>
 7    1  0.4519840E-010  0.4778727E+02  0.7816164E-02  0.1312668E+00
        -11   -1    0    0    0    0  0.00000000000E+00  0.00000000000E+00  0.45593999997E+02  0.45594000000E+02  0.51100000000E-03 0.  1.
         11   -1    0    0    0    0 -0.00000000000E+00 -0.00000000000E+00 -0.45593999997E+02  0.45594000000E+02  0.51100000000E-03 0. -1.
    9900012    2    1    2    0    0  0.17001428594E+02  0.39647036724E+02 -0.47631071814E+01  0.47787270913E+02  0.19999999402E+02 0.  0.
        -12    1    1    2    0    0 -0.17001428594E+02 -0.39647036724E+02  0.47631071814E+01  0.43400729087E+02  0.00000000000E+00 0.  1.
         11    1    3    3    0    0  0.98168718150E+01  0.34029335174E+02 -0.89094137162E+00  0.35428242991E+02  0.51100000000E-03 0. -1.
        -11    1    3    3    0    0 -0.14609362669E+01  0.14331293754E+01 -0.12672770409E+01  0.24071115350E+01  0.51100000000E-03 0.  1.
         12    1    3    3    0    0  0.86454930455E+01  0.41845721751E+01 -0.26048887689E+01  0.99519163876E+01  0.00000000000E+00 0. -1.
</event>
<event>
 7    1  0.4519840E-010  0.4778727E+02  0.7816164E-02  0.1312668E+00
        -11   -1    0    0    0    0  0.00000000000E+00  0.00000000000E+00  0.45593999997E+02  0.45594000000E+02  0.51100000000E-03 0. -1.
         11   -1    0    0    0    0 -0.00000000000E+00 -0.00000000000E+00 -0.45593999997E+02  0.45594000000E+02  0.51100000000E-03 0.  1.
    9900012    2    1    2    0    0 -0.53249516633E+01 -0.18633386134E+02 -0.38833813417E+02  0.47787271279E+02  0.20000001070E+02 0.  0.
         12    1    1    2    0    0  0.53249516633E+01  0.18633386134E+02  0.38833813417E+02  0.43400728721E+02  0.00000000000E+00 0. -1.
         11    1    3    3    0    0  0.15475530767E+00  0.14473111988E+01 -0.95854546884E+01  0.96953391253E+01  0.51100000000E-03 0. -1.
        -11    1    3    3    0    0 -0.35701978544E+01 -0.76823888690E+01 -0.22067211993E+02  0.23637412229E+02  0.51100000000E-03 0.  1.
        -12    1    3    3    0    0 -0.19095091165E+01 -0.12398308464E+02 -0.71811467350E+01  0.14454519925E+02  0.00000000000E+00 0.  1.
</event>
<event>
 7    1  0.4519840E-010  0.4778727E+02  0.7816164E-02  0.1312668E+00
        -11   -1    0    0    0    0  0.00000000000E+00  0.00000000000E+00  0.45593999997E+02  0.45594000000E+02  0.51100000000E-03 0. -1.
         11   -1    0    0    0    0 -0.00000000000E+00 -0.00000000000E+00 -0.45593999997E+02  0.45594000000E+02  0.51100000000E-03 0.  1.
    9900012    2    1    2    0    0  0.19579206520E+02  0.36698858953E+02  0.12388372040E+02  0.47787270303E+02  0.19999996620E+02 0.  0.
        -12    1    1    2    0    0 -0.19579206520E+02 -0.36698858953E+02 -0.12388372040E+02  0.43400729697E+02  0.00000000000E+00 0.  1.
         11    1    3    3    0    0  0.12140792864E+02  0.25316390440E+02  0.92608956770E+01  0.29564889062E+02  0.51100000000E-03 0. -1.
        -11    1    3    3    0    0  0.89306924824E+01  0.10529328240E+02  0.58562566614E+01  0.14997325220E+02  0.51100000000E-03 0.  1.
        -12    1    3    3    0    0 -0.14922788259E+01  0.85314027331E+00 -0.27287802988E+01  0.32250560211E+01  0.00000000000E+00 0.  1.
</event>
<event>
 7    1  0.4519840E-010  0.4778730E+02  0.7816164E-02  0.1312668E+00
        -11   -1    0    0    0    0  0.00000000000E+00  0.00000000000E+00  0.45593999997E+02  0.45594000000E+02  0.51100000000E-03 0. -1.
         11   -1    0    0    0    0 -0.00000000000E+00 -0.00000000000E+00 -0.45593999997E+02  0.45594000000E+02  0.51100000000E-03 0.  1.
    9900012    2    1    2    0    0 -0.15881953888E+02 -0.28263053780E+02 -0.28854533214E+02  0.47787300060E+02  0.20000132292E+02 0.  0.
         12    1    1    2    0    0  0.15881953888E+02  0.28263053780E+02  0.28854533214E+02  0.43400699940E+02  0.00000000000E+00 0. -1.
         11    1    3    3    0    0  0.23665422637E+01 -0.58978041050E+01 -0.56687760623E+01  0.85158462793E+01  0.51100000000E-03 0. -1.
        -11    1    3    3    0    0 -0.55131916551E+01 -0.14645189132E+02 -0.17111128586E+02  0.23187659836E+02  0.51100000000E-03 0.  1.
         12    1    3    3    0    0 -0.12735304497E+02 -0.77200605430E+01 -0.60746285662E+01  0.16083793944E+02  0.00000000000E+00 0. -1.
</event>
<event>
 7    1  0.4519840E-010  0.4778727E+02  0.7816164E-02  0.1312668E+00
        -11   -1    0    0    0    0  0.00000000000E+00  0.00000000000E+00  0.45593999997E+02  0.45594000000E+02  0.51100000000E-03 0. -1.
         11   -1    0    0    0    0 -0.00000000000E+00 -0.00000000000E+00 -0.45593999997E+02  0.45594000000E+02  0.51100000000E-03 0.  1.
    9900012    2    1    2    0    0  0.15073915657E+02 -0.17555082568E+02  0.36718111281E+02  0.47787267826E+02  0.19999985327E+02 0.  0.
        -12    1    1    2    0    0 -0.15073915657E+02  0.17555082568E+02 -0.36718111281E+02  0.43400732174E+02  0.00000000000E+00 0.  1.
         11    1    3    3    0    0  0.47201485606E+01 -0.70649786054E+01  0.21096088519E+01  0.87546658930E+01  0.51100000000E-03 0. -1.
        -11    1    3    3    0    0  0.36980578237E+01  0.39872843992E+00  0.25018858901E+01  0.44826386543E+01  0.51100000000E-03 0.  1.
        -12    1    3    3    0    0  0.66557092727E+01 -0.10888832402E+02  0.32106616539E+02  0.34549963279E+02  0.00000000000E+00 0.  1.
</event>
<event>
 7    1  0.4519840E-010  0.4778727E+02  0.7816164E-02  0.1312668E+00
        -11   -1    0    0    0    0  0.00000000000E+00  0.00000000000E+00  0.45593999997E+02  0.45594000000E+02  0.51100000000E-03 0. -1.
         11   -1    0    0    0    0 -0.00000000000E+00 -0.00000000000E+00 -0.45593999997E+02  0.45594000000E+02  0.51100000000E-03 0.  1.
    9900012    2    1    2    0    0  0.39892794543E+02 -0.13685567499E+02 -0.10241735275E+02  0.47787274710E+02  0.20000016713E+02 0.  0.
         12    1    1    2    0    0 -0.39892794543E+02  0.13685567499E+02  0.10241735275E+02  0.43400725290E+02  0.00000000000E+00 0. -1.
         11    1    3    3    0    0  0.25434194921E+01  0.17032816382E+01 -0.24852865035E+01  0.39429431035E+01  0.51100000000E-03 0. -1.
        -11    1    3    3    0    0  0.80234529818E+01 -0.28257748946E+00  0.38109558201E+01  0.88870148145E+01  0.51100000000E-03 0.  1.
        -12    1    3    3    0    0  0.29325922069E+02 -0.15106271648E+02 -0.11567404592E+02  0.34957316792E+02  0.00000000000E+00 0.  1.
</event>
<event>
 7    1  0.4519840E-010  0.4778727E+02  0.7816164E-02  0.1312668E+00
        -11   -1    0    0    0    0  0.00000000000E+00  0.00000000000E+00  0.45593999997E+02  0.45594000000E+02  0.51100000000E-03 0. -1.
         11   -1    0    0    0    0 -0.00000000000E+00 -0.00000000000E+00 -0.45593999997E+02  0.45594000000E+02  0.51100000000E-03 0.  1.
    9900012    2    1    2    0    0  0.42260551390E+00 -0.40205722984E+02 -0.16338447332E+02  0.47787267088E+02  0.19999981961E+02 0.  0.
        -12    1    1    2    0    0 -0.42260551390E+00  0.40205722984E+02  0.16338447332E+02  0.43400732912E+02  0.00000000000E+00 0.  1.
         11    1    3    3    0    0 -0.34038596481E+01 -0.10027461337E+02  0.23542656325E+01  0.10847986371E+02  0.51100000000E-03 0.  1.
        -11    1    3    3    0    0 -0.39133479143E-01 -0.21121469227E+02 -0.85026462669E+01  0.22768684361E+02  0.51100000000E-03 0. -1.
        -12    1    3    3    0    0  0.38655986412E+01 -0.90567924200E+01 -0.10190066697E+02  0.14170596356E+02  0.00000000000E+00 0.  1.
</event>
<event>
 7    1  0.4519840E-010  0.4778728E+02  0.7816164E-02  0.1312668E+00
        -11   -1    0    0    0    0  0.00000000000E+00  0.00000000000E+00  0.45593999997E+02  0.45594000000E+02  0.51100000000E-03 0. -1.
         11   -1    0    0    0    0 -0.00000000000E+00 -0.00000000000E+00 -0.45593999997E+02  0.45594000000E+02  0.51100000000E-03 0.  1.
    9900012    2    1    2    0    0 -0.14652515863E+02 -0.11157001764E+02 -0.39299461312E+02  0.47787279166E+02  0.20000037031E+02 0.  0.
         12    1    1    2    0    0  0.14652515863E+02  0.11157001764E+02  0.39299461312E+02  0.43400720834E+02  0.00000000000E+00 0. -1.
         11    1    3    3    0    0 -0.60560123795E+01 -0.33470325286E+00 -0.85392508918E+01  0.10474068849E+02  0.51100000000E-03 0. -1.
        -11    1    3    3    0    0 -0.27191876208E+01 -0.61346104276E+01 -0.12059208447E+01  0.68177468244E+01  0.51100000000E-03 0.  1.
         12    1    3    3    0    0 -0.58773158622E+01 -0.46876880839E+01 -0.29554289576E+02  0.30495463493E+02  0.00000000000E+00 0. -1.
</event>
<event>
 7    1  0.4519840E-010  0.4778727E+02  0.7816164E-02  0.1312668E+00
        -11   -1    0    0    0    0  0.00000000000E+00  0.00000000000E+00  0.45593999997E+02  0.45594000000E+02  0.51100000000E-03 0. -1.
         11   -1    0    0    0    0 -0.00000000000E+00 -0.00000000000E+00 -0.45593999997E+02  0.45594000000E+02  0.51100000000E-03 0.  1.
    9900012    2    1    2    0    0 -0.18001790669E+02  0.20720054649E+02  0.33619010653E+02  0.47787274093E+02  0.20000013902E+02 0.  0.
        -12    1    1    2    0    0  0.18001790669E+02 -0.20720054649E+02 -0.33619010653E+02  0.43400725907E+02  0.00000000000E+00 0.  1.
         11    1    3    3    0    0 -0.16146417757E+01  0.27832494208E+01  0.26590052211E+01  0.41741890744E+01  0.51100000000E-03 0. -1.
        -11    1    3    3    0    0 -0.13019224279E+02  0.10386779146E+02  0.66458575397E+01  0.17931893501E+02  0.51100000000E-03 0.  1.
        -12    1    3    3    0    0 -0.33679246146E+01  0.75500260818E+01  0.24314147892E+02  0.25681191518E+02  0.00000000000E+00 0.  1.
</event>
<event>
 7    1  0.4519840E-010  0.4778727E+02  0.7816164E-02  0.1312668E+00
        -11   -1    0    0    0    0  0.00000000000E+00  0.00000000000E+00  0.45593999997E+02  0.45594000000E+02  0.51100000000E-03 0. -1.
         11   -1    0    0    0    0 -0.00000000000E+00 -0.00000000000E+00 -0.45593999997E+02  0.45594000000E+02  0.51100000000E-03 0.  1.
    9900012    2    1    2    0    0  0.12978291989E+02  0.32811066359E+02 -0.25270957848E+02  0.47787269025E+02  0.19999990793E+02 0.  0.
         12    1    1    2    0    0 -0.12978291989E+02 -0.32811066359E+02  0.25270957848E+02  0.43400730975E+02  0.00000000000E+00 0. -1.
         11    1    3    3    0    0  0.65532325395E+01  0.81818809335E+01 -0.14200421205E+02  0.17650495602E+02  0.51100000000E-03 0. -1.
        -11    1    3    3    0    0 -0.21637608442E+01  0.10030127102E+02 -0.77923405550E+01  0.12884327000E+02  0.51100000000E-03 0.  1.
        -12    1    3    3    0    0  0.85888202931E+01  0.14599058324E+02 -0.32781960882E+01  0.17252446423E+02  0.00000000000E+00 0.  1.
</event>
<event>
 7    1  0.4519840E-010  0.4778727E+02  0.7816164E-02  0.1312668E+00
        -11   -1    0    0    0    0  0.00000000000E+00  0.00000000000E+00  0.45593999997E+02  0.45594000000E+02  0.51100000000E-03 0.  1.
         11   -1    0    0    0    0 -0.00000000000E+00 -0.00000000000E+00 -0.45593999997E+02  0.45594000000E+02  0.51100000000E-03 0. -1.
    9900012    2    1    2    0    0  0.63349648517E+01  0.38835658548E+02  0.18310735597E+02  0.47787271981E+02  0.20000004269E+02 0.  0.
        -12    1    1    2    0    0 -0.63349648517E+01 -0.38835658548E+02 -0.18310735597E+02  0.43400728019E+02  0.00000000000E+00 0.  1.
         11    1    3    3    0    0  0.51485542775E+01  0.13467120210E+02  0.43628493690E+01  0.15063379195E+02  0.51100000000E-03 0. -1.
        -11    1    3    3    0    0  0.55443507434E+01  0.22860316744E+01  0.40316242153E+01  0.72263241040E+01  0.51100000000E-03 0.  1.
        -12    1    3    3    0    0 -0.43579401691E+01  0.23082506663E+02  0.99162620122E+01  0.25497568681E+02  0.00000000000E+00 0.  1.
</event>
<event>
 7    1  0.4519840E-010  0.4778727E+02  0.7816164E-02  0.1312668E+00
        -11   -1    0    0    0    0  0.00000000000E+00  0.00000000000E+00  0.45593999997E+02  0.45594000000E+02  0.51100000000E-03 0. -1.
         11   -1    0    0    0    0 -0.00000000000E+00 -0.00000000000E+00 -0.45593999997E+02  0.45594000000E+02  0.51100000000E-03 0.  1.
    9900012    2    1    2    0    0  0.28064501594E+02 -0.63615370771E+01  0.32489045813E+02  0.47787268422E+02  0.19999988043E+02 0.  0.
        -12    1    1    2    0    0 -0.28064501594E+02  0.63615370771E+01 -0.32489045813E+02  0.43400731578E+02  0.00000000000E+00 0.  1.
         11    1    3    3    0    0  0.14105530774E+02 -0.20069427180E+01  0.17649396381E+02  0.22682482456E+02  0.51100000000E-03 0. -1.
        -11    1    3    3    0    0  0.20337008786E+01  0.71664804664E+00  0.11530222664E+02  0.11730113326E+02  0.51100000000E-03 0.  1.
        -12    1    3    3    0    0  0.11925269941E+02 -0.50712424057E+01  0.33094267676E+01  0.13374672640E+02  0.00000000000E+00 0.  1.
</event>
<event>
 7    1  0.7633096E-010  0.4778728E+02  0.7816164E-02  0.1312668E+00
        -11   -1    0    0    0    0  0.00000000000E+00  0.00000000000E+00  0.45593999997E+02  0.45594000000E+02  0.51100000000E-03 0. -1.
         11   -1    0    0    0    0 -0.00000000000E+00 -0.00000000000E+00 -0.45593999997E+02  0.45594000000E+02  0.51100000000E-03 0.  1.
    9900012    2    1    2    0    0 -0.66176482252E+00 -0.37528386533E+02 -0.21790016024E+02  0.47787279651E+02  0.20000039242E+02 0.  0.
         12    1    1    2    0    0  0.66176482252E+00  0.37528386533E+02  0.21790016024E+02  0.43400720349E+02  0.00000000000E+00 0. -1.
         11    1    3    3    0    0  0.77975217752E+00 -0.15291879874E+00  0.16635634505E+01  0.18435946497E+01  0.51100000000E-03 0. -1.
        -11    1    3    3    0    0 -0.10395276741E+01 -0.19744303689E+02 -0.49498225078E+01  0.20381827423E+02  0.51100000000E-03 0.  1.
        -12    1    3    3    0    0 -0.40198932590E+00 -0.17631164045E+02 -0.18503756967E+02  0.25561857579E+02  0.00000000000E+00 0.  1.
</event>
<event>
 7    1  0.4519840E-010  0.4778727E+02  0.7816164E-02  0.1312668E+00
        -11   -1    0    0    0    0  0.00000000000E+00  0.00000000000E+00  0.45593999997E+02  0.45594000000E+02  0.51100000000E-03 0. -1.
         11   -1    0    0    0    0 -0.00000000000E+00 -0.00000000000E+00 -0.45593999997E+02  0.45594000000E+02  0.51100000000E-03 0.  1.
    9900012    2    1    2    0    0 -0.38715383120E+01 -0.11667159094E+02  0.41623454093E+02  0.47787270272E+02  0.19999996479E+02 0.  0.
        -12    1    1    2    0    0  0.38715383120E+01  0.11667159094E+02 -0.41623454093E+02  0.43400729728E+02  0.00000000000E+00 0.  1.
         11    1    3    3    0    0  0.48395875661E+01 -0.15663253254E+01  0.57179890607E+01  0.76531289022E+01  0.51100000000E-03 0. -1.
        -11    1    3    3    0    0  0.24898595046E+01 -0.45370137724E+01  0.76694987753E+01  0.92523027430E+01  0.51100000000E-03 0.  1.
         12    1    3    3    0    0 -0.11200985383E+02 -0.55638199966E+01  0.28235966257E+02  0.30881838627E+02  0.00000000000E+00 0. -1.
</event>
<event>
 7    1  0.4519840E-010  0.4778727E+02  0.7816164E-02  0.1312668E+00
        -11   -1    0    0    0    0  0.00000000000E+00  0.00000000000E+00  0.45593999997E+02  0.45594000000E+02  0.51100000000E-03 0. -1.
         11   -1    0    0    0    0 -0.00000000000E+00 -0.00000000000E+00 -0.45593999997E+02  0.45594000000E+02  0.51100000000E-03 0.  1.
    9900012    2    1    2    0    0 -0.25586587421E+02  0.10461757749E+02  0.33458948956E+02  0.47787273090E+02  0.20000009327E+02 0.  0.
        -12    1    1    2    0    0  0.25586587421E+02 -0.10461757749E+02 -0.33458948956E+02  0.43400726910E+02  0.00000000000E+00 0.  1.
         11    1    3    3    0    0 -0.13114089765E+02  0.33820909629E+01  0.14343855808E+02  0.19727242315E+02  0.51100000000E-03 0. -1.
        -11    1    3    3    0    0 -0.61162148171E+01 -0.15771021374E+01  0.21289909636E+00  0.63198624294E+01  0.51100000000E-03 0.  1.
         12    1    3    3    0    0 -0.63562828385E+01  0.86567689239E+01  0.18902194052E+02  0.21740168346E+02  0.00000000000E+00 0. -1.
</event>
<event>
 7    1  0.4724098E-010  0.4778727E+02  0.7816164E-02  0.1312668E+00
        -11   -1    0    0    0    0  0.00000000000E+00  0.00000000000E+00  0.45593999997E+02  0.45594000000E+02  0.51100000000E-03 0. -1.
         11   -1    0    0    0    0 -0.00000000000E+00 -0.00000000000E+00 -0.45593999997E+02  0.45594000000E+02  0.51100000000E-03 0.  1.
    9900012    2    1    2    0    0 -0.16768301663E+02  0.25218373948E+02 -0.31088276738E+02  0.47787271022E+02  0.19999999900E+02 0.  0.
         12    1    1    2    0    0  0.16768301663E+02 -0.25218373948E+02  0.31088276738E+02  0.43400728978E+02  0.00000000000E+00 0. -1.
         11    1    3    3    0    0  0.15055318748E+01  0.24375885642E+01 -0.62275296575E+01  0.68549682807E+01  0.51100000000E-03 0. -1.
        -11    1    3    3    0    0 -0.12730901790E+01 -0.20344117013E+01 -0.13456482343E+01  0.27514285391E+01  0.51100000000E-03 0.  1.
        -12    1    3    3    0    0 -0.17000743359E+02  0.24815197085E+02 -0.23515098846E+02  0.38180874203E+02  0.00000000000E+00 0.  1.
</event>
<event>
 7    1  0.4519840E-010  0.4778729E+02  0.7816164E-02  0.1312668E+00
        -11   -1    0    0    0    0  0.00000000000E+00  0.00000000000E+00  0.45593999997E+02  0.45594000000E+02  0.51100000000E-03 0. -1.
         11   -1    0    0    0    0 -0.00000000000E+00 -0.00000000000E+00 -0.45593999997E+02  0.45594000000E+02  0.51100000000E-03 0.  1.
    9900012    2    1    2    0    0 -0.29699281717E+01 -0.25517587583E+02  0.34980769718E+02  0.47787285726E+02  0.20000066938E+02 0.  0.
        -12    1    1    2    0    0  0.29699281717E+01  0.25517587583E+02 -0.34980769718E+02  0.43400714274E+02  0.00000000000E+00 0.  1.
         11    1    3    3    0    0 -0.77384174214E+01 -0.13947295755E+02  0.19873829965E+02  0.25482921356E+02  0.51100000000E-03 0.  1.
        -11    1    3    3    0    0 -0.25086562133E+01 -0.25674561893E+01  0.78758915178E+01  0.86553367781E+01  0.51100000000E-03 0. -1.
        -12    1    3    3    0    0  0.72771454629E+01 -0.90028356387E+01  0.72310482352E+01  0.13649027592E+02  0.00000000000E+00 0.  1.
</event>
<event>
 7    1  0.4519840E-010  0.4778727E+02  0.7816164E-02  0.1312668E+00
        -11   -1    0    0    0    0  0.00000000000E+00  0.00000000000E+00  0.45593999997E+02  0.45594000000E+02  0.51100000000E-03 0. -1.
         11   -1    0    0    0    0 -0.00000000000E+00 -0.00000000000E+00 -0.45593999997E+02  0.45594000000E+02  0.51100000000E-03 0.  1.
    9900012    2    1    2    0    0 -0.41905429498E+02  0.91822618895E+01  0.65760312646E+01  0.47787272563E+02  0.20000006925E+02 0.  0.
         12    1    1    2    0    0  0.41905429498E+02 -0.91822618895E+01 -0.65760312646E+01  0.43400727437E+02  0.00000000000E+00 0. -1.
         11    1    3    3    0    0 -0.17452205749E+02  0.15552182295E+01 -0.12223450343E+01  0.17563949354E+02  0.51100000000E-03 0. -1.
        -11    1    3    3    0    0 -0.25053838375E+02  0.70825133825E+01  0.40021413905E+01  0.26341487222E+02  0.51100000000E-03 0.  1.
         12    1    3    3    0    0  0.60061462566E+00  0.54453027748E+00  0.37962349084E+01  0.38818359872E+01  0.00000000000E+00 0. -1.
</event>
<event>
 7    1  0.4519840E-010  0.4778727E+02  0.7816164E-02  0.1312668E+00
        -11   -1    0    0    0    0  0.00000000000E+00  0.00000000000E+00  0.45593999997E+02  0.45594000000E+02  0.51100000000E-03 0. -1.
         11   -1    0    0    0    0 -0.00000000000E+00 -0.00000000000E+00 -0.45593999997E+02  0.45594000000E+02  0.51100000000E-03 0.  1.
    9900012    2    1    2    0    0  0.65996186033E+01 -0.31971378798E+02 -0.28598937322E+02  0.47787271390E+02  0.20000001574E+02 0.  0.
         12    1    1    2    0    0 -0.65996186033E+01  0.31971378798E+02  0.28598937322E+02  0.43400728610E+02  0.00000000000E+00 0. -1.
         11    1    3    3    0    0 -0.73929209818E+00  0.13960612745E+01 -0.86429563621E+00  0.18007073878E+01  0.51100000000E-03 0. -1.
        -11    1    3    3    0    0  0.33467975685E+01 -0.16328513927E+02 -0.21936899626E+02  0.27550843662E+02  0.51100000000E-03 0.  1.
         12    1    3    3    0    0  0.39921131330E+01 -0.17038926146E+02 -0.57977420597E+01  0.18435720340E+02  0.00000000000E+00 0. -1.
</event>
<event>
 7    1  0.4519840E-010  0.4778727E+02  0.7816164E-02  0.1312668E+00
        -11   -1    0    0    0    0  0.00000000000E+00  0.00000000000E+00  0.45593999997E+02  0.45594000000E+02  0.51100000000E-03 0. -1.
         11   -1    0    0    0    0 -0.00000000000E+00 -0.00000000000E+00 -0.45593999997E+02  0.45594000000E+02  0.51100000000E-03 0.  1.
    9900012    2    1    2    0    0  0.35198082826E+02 -0.74015356208E+01  0.24288596470E+02  0.47787266335E+02  0.19999978527E+02 0.  0.
        -12    1    1    2    0    0 -0.35198082826E+02  0.74015356208E+01 -0.24288596470E+02  0.43400733665E+02  0.00000000000E+00 0.  1.
         11    1    3    3    0    0  0.60243547659E+01 -0.11190181484E+01  0.11726440512E+01  0.62386013091E+01  0.51100000000E-03 0. -1.
        -11    1    3    3    0    0  0.86975894357E-01 -0.47729161357E+01  0.63422097097E+01  0.79380046301E+01  0.51100000000E-03 0.  1.
        -12    1    3    3    0    0  0.29086752166E+02 -0.15096013367E+01  0.16773742709E+02  0.33610660396E+02  0.00000000000E+00 0.  1.
</event>
<event>
 7    1  0.4519840E-010  0.4778727E+02  0.7816164E-02  0.1312668E+00
        -11   -1    0    0    0    0  0.00000000000E+00  0.00000000000E+00  0.45593999997E+02  0.45594000000E+02  0.51100000000E-03 0. -1.
         11   -1    0    0    0    0 -0.00000000000E+00 -0.00000000000E+00 -0.45593999997E+02  0.45594000000E+02  0.51100000000E-03 0.  1.
    9900012    2    1    2    0    0  0.21136687309E+02 -0.17251353261E+02 -0.33752843737E+02  0.47787271895E+02  0.20000003876E+02 0.  0.
         12    1    1    2    0    0 -0.21136687309E+02  0.17251353261E+02  0.33752843737E+02  0.43400728105E+02  0.00000000000E+00 0. -1.
         11    1    3    3    0    0  0.10380351651E+02 -0.10250993521E+02 -0.20462218761E+02  0.25130399230E+02  0.51100000000E-03 0. -1.
        -11    1    3    3    0    0  0.11376205280E+02 -0.87329607912E+01 -0.67284030030E+01  0.15841529535E+02  0.51100000000E-03 0.  1.
         12    1    3    3    0    0 -0.61986962299E+00  0.17326010511E+01 -0.65622219733E+01  0.68153431299E+01  0.00000000000E+00 0. -1.
</event>
<event>
 7    1  0.4519840E-010  0.4778727E+02  0.7816164E-02  0.1312668E+00
        -11   -1    0    0    0    0  0.00000000000E+00  0.00000000000E+00  0.45593999997E+02  0.45594000000E+02  0.51100000000E-03 0. -1.
         11   -1    0    0    0    0 -0.00000000000E+00 -0.00000000000E+00 -0.45593999997E+02  0.45594000000E+02  0.51100000000E-03 0.  1.
    9900012    2    1    2    0    0 -0.10546280334E+02  0.12403039348E+02  0.40231375427E+02  0.47787274399E+02  0.20000015293E+02 0.  0.
        -12    1    1    2    0    0  0.10546280334E+02 -0.12403039348E+02 -0.40231375427E+02  0.43400725601E+02  0.00000000000E+00 0.  1.
         11    1    3    3    0    0  0.10963041366E+01  0.10817681786E+01  0.50057207522E+00  0.16194683745E+01  0.51100000000E-03 0. -1.
        -11    1    3    3    0    0 -0.55457963580E+01  0.19866025328E+01  0.32150363454E+02  0.32685598012E+02  0.51100000000E-03 0.  1.
        -12    1    3    3    0    0 -0.60967881130E+01  0.93346686366E+01  0.75804398978E+01  0.13482208013E+02  0.00000000000E+00 0.  1.
</event>
<event>
 7    1  0.4519840E-010  0.4778727E+02  0.7816164E-02  0.1312668E+00
        -11   -1    0    0    0    0  0.00000000000E+00  0.00000000000E+00  0.45593999997E+02  0.45594000000E+02  0.51100000000E-03 0. -1.
         11   -1    0    0    0    0 -0.00000000000E+00 -0.00000000000E+00 -0.45593999997E+02  0.45594000000E+02  0.51100000000E-03 0.  1.
    9900012    2    1    2    0    0  0.71852457971E+01 -0.25630462989E+02  0.34279365743E+02  0.47787270675E+02  0.19999998317E+02 0.  0.
        -12    1    1    2    0    0 -0.71852457971E+01  0.25630462989E+02 -0.34279365743E+02  0.43400729325E+02  0.00000000000E+00 0.  1.
         11    1    3    3    0    0  0.25978989057E+01 -0.17368485388E+02  0.24536937223E+02  0.30174072512E+02  0.51100000000E-03 0. -1.
        -11    1    3    3    0    0  0.32080457537E+01 -0.64565334891E+01  0.12259542645E+02  0.14222333437E+02  0.51100000000E-03 0.  1.
        -12    1    3    3    0    0  0.13793011377E+01 -0.18054441125E+01 -0.25171141260E+01  0.33908647267E+01  0.00000000000E+00 0.  1.
</event>
<event>
 7    1  0.4519840E-010  0.4778727E+02  0.7816164E-02  0.1312668E+00
        -11   -1    0    0    0    0  0.00000000000E+00  0.00000000000E+00  0.45593999997E+02  0.45594000000E+02  0.51100000000E-03 0.  1.
         11   -1    0    0    0    0 -0.00000000000E+00 -0.00000000000E+00 -0.45593999997E+02  0.45594000000E+02  0.51100000000E-03 0. -1.
    9900012    2    1    2    0    0 -0.43038425465E+02  0.51917085583E+01 -0.20888311763E+01  0.47787272818E+02  0.20000008087E+02 0.  0.
        -12    1    1    2    0    0  0.43038425465E+02 -0.51917085583E+01  0.20888311763E+01  0.43400727182E+02  0.00000000000E+00 0.  1.
         11    1    3    3    0    0 -0.12335242541E+02  0.40597956338E+01  0.76816352660E-01  0.12986379409E+02  0.51100000000E-03 0. -1.
        -11    1    3    3    0    0 -0.11567051384E+02  0.55783025736E+01  0.51514386548E+01  0.13836598491E+02  0.51100000000E-03 0.  1.
         12    1    3    3    0    0 -0.19136131540E+02 -0.44463896492E+01 -0.73170861838E+01  0.20964294919E+02  0.00000000000E+00 0. -1.
</event>
<event>
 7    1  0.4519840E-010  0.4778726E+02  0.7816164E-02  0.1312668E+00
        -11   -1    0    0    0    0  0.00000000000E+00  0.00000000000E+00  0.45593999997E+02  0.45594000000E+02  0.51100000000E-03 0.  1.
         11   -1    0    0    0    0 -0.00000000000E+00 -0.00000000000E+00 -0.45593999997E+02  0.45594000000E+02  0.51100000000E-03 0. -1.
    9900012    2    1    2    0    0  0.12466706715E+02 -0.41216579172E+02  0.54220504170E+01  0.47787264917E+02  0.19999972064E+02 0.  0.
        -12    1    1    2    0    0 -0.12466706715E+02  0.41216579172E+02 -0.54220504170E+01  0.43400735083E+02  0.00000000000E+00 0.  1.
         11    1    3    3    0    0  0.10974568235E+02 -0.19240004534E+02  0.47159218461E-01  0.22149969451E+02  0.51100000000E-03 0. -1.
        -11    1    3    3    0    0  0.27013760498E+01 -0.33753963295E+00 -0.12201010904E+01  0.29832888727E+01  0.51100000000E-03 0.  1.
         12    1    3    3    0    0 -0.12092375696E+01 -0.21639035005E+02  0.65949922889E+01  0.22654006594E+02  0.00000000000E+00 0. -1.
</event>
<event>
 7    1  0.4519840E-010  0.4778728E+02  0.7816164E-02  0.1312668E+00
        -11   -1    0    0    0    0  0.00000000000E+00  0.00000000000E+00  0.45593999997E+02  0.45594000000E+02  0.51100000000E-03 0. -1.
         11   -1    0    0    0    0 -0.00000000000E+00 -0.00000000000E+00 -0.45593999997E+02  0.45594000000E+02  0.51100000000E-03 0.  1.
    9900012    2    1    2    0    0 -0.18759572708E+02  0.64423700366E+01  0.38603072727E+02  0.47787275077E+02  0.20000018384E+02 0.  0.
        -12    1    1    2    0    0  0.18759572708E+02 -0.64423700366E+01 -0.38603072727E+02  0.43400724923E+02  0.00000000000E+00 0.  1.
         11    1    3    3    0    0  0.13245036858E+01  0.10044256782E+01  0.14807278406E+01  0.22261482780E+01  0.51100000000E-03 0. -1.
        -11    1    3    3    0    0  0.17943789982E+01  0.24986301834E+01  0.10130563314E+01  0.32387084114E+01  0.51100000000E-03 0.  1.
         12    1    3    3    0    0 -0.21878455392E+02  0.29393141750E+01  0.36109288555E+02  0.42322418387E+02  0.00000000000E+00 0. -1.
</event>
<event>
 7    1  0.4519840E-010  0.4778728E+02  0.7816164E-02  0.1312668E+00
        -11   -1    0    0    0    0  0.00000000000E+00  0.00000000000E+00  0.45593999997E+02  0.45594000000E+02  0.51100000000E-03 0. -1.
         11   -1    0    0    0    0 -0.00000000000E+00 -0.00000000000E+00 -0.45593999997E+02  0.45594000000E+02  0.51100000000E-03 0.  1.
    9900012    2    1    2    0    0 -0.34209978196E+02  0.26000258887E+02  0.61062721227E+01  0.47787278467E+02  0.20000033843E+02 0.  0.
        -12    1    1    2    0    0  0.34209978196E+02 -0.26000258887E+02 -0.61062721227E+01  0.43400721533E+02  0.00000000000E+00 0.  1.
         11    1    3    3    0    0 -0.86002578813E+01  0.10871843584E+02  0.42564517524E+01  0.14500993080E+02  0.51100000000E-03 0. -1.
        -11    1    3    3    0    0 -0.73058445174E+01  0.12860744429E+02  0.84095379750E+00  0.14814901786E+02  0.51100000000E-03 0.  1.
        -12    1    3    3    0    0 -0.18303875797E+02  0.22676708747E+01  0.10088665728E+01  0.18471383601E+02  0.00000000000E+00 0.  1.
</event>
<event>
 7    1  0.4519840E-010  0.4778727E+02  0.7816164E-02  0.1312668E+00
        -11   -1    0    0    0    0  0.00000000000E+00  0.00000000000E+00  0.45593999997E+02  0.45594000000E+02  0.51100000000E-03 0.  1.
         11   -1    0    0    0    0 -0.00000000000E+00 -0.00000000000E+00 -0.45593999997E+02  0.45594000000E+02  0.51100000000E-03 0. -1.
    9900012    2    1    2    0    0  0.19884153980E+02  0.35924823387E+02  0.14058850156E+02  0.47787265184E+02  0.19999973279E+02 0.  0.
        -12    1    1    2    0    0 -0.19884153980E+02 -0.35924823387E+02 -0.14058850156E+02  0.43400734816E+02  0.00000000000E+00 0.  1.
         11    1    3    3    0    0  0.46229715469E+01  0.26522441109E+02  0.11355286895E+02  0.29219074062E+02  0.51100000000E-03 0. -1.
        -11    1    3    3    0    0  0.20187448397E+01 -0.94346411048E-01  0.75077244851E+00  0.21558969140E+01  0.51100000000E-03 0.  1.
         12    1    3    3    0    0  0.13242437593E+02  0.94967286889E+01  0.19527908120E+01  0.16412294207E+02  0.00000000000E+00 0. -1.
</event>
<event>
 7    1  0.4519840E-010  0.4778727E+02  0.7816164E-02  0.1312668E+00
        -11   -1    0    0    0    0  0.00000000000E+00  0.00000000000E+00  0.45593999997E+02  0.45594000000E+02  0.51100000000E-03 0. -1.
         11   -1    0    0    0    0 -0.00000000000E+00 -0.00000000000E+00 -0.45593999997E+02  0.45594000000E+02  0.51100000000E-03 0.  1.
    9900012    2    1    2    0    0 -0.78691442865E+00  0.76156817389E+01  0.42720079329E+02  0.47787273963E+02  0.20000013306E+02 0.  0.
        -12    1    1    2    0    0  0.78691442865E+00 -0.76156817389E+01 -0.42720079329E+02  0.43400726037E+02  0.00000000000E+00 0.  1.
         11    1    3    3    0    0 -0.11373175959E+01  0.45891596404E-01  0.12808807075E+02  0.12859282107E+02  0.51100000000E-03 0. -1.
        -11    1    3    3    0    0 -0.50927863459E+01  0.72461222869E+01  0.67561570991E+01  0.11139498192E+02  0.51100000000E-03 0.  1.
        -12    1    3    3    0    0  0.54431895132E+01  0.32366785564E+00  0.23155115155E+02  0.23788493664E+02  0.00000000000E+00 0.  1.
</event>
<event>
 7    1  0.4519840E-010  0.4778728E+02  0.7816164E-02  0.1312668E+00
        -11   -1    0    0    0    0  0.00000000000E+00  0.00000000000E+00  0.45593999997E+02  0.45594000000E+02  0.51100000000E-03 0. -1.
         11   -1    0    0    0    0 -0.00000000000E+00 -0.00000000000E+00 -0.45593999997E+02  0.45594000000E+02  0.51100000000E-03 0.  1.
    9900012    2    1    2    0    0 -0.29988199673E+02  0.15469364446E+01  0.31335877719E+02  0.47787281522E+02  0.20000047769E+02 0.  0.
        -12    1    1    2    0    0  0.29988199673E+02 -0.15469364446E+01 -0.31335877719E+02  0.43400718478E+02  0.00000000000E+00 0.  1.
         11    1    3    3    0    0 -0.20757101156E+02  0.48878477409E+01  0.20732298755E+02  0.29741831078E+02  0.51100000000E-03 0. -1.
        -11    1    3    3    0    0 -0.83480833712E+01  0.25262468379E+00  0.18677517685E+01  0.85582014543E+01  0.51100000000E-03 0.  1.
         12    1    3    3    0    0 -0.88301514612E+00 -0.35935359801E+01  0.87358271961E+01  0.94872489895E+01  0.00000000000E+00 0. -1.
</event>
<event>
 7    1  0.4519840E-010  0.4778728E+02  0.7816164E-02  0.1312668E+00
        -11   -1    0    0    0    0  0.00000000000E+00  0.00000000000E+00  0.45593999997E+02  0.45594000000E+02  0.51100000000E-03 0. -1.
         11   -1    0    0    0    0 -0.00000000000E+00 -0.00000000000E+00 -0.45593999997E+02  0.45594000000E+02  0.51100000000E-03 0.  1.
    9900012    2    1    2    0    0 -0.85203247045E+01  0.10755797433E+02 -0.41174504217E+02  0.47787275248E+02  0.20000019166E+02 0.  0.
         12    1    1    2    0    0  0.85203247045E+01 -0.10755797433E+02  0.41174504217E+02  0.43400724752E+02  0.00000000000E+00 0. -1.
         11    1    3    3    0    0  0.89972049579E+00  0.13364282212E+02 -0.17595954460E+02  0.22114048694E+02  0.51100000000E-03 0. -1.
        -11    1    3    3    0    0 -0.43505043705E+01 -0.16735826295E+01 -0.79422296655E+01  0.92090596380E+01  0.51100000000E-03 0.  1.
         12    1    3    3    0    0 -0.50695408299E+01 -0.93490214936E+00 -0.15636320091E+02  0.16464166916E+02  0.00000000000E+00 0. -1.
</event>
<event>
 7    1  0.4519840E-010  0.4778727E+02  0.7816164E-02  0.1312668E+00
        -11   -1    0    0    0    0  0.00000000000E+00  0.00000000000E+00  0.45593999997E+02  0.45594000000E+02  0.51100000000E-03 0. -1.
         11   -1    0    0    0    0 -0.00000000000E+00 -0.00000000000E+00 -0.45593999997E+02  0.45594000000E+02  0.51100000000E-03 0.  1.
    9900012    2    1    2    0    0 -0.15989917245E+01 -0.30498436963E+02  0.30836857773E+02  0.47787271561E+02  0.20000002355E+02 0.  0.
        -12    1    1    2    0    0  0.15989917245E+01  0.30498436963E+02 -0.30836857773E+02  0.43400728439E+02  0.00000000000E+00 0.  1.
         11    1    3    3    0    0 -0.51906016895E+00 -0.14568211291E+02  0.70306144994E+01  0.16184305490E+02  0.51100000000E-03 0. -1.
        -11    1    3    3    0    0  0.48277875185E+01 -0.10571837859E+02  0.86900498481E+01  0.14511659266E+02  0.51100000000E-03 0.  1.
        -12    1    3    3    0    0 -0.59077190741E+01 -0.53583878128E+01  0.15116193425E+02  0.17091306805E+02  0.00000000000E+00 0.  1.
</event>
<event>
 7    1  0.4519840E-010  0.4778727E+02  0.7816164E-02  0.1312668E+00
        -11   -1    0    0    0    0  0.00000000000E+00  0.00000000000E+00  0.45593999997E+02  0.45594000000E+02  0.51100000000E-03 0. -1.
         11   -1    0    0    0    0 -0.00000000000E+00 -0.00000000000E+00 -0.45593999997E+02  0.45594000000E+02  0.51100000000E-03 0.  1.
    9900012    2    1    2    0    0 -0.13693228315E+01  0.18476412552E+02  0.39247549140E+02  0.47787274438E+02  0.20000015472E+02 0.  0.
        -12    1    1    2    0    0  0.13693228315E+01 -0.18476412552E+02 -0.39247549140E+02  0.43400725562E+02  0.00000000000E+00 0.  1.
         11    1    3    3    0    0 -0.23570493192E+01 -0.11842460052E+01  0.40006245010E+01  0.47919846362E+01  0.51100000000E-03 0. -1.
        -11    1    3    3    0    0  0.57944180998E+01  0.45778074834E+01  0.18653121604E+02  0.20061668632E+02  0.51100000000E-03 0.  1.
        -12    1    3    3    0    0 -0.48066916122E+01  0.15082851074E+02  0.16593803035E+02  0.22933621169E+02  0.00000000000E+00 0.  1.
</event>
<event>
 7    1  0.4519840E-010  0.4778727E+02  0.7816164E-02  0.1312668E+00
        -11   -1    0    0    0    0  0.00000000000E+00  0.00000000000E+00  0.45593999997E+02  0.45594000000E+02  0.51100000000E-03 0. -1.
         11   -1    0    0    0    0 -0.00000000000E+00 -0.00000000000E+00 -0.45593999997E+02  0.45594000000E+02  0.51100000000E-03 0.  1.
    9900012    2    1    2    0    0  0.33986704591E+02 -0.22333108330E+02 -0.15157817492E+02  0.47787271345E+02  0.20000001371E+02 0.  0.
         12    1    1    2    0    0 -0.33986704591E+02  0.22333108330E+02  0.15157817492E+02  0.43400728655E+02  0.00000000000E+00 0. -1.
         11    1    3    3    0    0  0.85603515675E+01 -0.65328148597E+01 -0.12492003779E+01  0.10840562292E+02  0.51100000000E-03 0. -1.
        -11    1    3    3    0    0  0.19552856928E+02 -0.41250152393E+01 -0.36087530882E+01  0.20306478372E+02  0.51100000000E-03 0.  1.
         12    1    3    3    0    0  0.58734960953E+01 -0.11675278231E+02 -0.10299864026E+02  0.16640230681E+02  0.00000000000E+00 0. -1.
</event>
<event>
 7    1  0.4519840E-010  0.4778727E+02  0.7816164E-02  0.1312668E+00
        -11   -1    0    0    0    0  0.00000000000E+00  0.00000000000E+00  0.45593999997E+02  0.45594000000E+02  0.51100000000E-03 0.  1.
         11   -1    0    0    0    0 -0.00000000000E+00 -0.00000000000E+00 -0.45593999997E+02  0.45594000000E+02  0.51100000000E-03 0. -1.
    9900012    2    1    2    0    0 -0.43258447297E+02 -0.26202269767E+01  0.23377050747E+01  0.47787265939E+02  0.19999976724E+02 0.  0.
        -12    1    1    2    0    0  0.43258447297E+02  0.26202269767E+01 -0.23377050747E+01  0.43400734061E+02  0.00000000000E+00 0.  1.
         11    1    3    3    0    0 -0.64450958374E+01  0.63765011976E+01 -0.10390220575E+01  0.91257106558E+01  0.51100000000E-03 0.  1.
        -11    1    3    3    0    0 -0.54616522779E+01  0.91174853383E+00 -0.46984147229E+00  0.55571289588E+01  0.51100000000E-03 0. -1.
        -12    1    3    3    0    0 -0.31351699182E+02 -0.99084767082E+01  0.38465686044E+01  0.33104426325E+02  0.00000000000E+00 0.  1.
</event>
<event>
 7    1  0.4519840E-010  0.4778727E+02  0.7816164E-02  0.1312668E+00
        -11   -1    0    0    0    0  0.00000000000E+00  0.00000000000E+00  0.45593999997E+02  0.45594000000E+02  0.51100000000E-03 0. -1.
         11   -1    0    0    0    0 -0.00000000000E+00 -0.00000000000E+00 -0.45593999997E+02  0.45594000000E+02  0.51100000000E-03 0.  1.
    9900012    2    1    2    0    0 -0.60831061643E+01  0.12284040682E+02  0.41179136360E+02  0.47787272962E+02  0.20000008744E+02 0.  0.
        -12    1    1    2    0    0  0.60831061643E+01 -0.12284040682E+02 -0.41179136360E+02  0.43400727038E+02  0.00000000000E+00 0.  1.
         11    1    3    3    0    0 -0.40238232605E+01  0.29568519608E+01  0.36007934034E+02  0.36352516293E+02  0.51100000000E-03 0. -1.
        -11    1    3    3    0    0 -0.58135456999E+00  0.30886903165E+01  0.37041953475E+01  0.48578847702E+01  0.51100000000E-03 0.  1.
         12    1    3    3    0    0 -0.14779283337E+01  0.62384984047E+01  0.14670069777E+01  0.65768718992E+01  0.00000000000E+00 0. -1.
</event>
<event>
 7    1  0.4519840E-010  0.4778727E+02  0.7816164E-02  0.1312668E+00
        -11   -1    0    0    0    0  0.00000000000E+00  0.00000000000E+00  0.45593999997E+02  0.45594000000E+02  0.51100000000E-03 0.  1.
         11   -1    0    0    0    0 -0.00000000000E+00 -0.00000000000E+00 -0.45593999997E+02  0.45594000000E+02  0.51100000000E-03 0. -1.
    9900012    2    1    2    0    0  0.19723229607E+02 -0.38398165768E+02  0.44942538673E+01  0.47787271454E+02  0.20000001869E+02 0.  0.
        -12    1    1    2    0    0 -0.19723229607E+02  0.38398165768E+02 -0.44942538673E+01  0.43400728546E+02  0.00000000000E+00 0.  1.
         11    1    3    3    0    0  0.13441267152E+01 -0.77960191508E+01  0.42555225629E+01  0.89829874636E+01  0.51100000000E-03 0. -1.
        -11    1    3    3    0    0  0.76539534226E+00 -0.14059631681E+02  0.32578702159E+01  0.14452432032E+02  0.51100000000E-03 0.  1.
        -12    1    3    3    0    0  0.17613707550E+02 -0.16542514936E+02 -0.30191389114E+01  0.24351851959E+02  0.00000000000E+00 0.  1.
</event>
<event>
 7    1  0.4519840E-010  0.4778727E+02  0.7816164E-02  0.1312668E+00
        -11   -1    0    0    0    0  0.00000000000E+00  0.00000000000E+00  0.45593999997E+02  0.45594000000E+02  0.51100000000E-03 0. -1.
         11   -1    0    0    0    0 -0.00000000000E+00 -0.00000000000E+00 -0.45593999997E+02  0.45594000000E+02  0.51100000000E-03 0.  1.
    9900012    2    1    2    0    0 -0.12435864659E+02  0.11158043137E+02  0.40055844514E+02  0.47787270327E+02  0.19999996727E+02 0.  0.
        -12    1    1    2    0    0  0.12435864659E+02 -0.11158043137E+02 -0.40055844514E+02  0.43400729673E+02  0.00000000000E+00 0.  1.
         11    1    3    3    0    0 -0.11243653851E+02  0.11920612293E+02  0.21996491712E+02  0.27429298154E+02  0.51100000000E-03 0. -1.
        -11    1    3    3    0    0 -0.37898841132E+01  0.21780620188E+01  0.46311165331E+01  0.63682349481E+01  0.51100000000E-03 0.  1.
        -12    1    3    3    0    0  0.25976733052E+01 -0.29406311745E+01  0.13428236269E+02  0.13989737224E+02  0.00000000000E+00 0.  1.
</event>
<event>
 7    1  0.4519840E-010  0.4778727E+02  0.7816164E-02  0.1312668E+00
        -11   -1    0    0    0    0  0.00000000000E+00  0.00000000000E+00  0.45593999997E+02  0.45594000000E+02  0.51100000000E-03 0. -1.
         11   -1    0    0    0    0 -0.00000000000E+00 -0.00000000000E+00 -0.45593999997E+02  0.45594000000E+02  0.51100000000E-03 0.  1.
    9900012    2    1    2    0    0  0.28672118941E+02 -0.88322522294E+01  0.31361189179E+02  0.47787271081E+02  0.20000000168E+02 0.  0.
        -12    1    1    2    0    0 -0.28672118941E+02  0.88322522294E+01 -0.31361189179E+02  0.43400728919E+02  0.00000000000E+00 0.  1.
         11    1    3    3    0    0  0.18040004198E+02 -0.86033933862E+01  0.15824670778E+02  0.25492750630E+02  0.51100000000E-03 0. -1.
        -11    1    3    3    0    0  0.91977847287E+01 -0.25349748687E+01  0.16783816102E+02  0.19306004888E+02  0.51100000000E-03 0.  1.
         12    1    3    3    0    0  0.14343300143E+01  0.23061160256E+01 -0.12472977021E+01  0.29885155631E+01  0.00000000000E+00 0. -1.
</event>
<event>
 7    1  0.4519840E-010  0.4778727E+02  0.7816164E-02  0.1312668E+00
        -11   -1    0    0    0    0  0.00000000000E+00  0.00000000000E+00  0.45593999997E+02  0.45594000000E+02  0.51100000000E-03 0. -1.
         11   -1    0    0    0    0 -0.00000000000E+00 -0.00000000000E+00 -0.45593999997E+02  0.45594000000E+02  0.51100000000E-03 0.  1.
    9900012    2    1    2    0    0  0.22598009728E+02  0.15123747704E+02  0.33826407988E+02  0.47787266531E+02  0.19999979420E+02 0.  0.
        -12    1    1    2    0    0 -0.22598009728E+02 -0.15123747704E+02 -0.33826407988E+02  0.43400733469E+02  0.00000000000E+00 0.  1.
         11    1    3    3    0    0  0.12687766287E+02  0.32073366342E+01  0.11456833229E+02  0.17393258738E+02  0.51100000000E-03 0. -1.
        -11    1    3    3    0    0  0.76891148984E+01  0.60296761723E+01  0.33004462928E+01  0.10313701016E+02  0.51100000000E-03 0.  1.
         12    1    3    3    0    0  0.22211285430E+01  0.58867348978E+01  0.19069128466E+02  0.20080306776E+02  0.00000000000E+00 0. -1.
</event>
<event>
 7    1  0.4519840E-010  0.4778727E+02  0.7816164E-02  0.1312668E+00
        -11   -1    0    0    0    0  0.00000000000E+00  0.00000000000E+00  0.45593999997E+02  0.45594000000E+02  0.51100000000E-03 0. -1.
         11   -1    0    0    0    0 -0.00000000000E+00 -0.00000000000E+00 -0.45593999997E+02  0.45594000000E+02  0.51100000000E-03 0.  1.
    9900012    2    1    2    0    0 -0.12575758750E+02 -0.87510676050E+01  0.40606555645E+02  0.47787271277E+02  0.20000001059E+02 0.  0.
        -12    1    1    2    0    0  0.12575758750E+02  0.87510676050E+01 -0.40606555645E+02  0.43400728723E+02  0.00000000000E+00 0.  1.
         11    1    3    3    0    0 -0.51249249917E+00  0.79223073343E+00 -0.58395494665E+00  0.11096313521E+01  0.51100000000E-03 0. -1.
        -11    1    3    3    0    0  0.12739768743E+01  0.32393699100E+01  0.62452549759E+01  0.71498073027E+01  0.51100000000E-03 0.  1.
         12    1    3    3    0    0 -0.13337243125E+02 -0.12782668248E+02  0.34945255616E+02  0.39527832622E+02  0.00000000000E+00 0. -1.
</event>
<event>
 7    1  0.4703484E-010  0.4778727E+02  0.7816164E-02  0.1312668E+00
        -11   -1    0    0    0    0  0.00000000000E+00  0.00000000000E+00  0.45593999997E+02  0.45594000000E+02  0.51100000000E-03 0. -1.
         11   -1    0    0    0    0 -0.00000000000E+00 -0.00000000000E+00 -0.45593999997E+02  0.45594000000E+02  0.51100000000E-03 0.  1.
    9900012    2    1    2    0    0 -0.21781888215E+02 -0.30600032573E+02 -0.21744202749E+02  0.47787274190E+02  0.20000014340E+02 0.  0.
         12    1    1    2    0    0  0.21781888215E+02  0.30600032573E+02  0.21744202749E+02  0.43400725810E+02  0.00000000000E+00 0. -1.
         11    1    3    3    0    0  0.10683758871E+01 -0.61044193830E+00 -0.14370820303E+01  0.18918962496E+01  0.51100000000E-03 0. -1.
        -11    1    3    3    0    0 -0.15689339370E+02 -0.16698154933E+02 -0.32921269259E+01  0.23147825988E+02  0.51100000000E-03 0.  1.
        -12    1    3    3    0    0 -0.71609247325E+01 -0.13291435702E+02 -0.17014993793E+02  0.22747551952E+02  0.00000000000E+00 0.  1.
</event>
<event>
 7    1  0.4519840E-010  0.4778727E+02  0.7816164E-02  0.1312668E+00
        -11   -1    0    0    0    0  0.00000000000E+00  0.00000000000E+00  0.45593999997E+02  0.45594000000E+02  0.51100000000E-03 0. -1.
         11   -1    0    0    0    0 -0.00000000000E+00 -0.00000000000E+00 -0.45593999997E+02  0.45594000000E+02  0.51100000000E-03 0.  1.
    9900012    2    1    2    0    0 -0.28195294506E+02 -0.17122402935E+02 -0.28204111739E+02  0.47787271509E+02  0.20000002117E+02 0.  0.
         12    1    1    2    0    0  0.28195294506E+02  0.17122402935E+02  0.28204111739E+02  0.43400728491E+02  0.00000000000E+00 0. -1.
         11    1    3    3    0    0 -0.13652967042E+02 -0.39590036445E+01 -0.89464863198E+01  0.16796334024E+02  0.51100000000E-03 0. -1.
        -11    1    3    3    0    0 -0.70389284402E+01 -0.36227054264E+00 -0.48869857504E+00  0.70651666711E+01  0.51100000000E-03 0.  1.
        -12    1    3    3    0    0 -0.75033990241E+01 -0.12801128748E+02 -0.18768926844E+02  0.23925770814E+02  0.00000000000E+00 0.  1.
</event>
<event>
 7    1  0.4519840E-010  0.4778727E+02  0.7816164E-02  0.1312668E+00
        -11   -1    0    0    0    0  0.00000000000E+00  0.00000000000E+00  0.45593999997E+02  0.45594000000E+02  0.51100000000E-03 0. -1.
         11   -1    0    0    0    0 -0.00000000000E+00 -0.00000000000E+00 -0.45593999997E+02  0.45594000000E+02  0.51100000000E-03 0.  1.
    9900012    2    1    2    0    0  0.20257751495E+02  0.88413009747E+01 -0.37350742120E+02  0.47787273792E+02  0.20000012525E+02 0.  0.
         12    1    1    2    0    0 -0.20257751495E+02 -0.88413009747E+01  0.37350742120E+02  0.43400726208E+02  0.00000000000E+00 0. -1.
         11    1    3    3    0    0  0.69682604690E+01  0.26915204425E+01 -0.18639170548E+01  0.76990339202E+01  0.51100000000E-03 0. -1.
        -11    1    3    3    0    0  0.59104154858E+01  0.80850688040E+01 -0.13455561272E+02  0.16773594671E+02  0.51100000000E-03 0.  1.
        -12    1    3    3    0    0  0.73790755398E+01 -0.19352882718E+01 -0.22031263792E+02  0.23314645200E+02  0.00000000000E+00 0.  1.
</event>
<event>
 7    1  0.4519840E-010  0.4778727E+02  0.7816164E-02  0.1312668E+00
        -11   -1    0    0    0    0  0.00000000000E+00  0.00000000000E+00  0.45593999997E+02  0.45594000000E+02  0.51100000000E-03 0. -1.
         11   -1    0    0    0    0 -0.00000000000E+00 -0.00000000000E+00 -0.45593999997E+02  0.45594000000E+02  0.51100000000E-03 0.  1.
    9900012    2    1    2    0    0  0.10163512147E+02 -0.82840524293E+01  0.41372701573E+02  0.47787274900E+02  0.20000017578E+02 0.  0.
        -12    1    1    2    0    0 -0.10163512147E+02  0.82840524293E+01 -0.41372701573E+02  0.43400725100E+02  0.00000000000E+00 0.  1.
         11    1    3    3    0    0 -0.10316742557E+01  0.79425549316E+00 -0.35724580169E+00  0.13501179142E+01  0.51100000000E-03 0. -1.
        -11    1    3    3    0    0 -0.32190046153E+00  0.18573601068E+01  0.10804694410E+00  0.18881421759E+01  0.51100000000E-03 0.  1.
         12    1    3    3    0    0  0.11517086864E+02 -0.10935668029E+02  0.41621900430E+02  0.44549014810E+02  0.00000000000E+00 0. -1.
</event>
<event>
 7    1  0.4519840E-010  0.4778727E+02  0.7816164E-02  0.1312668E+00
        -11   -1    0    0    0    0  0.00000000000E+00  0.00000000000E+00  0.45593999997E+02  0.45594000000E+02  0.51100000000E-03 0. -1.
         11   -1    0    0    0    0 -0.00000000000E+00 -0.00000000000E+00 -0.45593999997E+02  0.45594000000E+02  0.51100000000E-03 0.  1.
    9900012    2    1    2    0    0  0.18618698497E+02  0.13790561883E+02 -0.36698610022E+02  0.47787268343E+02  0.19999987685E+02 0.  0.
         12    1    1    2    0    0 -0.18618698497E+02 -0.13790561883E+02  0.36698610022E+02  0.43400731657E+02  0.00000000000E+00 0. -1.
         11    1    3    3    0    0  0.14188145233E+02  0.54253303518E+01 -0.15694473535E+02  0.21841569870E+02  0.51100000000E-03 0. -1.
        -11    1    3    3    0    0  0.48285172548E+01  0.18463502653E+01 -0.18053564573E+02  0.18779104937E+02  0.51100000000E-03 0.  1.
         12    1    3    3    0    0 -0.39796399154E+00  0.65188812657E+01 -0.29505719145E+01  0.71665935365E+01  0.00000000000E+00 0. -1.
</event>
<event>
 7    1  0.4519840E-010  0.4778727E+02  0.7816164E-02  0.1312668E+00
        -11   -1    0    0    0    0  0.00000000000E+00  0.00000000000E+00  0.45593999997E+02  0.45594000000E+02  0.51100000000E-03 0. -1.
         11   -1    0    0    0    0 -0.00000000000E+00 -0.00000000000E+00 -0.45593999997E+02  0.45594000000E+02  0.51100000000E-03 0.  1.
    9900012    2    1    2    0    0 -0.30149625737E+01  0.29162199357E+02 -0.32001552285E+02  0.47787271673E+02  0.20000002865E+02 0.  0.
         12    1    1    2    0    0  0.30149625737E+01 -0.29162199357E+02  0.32001552285E+02  0.43400728327E+02  0.00000000000E+00 0. -1.
         11    1    3    3    0    0  0.24557520578E+00  0.11991223193E+02 -0.51080493789E+01  0.13036176954E+02  0.51100000000E-03 0.  1.
        -11    1    3    3    0    0 -0.29505416027E+01  0.14940535132E+02 -0.28270572534E+02  0.32111533091E+02  0.51100000000E-03 0. -1.
         12    1    3    3    0    0 -0.30999617681E+00  0.22304410322E+01  0.13770696281E+01  0.26395616281E+01  0.00000000000E+00 0. -1.
</event>
<event>
 7    1  0.4519840E-010  0.4778727E+02  0.7816164E-02  0.1312668E+00
        -11   -1    0    0    0    0  0.00000000000E+00  0.00000000000E+00  0.45593999997E+02  0.45594000000E+02  0.51100000000E-03 0.  1.
         11   -1    0    0    0    0 -0.00000000000E+00 -0.00000000000E+00 -0.45593999997E+02  0.45594000000E+02  0.51100000000E-03 0. -1.
    9900012    2    1    2    0    0  0.15033683787E+02  0.38019829579E+02 -0.14563801814E+02  0.47787269445E+02  0.19999992707E+02 0.  0.
         12    1    1    2    0    0 -0.15033683787E+02 -0.38019829579E+02  0.14563801814E+02  0.43400730555E+02  0.00000000000E+00 0. -1.
         11    1    3    3    0    0  0.39089224706E+00 -0.12511483465E-01 -0.15195200044E+01  0.15690425714E+01  0.51100000000E-03 0. -1.
        -11    1    3    3    0    0  0.13812284040E+02  0.39796594305E+02 -0.11331428364E+02  0.43622807998E+02  0.51100000000E-03 0.  1.
        -12    1    3    3    0    0  0.83050749997E+00 -0.17642532419E+01 -0.17128534460E+01  0.25954188750E+01  0.00000000000E+00 0.  1.
</event>
<event>
 7    1  0.4519840E-010  0.4778727E+02  0.7816164E-02  0.1312668E+00
        -11   -1    0    0    0    0  0.00000000000E+00  0.00000000000E+00  0.45593999997E+02  0.45594000000E+02  0.51100000000E-03 0. -1.
         11   -1    0    0    0    0 -0.00000000000E+00 -0.00000000000E+00 -0.45593999997E+02  0.45594000000E+02  0.51100000000E-03 0.  1.
    9900012    2    1    2    0    0  0.23430550800E+02 -0.80231050493E+01  0.35640741212E+02  0.47787270057E+02  0.19999995497E+02 0.  0.
        -12    1    1    2    0    0 -0.23430550800E+02  0.80231050493E+01 -0.35640741212E+02  0.43400729943E+02  0.00000000000E+00 0.  1.
         11    1    3    3    0    0  0.48396167153E+01 -0.78373210096E+01  0.11891632901E+02  0.15041822492E+02  0.51100000000E-03 0. -1.
        -11    1    3    3    0    0  0.14998227689E+02 -0.34195153945E+01  0.23260523816E+02  0.27887127637E+02  0.51100000000E-03 0.  1.
        -12    1    3    3    0    0  0.35927063955E+01  0.32337313547E+01  0.48858449535E+00  0.48583199285E+01  0.00000000000E+00 0.  1.
</event>
<event>
 7    1  0.4519840E-010  0.4778726E+02  0.7816164E-02  0.1312668E+00
        -11   -1    0    0    0    0  0.00000000000E+00  0.00000000000E+00  0.45593999997E+02  0.45594000000E+02  0.51100000000E-03 0. -1.
         11   -1    0    0    0    0 -0.00000000000E+00 -0.00000000000E+00 -0.45593999997E+02  0.45594000000E+02  0.51100000000E-03 0.  1.
    9900012    2    1    2    0    0 -0.42093858637E+02  0.29756222030E+01  0.10142809613E+02  0.47787264415E+02  0.19999969775E+02 0.  0.
        -12    1    1    2    0    0  0.42093858637E+02 -0.29756222030E+01 -0.10142809613E+02  0.43400735585E+02  0.00000000000E+00 0.  1.
         11    1    3    3    0    0 -0.17658289815E+02  0.82195277130E+00  0.43509671969E+01  0.18204991660E+02  0.51100000000E-03 0. -1.
        -11    1    3    3    0    0 -0.17722790619E+02  0.69774277382E+01 -0.71818540754E+00  0.19060367145E+02  0.51100000000E-03 0.  1.
        -12    1    3    3    0    0 -0.67127782035E+01 -0.48237583065E+01  0.65100278236E+01  0.10521905610E+02  0.00000000000E+00 0.  1.
</event>
<event>
 7    1  0.4519840E-010  0.4778727E+02  0.7816164E-02  0.1312668E+00
        -11   -1    0    0    0    0  0.00000000000E+00  0.00000000000E+00  0.45593999997E+02  0.45594000000E+02  0.51100000000E-03 0. -1.
         11   -1    0    0    0    0 -0.00000000000E+00 -0.00000000000E+00 -0.45593999997E+02  0.45594000000E+02  0.51100000000E-03 0.  1.
    9900012    2    1    2    0    0  0.12859448323E+02  0.11093192253E+02 -0.39939940941E+02  0.47787271804E+02  0.20000003464E+02 0.  0.
         12    1    1    2    0    0 -0.12859448323E+02 -0.11093192253E+02  0.39939940941E+02  0.43400728196E+02  0.00000000000E+00 0. -1.
         11    1    3    3    0    0  0.69921029471E+01  0.33631038546E+00 -0.16775023541E+02  0.18177019100E+02  0.51100000000E-03 0. -1.
        -11    1    3    3    0    0 -0.42641987182E+00 -0.25552008777E+01 -0.58895641660E+00  0.26566436257E+01  0.51100000000E-03 0.  1.
        -12    1    3    3    0    0  0.62937652478E+01  0.13312082746E+02 -0.22575960984E+02  0.26953609079E+02  0.00000000000E+00 0.  1.
</event>
<event>
 7    1  0.4519840E-010  0.4778727E+02  0.7816164E-02  0.1312668E+00
        -11   -1    0    0    0    0  0.00000000000E+00  0.00000000000E+00  0.45593999997E+02  0.45594000000E+02  0.51100000000E-03 0. -1.
         11   -1    0    0    0    0 -0.00000000000E+00 -0.00000000000E+00 -0.45593999997E+02  0.45594000000E+02  0.51100000000E-03 0.  1.
    9900012    2    1    2    0    0  0.30415182999E+02 -0.26223097940E+02  0.16458702061E+02  0.47787273094E+02  0.20000009344E+02 0.  0.
        -12    1    1    2    0    0 -0.30415182999E+02  0.26223097940E+02 -0.16458702061E+02  0.43400726906E+02  0.00000000000E+00 0.  1.
         11    1    3    3    0    0  0.38420807661E+01 -0.26467244540E+01 -0.16423217136E+01  0.49461051163E+01  0.51100000000E-03 0.  1.
        -11    1    3    3    0    0  0.14918459045E+02 -0.10546763040E+02  0.86336096912E+00  0.18290435296E+02  0.51100000000E-03 0. -1.
         12    1    3    3    0    0  0.11654643189E+02 -0.13029610446E+02  0.17237662805E+02  0.24550732682E+02  0.00000000000E+00 0. -1.
</event>
<event>
 7    1  0.4519840E-010  0.4778728E+02  0.7816164E-02  0.1312668E+00
        -11   -1    0    0    0    0  0.00000000000E+00  0.00000000000E+00  0.45593999997E+02  0.45594000000E+02  0.51100000000E-03 0. -1.
         11   -1    0    0    0    0 -0.00000000000E+00 -0.00000000000E+00 -0.45593999997E+02  0.45594000000E+02  0.51100000000E-03 0.  1.
    9900012    2    1    2    0    0 -0.20322459755E+02  0.14901648076E+02  0.35334987343E+02  0.47787276315E+02  0.20000024030E+02 0.  0.
        -12    1    1    2    0    0  0.20322459755E+02 -0.14901648076E+02 -0.35334987343E+02  0.43400723685E+02  0.00000000000E+00 0.  1.
         11    1    3    3    0    0 -0.77891077972E+01  0.74176089865E+00  0.11245371388E+02  0.13699590775E+02  0.51100000000E-03 0. -1.
        -11    1    3    3    0    0 -0.34714932738E+00 -0.13376395715E+01 -0.13305808754E+01  0.19183946429E+01  0.51100000000E-03 0.  1.
         12    1    3    3    0    0 -0.12186202630E+02  0.15497526749E+02  0.25420196831E+02  0.32169290897E+02  0.00000000000E+00 0. -1.
</event>
<event>
 7    1  0.4519840E-010  0.4778727E+02  0.7816164E-02  0.1312668E+00
        -11   -1    0    0    0    0  0.00000000000E+00  0.00000000000E+00  0.45593999997E+02  0.45594000000E+02  0.51100000000E-03 0.  1.
         11   -1    0    0    0    0 -0.00000000000E+00 -0.00000000000E+00 -0.45593999997E+02  0.45594000000E+02  0.51100000000E-03 0. -1.
    9900012    2    1    2    0    0 -0.24619332767E+02  0.26098665947E+02 -0.24420720684E+02  0.47787268338E+02  0.19999987660E+02 0.  0.
         12    1    1    2    0    0  0.24619332767E+02 -0.26098665947E+02  0.24420720684E+02  0.43400731662E+02  0.00000000000E+00 0. -1.
         11    1    3    3    0    0 -0.12666954390E+01  0.85201735476E+01 -0.42851315162E+01  0.96208225734E+01  0.51100000000E-03 0.  1.
        -11    1    3    3    0    0 -0.13470223659E+02  0.17655217811E+02 -0.16378607353E+02  0.27593702551E+02  0.51100000000E-03 0. -1.
         12    1    3    3    0    0 -0.98824136684E+01 -0.76725412016E-01 -0.37569818152E+01  0.10572743214E+02  0.00000000000E+00 0. -1.
</event>
<event>
 7    1  0.4519840E-010  0.4778727E+02  0.7816164E-02  0.1312668E+00
        -11   -1    0    0    0    0  0.00000000000E+00  0.00000000000E+00  0.45593999997E+02  0.45594000000E+02  0.51100000000E-03 0. -1.
         11   -1    0    0    0    0 -0.00000000000E+00 -0.00000000000E+00 -0.45593999997E+02  0.45594000000E+02  0.51100000000E-03 0.  1.
    9900012    2    1    2    0    0 -0.17790855941E+01  0.29986419654E+02 -0.31325273813E+02  0.47787270874E+02  0.19999999222E+02 0.  0.
         12    1    1    2    0    0  0.17790855941E+01 -0.29986419654E+02  0.31325273813E+02  0.43400729126E+02  0.00000000000E+00 0. -1.
         11    1    3    3    0    0  0.40916760676E+01  0.97220380008E+01 -0.68020894151E+01  0.12551026118E+02  0.51100000000E-03 0. -1.
        -11    1    3    3    0    0  0.26943275476E+01  0.12812973874E+02 -0.17610612111E+02  0.21944597504E+02  0.51100000000E-03 0.  1.
         12    1    3    3    0    0 -0.85650892093E+01  0.74514077791E+01 -0.69125722866E+01  0.13291647252E+02  0.00000000000E+00 0. -1.
</event>
<event>
 7    1  0.4519840E-010  0.4778728E+02  0.7816164E-02  0.1312668E+00
        -11   -1    0    0    0    0  0.00000000000E+00  0.00000000000E+00  0.45593999997E+02  0.45594000000E+02  0.51100000000E-03 0.  1.
         11   -1    0    0    0    0 -0.00000000000E+00 -0.00000000000E+00 -0.45593999997E+02  0.45594000000E+02  0.51100000000E-03 0. -1.
    9900012    2    1    2    0    0 -0.88307598893E+01  0.29915559083E+02  0.30177803049E+02  0.47787276592E+02  0.20000025294E+02 0.  0.
        -12    1    1    2    0    0  0.88307598893E+01 -0.29915559083E+02 -0.30177803049E+02  0.43400723408E+02  0.00000000000E+00 0.  1.
         11    1    3    3    0    0  0.37171556978E+01  0.51707114283E+01  0.67090073632E+01  0.92500963896E+01  0.51100000000E-03 0. -1.
        -11    1    3    3    0    0 -0.50587803841E+01  0.94597877066E+01  0.17449070116E+02  0.20482892633E+02  0.51100000000E-03 0.  1.
         12    1    3    3    0    0 -0.74891352031E+01  0.15285059948E+02  0.60197255692E+01  0.18054287569E+02  0.00000000000E+00 0. -1.
</event>
<event>
 7    1  0.4519840E-010  0.4778727E+02  0.7816164E-02  0.1312668E+00
        -11   -1    0    0    0    0  0.00000000000E+00  0.00000000000E+00  0.45593999997E+02  0.45594000000E+02  0.51100000000E-03 0. -1.
         11   -1    0    0    0    0 -0.00000000000E+00 -0.00000000000E+00 -0.45593999997E+02  0.45594000000E+02  0.51100000000E-03 0.  1.
    9900012    2    1    2    0    0  0.32875638129E+02  0.14407860778E+02 -0.24397319815E+02  0.47787271334E+02  0.20000001322E+02 0.  0.
         12    1    1    2    0    0 -0.32875638129E+02 -0.14407860778E+02  0.24397319815E+02  0.43400728666E+02  0.00000000000E+00 0. -1.
         11    1    3    3    0    0  0.18107938811E+02  0.57102297536E+01 -0.12312179439E+02  0.22629492584E+02  0.51100000000E-03 0. -1.
        -11    1    3    3    0    0  0.13201274149E+02  0.69411315383E+00 -0.10424038597E+02  0.16834964008E+02  0.51100000000E-03 0.  1.
         12    1    3    3    0    0  0.15664251693E+01  0.80035178703E+01 -0.16611017784E+01  0.83228147420E+01  0.00000000000E+00 0. -1.
</event>
<event>
 7    1  0.4519840E-010  0.4778726E+02  0.7816164E-02  0.1312668E+00
        -11   -1    0    0    0    0  0.00000000000E+00  0.00000000000E+00  0.45593999997E+02  0.45594000000E+02  0.51100000000E-03 0.  1.
         11   -1    0    0    0    0 -0.00000000000E+00 -0.00000000000E+00 -0.45593999997E+02  0.45594000000E+02  0.51100000000E-03 0. -1.
    9900012    2    1    2    0    0 -0.20741007490E+02 -0.23610220271E+02 -0.29933124322E+02  0.47787264700E+02  0.19999971072E+02 0.  0.
         12    1    1    2    0    0  0.20741007490E+02  0.23610220271E+02  0.29933124322E+02  0.43400735300E+02  0.00000000000E+00 0. -1.
         11    1    3    3    0    0 -0.95655529655E+01 -0.68324798137E+01 -0.40385168465E+01  0.12429489230E+02  0.51100000000E-03 0. -1.
        -11    1    3    3    0    0 -0.12233477724E+02 -0.68622685368E+01 -0.16516022869E+02  0.21668588287E+02  0.51100000000E-03 0.  1.
         12    1    3    3    0    0  0.10580231999E+01 -0.99154719203E+01 -0.93785846069E+01  0.13689187183E+02  0.00000000000E+00 0. -1.
</event>
<event>
 7    1  0.4519840E-010  0.4778727E+02  0.7816164E-02  0.1312668E+00
        -11   -1    0    0    0    0  0.00000000000E+00  0.00000000000E+00  0.45593999997E+02  0.45594000000E+02  0.51100000000E-03 0. -1.
         11   -1    0    0    0    0 -0.00000000000E+00 -0.00000000000E+00 -0.45593999997E+02  0.45594000000E+02  0.51100000000E-03 0.  1.
    9900012    2    1    2    0    0  0.12804524435E+02  0.22128173786E+02 -0.35071519729E+02  0.47787269393E+02  0.19999992470E+02 0.  0.
         12    1    1    2    0    0 -0.12804524435E+02 -0.22128173786E+02  0.35071519729E+02  0.43400730607E+02  0.00000000000E+00 0. -1.
         11    1    3    3    0    0  0.12309365308E+02  0.94180570562E+01 -0.95773940941E+01  0.18219405887E+02  0.51100000000E-03 0. -1.
        -11    1    3    3    0    0 -0.94480037050E-02 -0.78547241291E+00 -0.47532560573E+01  0.48177276369E+01  0.51100000000E-03 0.  1.
        -12    1    3    3    0    0  0.50460713045E+00  0.13495589143E+02 -0.20740869578E+02  0.24750135869E+02  0.00000000000E+00 0.  1.
</event>
<event>
 7    1  0.4519840E-010  0.4778724E+02  0.7816164E-02  0.1312668E+00
        -11   -1    0    0    0    0  0.00000000000E+00  0.00000000000E+00  0.45593999997E+02  0.45594000000E+02  0.51100000000E-03 0.  1.
         11   -1    0    0    0    0 -0.00000000000E+00 -0.00000000000E+00 -0.45593999997E+02  0.45594000000E+02  0.51100000000E-03 0. -1.
    9900012    2    1    2    0    0  0.26015393048E+02  0.28983432225E+02  0.19151658972E+02  0.47787238943E+02  0.19999853637E+02 0.  0.
        -12    1    1    2    0    0 -0.26015393048E+02 -0.28983432225E+02 -0.19151658972E+02  0.43400761057E+02  0.00000000000E+00 0.  1.
         11    1    3    3    0    0 -0.14252405562E+01 -0.20117030744E-01 -0.86108761699E+00  0.16652890089E+01  0.51100000000E-03 0. -1.
        -11    1    3    3    0    0  0.11035570732E+02  0.47137933964E+01  0.35983481617E+01  0.12528039724E+02  0.51100000000E-03 0.  1.
         12    1    3    3    0    0  0.16405062872E+02  0.24289755859E+02  0.16414398427E+02  0.33593910211E+02  0.00000000000E+00 0. -1.
</event>
<event>
 7    1  0.4758611E-010  0.4778730E+02  0.7816164E-02  0.1312668E+00
        -11   -1    0    0    0    0  0.00000000000E+00  0.00000000000E+00  0.45593999997E+02  0.45594000000E+02  0.51100000000E-03 0. -1.
         11   -1    0    0    0    0 -0.00000000000E+00 -0.00000000000E+00 -0.45593999997E+02  0.45594000000E+02  0.51100000000E-03 0.  1.
    9900012    2    1    2    0    0  0.11554221200E+02  0.87793548528E+00 -0.41825234826E+02  0.47787296475E+02  0.20000115947E+02 0.  0.
         12    1    1    2    0    0 -0.11554221200E+02 -0.87793548528E+00  0.41825234826E+02  0.43400703525E+02  0.00000000000E+00 0. -1.
         11    1    3    3    0    0  0.44163310843E+01  0.17469217212E+01 -0.17450971563E+01  0.50597509912E+01  0.51100000000E-03 0. -1.
        -11    1    3    3    0    0  0.69596006730E+01 -0.40333957480E+01 -0.11863246196E+02  0.14333210853E+02  0.51100000000E-03 0.  1.
        -12    1    3    3    0    0  0.17828944275E+00  0.31644095120E+01 -0.28216891474E+02  0.28394334631E+02  0.00000000000E+00 0.  1.
</event>
<event>
 7    1  0.4519840E-010  0.4778727E+02  0.7816164E-02  0.1312668E+00
        -11   -1    0    0    0    0  0.00000000000E+00  0.00000000000E+00  0.45593999997E+02  0.45594000000E+02  0.51100000000E-03 0. -1.
         11   -1    0    0    0    0 -0.00000000000E+00 -0.00000000000E+00 -0.45593999997E+02  0.45594000000E+02  0.51100000000E-03 0.  1.
    9900012    2    1    2    0    0  0.18838232845E+02  0.43369965579E+00 -0.39096752895E+02  0.47787271907E+02  0.20000003931E+02 0.  0.
         12    1    1    2    0    0 -0.18838232845E+02 -0.43369965579E+00  0.39096752895E+02  0.43400728093E+02  0.00000000000E+00 0. -1.
         11    1    3    3    0    0 -0.15129579787E+01 -0.29242308886E+01 -0.58915512683E+01  0.67491143673E+01  0.51100000000E-03 0. -1.
        -11    1    3    3    0    0  0.12632107519E+02  0.73614121467E+01 -0.25624671962E+02  0.29502276905E+02  0.51100000000E-03 0.  1.
         12    1    3    3    0    0  0.77190833049E+01 -0.40034816023E+01 -0.75805296644E+01  0.11535880634E+02  0.00000000000E+00 0. -1.
</event>
<event>
 7    1  0.4519840E-010  0.4778727E+02  0.7816164E-02  0.1312668E+00
        -11   -1    0    0    0    0  0.00000000000E+00  0.00000000000E+00  0.45593999997E+02  0.45594000000E+02  0.51100000000E-03 0.  1.
         11   -1    0    0    0    0 -0.00000000000E+00 -0.00000000000E+00 -0.45593999997E+02  0.45594000000E+02  0.51100000000E-03 0. -1.
    9900012    2    1    2    0    0  0.13563501960E+02  0.33477532659E+02  0.24060546702E+02  0.47787266297E+02  0.19999978355E+02 0.  0.
        -12    1    1    2    0    0 -0.13563501960E+02 -0.33477532659E+02 -0.24060546702E+02  0.43400733703E+02  0.00000000000E+00 0.  1.
         11    1    3    3    0    0  0.90133395762E+01  0.98507928822E+01  0.22817300070E+01  0.13545652543E+02  0.51100000000E-03 0. -1.
        -11    1    3    3    0    0  0.65788321261E+01  0.72279395913E+01  0.65094919959E+01  0.11742982125E+02  0.51100000000E-03 0.  1.
         12    1    3    3    0    0 -0.20286697420E+01  0.16398800185E+02  0.15269324699E+02  0.22498631630E+02  0.00000000000E+00 0. -1.
</event>
<event>
 7    1  0.4519840E-010  0.4778727E+02  0.7816164E-02  0.1312668E+00
        -11   -1    0    0    0    0  0.00000000000E+00  0.00000000000E+00  0.45593999997E+02  0.45594000000E+02  0.51100000000E-03 0. -1.
         11   -1    0    0    0    0 -0.00000000000E+00 -0.00000000000E+00 -0.45593999997E+02  0.45594000000E+02  0.51100000000E-03 0.  1.
    9900012    2    1    2    0    0 -0.29214505887E+02  0.23069179898E+02 -0.22314764811E+02  0.47787272541E+02  0.20000006821E+02 0.  0.
         12    1    1    2    0    0  0.29214505887E+02 -0.23069179898E+02  0.22314764811E+02  0.43400727459E+02  0.00000000000E+00 0. -1.
         11    1    3    3    0    0 -0.14000350667E+02  0.11115670187E+02 -0.32606454187E+01  0.18171399266E+02  0.51100000000E-03 0. -1.
        -11    1    3    3    0    0 -0.94864487542E+01  0.36583704409E+01 -0.28971194957E+01  0.10572118325E+02  0.51100000000E-03 0.  1.
        -12    1    3    3    0    0 -0.57277064665E+01  0.82951392704E+01 -0.16156999897E+02  0.19043754949E+02  0.00000000000E+00 0.  1.
</event>
<event>
 7    1  0.4519840E-010  0.4778727E+02  0.7816164E-02  0.1312668E+00
        -11   -1    0    0    0    0  0.00000000000E+00  0.00000000000E+00  0.45593999997E+02  0.45594000000E+02  0.51100000000E-03 0.  1.
         11   -1    0    0    0    0 -0.00000000000E+00 -0.00000000000E+00 -0.45593999997E+02  0.45594000000E+02  0.51100000000E-03 0. -1.
    9900012    2    1    2    0    0  0.30106882573E+02 -0.19209072136E+02 -0.24661923454E+02  0.47787270754E+02  0.19999998677E+02 0.  0.
         12    1    1    2    0    0 -0.30106882573E+02  0.19209072136E+02  0.24661923454E+02  0.43400729246E+02  0.00000000000E+00 0. -1.
         11    1    3    3    0    0  0.30950551006E+01 -0.48939168360E+01 -0.94350260180E+01  0.11070207961E+02  0.51100000000E-03 0. -1.
        -11    1    3    3    0    0  0.11040018328E+02 -0.13193138656E+02 -0.58953363292E+01  0.18185046136E+02  0.51100000000E-03 0.  1.
        -12    1    3    3    0    0  0.15971809144E+02 -0.11220166441E+01 -0.93315611070E+01  0.18532016657E+02  0.00000000000E+00 0.  1.
</event>
<event>
 7    1  0.4519840E-010  0.4778727E+02  0.7816164E-02  0.1312668E+00
        -11   -1    0    0    0    0  0.00000000000E+00  0.00000000000E+00  0.45593999997E+02  0.45594000000E+02  0.51100000000E-03 0. -1.
         11   -1    0    0    0    0 -0.00000000000E+00 -0.00000000000E+00 -0.45593999997E+02  0.45594000000E+02  0.51100000000E-03 0.  1.
    9900012    2    1    2    0    0  0.34080062115E+02 -0.15931967545E+02  0.21641278381E+02  0.47787272430E+02  0.20000006319E+02 0.  0.
        -12    1    1    2    0    0 -0.34080062115E+02  0.15931967545E+02 -0.21641278381E+02  0.43400727570E+02  0.00000000000E+00 0.  1.
         11    1    3    3    0    0  0.17535181798E+02 -0.74772200596E+01  0.11525886546E+02  0.22276388429E+02  0.51100000000E-03 0. -1.
        -11    1    3    3    0    0  0.12488343848E+02 -0.12152130602E+02  0.98485642009E+01  0.20015674540E+02  0.51100000000E-03 0.  1.
         12    1    3    3    0    0  0.40565364698E+01  0.36973831161E+01  0.26682763390E+00  0.54952094614E+01  0.00000000000E+00 0. -1.
</event>
<event>
 7    1  0.4519840E-010  0.4778728E+02  0.7816164E-02  0.1312668E+00
        -11   -1    0    0    0    0  0.00000000000E+00  0.00000000000E+00  0.45593999997E+02  0.45594000000E+02  0.51100000000E-03 0. -1.
         11   -1    0    0    0    0 -0.00000000000E+00 -0.00000000000E+00 -0.45593999997E+02  0.45594000000E+02  0.51100000000E-03 0.  1.
    9900012    2    1    2    0    0 -0.14490826209E+02 -0.14997836072E+02  0.38061841287E+02  0.47787275430E+02  0.20000019997E+02 0.  0.
        -12    1    1    2    0    0  0.14490826209E+02  0.14997836072E+02 -0.38061841287E+02  0.43400724570E+02  0.00000000000E+00 0.  1.
         11    1    3    3    0    0 -0.11780228677E+02 -0.62285450517E+01  0.33521643004E+02  0.36073107865E+02  0.51100000000E-03 0. -1.
        -11    1    3    3    0    0 -0.14906710416E+01 -0.45153031520E+00  0.26866789633E+01  0.31055150769E+01  0.51100000000E-03 0.  1.
        -12    1    3    3    0    0 -0.12199264897E+01 -0.83177607052E+01  0.18535193196E+01  0.86086524879E+01  0.00000000000E+00 0.  1.
</event>
<event>
 7    1  0.4519840E-010  0.4778727E+02  0.7816164E-02  0.1312668E+00
        -11   -1    0    0    0    0  0.00000000000E+00  0.00000000000E+00  0.45593999997E+02  0.45594000000E+02  0.51100000000E-03 0. -1.
         11   -1    0    0    0    0 -0.00000000000E+00 -0.00000000000E+00 -0.45593999997E+02  0.45594000000E+02  0.51100000000E-03 0.  1.
    9900012    2    1    2    0    0 -0.11447007216E+01 -0.28445360299E+02 -0.32759339335E+02  0.47787272173E+02  0.20000005145E+02 0.  0.
         12    1    1    2    0    0  0.11447007216E+01  0.28445360299E+02  0.32759339335E+02  0.43400727827E+02  0.00000000000E+00 0. -1.
         11    1    3    3    0    0 -0.85402411420E+00 -0.83577489590E+01 -0.13308200888E+02  0.15738155419E+02  0.51100000000E-03 0.  1.
        -11    1    3    3    0    0 -0.41778220543E+01 -0.19535669737E+02 -0.11178896473E+02  0.22892451066E+02  0.51100000000E-03 0. -1.
         12    1    3    3    0    0  0.38871454469E+01 -0.55194160283E+00 -0.82722419737E+01  0.91566656885E+01  0.00000000000E+00 0. -1.
</event>
<event>
 7    1  0.4519840E-010  0.4778727E+02  0.7816164E-02  0.1312668E+00
        -11   -1    0    0    0    0  0.00000000000E+00  0.00000000000E+00  0.45593999997E+02  0.45594000000E+02  0.51100000000E-03 0. -1.
         11   -1    0    0    0    0 -0.00000000000E+00 -0.00000000000E+00 -0.45593999997E+02  0.45594000000E+02  0.51100000000E-03 0.  1.
    9900012    2    1    2    0    0 -0.12259654604E+02 -0.17959212974E+01  0.41594457482E+02  0.47787270081E+02  0.19999995607E+02 0.  0.
        -12    1    1    2    0    0  0.12259654604E+02  0.17959212974E+01 -0.41594457482E+02  0.43400729919E+02  0.00000000000E+00 0.  1.
         11    1    3    3    0    0 -0.92311126774E+01 -0.22881334369E+01  0.15778137815E+02  0.18422774738E+02  0.51100000000E-03 0. -1.
        -11    1    3    3    0    0 -0.25550152462E+01 -0.63456120789E+01  0.98836507105E+01  0.12020043560E+02  0.51100000000E-03 0.  1.
         12    1    3    3    0    0 -0.47352668075E+00  0.68378242183E+01  0.15932668956E+02  0.17344451782E+02  0.00000000000E+00 0. -1.
</event>
<event>
 7    1  0.4519840E-010  0.4778727E+02  0.7816164E-02  0.1312668E+00
        -11   -1    0    0    0    0  0.00000000000E+00  0.00000000000E+00  0.45593999997E+02  0.45594000000E+02  0.51100000000E-03 0. -1.
         11   -1    0    0    0    0 -0.00000000000E+00 -0.00000000000E+00 -0.45593999997E+02  0.45594000000E+02  0.51100000000E-03 0.  1.
    9900012    2    1    2    0    0 -0.37438497973E+02  0.12970993641E+02 -0.17712579010E+02  0.47787271185E+02  0.20000000640E+02 0.  0.
         12    1    1    2    0    0  0.37438497973E+02 -0.12970993641E+02  0.17712579010E+02  0.43400728815E+02  0.00000000000E+00 0. -1.
         11    1    3    3    0    0 -0.75412268981E+01  0.10857927911E+02 -0.30026001042E+01  0.13556559641E+02  0.51100000000E-03 0. -1.
        -11    1    3    3    0    0 -0.11041091026E+01  0.18027082389E+01 -0.10253376626E+01  0.23494960074E+01  0.51100000000E-03 0.  1.
        -12    1    3    3    0    0 -0.28793161972E+02  0.31035749121E+00 -0.13684641243E+02  0.31881215537E+02  0.00000000000E+00 0.  1.
</event>
<event>
 7    1  0.4519840E-010  0.4778727E+02  0.7816164E-02  0.1312668E+00
        -11   -1    0    0    0    0  0.00000000000E+00  0.00000000000E+00  0.45593999997E+02  0.45594000000E+02  0.51100000000E-03 0. -1.
         11   -1    0    0    0    0 -0.00000000000E+00 -0.00000000000E+00 -0.45593999997E+02  0.45594000000E+02  0.51100000000E-03 0.  1.
    9900012    2    1    2    0    0  0.30703189289E+01  0.19914299335E+02  0.38439787540E+02  0.47787269102E+02  0.19999991146E+02 0.  0.
        -12    1    1    2    0    0 -0.30703189289E+01 -0.19914299335E+02 -0.38439787540E+02  0.43400730898E+02  0.00000000000E+00 0.  1.
         11    1    3    3    0    0  0.71981375369E+01  0.16866843655E+02  0.26997453504E+02  0.32636882431E+02  0.51100000000E-03 0. -1.
        -11    1    3    3    0    0  0.24401618409E+01  0.24878973607E+00  0.13855209281E+01  0.28170826480E+01  0.51100000000E-03 0.  1.
        -12    1    3    3    0    0 -0.65679804489E+01  0.27986659446E+01  0.10056813108E+02  0.12333304023E+02  0.00000000000E+00 0.  1.
</event>
<event>
 7    1  0.4519840E-010  0.4778727E+02  0.7816164E-02  0.1312668E+00
        -11   -1    0    0    0    0  0.00000000000E+00  0.00000000000E+00  0.45593999997E+02  0.45594000000E+02  0.51100000000E-03 0. -1.
         11   -1    0    0    0    0 -0.00000000000E+00 -0.00000000000E+00 -0.45593999997E+02  0.45594000000E+02  0.51100000000E-03 0.  1.
    9900012    2    1    2    0    0  0.40731144791E+02  0.41930158805E+01 -0.14388031667E+02  0.47787274276E+02  0.20000014734E+02 0.  0.
         12    1    1    2    0    0 -0.40731144791E+02 -0.41930158805E+01  0.14388031667E+02  0.43400725724E+02  0.00000000000E+00 0. -1.
         11    1    3    3    0    0  0.25763604951E+02 -0.68487276936E+01 -0.73586273626E+01  0.27655339593E+02  0.51100000000E-03 0.  1.
        -11    1    3    3    0    0  0.43077421500E+01  0.46333046657E+01 -0.14002034716E+01  0.64795620669E+01  0.51100000000E-03 0. -1.
        -12    1    3    3    0    0  0.10659797689E+02  0.64084389085E+01 -0.56292008327E+01  0.13652372616E+02  0.00000000000E+00 0.  1.
</event>
<event>
 7    1  0.4519840E-010  0.4778727E+02  0.7816164E-02  0.1312668E+00
        -11   -1    0    0    0    0  0.00000000000E+00  0.00000000000E+00  0.45593999997E+02  0.45594000000E+02  0.51100000000E-03 0. -1.
         11   -1    0    0    0    0 -0.00000000000E+00 -0.00000000000E+00 -0.45593999997E+02  0.45594000000E+02  0.51100000000E-03 0.  1.
    9900012    2    1    2    0    0  0.26368084053E+02  0.16320660395E+02  0.30364178755E+02  0.47787272312E+02  0.20000005781E+02 0.  0.
        -12    1    1    2    0    0 -0.26368084053E+02 -0.16320660395E+02 -0.30364178755E+02  0.43400727688E+02  0.00000000000E+00 0.  1.
         11    1    3    3    0    0  0.20637784457E+02  0.14076617256E+02  0.20929618657E+02  0.32590155539E+02  0.51100000000E-03 0. -1.
        -11    1    3    3    0    0  0.36277328637E+01  0.62708626454E+01  0.68518439985E+01  0.99715560716E+01  0.51100000000E-03 0.  1.
        -12    1    3    3    0    0  0.21025667317E+01 -0.40268195063E+01  0.25827161001E+01  0.52255607021E+01  0.00000000000E+00 0.  1.
</event>
<event>
 7    1  0.4519840E-010  0.4778728E+02  0.7816164E-02  0.1312668E+00
        -11   -1    0    0    0    0  0.00000000000E+00  0.00000000000E+00  0.45593999997E+02  0.45594000000E+02  0.51100000000E-03 0. -1.
         11   -1    0    0    0    0 -0.00000000000E+00 -0.00000000000E+00 -0.45593999997E+02  0.45594000000E+02  0.51100000000E-03 0.  1.
    9900012    2    1    2    0    0 -0.26561308327E+02  0.30548534493E+02 -0.15649499687E+02  0.47787275350E+02  0.20000019631E+02 0.  0.
         12    1    1    2    0    0  0.26561308327E+02 -0.30548534493E+02  0.15649499687E+02  0.43400724650E+02  0.00000000000E+00 0. -1.
         11    1    3    3    0    0 -0.12427462648E+02  0.63354889297E+01 -0.59283097749E+00  0.13961794179E+02  0.51100000000E-03 0.  1.
        -11    1    3    3    0    0 -0.10831729196E+02  0.73725810996E+01 -0.58298776957E+01  0.14341156984E+02  0.51100000000E-03 0. -1.
         12    1    3    3    0    0 -0.33021164826E+01  0.16840464464E+02 -0.92267910139E+01  0.19484324187E+02  0.00000000000E+00 0. -1.
</event>
<event>
 7    1  0.9507314E-010  0.4778727E+02  0.7816164E-02  0.1312668E+00
        -11   -1    0    0    0    0  0.00000000000E+00  0.00000000000E+00  0.45593999997E+02  0.45594000000E+02  0.51100000000E-03 0. -1.
         11   -1    0    0    0    0 -0.00000000000E+00 -0.00000000000E+00 -0.45593999997E+02  0.45594000000E+02  0.51100000000E-03 0.  1.
    9900012    2    1    2    0    0 -0.37806881758E+02  0.47870621654E+01 -0.20768903759E+02  0.47787266875E+02  0.19999980990E+02 0.  0.
         12    1    1    2    0    0  0.37806881758E+02 -0.47870621654E+01  0.20768903759E+02  0.43400733125E+02  0.00000000000E+00 0. -1.
         11    1    3    3    0    0 -0.10755731568E+01  0.74875491880E-01  0.17167474924E+01  0.20272360910E+01  0.51100000000E-03 0.  1.
        -11    1    3    3    0    0 -0.15264636995E+02 -0.43707778510E+01 -0.50857405788E+01  0.16672660229E+02  0.51100000000E-03 0. -1.
        -12    1    3    3    0    0 -0.21466671607E+02  0.90829645245E+01 -0.17399910672E+02  0.29087370555E+02  0.00000000000E+00 0.  1.
</event>
<event>
 7    1  0.4519840E-010  0.4778726E+02  0.7816164E-02  0.1312668E+00
        -11   -1    0    0    0    0  0.00000000000E+00  0.00000000000E+00  0.45593999997E+02  0.45594000000E+02  0.51100000000E-03 0. -1.
         11   -1    0    0    0    0 -0.00000000000E+00 -0.00000000000E+00 -0.45593999997E+02  0.45594000000E+02  0.51100000000E-03 0.  1.
    9900012    2    1    2    0    0  0.10921978523E+02  0.31473397104E+02  0.27816544075E+02  0.47787257329E+02  0.19999937467E+02 0.  0.
        -12    1    1    2    0    0 -0.10921978523E+02 -0.31473397104E+02 -0.27816544075E+02  0.43400742671E+02  0.00000000000E+00 0.  1.
         11    1    3    3    0    0  0.13909102210E+01  0.55439010270E+01 -0.10635291137E+01  0.58138252706E+01  0.51100000000E-03 0. -1.
        -11    1    3    3    0    0  0.54897884317E+01  0.22609797377E+02  0.16469466241E+02  0.28505859625E+02  0.51100000000E-03 0.  1.
        -12    1    3    3    0    0  0.40412798703E+01  0.33196986999E+01  0.12410606947E+02  0.13467572433E+02  0.00000000000E+00 0.  1.
</event>
<event>
 7    1  0.4519840E-010  0.4778728E+02  0.7816164E-02  0.1312668E+00
        -11   -1    0    0    0    0  0.00000000000E+00  0.00000000000E+00  0.45593999997E+02  0.45594000000E+02  0.51100000000E-03 0. -1.
         11   -1    0    0    0    0 -0.00000000000E+00 -0.00000000000E+00 -0.45593999997E+02  0.45594000000E+02  0.51100000000E-03 0.  1.
    9900012    2    1    2    0    0  0.29883495816E+01  0.13025619657E+02 -0.41291959377E+02  0.47787275238E+02  0.20000019122E+02 0.  0.
         12    1    1    2    0    0 -0.29883495816E+01 -0.13025619657E+02  0.41291959377E+02  0.43400724762E+02  0.00000000000E+00 0. -1.
         11    1    3    3    0    0 -0.77635801818E+00 -0.35528915392E+00 -0.27666115940E+01  0.28953587219E+01  0.51100000000E-03 0. -1.
        -11    1    3    3    0    0  0.10901106360E+02  0.90271848372E+01 -0.19352751023E+02  0.23976095562E+02  0.51100000000E-03 0.  1.
         12    1    3    3    0    0 -0.71363987604E+01  0.43537239741E+01 -0.19172596760E+02  0.20915820955E+02  0.00000000000E+00 0. -1.
</event>
<event>
 7    1  0.4519840E-010  0.4778727E+02  0.7816164E-02  0.1312668E+00
        -11   -1    0    0    0    0  0.00000000000E+00  0.00000000000E+00  0.45593999997E+02  0.45594000000E+02  0.51100000000E-03 0. -1.
         11   -1    0    0    0    0 -0.00000000000E+00 -0.00000000000E+00 -0.45593999997E+02  0.45594000000E+02  0.51100000000E-03 0.  1.
    9900012    2    1    2    0    0 -0.21567449661E+02 -0.35362143310E+02  0.12960986317E+02  0.47787271542E+02  0.20000002268E+02 0.  0.
        -12    1    1    2    0    0  0.21567449661E+02  0.35362143310E+02 -0.12960986317E+02  0.43400728458E+02  0.00000000000E+00 0.  1.
         11    1    3    3    0    0 -0.92734140885E+01 -0.15040691304E+02  0.50393224049E+01  0.18374258470E+02  0.51100000000E-03 0. -1.
        -11    1    3    3    0    0 -0.15464763758E+02 -0.12981376811E+02  0.69737939973E+01  0.21361387244E+02  0.51100000000E-03 0.  1.
        -12    1    3    3    0    0  0.31707281853E+01 -0.73400751960E+01  0.94786991453E+00  0.80516258286E+01  0.00000000000E+00 0.  1.
</event>
<event>
 7    1  0.4519840E-010  0.4778727E+02  0.7816164E-02  0.1312668E+00
        -11   -1    0    0    0    0  0.00000000000E+00  0.00000000000E+00  0.45593999997E+02  0.45594000000E+02  0.51100000000E-03 0. -1.
         11   -1    0    0    0    0 -0.00000000000E+00 -0.00000000000E+00 -0.45593999997E+02  0.45594000000E+02  0.51100000000E-03 0.  1.
    9900012    2    1    2    0    0  0.80600184958E+00  0.21591570089E+02 -0.37640105254E+02  0.47787273492E+02  0.20000011161E+02 0.  0.
         12    1    1    2    0    0 -0.80600184958E+00 -0.21591570089E+02  0.37640105254E+02  0.43400726508E+02  0.00000000000E+00 0. -1.
         11    1    3    3    0    0  0.20024324902E+01  0.28477075498E+01 -0.25996912224E+01  0.43448324341E+01  0.51100000000E-03 0. -1.
        -11    1    3    3    0    0 -0.48611606865E+01  0.20786231485E+02 -0.30825150895E+02  0.37495176097E+02  0.51100000000E-03 0.  1.
         12    1    3    3    0    0  0.36647300458E+01 -0.20423689451E+01 -0.42152631359E+01  0.59472649614E+01  0.00000000000E+00 0. -1.
</event>
<event>
 7    1  0.4519840E-010  0.4778727E+02  0.7816164E-02  0.1312668E+00
        -11   -1    0    0    0    0  0.00000000000E+00  0.00000000000E+00  0.45593999997E+02  0.45594000000E+02  0.51100000000E-03 0. -1.
         11   -1    0    0    0    0 -0.00000000000E+00 -0.00000000000E+00 -0.45593999997E+02  0.45594000000E+02  0.51100000000E-03 0.  1.
    9900012    2    1    2    0    0 -0.16139178525E+02  0.12710816284E+02 -0.38230685815E+02  0.47787271066E+02  0.20000000098E+02 0.  0.
         12    1    1    2    0    0  0.16139178525E+02 -0.12710816284E+02  0.38230685815E+02  0.43400728934E+02  0.00000000000E+00 0. -1.
         11    1    3    3    0    0 -0.54517514114E+01 -0.14326221373E+01 -0.41442185897E+01  0.69963238648E+01  0.51100000000E-03 0. -1.
        -11    1    3    3    0    0 -0.12841748602E+02  0.63766091451E+01 -0.22334390129E+02  0.26540471624E+02  0.51100000000E-03 0.  1.
         12    1    3    3    0    0  0.21543214879E+01  0.77668292766E+01 -0.11752077097E+02  0.14250475577E+02  0.00000000000E+00 0. -1.
</event>
<event>
 7    1  0.4519840E-010  0.4778727E+02  0.7816164E-02  0.1312668E+00
        -11   -1    0    0    0    0  0.00000000000E+00  0.00000000000E+00  0.45593999997E+02  0.45594000000E+02  0.51100000000E-03 0. -1.
         11   -1    0    0    0    0 -0.00000000000E+00 -0.00000000000E+00 -0.45593999997E+02  0.45594000000E+02  0.51100000000E-03 0.  1.
    9900012    2    1    2    0    0 -0.33214187555E+02 -0.21944450431E+02  0.17288208695E+02  0.47787270518E+02  0.19999997602E+02 0.  0.
        -12    1    1    2    0    0  0.33214187555E+02  0.21944450431E+02 -0.17288208695E+02  0.43400729482E+02  0.00000000000E+00 0.  1.
         11    1    3    3    0    0 -0.24286194629E+02 -0.13087266817E+02  0.12633048945E+02  0.30342869479E+02  0.51100000000E-03 0. -1.
        -11    1    3    3    0    0 -0.11504512310E+02 -0.79224101789E+01  0.31568717382E+01  0.14320762059E+02  0.51100000000E-03 0.  1.
        -12    1    3    3    0    0  0.25765193842E+01 -0.93477343533E+00  0.14982880117E+01  0.31236389802E+01  0.00000000000E+00 0.  1.
</event>
<event>
 7    1  0.4519840E-010  0.4778727E+02  0.7816164E-02  0.1312668E+00
        -11   -1    0    0    0    0  0.00000000000E+00  0.00000000000E+00  0.45593999997E+02  0.45594000000E+02  0.51100000000E-03 0. -1.
         11   -1    0    0    0    0 -0.00000000000E+00 -0.00000000000E+00 -0.45593999997E+02  0.45594000000E+02  0.51100000000E-03 0.  1.
    9900012    2    1    2    0    0  0.19561786270E+01 -0.71818074614E+01 -0.42757672190E+02  0.47787268159E+02  0.19999986846E+02 0.  0.
         12    1    1    2    0    0 -0.19561786270E+01  0.71818074614E+01  0.42757672190E+02  0.43400731841E+02  0.00000000000E+00 0. -1.
         11    1    3    3    0    0  0.69341605410E+01 -0.82811930760E+01 -0.35349634369E+02  0.36962919141E+02  0.51100000000E-03 0. -1.
        -11    1    3    3    0    0 -0.20683121938E+01 -0.57477624217E+00 -0.71411436764E+01  0.74568234743E+01  0.51100000000E-03 0.  1.
         12    1    3    3    0    0 -0.29096697203E+01  0.16741618568E+01 -0.26689414429E+00  0.33675255438E+01  0.00000000000E+00 0. -1.
</event>
<event>
 7    1  0.5912171E-010  0.4778727E+02  0.7816164E-02  0.1312668E+00
        -11   -1    0    0    0    0  0.00000000000E+00  0.00000000000E+00  0.45593999997E+02  0.45594000000E+02  0.51100000000E-03 0.  1.
         11   -1    0    0    0    0 -0.00000000000E+00 -0.00000000000E+00 -0.45593999997E+02  0.45594000000E+02  0.51100000000E-03 0. -1.
    9900012    2    1    2    0    0  0.38951425240E+02  0.13201896605E+02 -0.13860738686E+02  0.47787266376E+02  0.19999978715E+02 0.  0.
         12    1    1    2    0    0 -0.38951425240E+02 -0.13201896605E+02  0.13860738686E+02  0.43400733624E+02  0.00000000000E+00 0. -1.
         11    1    3    3    0    0  0.13498992095E+01 -0.94268727984E-01 -0.42561813206E+01  0.44661162282E+01  0.51100000000E-03 0. -1.
        -11    1    3    3    0    0  0.22513827195E+02  0.31801163860E+01 -0.10687250413E+02  0.25123751249E+02  0.51100000000E-03 0.  1.
        -12    1    3    3    0    0  0.15087698836E+02  0.10116048947E+02  0.10826930473E+01  0.18197398899E+02  0.00000000000E+00 0.  1.
</event>
<event>
 7    1  0.4519840E-010  0.4778727E+02  0.7816164E-02  0.1312668E+00
        -11   -1    0    0    0    0  0.00000000000E+00  0.00000000000E+00  0.45593999997E+02  0.45594000000E+02  0.51100000000E-03 0. -1.
         11   -1    0    0    0    0 -0.00000000000E+00 -0.00000000000E+00 -0.45593999997E+02  0.45594000000E+02  0.51100000000E-03 0.  1.
    9900012    2    1    2    0    0 -0.25267640781E+02  0.18140177784E+02 -0.30267199426E+02  0.47787273257E+02  0.20000010089E+02 0.  0.
         12    1    1    2    0    0  0.25267640781E+02 -0.18140177784E+02  0.30267199426E+02  0.43400726743E+02  0.00000000000E+00 0. -1.
         11    1    3    3    0    0 -0.58372279112E+01  0.19831881029E+01 -0.53153059518E+00  0.61877936111E+01  0.51100000000E-03 0. -1.
        -11    1    3    3    0    0 -0.93880405643E+01 -0.10462901090E+00 -0.60703658178E+01  0.11180142856E+02  0.51100000000E-03 0.  1.
         12    1    3    3    0    0 -0.10042372306E+02  0.16261618692E+02 -0.23665303013E+02  0.30419336790E+02  0.00000000000E+00 0. -1.
</event>
<event>
 7    1  0.4519840E-010  0.4778733E+02  0.7816164E-02  0.1312667E+00
        -11   -1    0    0    0    0  0.00000000000E+00  0.00000000000E+00  0.45593999997E+02  0.45594000000E+02  0.51100000000E-03 0. -1.
         11   -1    0    0    0    0 -0.00000000000E+00 -0.00000000000E+00 -0.45593999997E+02  0.45594000000E+02  0.51100000000E-03 0.  1.
    9900012    2    1    2    0    0 -0.40815667432E+02 -0.13199224185E+02  0.65939146740E+01  0.47787332519E+02  0.20000280287E+02 0.  0.
        -12    1    1    2    0    0  0.40815667432E+02  0.13199224185E+02 -0.65939146740E+01  0.43400667481E+02  0.00000000000E+00 0.  1.
         11    1    3    3    0    0 -0.16194922783E+02 -0.75809738275E+01  0.77179928835E+01  0.19475987845E+02  0.51100000000E-03 0. -1.
        -11    1    3    3    0    0 -0.13952131842E+02  0.84784273634E+00  0.44195465670E+01  0.14659918566E+02  0.51100000000E-03 0.  1.
         12    1    3    3    0    0 -0.10668612808E+02 -0.64660930942E+01 -0.55436247766E+01  0.13651426109E+02  0.00000000000E+00 0. -1.
</event>
<event>
 7    1  0.4519840E-010  0.4778727E+02  0.7816164E-02  0.1312668E+00
        -11   -1    0    0    0    0  0.00000000000E+00  0.00000000000E+00  0.45593999997E+02  0.45594000000E+02  0.51100000000E-03 0.  1.
         11   -1    0    0    0    0 -0.00000000000E+00 -0.00000000000E+00 -0.45593999997E+02  0.45594000000E+02  0.51100000000E-03 0. -1.
    9900012    2    1    2    0    0 -0.26285807395E+02 -0.24897286045E+02  0.23933349736E+02  0.47787265532E+02  0.19999974867E+02 0.  0.
        -12    1    1    2    0    0  0.26285807395E+02  0.24897286045E+02 -0.23933349736E+02  0.43400734468E+02  0.00000000000E+00 0.  1.
         11    1    3    3    0    0 -0.17823347157E+02 -0.12669163372E+02  0.17207000577E+02  0.27825532763E+02  0.51100000000E-03 0. -1.
        -11    1    3    3    0    0 -0.10824496379E+02 -0.11816540517E+02  0.43932360756E+01  0.16616283433E+02  0.51100000000E-03 0.  1.
        -12    1    3    3    0    0  0.23620361410E+01 -0.41158215598E+00  0.23331130832E+01  0.33454493363E+01  0.00000000000E+00 0.  1.
</event>
<event>
 7    1  0.4519840E-010  0.4778726E+02  0.7816164E-02  0.1312668E+00
        -11   -1    0    0    0    0  0.00000000000E+00  0.00000000000E+00  0.45593999997E+02  0.45594000000E+02  0.51100000000E-03 0. -1.
         11   -1    0    0    0    0 -0.00000000000E+00 -0.00000000000E+00 -0.45593999997E+02  0.45594000000E+02  0.51100000000E-03 0.  1.
    9900012    2    1    2    0    0 -0.27166957015E+01 -0.43315095214E+02  0.21492263991E+00  0.47787261520E+02  0.19999956572E+02 0.  0.
         12    1    1    2    0    0  0.27166957015E+01  0.43315095214E+02 -0.21492263991E+00  0.43400738480E+02  0.00000000000E+00 0. -1.
         11    1    3    3    0    0  0.10459736030E+00 -0.10397523072E+02 -0.16227166093E+01  0.10523907834E+02  0.51100000000E-03 0. -1.
        -11    1    3    3    0    0  0.67918596604E+01 -0.19953712114E+02  0.91623361156E+00  0.21097854608E+02  0.51100000000E-03 0.  1.
         12    1    3    3    0    0 -0.96131527222E+01 -0.12963860028E+02  0.92140563764E+00  0.16165499078E+02  0.00000000000E+00 0. -1.
</event>
<event>
 7    1  0.4519840E-010  0.4778727E+02  0.7816164E-02  0.1312668E+00
        -11   -1    0    0    0    0  0.00000000000E+00  0.00000000000E+00  0.45593999997E+02  0.45594000000E+02  0.51100000000E-03 0. -1.
         11   -1    0    0    0    0 -0.00000000000E+00 -0.00000000000E+00 -0.45593999997E+02  0.45594000000E+02  0.51100000000E-03 0.  1.
    9900012    2    1    2    0    0  0.27591900941E+01 -0.31276099365E+02 -0.29963572652E+02  0.47787271808E+02  0.20000003484E+02 0.  0.
         12    1    1    2    0    0 -0.27591900941E+01  0.31276099365E+02  0.29963572652E+02  0.43400728192E+02  0.00000000000E+00 0. -1.
         11    1    3    3    0    0  0.39979186879E+01 -0.14892844407E+02 -0.87797005809E+01  0.17744388153E+02  0.51100000000E-03 0. -1.
        -11    1    3    3    0    0  0.32302008212E+01 -0.12963532779E+02 -0.20365367632E+02  0.24356427869E+02  0.51100000000E-03 0.  1.
         12    1    3    3    0    0 -0.44689294150E+01 -0.34197221788E+01 -0.81850443861E+00  0.56864557866E+01  0.00000000000E+00 0. -1.
</event>
<event>
 7    1  0.4519840E-010  0.4778727E+02  0.7816164E-02  0.1312668E+00
        -11   -1    0    0    0    0  0.00000000000E+00  0.00000000000E+00  0.45593999997E+02  0.45594000000E+02  0.51100000000E-03 0. -1.
         11   -1    0    0    0    0 -0.00000000000E+00 -0.00000000000E+00 -0.45593999997E+02  0.45594000000E+02  0.51100000000E-03 0.  1.
    9900012    2    1    2    0    0  0.24540847951E+02  0.15834346384E+02  0.32103638313E+02  0.47787270323E+02  0.19999996709E+02 0.  0.
        -12    1    1    2    0    0 -0.24540847951E+02 -0.15834346384E+02 -0.32103638313E+02  0.43400729677E+02  0.00000000000E+00 0.  1.
         11    1    3    3    0    0  0.65254822093E+01  0.18099932718E+01  0.91797953902E+01  0.11407306315E+02  0.51100000000E-03 0. -1.
        -11    1    3    3    0    0  0.17618709566E+02  0.13314156173E+02  0.11446523106E+02  0.24873853197E+02  0.51100000000E-03 0.  1.
        -12    1    3    3    0    0  0.39665617626E+00  0.71019693939E+00  0.11477319816E+02  0.11506110811E+02  0.00000000000E+00 0.  1.
</event>
<event>
 7    1  0.4519840E-010  0.4778727E+02  0.7816164E-02  0.1312668E+00
        -11   -1    0    0    0    0  0.00000000000E+00  0.00000000000E+00  0.45593999997E+02  0.45594000000E+02  0.51100000000E-03 0. -1.
         11   -1    0    0    0    0 -0.00000000000E+00 -0.00000000000E+00 -0.45593999997E+02  0.45594000000E+02  0.51100000000E-03 0.  1.
    9900012    2    1    2    0    0  0.22897949790E+02  0.16596751863E+02  0.32921955022E+02  0.47787269597E+02  0.19999993402E+02 0.  0.
        -12    1    1    2    0    0 -0.22897949790E+02 -0.16596751863E+02 -0.32921955022E+02  0.43400730403E+02  0.00000000000E+00 0.  1.
         11    1    3    3    0    0  0.11550790964E+02  0.88476147931E+01  0.25785105794E+02  0.29606971147E+02  0.51100000000E-03 0. -1.
        -11    1    3    3    0    0  0.51907119757E+01 -0.13270990801E+01  0.42522948332E+01  0.68400799990E+01  0.51100000000E-03 0.  1.
         12    1    3    3    0    0  0.61564468511E+01  0.90762361495E+01  0.28845543953E+01  0.11340218452E+02  0.00000000000E+00 0. -1.
</event>
<event>
 7    1  0.4519840E-010  0.4778726E+02  0.7816164E-02  0.1312668E+00
        -11   -1    0    0    0    0  0.00000000000E+00  0.00000000000E+00  0.45593999997E+02  0.45594000000E+02  0.51100000000E-03 0. -1.
         11   -1    0    0    0    0 -0.00000000000E+00 -0.00000000000E+00 -0.45593999997E+02  0.45594000000E+02  0.51100000000E-03 0.  1.
    9900012    2    1    2    0    0 -0.14500619837E+02 -0.53271213248E+01  0.40558325411E+02  0.47787263170E+02  0.19999964098E+02 0.  0.
        -12    1    1    2    0    0  0.14500619837E+02  0.53271213248E+01 -0.40558325411E+02  0.43400736830E+02  0.00000000000E+00 0.  1.
         11    1    3    3    0    0 -0.42798982529E+01  0.10713479114E+01  0.20888375543E+02  0.21349228288E+02  0.51100000000E-03 0. -1.
        -11    1    3    3    0    0  0.14538901849E+01  0.25023415263E+01  0.23105294706E+01  0.37032494488E+01  0.51100000000E-03 0.  1.
        -12    1    3    3    0    0 -0.11674611769E+02 -0.89008107625E+01  0.17359420397E+02  0.22734785433E+02  0.00000000000E+00 0.  1.
</event>
<event>
 7    1  0.4519840E-010  0.4778727E+02  0.7816164E-02  0.1312668E+00
        -11   -1    0    0    0    0  0.00000000000E+00  0.00000000000E+00  0.45593999997E+02  0.45594000000E+02  0.51100000000E-03 0. -1.
         11   -1    0    0    0    0 -0.00000000000E+00 -0.00000000000E+00 -0.45593999997E+02  0.45594000000E+02  0.51100000000E-03 0.  1.
    9900012    2    1    2    0    0 -0.22652909813E+02 -0.56477946819E+01 -0.36586490635E+02  0.47787271840E+02  0.20000003629E+02 0.  0.
         12    1    1    2    0    0  0.22652909813E+02  0.56477946819E+01  0.36586490635E+02  0.43400728160E+02  0.00000000000E+00 0. -1.
         11    1    3    3    0    0 -0.44076409021E+01  0.29637048170E+00 -0.16968282556E+01  0.47322679736E+01  0.51100000000E-03 0. -1.
        -11    1    3    3    0    0 -0.14546207865E+02 -0.28020111787E+01 -0.10426579459E+02  0.18115103902E+02  0.51100000000E-03 0.  1.
         12    1    3    3    0    0 -0.36990610463E+01 -0.31421539849E+01 -0.24463082920E+02  0.24939899965E+02  0.00000000000E+00 0. -1.
</event>
<event>
 7    1  0.4519840E-010  0.4778728E+02  0.7816164E-02  0.1312668E+00
        -11   -1    0    0    0    0  0.00000000000E+00  0.00000000000E+00  0.45593999997E+02  0.45594000000E+02  0.51100000000E-03 0. -1.
         11   -1    0    0    0    0 -0.00000000000E+00 -0.00000000000E+00 -0.45593999997E+02  0.45594000000E+02  0.51100000000E-03 0.  1.
    9900012    2    1    2    0    0 -0.11209295018E+02  0.21868902315E+02  0.35773249019E+02  0.47787279630E+02  0.20000039146E+02 0.  0.
        -12    1    1    2    0    0  0.11209295018E+02 -0.21868902315E+02 -0.35773249019E+02  0.43400720370E+02  0.00000000000E+00 0.  1.
         11    1    3    3    0    0  0.29574160359E+01  0.30229965307E+01  0.59190260030E+01  0.72745918593E+01  0.51100000000E-03 0. -1.
        -11    1    3    3    0    0 -0.39062955792E+01  0.10609197946E+02  0.49402104068E+01  0.12337743122E+02  0.51100000000E-03 0.  1.
         12    1    3    3    0    0 -0.10260415474E+02  0.82367078384E+01  0.24914012609E+02  0.28174944649E+02  0.00000000000E+00 0. -1.
</event>
<event>
 7    1  0.4519840E-010  0.4778728E+02  0.7816164E-02  0.1312668E+00
        -11   -1    0    0    0    0  0.00000000000E+00  0.00000000000E+00  0.45593999997E+02  0.45594000000E+02  0.51100000000E-03 0. -1.
         11   -1    0    0    0    0 -0.00000000000E+00 -0.00000000000E+00 -0.45593999997E+02  0.45594000000E+02  0.51100000000E-03 0.  1.
    9900012    2    1    2    0    0  0.21519739934E+02  0.13742150579E+01  0.37664772911E+02  0.47787276593E+02  0.20000025296E+02 0.  0.
        -12    1    1    2    0    0 -0.21519739934E+02 -0.13742150579E+01 -0.37664772911E+02  0.43400723407E+02  0.00000000000E+00 0.  1.
         11    1    3    3    0    0  0.60506709184E+01 -0.36880876005E+01  0.78266573633E+01  0.10557896308E+02  0.51100000000E-03 0. -1.
        -11    1    3    3    0    0  0.89951379046E+01  0.62340605694E+01  0.59607675976E+01  0.12462213596E+02  0.51100000000E-03 0.  1.
         12    1    3    3    0    0  0.64739311113E+01 -0.11717579109E+01  0.23877347950E+02  0.24767166688E+02  0.00000000000E+00 0. -1.
</event>
<event>
 7    1  0.4519840E-010  0.4778727E+02  0.7816164E-02  0.1312668E+00
        -11   -1    0    0    0    0  0.00000000000E+00  0.00000000000E+00  0.45593999997E+02  0.45594000000E+02  0.51100000000E-03 0. -1.
         11   -1    0    0    0    0 -0.00000000000E+00 -0.00000000000E+00 -0.45593999997E+02  0.45594000000E+02  0.51100000000E-03 0.  1.
    9900012    2    1    2    0    0 -0.18999359579E+02 -0.27074801152E+02  0.28099871517E+02  0.47787270731E+02  0.19999998571E+02 0.  0.
        -12    1    1    2    0    0  0.18999359579E+02  0.27074801152E+02 -0.28099871517E+02  0.43400729269E+02  0.00000000000E+00 0.  1.
         11    1    3    3    0    0 -0.13416429827E+02 -0.61570286461E+01  0.13064639335E+02  0.19712797678E+02  0.51100000000E-03 0.  1.
        -11    1    3    3    0    0 -0.76155245311E+01 -0.12253648080E+02  0.11683696381E+02  0.18564936481E+02  0.51100000000E-03 0. -1.
        -12    1    3    3    0    0  0.20325947793E+01 -0.86641244257E+01  0.33515358005E+01  0.95095365724E+01  0.00000000000E+00 0.  1.
</event>
<event>
 7    1  0.4519840E-010  0.4778727E+02  0.7816164E-02  0.1312668E+00
        -11   -1    0    0    0    0  0.00000000000E+00  0.00000000000E+00  0.45593999997E+02  0.45594000000E+02  0.51100000000E-03 0. -1.
         11   -1    0    0    0    0 -0.00000000000E+00 -0.00000000000E+00 -0.45593999997E+02  0.45594000000E+02  0.51100000000E-03 0.  1.
    9900012    2    1    2    0    0  0.26079281346E+02 -0.11573846106E+02  0.32703826692E+02  0.47787272937E+02  0.20000008631E+02 0.  0.
        -12    1    1    2    0    0 -0.26079281346E+02  0.11573846106E+02 -0.32703826692E+02  0.43400727063E+02  0.00000000000E+00 0.  1.
         11    1    3    3    0    0  0.18561890098E+02 -0.91968266745E+01  0.13376215137E+02  0.24658639795E+02  0.51100000000E-03 0. -1.
        -11    1    3    3    0    0  0.44682641073E+01 -0.10145914013E+01  0.12560132299E+01  0.47510366594E+01  0.51100000000E-03 0.  1.
         12    1    3    3    0    0  0.30491271415E+01 -0.13624280302E+01  0.18071598326E+02  0.18377596483E+02  0.00000000000E+00 0. -1.
</event>
<event>
 7    1  0.4519840E-010  0.4778727E+02  0.7816164E-02  0.1312668E+00
        -11   -1    0    0    0    0  0.00000000000E+00  0.00000000000E+00  0.45593999997E+02  0.45594000000E+02  0.51100000000E-03 0. -1.
         11   -1    0    0    0    0 -0.00000000000E+00 -0.00000000000E+00 -0.45593999997E+02  0.45594000000E+02  0.51100000000E-03 0.  1.
    9900012    2    1    2    0    0  0.16980002659E+02 -0.12357793739E+02 -0.37981412002E+02  0.47787271733E+02  0.20000003141E+02 0.  0.
         12    1    1    2    0    0 -0.16980002659E+02  0.12357793739E+02  0.37981412002E+02  0.43400728267E+02  0.00000000000E+00 0. -1.
         11    1    3    3    0    0 -0.55139693434E+00 -0.30571983714E+00 -0.65843312133E+01  0.66144478973E+01  0.51100000000E-03 0. -1.
        -11    1    3    3    0    0  0.34239436740E+00 -0.82132793023E+01 -0.15021827897E+02  0.17123974551E+02  0.51100000000E-03 0.  1.
         12    1    3    3    0    0  0.17189005226E+02 -0.38387945995E+01 -0.16375252892E+02  0.24048849285E+02  0.00000000000E+00 0. -1.
</event>
<event>
 7    1  0.4519840E-010  0.4778727E+02  0.7816164E-02  0.1312668E+00
        -11   -1    0    0    0    0  0.00000000000E+00  0.00000000000E+00  0.45593999997E+02  0.45594000000E+02  0.51100000000E-03 0. -1.
         11   -1    0    0    0    0 -0.00000000000E+00 -0.00000000000E+00 -0.45593999997E+02  0.45594000000E+02  0.51100000000E-03 0.  1.
    9900012    2    1    2    0    0 -0.18444232350E+02  0.35058518547E+02 -0.17729463881E+02  0.47787270523E+02  0.19999997621E+02 0.  0.
         12    1    1    2    0    0  0.18444232350E+02 -0.35058518547E+02  0.17729463881E+02  0.43400729477E+02  0.00000000000E+00 0. -1.
         11    1    3    3    0    0 -0.69727282023E+01  0.99173458187E+01 -0.90446290185E+01  0.15125409119E+02  0.51100000000E-03 0.  1.
        -11    1    3    3    0    0 -0.27376084008E+01  0.19958896016E+02 -0.98765598378E+01  0.22436543059E+02  0.51100000000E-03 0. -1.
         12    1    3    3    0    0 -0.87338957468E+01  0.51822767116E+01  0.11917249758E+01  0.10225318345E+02  0.00000000000E+00 0. -1.
</event>
<event>
 7    1  0.4519840E-010  0.4778727E+02  0.7816164E-02  0.1312668E+00
        -11   -1    0    0    0    0  0.00000000000E+00  0.00000000000E+00  0.45593999997E+02  0.45594000000E+02  0.51100000000E-03 0. -1.
         11   -1    0    0    0    0 -0.00000000000E+00 -0.00000000000E+00 -0.45593999997E+02  0.45594000000E+02  0.51100000000E-03 0.  1.
    9900012    2    1    2    0    0 -0.40684192774E+02 -0.96703982111E+01 -0.11614784211E+02  0.47787270104E+02  0.19999995713E+02 0.  0.
         12    1    1    2    0    0  0.40684192774E+02  0.96703982111E+01  0.11614784211E+02  0.43400729896E+02  0.00000000000E+00 0. -1.
         11    1    3    3    0    0 -0.19191624707E+02 -0.33249469890E+01 -0.10021500144E+02  0.21904433268E+02  0.51100000000E-03 0. -1.
        -11    1    3    3    0    0 -0.15984104276E+02  0.15768923872E+01 -0.22146844306E+01  0.16213667275E+02  0.51100000000E-03 0.  1.
         12    1    3    3    0    0 -0.55084637902E+01 -0.79223436093E+01  0.62140036381E+00  0.96691695612E+01  0.00000000000E+00 0. -1.
</event>
<event>
 7    1  0.4519840E-010  0.4778727E+02  0.7816164E-02  0.1312668E+00
        -11   -1    0    0    0    0  0.00000000000E+00  0.00000000000E+00  0.45593999997E+02  0.45594000000E+02  0.51100000000E-03 0.  1.
         11   -1    0    0    0    0 -0.00000000000E+00 -0.00000000000E+00 -0.45593999997E+02  0.45594000000E+02  0.51100000000E-03 0. -1.
    9900012    2    1    2    0    0 -0.30506204807E+02 -0.27135507712E+02  0.14719334864E+02  0.47787272709E+02  0.20000007591E+02 0.  0.
        -12    1    1    2    0    0  0.30506204807E+02  0.27135507712E+02 -0.14719334864E+02  0.43400727291E+02  0.00000000000E+00 0.  1.
         11    1    3    3    0    0 -0.87020277808E+01 -0.51953519170E+01 -0.12171252499E+01  0.10207759949E+02  0.51100000000E-03 0. -1.
        -11    1    3    3    0    0 -0.91897255374E+01 -0.32427307607E+01 -0.36270037546E+00  0.97518157316E+01  0.51100000000E-03 0.  1.
        -12    1    3    3    0    0 -0.12614451489E+02 -0.18697425034E+02  0.16299160490E+02  0.27827697029E+02  0.00000000000E+00 0.  1.
</event>
<event>
 7    1  0.4519840E-010  0.4778727E+02  0.7816164E-02  0.1312668E+00
        -11   -1    0    0    0    0  0.00000000000E+00  0.00000000000E+00  0.45593999997E+02  0.45594000000E+02  0.51100000000E-03 0. -1.
         11   -1    0    0    0    0 -0.00000000000E+00 -0.00000000000E+00 -0.45593999997E+02  0.45594000000E+02  0.51100000000E-03 0.  1.
    9900012    2    1    2    0    0 -0.43273391460E+02 -0.23126208341E+01  0.23851063786E+01  0.47787270098E+02  0.19999995687E+02 0.  0.
         12    1    1    2    0    0  0.43273391460E+02  0.23126208341E+01 -0.23851063786E+01  0.43400729902E+02  0.00000000000E+00 0. -1.
         11    1    3    3    0    0 -0.54570316705E+00 -0.87815020535E+00  0.35358741754E+00  0.10926866214E+01  0.51100000000E-03 0. -1.
        -11    1    3    3    0    0 -0.39247900081E+02 -0.10808014708E+01 -0.42630130969E+01  0.39493532047E+02  0.51100000000E-03 0.  1.
        -12    1    3    3    0    0 -0.34797882113E+01 -0.35366915801E+00  0.62945320580E+01  0.72010514300E+01  0.00000000000E+00 0.  1.
</event>
<event>
 7    1  0.4519840E-010  0.4778727E+02  0.7816164E-02  0.1312668E+00
        -11   -1    0    0    0    0  0.00000000000E+00  0.00000000000E+00  0.45593999997E+02  0.45594000000E+02  0.51100000000E-03 0. -1.
         11   -1    0    0    0    0 -0.00000000000E+00 -0.00000000000E+00 -0.45593999997E+02  0.45594000000E+02  0.51100000000E-03 0.  1.
    9900012    2    1    2    0    0  0.63668391093E+01  0.24835665431E+02  0.35018228995E+02  0.47787270979E+02  0.19999999701E+02 0.  0.
        -12    1    1    2    0    0 -0.63668391093E+01 -0.24835665431E+02 -0.35018228995E+02  0.43400729021E+02  0.00000000000E+00 0.  1.
         11    1    3    3    0    0  0.22284851010E+01  0.48335250152E+01  0.67299819523E+01  0.85803127716E+01  0.51100000000E-03 0. -1.
        -11    1    3    3    0    0 -0.69365224183E+01  0.52497938070E+01  0.89056796110E+01  0.12449369778E+02  0.51100000000E-03 0.  1.
        -12    1    3    3    0    0  0.11074876427E+02  0.14752346608E+02  0.19382567431E+02  0.26757588429E+02  0.00000000000E+00 0.  1.
</event>
<event>
 7    1  0.4519840E-010  0.4778727E+02  0.7816164E-02  0.1312668E+00
        -11   -1    0    0    0    0  0.00000000000E+00  0.00000000000E+00  0.45593999997E+02  0.45594000000E+02  0.51100000000E-03 0. -1.
         11   -1    0    0    0    0 -0.00000000000E+00 -0.00000000000E+00 -0.45593999997E+02  0.45594000000E+02  0.51100000000E-03 0.  1.
    9900012    2    1    2    0    0 -0.83448522250E+01 -0.28410695755E+02  0.31730412783E+02  0.47787270890E+02  0.19999999295E+02 0.  0.
        -12    1    1    2    0    0  0.83448522250E+01  0.28410695755E+02 -0.31730412783E+02  0.43400729110E+02  0.00000000000E+00 0.  1.
         11    1    3    3    0    0 -0.32606490096E+01 -0.20051141968E+02  0.20094124316E+02  0.28573658472E+02  0.51100000000E-03 0. -1.
        -11    1    3    3    0    0 -0.15479073828E+00 -0.99531803512E+01  0.89093720378E+01  0.13359141800E+02  0.51100000000E-03 0.  1.
         12    1    3    3    0    0 -0.49294124772E+01  0.15936265645E+01  0.27269164293E+01  0.58544706174E+01  0.00000000000E+00 0. -1.
</event>
<event>
 7    1  0.4519840E-010  0.4778727E+02  0.7816164E-02  0.1312668E+00
        -11   -1    0    0    0    0  0.00000000000E+00  0.00000000000E+00  0.45593999997E+02  0.45594000000E+02  0.51100000000E-03 0. -1.
         11   -1    0    0    0    0 -0.00000000000E+00 -0.00000000000E+00 -0.45593999997E+02  0.45594000000E+02  0.51100000000E-03 0.  1.
    9900012    2    1    2    0    0  0.27578860977E+02 -0.11450491966E+02  0.31494698121E+02  0.47787270182E+02  0.19999996067E+02 0.  0.
        -12    1    1    2    0    0 -0.27578860977E+02  0.11450491966E+02 -0.31494698121E+02  0.43400729818E+02  0.00000000000E+00 0.  1.
         11    1    3    3    0    0  0.21773994832E+02 -0.50649109127E+01  0.14702853492E+02  0.26756944418E+02  0.51100000000E-03 0. -1.
        -11    1    3    3    0    0  0.23813513003E+00 -0.61550907184E+01  0.48058053755E+01  0.78126574007E+01  0.51100000000E-03 0.  1.
        -12    1    3    3    0    0  0.55667310146E+01 -0.23049033478E+00  0.11986039253E+02  0.13217668363E+02  0.00000000000E+00 0.  1.
</event>
<event>
 7    1  0.4519840E-010  0.4778727E+02  0.7816164E-02  0.1312668E+00
        -11   -1    0    0    0    0  0.00000000000E+00  0.00000000000E+00  0.45593999997E+02  0.45594000000E+02  0.51100000000E-03 0. -1.
         11   -1    0    0    0    0 -0.00000000000E+00 -0.00000000000E+00 -0.45593999997E+02  0.45594000000E+02  0.51100000000E-03 0.  1.
    9900012    2    1    2    0    0  0.16191951810E+02 -0.50806993958E+01  0.39945341107E+02  0.47787273210E+02  0.20000009874E+02 0.  0.
        -12    1    1    2    0    0 -0.16191951810E+02  0.50806993958E+01 -0.39945341107E+02  0.43400726790E+02  0.00000000000E+00 0.  1.
         11    1    3    3    0    0  0.96904113749E+01  0.25086643153E+01  0.17274816436E+02  0.19965388862E+02  0.51100000000E-03 0. -1.
        -11    1    3    3    0    0 -0.11685854008E+00 -0.12069389462E+01  0.16949497586E+02  0.16992816901E+02  0.51100000000E-03 0.  1.
        -12    1    3    3    0    0  0.66183989749E+01 -0.63824247649E+01  0.57210270845E+01  0.10829067447E+02  0.00000000000E+00 0.  1.
</event>
<event>
 7    1  0.4519840E-010  0.4778727E+02  0.7816164E-02  0.1312668E+00
        -11   -1    0    0    0    0  0.00000000000E+00  0.00000000000E+00  0.45593999997E+02  0.45594000000E+02  0.51100000000E-03 0. -1.
         11   -1    0    0    0    0 -0.00000000000E+00 -0.00000000000E+00 -0.45593999997E+02  0.45594000000E+02  0.51100000000E-03 0.  1.
    9900012    2    1    2    0    0 -0.88802409791E+00  0.20261366132E+02 -0.38370711464E+02  0.47787273709E+02  0.20000012147E+02 0.  0.
         12    1    1    2    0    0  0.88802409791E+00 -0.20261366132E+02  0.38370711464E+02  0.43400726291E+02  0.00000000000E+00 0. -1.
         11    1    3    3    0    0 -0.51393829525E+01  0.19350132118E+01 -0.13975292546E+02  0.15015536463E+02  0.51100000000E-03 0. -1.
        -11    1    3    3    0    0 -0.19008356946E+01  0.74801874232E+01 -0.35815165087E+01  0.85084452744E+01  0.51100000000E-03 0.  1.
        -12    1    3    3    0    0  0.61521945493E+01  0.10846165497E+02 -0.20813902410E+02  0.24263291971E+02  0.00000000000E+00 0.  1.
</event>
<event>
 7    1  0.4519840E-010  0.4778727E+02  0.7816164E-02  0.1312668E+00
        -11   -1    0    0    0    0  0.00000000000E+00  0.00000000000E+00  0.45593999997E+02  0.45594000000E+02  0.51100000000E-03 0. -1.
         11   -1    0    0    0    0 -0.00000000000E+00 -0.00000000000E+00 -0.45593999997E+02  0.45594000000E+02  0.51100000000E-03 0.  1.
    9900012    2    1    2    0    0 -0.23136023593E+02 -0.31342297994E+02 -0.19131343458E+02  0.47787268051E+02  0.19999986350E+02 0.  0.
         12    1    1    2    0    0  0.23136023593E+02  0.31342297994E+02  0.19131343458E+02  0.43400731949E+02  0.00000000000E+00 0. -1.
         11    1    3    3    0    0 -0.85376942246E+01 -0.18572351329E+02 -0.94305771982E+01  0.22511335881E+02  0.51100000000E-03 0. -1.
        -11    1    3    3    0    0 -0.71665752673E+01 -0.13558514248E+02 -0.39239107416E+01  0.15830040602E+02  0.51100000000E-03 0.  1.
         12    1    3    3    0    0 -0.74317541009E+01  0.78856758337E+00 -0.57768555178E+01  0.94458915685E+01  0.00000000000E+00 0. -1.
</event>
<event>
 7    1  0.4519840E-010  0.4778725E+02  0.7816164E-02  0.1312668E+00
        -11   -1    0    0    0    0  0.00000000000E+00  0.00000000000E+00  0.45593999997E+02  0.45594000000E+02  0.51100000000E-03 0. -1.
         11   -1    0    0    0    0 -0.00000000000E+00 -0.00000000000E+00 -0.45593999997E+02  0.45594000000E+02  0.51100000000E-03 0.  1.
    9900012    2    1    2    0    0 -0.19076185909E+02 -0.25786868817E+02  0.29236302510E+02  0.47787252810E+02  0.19999916861E+02 0.  0.
        -12    1    1    2    0    0  0.19076185909E+02  0.25786868817E+02 -0.29236302510E+02  0.43400747190E+02  0.00000000000E+00 0.  1.
         11    1    3    3    0    0 -0.27278441807E+01 -0.88030080197E+01  0.60065440501E+01  0.11000575247E+02  0.51100000000E-03 0. -1.
        -11    1    3    3    0    0 -0.42896691706E+01 -0.11233785083E+01 -0.18081573391E+01  0.47888071678E+01  0.51100000000E-03 0.  1.
         12    1    3    3    0    0 -0.12058672558E+02 -0.15860482289E+02  0.25037915799E+02  0.31997870395E+02  0.00000000000E+00 0. -1.
</event>
<event>
 7    1  0.4519840E-010  0.4778727E+02  0.7816164E-02  0.1312668E+00
        -11   -1    0    0    0    0  0.00000000000E+00  0.00000000000E+00  0.45593999997E+02  0.45594000000E+02  0.51100000000E-03 0. -1.
         11   -1    0    0    0    0 -0.00000000000E+00 -0.00000000000E+00 -0.45593999997E+02  0.45594000000E+02  0.51100000000E-03 0.  1.
    9900012    2    1    2    0    0 -0.17281396226E+02  0.77296065475E+01  0.39054188564E+02  0.47787272848E+02  0.20000008225E+02 0.  0.
        -12    1    1    2    0    0  0.17281396226E+02 -0.77296065475E+01 -0.39054188564E+02  0.43400727152E+02  0.00000000000E+00 0.  1.
         11    1    3    3    0    0 -0.70021662861E+01  0.42720540258E+00  0.26119882583E+02  0.27045537590E+02  0.51100000000E-03 0. -1.
        -11    1    3    3    0    0  0.20492821306E+01  0.15237289421E+01  0.14993425352E+01  0.29613063737E+01  0.51100000000E-03 0.  1.
         12    1    3    3    0    0 -0.12328512071E+02  0.57786722028E+01  0.11434963446E+02  0.17780428884E+02  0.00000000000E+00 0. -1.
</event>
<event>
 7    1  0.4519840E-010  0.4778727E+02  0.7816164E-02  0.1312668E+00
        -11   -1    0    0    0    0  0.00000000000E+00  0.00000000000E+00  0.45593999997E+02  0.45594000000E+02  0.51100000000E-03 0. -1.
         11   -1    0    0    0    0 -0.00000000000E+00 -0.00000000000E+00 -0.45593999997E+02  0.45594000000E+02  0.51100000000E-03 0.  1.
    9900012    2    1    2    0    0  0.59411546012E+01  0.40254887464E+02 -0.15095353027E+02  0.47787274594E+02  0.20000016184E+02 0.  0.
         12    1    1    2    0    0 -0.59411546012E+01 -0.40254887464E+02  0.15095353027E+02  0.43400725406E+02  0.00000000000E+00 0. -1.
         11    1    3    3    0    0 -0.37946976238E+00  0.22796960325E+02 -0.79497786033E+01  0.24146311881E+02  0.51100000000E-03 0. -1.
        -11    1    3    3    0    0 -0.17483763331E+01  0.93337040061E+01 -0.76280551828E+01  0.12180397219E+02  0.51100000000E-03 0.  1.
         12    1    3    3    0    0  0.80690006967E+01  0.81242231333E+01  0.48248075873E+00  0.11460565494E+02  0.00000000000E+00 0. -1.
</event>
<event>
 7    1  0.4519840E-010  0.4778727E+02  0.7816164E-02  0.1312668E+00
        -11   -1    0    0    0    0  0.00000000000E+00  0.00000000000E+00  0.45593999997E+02  0.45594000000E+02  0.51100000000E-03 0. -1.
         11   -1    0    0    0    0 -0.00000000000E+00 -0.00000000000E+00 -0.45593999997E+02  0.45594000000E+02  0.51100000000E-03 0.  1.
    9900012    2    1    2    0    0  0.25977562847E+01  0.75844355274E-01  0.43322849517E+02  0.47787269818E+02  0.19999994408E+02 0.  0.
        -12    1    1    2    0    0 -0.25977562847E+01 -0.75844355274E-01 -0.43322849517E+02  0.43400730182E+02  0.00000000000E+00 0.  1.
         11    1    3    3    0    0  0.31711230032E+01 -0.85917927660E+00  0.11204167091E+02  0.11675939817E+02  0.51100000000E-03 0. -1.
        -11    1    3    3    0    0  0.77295892042E+01  0.83094094102E+00  0.19637568529E+02  0.21120395595E+02  0.51100000000E-03 0.  1.
         12    1    3    3    0    0 -0.83029559227E+01  0.10408269086E+00  0.12481113897E+02  0.14990934406E+02  0.00000000000E+00 0. -1.
</event>
<event>
 7    1  0.4519840E-010  0.4778724E+02  0.7816164E-02  0.1312668E+00
        -11   -1    0    0    0    0  0.00000000000E+00  0.00000000000E+00  0.45593999997E+02  0.45594000000E+02  0.51100000000E-03 0. -1.
         11   -1    0    0    0    0 -0.00000000000E+00 -0.00000000000E+00 -0.45593999997E+02  0.45594000000E+02  0.51100000000E-03 0.  1.
    9900012    2    1    2    0    0  0.26721073680E+02  0.22953131716E+02 -0.25352787416E+02  0.47787241205E+02  0.19999863951E+02 0.  0.
         12    1    1    2    0    0 -0.26721073680E+02 -0.22953131716E+02  0.25352787416E+02  0.43400758795E+02  0.00000000000E+00 0. -1.
         11    1    3    3    0    0  0.50712505201E+01  0.11803422978E+02 -0.11684807998E+02  0.17365860590E+02  0.51100000000E-03 0. -1.
        -11    1    3    3    0    0  0.22085351218E+02  0.11617764335E+02 -0.14877720078E+02  0.29053084888E+02  0.51100000000E-03 0.  1.
         12    1    3    3    0    0 -0.43552805777E+00 -0.46805559603E+00  0.12097406602E+01  0.13682957265E+01  0.00000000000E+00 0. -1.
</event>
<event>
 7    1  0.4519840E-010  0.4778728E+02  0.7816164E-02  0.1312668E+00
        -11   -1    0    0    0    0  0.00000000000E+00  0.00000000000E+00  0.45593999997E+02  0.45594000000E+02  0.51100000000E-03 0. -1.
         11   -1    0    0    0    0 -0.00000000000E+00 -0.00000000000E+00 -0.45593999997E+02  0.45594000000E+02  0.51100000000E-03 0.  1.
    9900012    2    1    2    0    0 -0.23414247917E+01 -0.68776769633E+01 -0.42788286999E+02  0.47787283245E+02  0.20000055629E+02 0.  0.
         12    1    1    2    0    0  0.23414247917E+01  0.68776769633E+01  0.42788286999E+02  0.43400716755E+02  0.00000000000E+00 0. -1.
         11    1    3    3    0    0 -0.42541434373E+01 -0.31334940895E+01 -0.92167698449E+01  0.10623811380E+02  0.51100000000E-03 0.  1.
        -11    1    3    3    0    0  0.73025212120E+00 -0.84885742085E+01 -0.10220021294E+02  0.13305562587E+02  0.51100000000E-03 0. -1.
         12    1    3    3    0    0  0.11824665244E+01  0.47443913347E+01 -0.23351495860E+02  0.23857909278E+02  0.00000000000E+00 0. -1.
</event>
<event>
 7    1  0.4519840E-010  0.4778727E+02  0.7816164E-02  0.1312668E+00
        -11   -1    0    0    0    0  0.00000000000E+00  0.00000000000E+00  0.45593999997E+02  0.45594000000E+02  0.51100000000E-03 0. -1.
         11   -1    0    0    0    0 -0.00000000000E+00 -0.00000000000E+00 -0.45593999997E+02  0.45594000000E+02  0.51100000000E-03 0.  1.
    9900012    2    1    2    0    0 -0.69347301974E+01  0.71674862381E+01 -0.42239321048E+02  0.47787267466E+02  0.19999983686E+02 0.  0.
         12    1    1    2    0    0  0.69347301974E+01 -0.71674862381E+01  0.42239321048E+02  0.43400732534E+02  0.00000000000E+00 0. -1.
         11    1    3    3    0    0 -0.89002516628E+01  0.25446484593E+01 -0.27346206632E+02  0.28870482034E+02  0.51100000000E-03 0.  1.
        -11    1    3    3    0    0 -0.27163468113E+01 -0.21217854498E+01 -0.41198240212E+01  0.53715420245E+01  0.51100000000E-03 0. -1.
         12    1    3    3    0    0  0.46818682766E+01  0.67446232286E+01 -0.10773290394E+02  0.13545243408E+02  0.00000000000E+00 0. -1.
</event>
<event>
 7    1  0.4519840E-010  0.4778727E+02  0.7816164E-02  0.1312668E+00
        -11   -1    0    0    0    0  0.00000000000E+00  0.00000000000E+00  0.45593999997E+02  0.45594000000E+02  0.51100000000E-03 0.  1.
         11   -1    0    0    0    0 -0.00000000000E+00 -0.00000000000E+00 -0.45593999997E+02  0.45594000000E+02  0.51100000000E-03 0. -1.
    9900012    2    1    2    0    0 -0.10807243378E+02 -0.40852571576E+02  0.98941370871E+01  0.47787273479E+02  0.20000011102E+02 0.  0.
        -12    1    1    2    0    0  0.10807243378E+02  0.40852571576E+02 -0.98941370871E+01  0.43400726521E+02  0.00000000000E+00 0.  1.
         11    1    3    3    0    0 -0.12079925052E+02 -0.27453788285E+02  0.91036206765E+01  0.31345031347E+02  0.51100000000E-03 0. -1.
        -11    1    3    3    0    0 -0.12334136812E+01 -0.12000819575E+02  0.34312030116E+01  0.12542493140E+02  0.51100000000E-03 0.  1.
        -12    1    3    3    0    0  0.25060953554E+01 -0.13979637162E+01 -0.26406866011E+01  0.38997489929E+01  0.00000000000E+00 0.  1.
</event>
<event>
 7    1  0.4519840E-010  0.4778727E+02  0.7816164E-02  0.1312668E+00
        -11   -1    0    0    0    0  0.00000000000E+00  0.00000000000E+00  0.45593999997E+02  0.45594000000E+02  0.51100000000E-03 0. -1.
         11   -1    0    0    0    0 -0.00000000000E+00 -0.00000000000E+00 -0.45593999997E+02  0.45594000000E+02  0.51100000000E-03 0.  1.
    9900012    2    1    2    0    0  0.85792784006E+01 -0.12817648330E+02 -0.40567564649E+02  0.47787269268E+02  0.19999991898E+02 0.  0.
         12    1    1    2    0    0 -0.85792784006E+01  0.12817648330E+02  0.40567564649E+02  0.43400730732E+02  0.00000000000E+00 0. -1.
         11    1    3    3    0    0  0.79832276696E+01 -0.22792434181E+01 -0.25813373511E+02  0.27115625142E+02  0.51100000000E-03 0. -1.
        -11    1    3    3    0    0 -0.54731581536E+00  0.18193551130E+01 -0.31643237165E+01  0.36908742153E+01  0.51100000000E-03 0.  1.
        -12    1    3    3    0    0  0.11433665464E+01 -0.12357760025E+02 -0.11589867422E+02  0.16980769910E+02  0.00000000000E+00 0.  1.
</event>
<event>
 7    1  0.4519840E-010  0.4778727E+02  0.7816164E-02  0.1312668E+00
        -11   -1    0    0    0    0  0.00000000000E+00  0.00000000000E+00  0.45593999997E+02  0.45594000000E+02  0.51100000000E-03 0. -1.
         11   -1    0    0    0    0 -0.00000000000E+00 -0.00000000000E+00 -0.45593999997E+02  0.45594000000E+02  0.51100000000E-03 0.  1.
    9900012    2    1    2    0    0  0.89322146303E+01 -0.18563582999E+02 -0.38199900184E+02  0.47787269061E+02  0.19999990957E+02 0.  0.
         12    1    1    2    0    0 -0.89322146303E+01  0.18563582999E+02  0.38199900184E+02  0.43400730939E+02  0.00000000000E+00 0. -1.
         11    1    3    3    0    0  0.32531626810E+01 -0.13100204240E-01 -0.56596962722E+01  0.65280472731E+01  0.51100000000E-03 0. -1.
        -11    1    3    3    0    0  0.78128148501E+01 -0.16329185290E+02 -0.15169949384E+02  0.23617995950E+02  0.51100000000E-03 0.  1.
        -12    1    3    3    0    0 -0.21337629008E+01 -0.22212975053E+01 -0.17370254528E+02  0.17641225838E+02  0.00000000000E+00 0.  1.
</event>
<event>
 7    1  0.4519840E-010  0.4778726E+02  0.7816164E-02  0.1312668E+00
        -11   -1    0    0    0    0  0.00000000000E+00  0.00000000000E+00  0.45593999997E+02  0.45594000000E+02  0.51100000000E-03 0. -1.
         11   -1    0    0    0    0 -0.00000000000E+00 -0.00000000000E+00 -0.45593999997E+02  0.45594000000E+02  0.51100000000E-03 0.  1.
    9900012    2    1    2    0    0 -0.57336880375E+01 -0.14397045411E+02 -0.40539780012E+02  0.47787264310E+02  0.19999969293E+02 0.  0.
         12    1    1    2    0    0  0.57336880375E+01  0.14397045411E+02  0.40539780012E+02  0.43400735690E+02  0.00000000000E+00 0. -1.
         11    1    3    3    0    0  0.58034588659E+01 -0.92651719389E+01 -0.18228946260E+02  0.21256011570E+02  0.51100000000E-03 0. -1.
        -11    1    3    3    0    0 -0.29570824087E+01 -0.23615683223E+01 -0.13125886735E+02  0.13660536013E+02  0.51100000000E-03 0.  1.
        -12    1    3    3    0    0 -0.85800644948E+01 -0.27703051495E+01 -0.91849470168E+01  0.12870716727E+02  0.00000000000E+00 0.  1.
</event>
<event>
 7    1  0.4519840E-010  0.4778727E+02  0.7816164E-02  0.1312668E+00
        -11   -1    0    0    0    0  0.00000000000E+00  0.00000000000E+00  0.45593999997E+02  0.45594000000E+02  0.51100000000E-03 0. -1.
         11   -1    0    0    0    0 -0.00000000000E+00 -0.00000000000E+00 -0.45593999997E+02  0.45594000000E+02  0.51100000000E-03 0.  1.
    9900012    2    1    2    0    0  0.70589833030E+01  0.18303869053E+02  0.38713851574E+02  0.47787272227E+02  0.20000005391E+02 0.  0.
        -12    1    1    2    0    0 -0.70589833030E+01 -0.18303869053E+02 -0.38713851574E+02  0.43400727773E+02  0.00000000000E+00 0.  1.
         11    1    3    3    0    0  0.32125059277E+01 -0.83625688651E+00  0.19721551094E+01  0.38612065410E+01  0.51100000000E-03 0. -1.
        -11    1    3    3    0    0  0.79046019429E+01  0.14613798946E+02  0.19359521366E+02  0.25511505626E+02  0.51100000000E-03 0.  1.
        -12    1    3    3    0    0 -0.40581245676E+01  0.45263269930E+01  0.17382175099E+02  0.18414560060E+02  0.00000000000E+00 0.  1.
</event>
<event>
 7    1  0.5059634E-010  0.4778727E+02  0.7816164E-02  0.1312668E+00
        -11   -1    0    0    0    0  0.00000000000E+00  0.00000000000E+00  0.45593999997E+02  0.45594000000E+02  0.51100000000E-03 0. -1.
         11   -1    0    0    0    0 -0.00000000000E+00 -0.00000000000E+00 -0.45593999997E+02  0.45594000000E+02  0.51100000000E-03 0.  1.
    9900012    2    1    2    0    0  0.25130436480E+02 -0.89393593120E+00 -0.35373507140E+02  0.47787274586E+02  0.20000016146E+02 0.  0.
         12    1    1    2    0    0 -0.25130436480E+02  0.89393593120E+00  0.35373507140E+02  0.43400725414E+02  0.00000000000E+00 0. -1.
         11    1    3    3    0    0  0.39138135016E+01  0.19479721463E+01  0.76324825480E+00  0.44379138982E+01  0.51100000000E-03 0. -1.
        -11    1    3    3    0    0  0.12294362728E+02 -0.18152918196E+00 -0.10833185342E+02  0.16387257631E+02  0.51100000000E-03 0.  1.
        -12    1    3    3    0    0  0.89222602504E+01 -0.26603788955E+01 -0.25303570053E+02  0.26962103057E+02  0.00000000000E+00 0.  1.
</event>
<event>
 7    1  0.4519840E-010  0.4778727E+02  0.7816164E-02  0.1312668E+00
        -11   -1    0    0    0    0  0.00000000000E+00  0.00000000000E+00  0.45593999997E+02  0.45594000000E+02  0.51100000000E-03 0. -1.
         11   -1    0    0    0    0 -0.00000000000E+00 -0.00000000000E+00 -0.45593999997E+02  0.45594000000E+02  0.51100000000E-03 0.  1.
    9900012    2    1    2    0    0 -0.12223199735E+02 -0.11014494558E+01  0.41629361385E+02  0.47787268071E+02  0.19999986443E+02 0.  0.
        -12    1    1    2    0    0  0.12223199735E+02  0.11014494558E+01 -0.41629361385E+02  0.43400731929E+02  0.00000000000E+00 0.  1.
         11    1    3    3    0    0 -0.21064875331E+01 -0.17764713546E+01  0.69995692737E+01  0.75224404603E+01  0.51100000000E-03 0.  1.
        -11    1    3    3    0    0 -0.12204082749E+02  0.66031625739E+01  0.27187581236E+02  0.30523858954E+02  0.51100000000E-03 0. -1.
         12    1    3    3    0    0  0.20873705470E+01 -0.59281406751E+01  0.74422108753E+01  0.97409686570E+01  0.00000000000E+00 0. -1.
</event>
<event>
 7    1  0.4519840E-010  0.4778727E+02  0.7816164E-02  0.1312668E+00
        -11   -1    0    0    0    0  0.00000000000E+00  0.00000000000E+00  0.45593999997E+02  0.45594000000E+02  0.51100000000E-03 0. -1.
         11   -1    0    0    0    0 -0.00000000000E+00 -0.00000000000E+00 -0.45593999997E+02  0.45594000000E+02  0.51100000000E-03 0.  1.
    9900012    2    1    2    0    0 -0.47533570847E+01 -0.26759317054E+02  0.33837374720E+02  0.47787269813E+02  0.19999994387E+02 0.  0.
        -12    1    1    2    0    0  0.47533570847E+01  0.26759317054E+02 -0.33837374720E+02  0.43400730187E+02  0.00000000000E+00 0.  1.
         11    1    3    3    0    0 -0.32100737540E+01 -0.73491255838E+01  0.56607923038E+00  0.80395687888E+01  0.51100000000E-03 0. -1.
        -11    1    3    3    0    0  0.82562218851E+00  0.17918908304E+00  0.61506187189E+01  0.62083710917E+01  0.51100000000E-03 0.  1.
        -12    1    3    3    0    0 -0.23689055192E+01 -0.19589380554E+02  0.27120676771E+02  0.33539329933E+02  0.00000000000E+00 0.  1.
</event>
<event>
 7    1  0.4519840E-010  0.4778727E+02  0.7816164E-02  0.1312668E+00
        -11   -1    0    0    0    0  0.00000000000E+00  0.00000000000E+00  0.45593999997E+02  0.45594000000E+02  0.51100000000E-03 0.  1.
         11   -1    0    0    0    0 -0.00000000000E+00 -0.00000000000E+00 -0.45593999997E+02  0.45594000000E+02  0.51100000000E-03 0. -1.
    9900012    2    1    2    0    0 -0.42826926446E+02 -0.24939228900E+01 -0.65770689915E+01  0.47787272855E+02  0.20000008254E+02 0.  0.
        -12    1    1    2    0    0  0.42826926446E+02  0.24939228900E+01  0.65770689915E+01  0.43400727145E+02  0.00000000000E+00 0.  1.
         11    1    3    3    0    0 -0.17704778525E+02 -0.95788395102E+01 -0.63933048471E+01  0.21120788246E+02  0.51100000000E-03 0. -1.
        -11    1    3    3    0    0 -0.57526818380E+01  0.50125401136E+00 -0.20410197810E+01  0.61245706724E+01  0.51100000000E-03 0.  1.
         12    1    3    3    0    0 -0.19369466083E+02  0.65836626088E+01  0.18572556367E+01  0.20541913937E+02  0.00000000000E+00 0. -1.
</event>
<event>
 7    1  0.4519840E-010  0.4778727E+02  0.7816164E-02  0.1312668E+00
        -11   -1    0    0    0    0  0.00000000000E+00  0.00000000000E+00  0.45593999997E+02  0.45594000000E+02  0.51100000000E-03 0. -1.
         11   -1    0    0    0    0 -0.00000000000E+00 -0.00000000000E+00 -0.45593999997E+02  0.45594000000E+02  0.51100000000E-03 0.  1.
    9900012    2    1    2    0    0  0.32727061439E+02 -0.36399361643E+01 -0.28272134723E+02  0.47787270888E+02  0.19999999286E+02 0.  0.
         12    1    1    2    0    0 -0.32727061439E+02  0.36399361643E+01  0.28272134723E+02  0.43400729112E+02  0.00000000000E+00 0. -1.
         11    1    3    3    0    0  0.10746803335E+02 -0.86769864217E+01 -0.10989887996E+02  0.17651105170E+02  0.51100000000E-03 0. -1.
        -11    1    3    3    0    0  0.67599230673E+01 -0.27308026014E+01 -0.30712135272E+01  0.79111437551E+01  0.51100000000E-03 0.  1.
        -12    1    3    3    0    0  0.15220335036E+02  0.77678528588E+01 -0.14211033199E+02  0.22225021963E+02  0.00000000000E+00 0.  1.
</event>
<event>
 7    1  0.4519840E-010  0.4778728E+02  0.7816164E-02  0.1312668E+00
        -11   -1    0    0    0    0  0.00000000000E+00  0.00000000000E+00  0.45593999997E+02  0.45594000000E+02  0.51100000000E-03 0. -1.
         11   -1    0    0    0    0 -0.00000000000E+00 -0.00000000000E+00 -0.45593999997E+02  0.45594000000E+02  0.51100000000E-03 0.  1.
    9900012    2    1    2    0    0 -0.18808971956E+02 -0.17393794037E+01  0.39074540694E+02  0.47787278840E+02  0.20000035544E+02 0.  0.
        -12    1    1    2    0    0  0.18808971956E+02  0.17393794037E+01 -0.39074540694E+02  0.43400721160E+02  0.00000000000E+00 0.  1.
         11    1    3    3    0    0  0.14928345263E+01  0.50888766059E+00  0.17350744020E+01  0.23447825092E+01  0.51100000000E-03 0. -1.
        -11    1    3    3    0    0 -0.90345181889E+01  0.47918909969E+01  0.26128457832E+02  0.28058528956E+02  0.51100000000E-03 0.  1.
         12    1    3    3    0    0 -0.11267288293E+02 -0.70401580612E+01  0.11211008460E+02  0.17383967375E+02  0.00000000000E+00 0. -1.
</event>
<event>
 7    1  0.4519840E-010  0.4778727E+02  0.7816164E-02  0.1312668E+00
        -11   -1    0    0    0    0  0.00000000000E+00  0.00000000000E+00  0.45593999997E+02  0.45594000000E+02  0.51100000000E-03 0. -1.
         11   -1    0    0    0    0 -0.00000000000E+00 -0.00000000000E+00 -0.45593999997E+02  0.45594000000E+02  0.51100000000E-03 0.  1.
    9900012    2    1    2    0    0 -0.18241044434E+01 -0.17878692636E+02 -0.39505046138E+02  0.47787266392E+02  0.19999978787E+02 0.  0.
         12    1    1    2    0    0  0.18241044434E+01  0.17878692636E+02  0.39505046138E+02  0.43400733608E+02  0.00000000000E+00 0. -1.
         11    1    3    3    0    0  0.56649988701E+00 -0.14411049776E+02 -0.17944132792E+02  0.23021537301E+02  0.51100000000E-03 0. -1.
        -11    1    3    3    0    0  0.43322116438E+01 -0.50009236614E+00 -0.49205244798E+01  0.65749305334E+01  0.51100000000E-03 0.  1.
         12    1    3    3    0    0 -0.67228159742E+01 -0.29675504934E+01 -0.16640388866E+02  0.18190798557E+02  0.00000000000E+00 0. -1.
</event>
<event>
 7    1  0.4519840E-010  0.4778727E+02  0.7816164E-02  0.1312668E+00
        -11   -1    0    0    0    0  0.00000000000E+00  0.00000000000E+00  0.45593999997E+02  0.45594000000E+02  0.51100000000E-03 0. -1.
         11   -1    0    0    0    0 -0.00000000000E+00 -0.00000000000E+00 -0.45593999997E+02  0.45594000000E+02  0.51100000000E-03 0.  1.
    9900012    2    1    2    0    0 -0.13012931658E+02 -0.41287184166E+02  0.31073035527E+01  0.47787270719E+02  0.19999998518E+02 0.  0.
        -12    1    1    2    0    0  0.13012931658E+02  0.41287184166E+02 -0.31073035527E+01  0.43400729281E+02  0.00000000000E+00 0.  1.
         11    1    3    3    0    0 -0.61280387105E+01 -0.16619475169E+02  0.69302053561E+01  0.19020713968E+02  0.51100000000E-03 0. -1.
        -11    1    3    3    0    0 -0.57553193688E+01 -0.22789208630E+02  0.93996462635E+00  0.23523504517E+02  0.51100000000E-03 0.  1.
        -12    1    3    3    0    0 -0.11295735784E+01 -0.18785003677E+01 -0.47628664297E+01  0.52430522339E+01  0.00000000000E+00 0.  1.
</event>
<event>
 7    1  0.4519840E-010  0.4778727E+02  0.7816164E-02  0.1312668E+00
        -11   -1    0    0    0    0  0.00000000000E+00  0.00000000000E+00  0.45593999997E+02  0.45594000000E+02  0.51100000000E-03 0. -1.
         11   -1    0    0    0    0 -0.00000000000E+00 -0.00000000000E+00 -0.45593999997E+02  0.45594000000E+02  0.51100000000E-03 0.  1.
    9900012    2    1    2    0    0  0.36455800478E+02  0.21423570302E+02  0.97789857337E+01  0.47787270571E+02  0.19999997842E+02 0.  0.
        -12    1    1    2    0    0 -0.36455800478E+02 -0.21423570302E+02 -0.97789857337E+01  0.43400729429E+02  0.00000000000E+00 0.  1.
         11    1    3    3    0    0  0.17054619885E+02  0.95214855648E+01  0.39362601424E+01  0.19925182332E+02  0.51100000000E-03 0. -1.
        -11    1    3    3    0    0  0.20703466971E+02  0.69810272940E+01  0.30638731609E+01  0.22062538515E+02  0.51100000000E-03 0.  1.
        -12    1    3    3    0    0 -0.13022863788E+01  0.49210574433E+01  0.27788524305E+01  0.57995497242E+01  0.00000000000E+00 0.  1.
</event>
<event>
 7    1  0.4519840E-010  0.4778727E+02  0.7816164E-02  0.1312668E+00
        -11   -1    0    0    0    0  0.00000000000E+00  0.00000000000E+00  0.45593999997E+02  0.45594000000E+02  0.51100000000E-03 0. -1.
         11   -1    0    0    0    0 -0.00000000000E+00 -0.00000000000E+00 -0.45593999997E+02  0.45594000000E+02  0.51100000000E-03 0.  1.
    9900012    2    1    2    0    0 -0.36224017801E+02 -0.20703655582E+02 -0.11949994721E+02  0.47787271966E+02  0.20000004201E+02 0.  0.
         12    1    1    2    0    0  0.36224017801E+02  0.20703655582E+02  0.11949994721E+02  0.43400728034E+02  0.00000000000E+00 0. -1.
         11    1    3    3    0    0 -0.56368483911E+01 -0.12540804764E+02 -0.34857195514E+01  0.14184360577E+02  0.51100000000E-03 0. -1.
        -11    1    3    3    0    0 -0.31039293968E+01 -0.27678577725E+01  0.51601911462E+00  0.41906670516E+01  0.51100000000E-03 0.  1.
        -12    1    3    3    0    0 -0.27483240013E+02 -0.53949930453E+01 -0.89802942841E+01  0.29412244338E+02  0.00000000000E+00 0.  1.
</event>
<event>
 7    1  0.4519840E-010  0.4778727E+02  0.7816164E-02  0.1312668E+00
        -11   -1    0    0    0    0  0.00000000000E+00  0.00000000000E+00  0.45593999997E+02  0.45594000000E+02  0.51100000000E-03 0. -1.
         11   -1    0    0    0    0 -0.00000000000E+00 -0.00000000000E+00 -0.45593999997E+02  0.45594000000E+02  0.51100000000E-03 0.  1.
    9900012    2    1    2    0    0  0.22779470376E+01 -0.12108218355E+02  0.41615206035E+02  0.47787269962E+02  0.19999995066E+02 0.  0.
        -12    1    1    2    0    0 -0.22779470376E+01  0.12108218355E+02 -0.41615206035E+02  0.43400730038E+02  0.00000000000E+00 0.  1.
         11    1    3    3    0    0 -0.23324867548E+01  0.38195962018E+00  0.70564809413E+00  0.24666428818E+01  0.51100000000E-03 0.  1.
        -11    1    3    3    0    0  0.24475399454E+01  0.18068866787E+01  0.17814489340E+02  0.18072391152E+02  0.51100000000E-03 0. -1.
        -12    1    3    3    0    0  0.21628938470E+01 -0.14297064654E+02  0.23095068602E+02  0.27248235929E+02  0.00000000000E+00 0.  1.
</event>
<event>
 7    1  0.4519840E-010  0.4778731E+02  0.7816164E-02  0.1312668E+00
        -11   -1    0    0    0    0  0.00000000000E+00  0.00000000000E+00  0.45593999997E+02  0.45594000000E+02  0.51100000000E-03 0. -1.
         11   -1    0    0    0    0 -0.00000000000E+00 -0.00000000000E+00 -0.45593999997E+02  0.45594000000E+02  0.51100000000E-03 0.  1.
    9900012    2    1    2    0    0  0.18725048363E+02  0.24493510584E+00 -0.39152679096E+02  0.47787312104E+02  0.20000187208E+02 0.  0.
         12    1    1    2    0    0 -0.18725048363E+02 -0.24493510584E+00  0.39152679096E+02  0.43400687896E+02  0.00000000000E+00 0. -1.
         11    1    3    3    0    0  0.11289300968E+02  0.56174751786E+01 -0.18009375182E+02  0.21985038968E+02  0.51100000000E-03 0. -1.
        -11    1    3    3    0    0  0.40145303672E+01  0.26685527144E+01 -0.12970732875E+02  0.13837540939E+02  0.51100000000E-03 0.  1.
         12    1    3    3    0    0  0.34212170277E+01 -0.80410927871E+01 -0.81725710389E+01  0.11964732197E+02  0.00000000000E+00 0. -1.
</event>
<event>
 7    1  0.4519840E-010  0.4778727E+02  0.7816164E-02  0.1312668E+00
        -11   -1    0    0    0    0  0.00000000000E+00  0.00000000000E+00  0.45593999997E+02  0.45594000000E+02  0.51100000000E-03 0. -1.
         11   -1    0    0    0    0 -0.00000000000E+00 -0.00000000000E+00 -0.45593999997E+02  0.45594000000E+02  0.51100000000E-03 0.  1.
    9900012    2    1    2    0    0 -0.27611848082E+02  0.11725324076E+02 -0.31364403557E+02  0.47787272015E+02  0.20000004423E+02 0.  0.
         12    1    1    2    0    0  0.27611848082E+02 -0.11725324076E+02  0.31364403557E+02  0.43400727985E+02  0.00000000000E+00 0. -1.
         11    1    3    3    0    0  0.21528279139E+00 -0.27259627516E+01  0.71419764294E+00  0.28261808395E+01  0.51100000000E-03 0. -1.
        -11    1    3    3    0    0 -0.83141043214E+01  0.28216213913E+01 -0.93924693357E+01  0.12857074256E+02  0.51100000000E-03 0.  1.
         12    1    3    3    0    0 -0.19513026552E+02  0.11629665436E+02 -0.22686131864E+02  0.32104016919E+02  0.00000000000E+00 0. -1.
</event>
<event>
 7    1  0.4519840E-010  0.4778727E+02  0.7816164E-02  0.1312668E+00
        -11   -1    0    0    0    0  0.00000000000E+00  0.00000000000E+00  0.45593999997E+02  0.45594000000E+02  0.51100000000E-03 0.  1.
         11   -1    0    0    0    0 -0.00000000000E+00 -0.00000000000E+00 -0.45593999997E+02  0.45594000000E+02  0.51100000000E-03 0. -1.
    9900012    2    1    2    0    0  0.43026770838E+02 -0.56850998748E+01 -0.13904447171E-02  0.47787269923E+02  0.19999994886E+02 0.  0.
         12    1    1    2    0    0 -0.43026770838E+02  0.56850998748E+01  0.13904447171E-02  0.43400730077E+02  0.00000000000E+00 0. -1.
         11    1    3    3    0    0  0.27452848022E+02 -0.43201486155E+01  0.20921499720E+01  0.27869331537E+02  0.51100000000E-03 0. -1.
        -11    1    3    3    0    0  0.49227282602E+01 -0.64028387629E+00  0.50430762357E+01  0.70764281347E+01  0.51100000000E-03 0.  1.
         12    1    3    3    0    0  0.10651194556E+02 -0.72466738305E+00 -0.71366166524E+01  0.12841510251E+02  0.00000000000E+00 0. -1.
</event>
<event>
 7    1  0.4519840E-010  0.4778727E+02  0.7816164E-02  0.1312668E+00
        -11   -1    0    0    0    0  0.00000000000E+00  0.00000000000E+00  0.45593999997E+02  0.45594000000E+02  0.51100000000E-03 0. -1.
         11   -1    0    0    0    0 -0.00000000000E+00 -0.00000000000E+00 -0.45593999997E+02  0.45594000000E+02  0.51100000000E-03 0.  1.
    9900012    2    1    2    0    0 -0.30888898683E+02 -0.49339447969E+01 -0.30085798883E+02  0.47787272270E+02  0.20000005586E+02 0.  0.
         12    1    1    2    0    0  0.30888898683E+02  0.49339447969E+01  0.30085798883E+02  0.43400727730E+02  0.00000000000E+00 0. -1.
         11    1    3    3    0    0 -0.37741917042E+01  0.69270497372E+00 -0.21612994039E+01  0.44040411641E+01  0.51100000000E-03 0. -1.
        -11    1    3    3    0    0 -0.15289302099E+02 -0.70378308117E+01 -0.50140515111E+01  0.17562304349E+02  0.51100000000E-03 0.  1.
         12    1    3    3    0    0 -0.11825404879E+02  0.14111810411E+01 -0.22910447968E+02  0.25820926757E+02  0.00000000000E+00 0. -1.
</event>
<event>
 7    1  0.4519840E-010  0.4778727E+02  0.7816164E-02  0.1312668E+00
        -11   -1    0    0    0    0  0.00000000000E+00  0.00000000000E+00  0.45593999997E+02  0.45594000000E+02  0.51100000000E-03 0. -1.
         11   -1    0    0    0    0 -0.00000000000E+00 -0.00000000000E+00 -0.45593999997E+02  0.45594000000E+02  0.51100000000E-03 0.  1.
    9900012    2    1    2    0    0 -0.65357487376E+01  0.30526267533E+02  0.30150529935E+02  0.47787268711E+02  0.19999989361E+02 0.  0.
        -12    1    1    2    0    0  0.65357487376E+01 -0.30526267533E+02 -0.30150529935E+02  0.43400731289E+02  0.00000000000E+00 0.  1.
         11    1    3    3    0    0  0.31168211966E+00  0.45548756998E+01  0.97054181974E+01  0.10725631964E+02  0.51100000000E-03 0. -1.
        -11    1    3    3    0    0 -0.83238689593E+01  0.17289608019E+02  0.20733373042E+02  0.28250488454E+02  0.51100000000E-03 0.  1.
        -12    1    3    3    0    0  0.14764381021E+01  0.86817838139E+01 -0.28826130483E+00  0.88111482930E+01  0.00000000000E+00 0.  1.
</event>
<event>
 7    1  0.4519840E-010  0.4778727E+02  0.7816164E-02  0.1312668E+00
        -11   -1    0    0    0    0  0.00000000000E+00  0.00000000000E+00  0.45593999997E+02  0.45594000000E+02  0.51100000000E-03 0. -1.
         11   -1    0    0    0    0 -0.00000000000E+00 -0.00000000000E+00 -0.45593999997E+02  0.45594000000E+02  0.51100000000E-03 0.  1.
    9900012    2    1    2    0    0  0.28767083092E+02  0.28865343328E+02 -0.14928846671E+02  0.47787267541E+02  0.19999984027E+02 0.  0.
         12    1    1    2    0    0 -0.28767083092E+02 -0.28865343328E+02  0.14928846671E+02  0.43400732459E+02  0.00000000000E+00 0. -1.
         11    1    3    3    0    0  0.12054258360E+01  0.47906679941E+01 -0.15874728916E+00  0.49425451176E+01  0.51100000000E-03 0. -1.
        -11    1    3    3    0    0  0.16495048986E+02  0.51522923689E+01 -0.18008190253E+01  0.17374570704E+02  0.51100000000E-03 0.  1.
         12    1    3    3    0    0  0.11066608270E+02  0.18922382965E+02 -0.12969280356E+02  0.25470151720E+02  0.00000000000E+00 0. -1.
</event>
<event>
 7    1  0.4519840E-010  0.4778730E+02  0.7816164E-02  0.1312668E+00
        -11   -1    0    0    0    0  0.00000000000E+00  0.00000000000E+00  0.45593999997E+02  0.45594000000E+02  0.51100000000E-03 0. -1.
         11   -1    0    0    0    0 -0.00000000000E+00 -0.00000000000E+00 -0.45593999997E+02  0.45594000000E+02  0.51100000000E-03 0.  1.
    9900012    2    1    2    0    0 -0.15045929238E+02  0.16761288276E+02  0.37098519806E+02  0.47787297897E+02  0.20000122429E+02 0.  0.
        -12    1    1    2    0    0  0.15045929238E+02 -0.16761288276E+02 -0.37098519806E+02  0.43400702103E+02  0.00000000000E+00 0.  1.
         11    1    3    3    0    0 -0.91362207214E+00 -0.53265267548E+00  0.12598791179E+01  0.16449072364E+01  0.51100000000E-03 0.  1.
        -11    1    3    3    0    0 -0.74249133375E+01  0.20368073080E+02  0.27156779856E+02  0.34748790359E+02  0.51100000000E-03 0. -1.
         12    1    3    3    0    0 -0.67073938282E+01 -0.30741321282E+01  0.86818608321E+01  0.11393600301E+02  0.00000000000E+00 0. -1.
</event>
<event>
 7    1  0.4519840E-010  0.4778727E+02  0.7816164E-02  0.1312668E+00
        -11   -1    0    0    0    0  0.00000000000E+00  0.00000000000E+00  0.45593999997E+02  0.45594000000E+02  0.51100000000E-03 0. -1.
         11   -1    0    0    0    0 -0.00000000000E+00 -0.00000000000E+00 -0.45593999997E+02  0.45594000000E+02  0.51100000000E-03 0.  1.
    9900012    2    1    2    0    0  0.38230841979E+01 -0.10135721651E+02 -0.42027068896E+02  0.47787270212E+02  0.19999996204E+02 0.  0.
         12    1    1    2    0    0 -0.38230841979E+01  0.10135721651E+02  0.42027068896E+02  0.43400729788E+02  0.00000000000E+00 0. -1.
         11    1    3    3    0    0  0.36184075819E+01 -0.52293576609E+01 -0.11275052574E+02  0.12944723472E+02  0.51100000000E-03 0. -1.
        -11    1    3    3    0    0  0.10466662057E+01 -0.76867035030E+01 -0.57097656638E+01  0.96323592690E+01  0.51100000000E-03 0.  1.
        -12    1    3    3    0    0 -0.84198958965E+00  0.27803395124E+01 -0.25042250658E+02  0.25210187471E+02  0.00000000000E+00 0.  1.
</event>
<event>
 7    1  0.4519840E-010  0.4778723E+02  0.7816164E-02  0.1312668E+00
        -11   -1    0    0    0    0  0.00000000000E+00  0.00000000000E+00  0.45593999997E+02  0.45594000000E+02  0.51100000000E-03 0. -1.
         11   -1    0    0    0    0 -0.00000000000E+00 -0.00000000000E+00 -0.45593999997E+02  0.45594000000E+02  0.51100000000E-03 0.  1.
    9900012    2    1    2    0    0  0.17690126454E+02 -0.30548106732E+02 -0.25248744315E+02  0.47787234012E+02  0.19999831152E+02 0.  0.
         12    1    1    2    0    0 -0.17690126454E+02  0.30548106732E+02  0.25248744315E+02  0.43400765988E+02  0.00000000000E+00 0. -1.
         11    1    3    3    0    0  0.17439163930E+01 -0.14504744844E+02 -0.82879092071E+01  0.16796377784E+02  0.51100000000E-03 0. -1.
        -11    1    3    3    0    0  0.11170756930E+02 -0.15525949140E+02 -0.17784195137E+02  0.26117398492E+02  0.51100000000E-03 0.  1.
         12    1    3    3    0    0  0.47754531311E+01 -0.51741274856E+00  0.82336002880E+00  0.48734577352E+01  0.00000000000E+00 0. -1.
</event>
<event>
 7    1  0.4519840E-010  0.4778727E+02  0.7816164E-02  0.1312668E+00
        -11   -1    0    0    0    0  0.00000000000E+00  0.00000000000E+00  0.45593999997E+02  0.45594000000E+02  0.51100000000E-03 0. -1.
         11   -1    0    0    0    0 -0.00000000000E+00 -0.00000000000E+00 -0.45593999997E+02  0.45594000000E+02  0.51100000000E-03 0.  1.
    9900012    2    1    2    0    0 -0.14499771808E+02  0.29386251590E+02  0.28457479282E+02  0.47787270835E+02  0.19999999045E+02 0.  0.
        -12    1    1    2    0    0  0.14499771808E+02 -0.29386251590E+02 -0.28457479282E+02  0.43400729165E+02  0.00000000000E+00 0.  1.
         11    1    3    3    0    0 -0.14271678717E+01  0.96256689617E+01  0.81916367800E+01  0.12719796559E+02  0.51100000000E-03 0. -1.
        -11    1    3    3    0    0  0.19741328683E+01  0.10892556487E+02  0.91757602460E+01  0.14378440936E+02  0.51100000000E-03 0.  1.
         12    1    3    3    0    0 -0.15046736805E+02  0.88680261413E+01  0.11090082256E+02  0.20689033340E+02  0.00000000000E+00 0. -1.
</event>
<event>
 7    1  0.4519840E-010  0.4778730E+02  0.7816164E-02  0.1312668E+00
        -11   -1    0    0    0    0  0.00000000000E+00  0.00000000000E+00  0.45593999997E+02  0.45594000000E+02  0.51100000000E-03 0. -1.
         11   -1    0    0    0    0 -0.00000000000E+00 -0.00000000000E+00 -0.45593999997E+02  0.45594000000E+02  0.51100000000E-03 0.  1.
    9900012    2    1    2    0    0  0.96104834174E+01  0.40705584340E+02 -0.11589430916E+02  0.47787298428E+02  0.20000124851E+02 0.  0.
         12    1    1    2    0    0 -0.96104834174E+01 -0.40705584340E+02  0.11589430916E+02  0.43400701572E+02  0.00000000000E+00 0. -1.
         11    1    3    3    0    0  0.67072941868E+01  0.89403979201E+01  0.34383087146E+00  0.11181982392E+02  0.51100000000E-03 0.  1.
        -11    1    3    3    0    0 -0.22769737230E+01  0.11233305422E+02  0.14533056283E+01  0.11553521435E+02  0.51100000000E-03 0. -1.
        -12    1    3    3    0    0  0.51801629536E+01  0.20531880998E+02 -0.13386567416E+02  0.25051794601E+02  0.00000000000E+00 0.  1.
</event>
<event>
 7    1  0.4519840E-010  0.4778728E+02  0.7816164E-02  0.1312668E+00
        -11   -1    0    0    0    0  0.00000000000E+00  0.00000000000E+00  0.45593999997E+02  0.45594000000E+02  0.51100000000E-03 0. -1.
         11   -1    0    0    0    0 -0.00000000000E+00 -0.00000000000E+00 -0.45593999997E+02  0.45594000000E+02  0.51100000000E-03 0.  1.
    9900012    2    1    2    0    0 -0.15445005341E+02  0.77054037754E+01  0.39820865390E+02  0.47787276991E+02  0.20000027113E+02 0.  0.
        -12    1    1    2    0    0  0.15445005341E+02 -0.77054037754E+01 -0.39820865390E+02  0.43400723009E+02  0.00000000000E+00 0.  1.
         11    1    3    3    0    0 -0.56903349388E+01  0.16296065756E+01  0.10567913167E+02  0.12112651166E+02  0.51100000000E-03 0. -1.
        -11    1    3    3    0    0 -0.86519339404E+01  0.87130799602E+01  0.90079702913E+01  0.15228829644E+02  0.51100000000E-03 0.  1.
         12    1    3    3    0    0 -0.11027364613E+01 -0.26372827604E+01  0.20244981932E+02  0.20445796181E+02  0.00000000000E+00 0. -1.
</event>
<event>
 7    1  0.4519840E-010  0.4778727E+02  0.7816164E-02  0.1312668E+00
        -11   -1    0    0    0    0  0.00000000000E+00  0.00000000000E+00  0.45593999997E+02  0.45594000000E+02  0.51100000000E-03 0.  1.
         11   -1    0    0    0    0 -0.00000000000E+00 -0.00000000000E+00 -0.45593999997E+02  0.45594000000E+02  0.51100000000E-03 0. -1.
    9900012    2    1    2    0    0  0.13697854657E+02  0.40871219723E+02  0.50532839523E+01  0.47787268410E+02  0.19999987989E+02 0.  0.
         12    1    1    2    0    0 -0.13697854657E+02 -0.40871219723E+02 -0.50532839523E+01  0.43400731590E+02  0.00000000000E+00 0. -1.
         11    1    3    3    0    0  0.73575259719E+01  0.26351620184E+02  0.51501354309E+01  0.27839988684E+02  0.51100000000E-03 0. -1.
        -11    1    3    3    0    0  0.17556481129E+01  0.66947564364E+01  0.58835182290E+01  0.90839336772E+01  0.51100000000E-03 0.  1.
         12    1    3    3    0    0  0.45846805721E+01  0.78248431028E+01 -0.59803697076E+01  0.10863346049E+02  0.00000000000E+00 0. -1.
</event>
<event>
 7    1  0.4519840E-010  0.4778731E+02  0.7816164E-02  0.1312668E+00
        -11   -1    0    0    0    0  0.00000000000E+00  0.00000000000E+00  0.45593999997E+02  0.45594000000E+02  0.51100000000E-03 0.  1.
         11   -1    0    0    0    0 -0.00000000000E+00 -0.00000000000E+00 -0.45593999997E+02  0.45594000000E+02  0.51100000000E-03 0. -1.
    9900012    2    1    2    0    0  0.38517323832E+02 -0.43781635191E+01 -0.19515832641E+02  0.47787305597E+02  0.20000157541E+02 0.  0.
        -12    1    1    2    0    0 -0.38517323832E+02  0.43781635191E+01  0.19515832641E+02  0.43400694403E+02  0.00000000000E+00 0.  1.
         11    1    3    3    0    0  0.72014950577E+01  0.10147149224E+01  0.20619370503E+01  0.75592831737E+01  0.51100000000E-03 0. -1.
        -11    1    3    3    0    0  0.51129358789E+00 -0.28555009492E+01 -0.88866030427E+00  0.30339782797E+01  0.51100000000E-03 0.  1.
         12    1    3    3    0    0  0.30804535186E+02 -0.25373774923E+01 -0.20689109387E+02  0.37194044144E+02  0.00000000000E+00 0. -1.
</event>
<event>
 7    1  0.4519840E-010  0.4778727E+02  0.7816164E-02  0.1312668E+00
        -11   -1    0    0    0    0  0.00000000000E+00  0.00000000000E+00  0.45593999997E+02  0.45594000000E+02  0.51100000000E-03 0. -1.
         11   -1    0    0    0    0 -0.00000000000E+00 -0.00000000000E+00 -0.45593999997E+02  0.45594000000E+02  0.51100000000E-03 0.  1.
    9900012    2    1    2    0    0 -0.38689357158E+01  0.14840757009E+02  0.40600574359E+02  0.47787269932E+02  0.19999994926E+02 0.  0.
        -12    1    1    2    0    0  0.38689357158E+01 -0.14840757009E+02 -0.40600574359E+02  0.43400730068E+02  0.00000000000E+00 0.  1.
         11    1    3    3    0    0 -0.38519085875E+01  0.56921115809E+01  0.45701995242E+01  0.82537299428E+01  0.51100000000E-03 0. -1.
        -11    1    3    3    0    0  0.52911053523E+00 -0.25790350200E+01  0.14309933233E+01  0.29965182705E+01  0.51100000000E-03 0.  1.
         12    1    3    3    0    0 -0.54613766347E+00  0.11727680448E+02  0.34599381512E+02  0.36537021718E+02  0.00000000000E+00 0. -1.
</event>
<event>
 7    1  0.4519840E-010  0.4778727E+02  0.7816164E-02  0.1312668E+00
        -11   -1    0    0    0    0  0.00000000000E+00  0.00000000000E+00  0.45593999997E+02  0.45594000000E+02  0.51100000000E-03 0. -1.
         11   -1    0    0    0    0 -0.00000000000E+00 -0.00000000000E+00 -0.45593999997E+02  0.45594000000E+02  0.51100000000E-03 0.  1.
    9900012    2    1    2    0    0  0.20129624957E+01 -0.41094256448E+01 -0.43158822035E+02  0.47787270553E+02  0.19999997758E+02 0.  0.
         12    1    1    2    0    0 -0.20129624957E+01  0.41094256448E+01  0.43158822035E+02  0.43400729447E+02  0.00000000000E+00 0. -1.
         11    1    3    3    0    0 -0.83838491007E+00  0.50552191135E+01 -0.14011692086E+02  0.14919304438E+02  0.51100000000E-03 0. -1.
        -11    1    3    3    0    0  0.75867292772E+00 -0.35835106000E+01 -0.25746099989E+02  0.26005360942E+02  0.51100000000E-03 0.  1.
        -12    1    3    3    0    0  0.20926744781E+01 -0.55811341583E+01 -0.34010299598E+01  0.68626051724E+01  0.00000000000E+00 0.  1.
</event>
<event>
 7    1  0.4519840E-010  0.4778728E+02  0.7816164E-02  0.1312668E+00
        -11   -1    0    0    0    0  0.00000000000E+00  0.00000000000E+00  0.45593999997E+02  0.45594000000E+02  0.51100000000E-03 0. -1.
         11   -1    0    0    0    0 -0.00000000000E+00 -0.00000000000E+00 -0.45593999997E+02  0.45594000000E+02  0.51100000000E-03 0.  1.
    9900012    2    1    2    0    0 -0.18068013050E+02  0.30156365438E+02  0.25451193256E+02  0.47787277539E+02  0.20000029609E+02 0.  0.
        -12    1    1    2    0    0  0.18068013050E+02 -0.30156365438E+02 -0.25451193256E+02  0.43400722461E+02  0.00000000000E+00 0.  1.
         11    1    3    3    0    0 -0.67612931120E+01  0.72826985893E+01  0.12674283810E+02  0.16105596966E+02  0.51100000000E-03 0. -1.
        -11    1    3    3    0    0 -0.54166414570E+01  0.51172827621E+00  0.46918619825E+01  0.71843886049E+01  0.51100000000E-03 0.  1.
         12    1    3    3    0    0 -0.58900784810E+01  0.22361938573E+02  0.80850474638E+01  0.24497291967E+02  0.00000000000E+00 0. -1.
</event>
<event>
 7    1  0.4519840E-010  0.4778727E+02  0.7816164E-02  0.1312668E+00
        -11   -1    0    0    0    0  0.00000000000E+00  0.00000000000E+00  0.45593999997E+02  0.45594000000E+02  0.51100000000E-03 0. -1.
         11   -1    0    0    0    0 -0.00000000000E+00 -0.00000000000E+00 -0.45593999997E+02  0.45594000000E+02  0.51100000000E-03 0.  1.
    9900012    2    1    2    0    0  0.23272520949E+01  0.20794172726E+02 -0.38023799055E+02  0.47787274013E+02  0.20000013534E+02 0.  0.
         12    1    1    2    0    0 -0.23272520949E+01 -0.20794172726E+02  0.38023799055E+02  0.43400725987E+02  0.00000000000E+00 0. -1.
         11    1    3    3    0    0  0.43563010035E+01  0.78832420035E+01 -0.10595885722E+02  0.13906676721E+02  0.51100000000E-03 0.  1.
        -11    1    3    3    0    0 -0.48286790512E+01  0.14127263589E+02 -0.26924733163E+02  0.30786961104E+02  0.51100000000E-03 0. -1.
         12    1    3    3    0    0  0.27996301427E+01 -0.12163328667E+01 -0.50318017004E+00  0.30936361877E+01  0.00000000000E+00 0. -1.
</event>
<event>
 7    1  0.4519840E-010  0.4778727E+02  0.7816164E-02  0.1312668E+00
        -11   -1    0    0    0    0  0.00000000000E+00  0.00000000000E+00  0.45593999997E+02  0.45594000000E+02  0.51100000000E-03 0. -1.
         11   -1    0    0    0    0 -0.00000000000E+00 -0.00000000000E+00 -0.45593999997E+02  0.45594000000E+02  0.51100000000E-03 0.  1.
    9900012    2    1    2    0    0 -0.34140930349E+02 -0.21602918023E+02  0.15853513773E+02  0.47787273149E+02  0.20000009596E+02 0.  0.
        -12    1    1    2    0    0  0.34140930349E+02  0.21602918023E+02 -0.15853513773E+02  0.43400726851E+02  0.00000000000E+00 0.  1.
         11    1    3    3    0    0 -0.34242424435E+01  0.35603432294E+00 -0.24101978412E+01  0.42025290773E+01  0.51100000000E-03 0. -1.
        -11    1    3    3    0    0  0.76650631664E-01 -0.32693335444E+01  0.30861038940E+01  0.44964935949E+01  0.51100000000E-03 0.  1.
         12    1    3    3    0    0 -0.30793338538E+02 -0.18689618801E+02  0.15177607720E+02  0.39088250477E+02  0.00000000000E+00 0. -1.
</event>
<event>
 7    1  0.4519840E-010  0.4778728E+02  0.7816164E-02  0.1312668E+00
        -11   -1    0    0    0    0  0.00000000000E+00  0.00000000000E+00  0.45593999997E+02  0.45594000000E+02  0.51100000000E-03 0. -1.
         11   -1    0    0    0    0 -0.00000000000E+00 -0.00000000000E+00 -0.45593999997E+02  0.45594000000E+02  0.51100000000E-03 0.  1.
    9900012    2    1    2    0    0  0.22742590753E+02 -0.27208233916E+02 -0.25022178940E+02  0.47787275744E+02  0.20000021429E+02 0.  0.
         12    1    1    2    0    0 -0.22742590753E+02  0.27208233916E+02  0.25022178940E+02  0.43400724256E+02  0.00000000000E+00 0. -1.
         11    1    3    3    0    0  0.14493487334E+02 -0.93814593341E+01 -0.44934672066E+01  0.17839960822E+02  0.51100000000E-03 0. -1.
        -11    1    3    3    0    0  0.90204309006E+01 -0.83492685309E+01 -0.11849224642E+02  0.17072861023E+02  0.51100000000E-03 0.  1.
         12    1    3    3    0    0 -0.77132748137E+00 -0.94775060514E+01 -0.86794870918E+01  0.12874453900E+02  0.00000000000E+00 0. -1.
</event>
<event>
 7    1  0.4519840E-010  0.4778726E+02  0.7816164E-02  0.1312668E+00
        -11   -1    0    0    0    0  0.00000000000E+00  0.00000000000E+00  0.45593999997E+02  0.45594000000E+02  0.51100000000E-03 0. -1.
         11   -1    0    0    0    0 -0.00000000000E+00 -0.00000000000E+00 -0.45593999997E+02  0.45594000000E+02  0.51100000000E-03 0.  1.
    9900012    2    1    2    0    0 -0.51029122487E+01  0.19607917328E+02  0.38381171378E+02  0.47787257476E+02  0.19999938134E+02 0.  0.
        -12    1    1    2    0    0  0.51029122487E+01 -0.19607917328E+02 -0.38381171378E+02  0.43400742524E+02  0.00000000000E+00 0.  1.
         11    1    3    3    0    0 -0.35175906371E+01  0.15347586477E+02  0.22802979453E+02  0.27710967626E+02  0.51100000000E-03 0. -1.
        -11    1    3    3    0    0  0.12242532415E+01  0.65548175967E+01  0.36354313091E+01  0.75947870799E+01  0.51100000000E-03 0.  1.
        -12    1    3    3    0    0 -0.28095748530E+01 -0.22944867454E+01  0.11942760616E+02  0.12481502770E+02  0.00000000000E+00 0.  1.
</event>
<event>
 7    1  0.4519840E-010  0.4778726E+02  0.7816164E-02  0.1312668E+00
        -11   -1    0    0    0    0  0.00000000000E+00  0.00000000000E+00  0.45593999997E+02  0.45594000000E+02  0.51100000000E-03 0. -1.
         11   -1    0    0    0    0 -0.00000000000E+00 -0.00000000000E+00 -0.45593999997E+02  0.45594000000E+02  0.51100000000E-03 0.  1.
    9900012    2    1    2    0    0  0.13718627534E+02  0.23997747353E+02 -0.33459400925E+02  0.47787261185E+02  0.19999955046E+02 0.  0.
         12    1    1    2    0    0 -0.13718627534E+02 -0.23997747353E+02  0.33459400925E+02  0.43400738815E+02  0.00000000000E+00 0. -1.
         11    1    3    3    0    0 -0.71737150114E-01  0.33386820298E+01 -0.43781745254E+01  0.55063923172E+01  0.51100000000E-03 0. -1.
        -11    1    3    3    0    0  0.11440213841E+02  0.20416040672E+02 -0.31271639328E+02  0.39059040387E+02  0.51100000000E-03 0.  1.
         12    1    3    3    0    0  0.23501508430E+01  0.24302465110E+00  0.21904129275E+01  0.32218284807E+01  0.00000000000E+00 0. -1.
</event>
<event>
 7    1  0.4519840E-010  0.4778727E+02  0.7816164E-02  0.1312668E+00
        -11   -1    0    0    0    0  0.00000000000E+00  0.00000000000E+00  0.45593999997E+02  0.45594000000E+02  0.51100000000E-03 0. -1.
         11   -1    0    0    0    0 -0.00000000000E+00 -0.00000000000E+00 -0.45593999997E+02  0.45594000000E+02  0.51100000000E-03 0.  1.
    9900012    2    1    2    0    0 -0.10531513322E+02 -0.33415390049E+02  0.25614878037E+02  0.47787273718E+02  0.20000012188E+02 0.  0.
        -12    1    1    2    0    0  0.10531513322E+02  0.33415390049E+02 -0.25614878037E+02  0.43400726282E+02  0.00000000000E+00 0.  1.
         11    1    3    3    0    0 -0.38008733870E+01 -0.54612347763E+01  0.12844069072E+02  0.14465193893E+02  0.51100000000E-03 0. -1.
        -11    1    3    3    0    0 -0.75486754238E+01 -0.11474131896E+02  0.89244804420E+01  0.16379394215E+02  0.51100000000E-03 0.  1.
        -12    1    3    3    0    0  0.81803548887E+00 -0.16480023377E+02  0.38463285235E+01  0.16942685610E+02  0.00000000000E+00 0.  1.
</event>
<event>
 7    1  0.4519840E-010  0.4778727E+02  0.7816164E-02  0.1312668E+00
        -11   -1    0    0    0    0  0.00000000000E+00  0.00000000000E+00  0.45593999997E+02  0.45594000000E+02  0.51100000000E-03 0.  1.
         11   -1    0    0    0    0 -0.00000000000E+00 -0.00000000000E+00 -0.45593999997E+02  0.45594000000E+02  0.51100000000E-03 0. -1.
    9900012    2    1    2    0    0 -0.38309668787E+02 -0.20179917569E+02 -0.29602669456E+01  0.47787274475E+02  0.20000015643E+02 0.  0.
         12    1    1    2    0    0  0.38309668787E+02  0.20179917569E+02  0.29602669456E+01  0.43400725525E+02  0.00000000000E+00 0. -1.
         11    1    3    3    0    0 -0.93006701157E+01 -0.13803605774E+01  0.31819912982E+01  0.99263754113E+01  0.51100000000E-03 0. -1.
        -11    1    3    3    0    0 -0.17323332042E+02 -0.36659301843E+01  0.22497692273E+00  0.17708401735E+02  0.51100000000E-03 0.  1.
        -12    1    3    3    0    0 -0.11685666630E+02 -0.15133626807E+02 -0.63672351666E+01  0.20152497329E+02  0.00000000000E+00 0.  1.
</event>
<event>
 7    1  0.4519840E-010  0.4778728E+02  0.7816164E-02  0.1312668E+00
        -11   -1    0    0    0    0  0.00000000000E+00  0.00000000000E+00  0.45593999997E+02  0.45594000000E+02  0.51100000000E-03 0.  1.
         11   -1    0    0    0    0 -0.00000000000E+00 -0.00000000000E+00 -0.45593999997E+02  0.45594000000E+02  0.51100000000E-03 0. -1.
    9900012    2    1    2    0    0 -0.27618296242E+02 -0.31472650957E+02  0.11415989201E+02  0.47787275870E+02  0.20000022002E+02 0.  0.
         12    1    1    2    0    0  0.27618296242E+02  0.31472650957E+02 -0.11415989201E+02  0.43400724130E+02  0.00000000000E+00 0. -1.
         11    1    3    3    0    0 -0.16049784755E+02 -0.14010930565E+02  0.69797114273E+01  0.22419146680E+02  0.51100000000E-03 0. -1.
        -11    1    3    3    0    0 -0.79083894684E+01 -0.13845498617E+02  0.91554047108E+01  0.18386459464E+02  0.51100000000E-03 0.  1.
         12    1    3    3    0    0 -0.36601220182E+01 -0.36162217750E+01 -0.47191269374E+01  0.69816697262E+01  0.00000000000E+00 0. -1.
</event>
<event>
 7    1  0.4519840E-010  0.4778727E+02  0.7816164E-02  0.1312668E+00
        -11   -1    0    0    0    0  0.00000000000E+00  0.00000000000E+00  0.45593999997E+02  0.45594000000E+02  0.51100000000E-03 0.  1.
         11   -1    0    0    0    0 -0.00000000000E+00 -0.00000000000E+00 -0.45593999997E+02  0.45594000000E+02  0.51100000000E-03 0. -1.
    9900012    2    1    2    0    0  0.18572133803E+02  0.27619987583E+02  0.27853829202E+02  0.47787266489E+02  0.19999979229E+02 0.  0.
        -12    1    1    2    0    0 -0.18572133803E+02 -0.27619987583E+02 -0.27853829202E+02  0.43400733511E+02  0.00000000000E+00 0.  1.
         11    1    3    3    0    0 -0.66104874006E+00  0.11655300745E+02  0.67884393640E+01  0.13504293027E+02  0.51100000000E-03 0. -1.
        -11    1    3    3    0    0  0.19792104259E+01  0.15529413269E+01  0.77644847280E+01  0.81618701305E+01  0.51100000000E-03 0.  1.
         12    1    3    3    0    0  0.17253972117E+02  0.14411745511E+02  0.13300905110E+02  0.26121103331E+02  0.00000000000E+00 0. -1.
</event>
<event>
 7    1  0.4519840E-010  0.4778728E+02  0.7816164E-02  0.1312668E+00
        -11   -1    0    0    0    0  0.00000000000E+00  0.00000000000E+00  0.45593999997E+02  0.45594000000E+02  0.51100000000E-03 0. -1.
         11   -1    0    0    0    0 -0.00000000000E+00 -0.00000000000E+00 -0.45593999997E+02  0.45594000000E+02  0.51100000000E-03 0.  1.
    9900012    2    1    2    0    0  0.18976340419E+02 -0.15536731345E+02 -0.35806860106E+02  0.47787277111E+02  0.20000027661E+02 0.  0.
         12    1    1    2    0    0 -0.18976340419E+02  0.15536731345E+02  0.35806860106E+02  0.43400722889E+02  0.00000000000E+00 0. -1.
         11    1    3    3    0    0  0.85966437582E-02  0.85290757966E+00  0.18163988310E+01  0.20066963438E+01  0.51100000000E-03 0. -1.
        -11    1    3    3    0    0  0.28579495192E+01 -0.55759136753E+01 -0.59734531537E+01  0.86568372752E+01  0.51100000000E-03 0.  1.
         12    1    3    3    0    0  0.16109794256E+02 -0.10813725250E+02 -0.31649805784E+02  0.37123743492E+02  0.00000000000E+00 0. -1.
</event>
<event>
 7    1  0.4519840E-010  0.4778727E+02  0.7816164E-02  0.1312668E+00
        -11   -1    0    0    0    0  0.00000000000E+00  0.00000000000E+00  0.45593999997E+02  0.45594000000E+02  0.51100000000E-03 0. -1.
         11   -1    0    0    0    0 -0.00000000000E+00 -0.00000000000E+00 -0.45593999997E+02  0.45594000000E+02  0.51100000000E-03 0.  1.
    9900012    2    1    2    0    0  0.14969559608E+02  0.23776266316E+02  0.33079062778E+02  0.47787274786E+02  0.20000017060E+02 0.  0.
        -12    1    1    2    0    0 -0.14969559608E+02 -0.23776266316E+02 -0.33079062778E+02  0.43400725214E+02  0.00000000000E+00 0.  1.
         11    1    3    3    0    0  0.11321033133E+02  0.86879976366E+01  0.13695504437E+02  0.19779128802E+02  0.51100000000E-03 0. -1.
        -11    1    3    3    0    0  0.15925432925E+01 -0.22038806239E+01  0.17999278077E+01  0.32608318443E+01  0.51100000000E-03 0.  1.
        -12    1    3    3    0    0  0.20559831824E+01  0.17292149304E+02  0.17583630533E+02  0.24747314140E+02  0.00000000000E+00 0.  1.
</event>
<event>
 7    1  0.4519840E-010  0.4778723E+02  0.7816164E-02  0.1312668E+00
        -11   -1    0    0    0    0  0.00000000000E+00  0.00000000000E+00  0.45593999997E+02  0.45594000000E+02  0.51100000000E-03 0.  1.
         11   -1    0    0    0    0 -0.00000000000E+00 -0.00000000000E+00 -0.45593999997E+02  0.45594000000E+02  0.51100000000E-03 0. -1.
    9900012    2    1    2    0    0 -0.43132803604E+02 -0.48142308484E+01 -0.10794751808E+00  0.47787225605E+02  0.19999792823E+02 0.  0.
        -12    1    1    2    0    0  0.43132803604E+02  0.48142308484E+01  0.10794751808E+00  0.43400774395E+02  0.00000000000E+00 0.  1.
         11    1    3    3    0    0 -0.14520143445E+02  0.47136068897E+00  0.44563378529E+01  0.15195910433E+02  0.51100000000E-03 0. -1.
        -11    1    3    3    0    0 -0.57849986875E+01  0.46027478104E+01 -0.10059253605E+01  0.74607897244E+01  0.51100000000E-03 0.  1.
         12    1    3    3    0    0 -0.22827661472E+02 -0.98883393478E+01 -0.35583600106E+01  0.25130525448E+02  0.00000000000E+00 0. -1.
</event>
<event>
 7    1  0.4519840E-010  0.4778727E+02  0.7816164E-02  0.1312668E+00
        -11   -1    0    0    0    0  0.00000000000E+00  0.00000000000E+00  0.45593999997E+02  0.45594000000E+02  0.51100000000E-03 0. -1.
         11   -1    0    0    0    0 -0.00000000000E+00 -0.00000000000E+00 -0.45593999997E+02  0.45594000000E+02  0.51100000000E-03 0.  1.
    9900012    2    1    2    0    0 -0.36915437562E+01  0.13129300132E+02  0.41202150531E+02  0.47787271600E+02  0.20000002533E+02 0.  0.
        -12    1    1    2    0    0  0.36915437562E+01 -0.13129300132E+02 -0.41202150531E+02  0.43400728400E+02  0.00000000000E+00 0.  1.
         11    1    3    3    0    0 -0.56179891180E+01  0.59490396677E+01  0.48100723538E+01  0.94915578809E+01  0.51100000000E-03 0. -1.
        -11    1    3    3    0    0 -0.36769299446E+01  0.40077288103E+01  0.18346051193E+02  0.19135289355E+02  0.51100000000E-03 0.  1.
        -12    1    3    3    0    0  0.56033753064E+01  0.31725316543E+01  0.18046026984E+02  0.19160424364E+02  0.00000000000E+00 0.  1.
</event>
<event>
 7    1  0.4519840E-010  0.4778727E+02  0.7816164E-02  0.1312668E+00
        -11   -1    0    0    0    0  0.00000000000E+00  0.00000000000E+00  0.45593999997E+02  0.45594000000E+02  0.51100000000E-03 0.  1.
         11   -1    0    0    0    0 -0.00000000000E+00 -0.00000000000E+00 -0.45593999997E+02  0.45594000000E+02  0.51100000000E-03 0. -1.
    9900012    2    1    2    0    0 -0.26629313567E+02  0.33023049307E+02 -0.91641231739E+01  0.47787270973E+02  0.19999999674E+02 0.  0.
         12    1    1    2    0    0  0.26629313567E+02 -0.33023049307E+02  0.91641231739E+01  0.43400729027E+02  0.00000000000E+00 0. -1.
         11    1    3    3    0    0 -0.13582007065E+02  0.25042386722E+02 -0.33124361219E+01  0.28680381482E+02  0.51100000000E-03 0. -1.
        -11    1    3    3    0    0 -0.11199210620E+02  0.99414401421E+01 -0.65166298867E+01  0.16331595634E+02  0.51100000000E-03 0.  1.
         12    1    3    3    0    0 -0.18480958813E+01 -0.19607775574E+01  0.66494283470E+00  0.27752938564E+01  0.00000000000E+00 0. -1.
</event>
<event>
 7    1  0.4519840E-010  0.4778727E+02  0.7816164E-02  0.1312668E+00
        -11   -1    0    0    0    0  0.00000000000E+00  0.00000000000E+00  0.45593999997E+02  0.45594000000E+02  0.51100000000E-03 0. -1.
         11   -1    0    0    0    0 -0.00000000000E+00 -0.00000000000E+00 -0.45593999997E+02  0.45594000000E+02  0.51100000000E-03 0.  1.
    9900012    2    1    2    0    0 -0.11946862790E+02 -0.62512851532E+01  0.41253085794E+02  0.47787272079E+02  0.20000004715E+02 0.  0.
        -12    1    1    2    0    0  0.11946862790E+02  0.62512851532E+01 -0.41253085794E+02  0.43400727921E+02  0.00000000000E+00 0.  1.
         11    1    3    3    0    0 -0.15641862979E+01 -0.17434465507E+01  0.12732111347E+01  0.26659616473E+01  0.51100000000E-03 0.  1.
        -11    1    3    3    0    0 -0.55203314969E+01 -0.11253733696E+02  0.22240316853E+02  0.25529439397E+02  0.51100000000E-03 0. -1.
         12    1    3    3    0    0 -0.48623449947E+01  0.67458950938E+01  0.17739557806E+02  0.19591871034E+02  0.00000000000E+00 0. -1.
</event>
<event>
 7    1  0.4519840E-010  0.4778726E+02  0.7816164E-02  0.1312668E+00
        -11   -1    0    0    0    0  0.00000000000E+00  0.00000000000E+00  0.45593999997E+02  0.45594000000E+02  0.51100000000E-03 0. -1.
         11   -1    0    0    0    0 -0.00000000000E+00 -0.00000000000E+00 -0.45593999997E+02  0.45594000000E+02  0.51100000000E-03 0.  1.
    9900012    2    1    2    0    0 -0.44694443119E+01 -0.30167848437E+02  0.30879587626E+02  0.47787263327E+02  0.19999964815E+02 0.  0.
        -12    1    1    2    0    0  0.44694443119E+01  0.30167848437E+02 -0.30879587626E+02  0.43400736673E+02  0.00000000000E+00 0.  1.
         11    1    3    3    0    0 -0.79455552241E+01 -0.25095144068E+02  0.19065595961E+02  0.32502231512E+02  0.51100000000E-03 0. -1.
        -11    1    3    3    0    0  0.59995193607E-01 -0.58349721861E+01  0.92867570422E+01  0.10967878394E+02  0.51100000000E-03 0.  1.
         12    1    3    3    0    0  0.34161157186E+01  0.76226781788E+00  0.25272346233E+01  0.43171534221E+01  0.00000000000E+00 0. -1.
</event>
<event>
 7    1  0.4519840E-010  0.4778727E+02  0.7816164E-02  0.1312668E+00
        -11   -1    0    0    0    0  0.00000000000E+00  0.00000000000E+00  0.45593999997E+02  0.45594000000E+02  0.51100000000E-03 0. -1.
         11   -1    0    0    0    0 -0.00000000000E+00 -0.00000000000E+00 -0.45593999997E+02  0.45594000000E+02  0.51100000000E-03 0.  1.
    9900012    2    1    2    0    0 -0.43822452068E+01 -0.33494276413E+02  0.27249818631E+02  0.47787271424E+02  0.20000001730E+02 0.  0.
        -12    1    1    2    0    0  0.43822452068E+01  0.33494276413E+02 -0.27249818631E+02  0.43400728576E+02  0.00000000000E+00 0.  1.
         11    1    3    3    0    0 -0.84210127328E+00 -0.10213847312E+02  0.10044537692E+02  0.14350071399E+02  0.51100000000E-03 0. -1.
        -11    1    3    3    0    0  0.61813070067E+01 -0.10540815402E+02  0.46308493116E+01  0.13067597761E+02  0.51100000000E-03 0.  1.
        -12    1    3    3    0    0 -0.97214509402E+01 -0.12739613700E+02  0.12574431628E+02  0.20369602263E+02  0.00000000000E+00 0.  1.
</event>
<event>
 7    1  0.4519840E-010  0.4778727E+02  0.7816164E-02  0.1312668E+00
        -11   -1    0    0    0    0  0.00000000000E+00  0.00000000000E+00  0.45593999997E+02  0.45594000000E+02  0.51100000000E-03 0. -1.
         11   -1    0    0    0    0 -0.00000000000E+00 -0.00000000000E+00 -0.45593999997E+02  0.45594000000E+02  0.51100000000E-03 0.  1.
    9900012    2    1    2    0    0  0.14133250345E+02 -0.41449122019E+01 -0.40825162540E+02  0.47787274673E+02  0.20000016545E+02 0.  0.
         12    1    1    2    0    0 -0.14133250345E+02  0.41449122019E+01  0.40825162540E+02  0.43400725327E+02  0.00000000000E+00 0. -1.
         11    1    3    3    0    0  0.10245543722E+01  0.38656132696E+01 -0.94451896812E+01  0.10256914058E+02  0.51100000000E-03 0. -1.
        -11    1    3    3    0    0  0.10718373513E+02  0.42212983233E+00 -0.23117717028E+02  0.25485104772E+02  0.51100000000E-03 0.  1.
        -12    1    3    3    0    0  0.23903224591E+01 -0.84326553038E+01 -0.82622558306E+01  0.12045255844E+02  0.00000000000E+00 0.  1.
</event>
<event>
 7    1  0.4519840E-010  0.4778727E+02  0.7816164E-02  0.1312668E+00
        -11   -1    0    0    0    0  0.00000000000E+00  0.00000000000E+00  0.45593999997E+02  0.45594000000E+02  0.51100000000E-03 0.  1.
         11   -1    0    0    0    0 -0.00000000000E+00 -0.00000000000E+00 -0.45593999997E+02  0.45594000000E+02  0.51100000000E-03 0. -1.
    9900012    2    1    2    0    0  0.80962344321E+01 -0.40295608361E+02 -0.13940523690E+02  0.47787271136E+02  0.20000000417E+02 0.  0.
         12    1    1    2    0    0 -0.80962344321E+01  0.40295608361E+02  0.13940523690E+02  0.43400728864E+02  0.00000000000E+00 0. -1.
         11    1    3    3    0    0 -0.10810538387E+01 -0.36161258246E+01 -0.20963439955E+00  0.37800780712E+01  0.51100000000E-03 0. -1.
        -11    1    3    3    0    0  0.14226113083E+01 -0.16363453327E+02  0.28379309613E+01  0.16668541631E+02  0.51100000000E-03 0.  1.
         12    1    3    3    0    0  0.77546769624E+01 -0.20316029210E+02 -0.16568820252E+02  0.27338651433E+02  0.00000000000E+00 0. -1.
</event>
<event>
 7    1  0.4519840E-010  0.4778727E+02  0.7816164E-02  0.1312668E+00
        -11   -1    0    0    0    0  0.00000000000E+00  0.00000000000E+00  0.45593999997E+02  0.45594000000E+02  0.51100000000E-03 0. -1.
         11   -1    0    0    0    0 -0.00000000000E+00 -0.00000000000E+00 -0.45593999997E+02  0.45594000000E+02  0.51100000000E-03 0.  1.
    9900012    2    1    2    0    0  0.31214160025E+02  0.14026496474E+02 -0.26693760880E+02  0.47787271212E+02  0.20000000762E+02 0.  0.
         12    1    1    2    0    0 -0.31214160025E+02 -0.14026496474E+02  0.26693760880E+02  0.43400728788E+02  0.00000000000E+00 0. -1.
         11    1    3    3    0    0  0.79042955954E+01  0.16923763618E+01 -0.11295704995E+02  0.13890103606E+02  0.51100000000E-03 0. -1.
        -11    1    3    3    0    0  0.16898981387E+02  0.27404073659E+01 -0.14300115351E+02  0.22306472239E+02  0.51100000000E-03 0.  1.
        -12    1    3    3    0    0  0.64108830430E+01  0.95937127464E+01 -0.10979405349E+01  0.11590695366E+02  0.00000000000E+00 0.  1.
</event>
<event>
 7    1  0.4519840E-010  0.4778726E+02  0.7816164E-02  0.1312668E+00
        -11   -1    0    0    0    0  0.00000000000E+00  0.00000000000E+00  0.45593999997E+02  0.45594000000E+02  0.51100000000E-03 0. -1.
         11   -1    0    0    0    0 -0.00000000000E+00 -0.00000000000E+00 -0.45593999997E+02  0.45594000000E+02  0.51100000000E-03 0.  1.
    9900012    2    1    2    0    0 -0.89257833528E+01  0.25707272285E+02 -0.33809626518E+02  0.47787259199E+02  0.19999945991E+02 0.  0.
         12    1    1    2    0    0  0.89257833528E+01 -0.25707272285E+02  0.33809626518E+02  0.43400740801E+02  0.00000000000E+00 0. -1.
         11    1    3    3    0    0 -0.32682635898E+01  0.83897313095E+01 -0.14577042218E+01  0.91210767016E+01  0.51100000000E-03 0. -1.
        -11    1    3    3    0    0 -0.48144763109E+01  0.21513224890E+01 -0.13252138745E+02  0.14262768041E+02  0.51100000000E-03 0.  1.
        -12    1    3    3    0    0 -0.84304345211E+00  0.15166218487E+02 -0.19099783551E+02  0.24403414456E+02  0.00000000000E+00 0.  1.
</event>
<event>
 7    1  0.4519840E-010  0.4778721E+02  0.7816164E-02  0.1312668E+00
        -11   -1    0    0    0    0  0.00000000000E+00  0.00000000000E+00  0.45593999997E+02  0.45594000000E+02  0.51100000000E-03 0. -1.
         11   -1    0    0    0    0 -0.00000000000E+00 -0.00000000000E+00 -0.45593999997E+02  0.45594000000E+02  0.51100000000E-03 0.  1.
    9900012    2    1    2    0    0 -0.17846818451E+02 -0.96683705068E+01  0.38361988218E+02  0.47787211331E+02  0.19999727740E+02 0.  0.
        -12    1    1    2    0    0  0.17846818451E+02  0.96683705068E+01 -0.38361988218E+02  0.43400788669E+02  0.00000000000E+00 0.  1.
         11    1    3    3    0    0 -0.39994292989E+01  0.23655522224E+01  0.66217978559E+00  0.46935865139E+01  0.51100000000E-03 0. -1.
        -11    1    3    3    0    0 -0.32037501244E+01  0.91569926861E+00  0.27066494932E+01  0.42928395906E+01  0.51100000000E-03 0.  1.
         12    1    3    3    0    0 -0.10643639027E+02 -0.12949621998E+02  0.34993158939E+02  0.38800785226E+02  0.00000000000E+00 0. -1.
</event>
<event>
 7    1  0.4519840E-010  0.4778727E+02  0.7816164E-02  0.1312668E+00
        -11   -1    0    0    0    0  0.00000000000E+00  0.00000000000E+00  0.45593999997E+02  0.45594000000E+02  0.51100000000E-03 0.  1.
         11   -1    0    0    0    0 -0.00000000000E+00 -0.00000000000E+00 -0.45593999997E+02  0.45594000000E+02  0.51100000000E-03 0. -1.
    9900012    2    1    2    0    0 -0.18132414308E+02 -0.36415852039E+02  0.15123636143E+02  0.47787273065E+02  0.20000009212E+02 0.  0.
        -12    1    1    2    0    0  0.18132414308E+02  0.36415852039E+02 -0.15123636143E+02  0.43400726935E+02  0.00000000000E+00 0.  1.
         11    1    3    3    0    0 -0.18337350922E+01 -0.98375046074E+01  0.51172201099E+01  0.11239440520E+02  0.51100000000E-03 0. -1.
        -11    1    3    3    0    0 -0.15911308597E+00 -0.15477540690E+02  0.56761824084E+01  0.16486316441E+02  0.51100000000E-03 0.  1.
         12    1    3    3    0    0 -0.16139566130E+02 -0.11100806741E+02  0.43302336242E+01  0.20061516104E+02  0.00000000000E+00 0. -1.
</event>
<event>
 7    1  0.4519840E-010  0.4778727E+02  0.7816164E-02  0.1312668E+00
        -11   -1    0    0    0    0  0.00000000000E+00  0.00000000000E+00  0.45593999997E+02  0.45594000000E+02  0.51100000000E-03 0. -1.
         11   -1    0    0    0    0 -0.00000000000E+00 -0.00000000000E+00 -0.45593999997E+02  0.45594000000E+02  0.51100000000E-03 0.  1.
    9900012    2    1    2    0    0  0.19201893617E+02  0.35831565828E+02 -0.15198989278E+02  0.47787273010E+02  0.20000008963E+02 0.  0.
         12    1    1    2    0    0 -0.19201893617E+02 -0.35831565828E+02  0.15198989278E+02  0.43400726990E+02  0.00000000000E+00 0. -1.
         11    1    3    3    0    0  0.11580124742E+02  0.20624834922E+02 -0.11262378329E+02  0.26197791329E+02  0.51100000000E-03 0. -1.
        -11    1    3    3    0    0  0.63494441372E+01  0.14992856577E+02 -0.74066066562E+01  0.17887398123E+02  0.51100000000E-03 0.  1.
         12    1    3    3    0    0  0.12723247379E+01  0.21387432909E+00  0.34699957076E+01  0.37020835590E+01  0.00000000000E+00 0. -1.
</event>
<event>
 7    1  0.4519840E-010  0.4778726E+02  0.7816164E-02  0.1312668E+00
        -11   -1    0    0    0    0  0.00000000000E+00  0.00000000000E+00  0.45593999997E+02  0.45594000000E+02  0.51100000000E-03 0. -1.
         11   -1    0    0    0    0 -0.00000000000E+00 -0.00000000000E+00 -0.45593999997E+02  0.45594000000E+02  0.51100000000E-03 0.  1.
    9900012    2    1    2    0    0  0.20752026583E+02  0.18106369279E+02 -0.33543066195E+02  0.47787256855E+02  0.19999935305E+02 0.  0.
         12    1    1    2    0    0 -0.20752026583E+02 -0.18106369279E+02  0.33543066195E+02  0.43400743145E+02  0.00000000000E+00 0. -1.
         11    1    3    3    0    0  0.27450276254E+01  0.25921202673E+00  0.32472669323E+00  0.27762952338E+01  0.51100000000E-03 0. -1.
        -11    1    3    3    0    0  0.12311620867E+02  0.20278201973E+01 -0.11045423432E+02  0.16664016388E+02  0.51100000000E-03 0.  1.
         12    1    3    3    0    0  0.56953780900E+01  0.15819337055E+02 -0.22822369457E+02  0.28346945233E+02  0.00000000000E+00 0. -1.
</event>
<event>
 7    1  0.4519840E-010  0.4778727E+02  0.7816164E-02  0.1312668E+00
        -11   -1    0    0    0    0  0.00000000000E+00  0.00000000000E+00  0.45593999997E+02  0.45594000000E+02  0.51100000000E-03 0. -1.
         11   -1    0    0    0    0 -0.00000000000E+00 -0.00000000000E+00 -0.45593999997E+02  0.45594000000E+02  0.51100000000E-03 0.  1.
    9900012    2    1    2    0    0 -0.40618618351E+02 -0.46165196285E+00 -0.15281949251E+02  0.47787271294E+02  0.20000001139E+02 0.  0.
         12    1    1    2    0    0  0.40618618351E+02  0.46165196285E+00  0.15281949251E+02  0.43400728706E+02  0.00000000000E+00 0. -1.
         11    1    3    3    0    0 -0.13258146267E+01  0.28628124803E+01  0.24474493419E+00  0.31643925271E+01  0.51100000000E-03 0. -1.
        -11    1    3    3    0    0 -0.29328143775E+02 -0.51850568220E+01 -0.17133273297E+02  0.34359480288E+02  0.51100000000E-03 0.  1.
         12    1    3    3    0    0 -0.99646599491E+01  0.18605923789E+01  0.16065791115E+01  0.10263398479E+02  0.00000000000E+00 0. -1.
</event>
<event>
 7    1  0.4543253E-010  0.4778727E+02  0.7816164E-02  0.1312668E+00
        -11   -1    0    0    0    0  0.00000000000E+00  0.00000000000E+00  0.45593999997E+02  0.45594000000E+02  0.51100000000E-03 0. -1.
         11   -1    0    0    0    0 -0.00000000000E+00 -0.00000000000E+00 -0.45593999997E+02  0.45594000000E+02  0.51100000000E-03 0.  1.
    9900012    2    1    2    0    0  0.16797577430E+02  0.23153714127E+02 -0.32640006246E+02  0.47787273127E+02  0.20000009495E+02 0.  0.
         12    1    1    2    0    0 -0.16797577430E+02 -0.23153714127E+02  0.32640006246E+02  0.43400726873E+02  0.00000000000E+00 0. -1.
         11    1    3    3    0    0 -0.27371814477E+01  0.18736705871E+01 -0.13238529168E+01  0.35714689628E+01  0.51100000000E-03 0. -1.
        -11    1    3    3    0    0 -0.12904014227E+01  0.43707100371E+00 -0.32497941734E+01  0.35238231120E+01  0.51100000000E-03 0.  1.
        -12    1    3    3    0    0  0.20825160300E+02  0.20842972537E+02 -0.28066359155E+02  0.40691981052E+02  0.00000000000E+00 0.  1.
</event>
<event>
 7    1  0.4519840E-010  0.4778727E+02  0.7816164E-02  0.1312668E+00
        -11   -1    0    0    0    0  0.00000000000E+00  0.00000000000E+00  0.45593999997E+02  0.45594000000E+02  0.51100000000E-03 0. -1.
         11   -1    0    0    0    0 -0.00000000000E+00 -0.00000000000E+00 -0.45593999997E+02  0.45594000000E+02  0.51100000000E-03 0.  1.
    9900012    2    1    2    0    0 -0.79873835414E+01  0.12797228599E+02 -0.40694670385E+02  0.47787267825E+02  0.19999985320E+02 0.  0.
         12    1    1    2    0    0  0.79873835414E+01 -0.12797228599E+02  0.40694670385E+02  0.43400732175E+02  0.00000000000E+00 0. -1.
         11    1    3    3    0    0 -0.32612608228E+01 -0.14449619508E+00 -0.14667360699E+02  0.15026249413E+02  0.51100000000E-03 0. -1.
        -11    1    3    3    0    0 -0.47996219210E+01  0.73637095725E+00 -0.16722410376E+02  0.17413145087E+02  0.51100000000E-03 0.  1.
        -12    1    3    3    0    0  0.73499202403E-01  0.12205353837E+02 -0.93048993094E+01  0.15347873324E+02  0.00000000000E+00 0.  1.
</event>
<event>
 7    1  0.4519840E-010  0.4778727E+02  0.7816164E-02  0.1312668E+00
        -11   -1    0    0    0    0  0.00000000000E+00  0.00000000000E+00  0.45593999997E+02  0.45594000000E+02  0.51100000000E-03 0. -1.
         11   -1    0    0    0    0 -0.00000000000E+00 -0.00000000000E+00 -0.45593999997E+02  0.45594000000E+02  0.51100000000E-03 0.  1.
    9900012    2    1    2    0    0 -0.86445395277E+01  0.14451678099E+02 -0.40000552033E+02  0.47787271590E+02  0.20000002489E+02 0.  0.
         12    1    1    2    0    0  0.86445395277E+01 -0.14451678099E+02  0.40000552033E+02  0.43400728410E+02  0.00000000000E+00 0. -1.
         11    1    3    3    0    0 -0.22009188764E+01 -0.84538585772E+00 -0.18305623697E+01  0.29849087087E+01  0.51100000000E-03 0. -1.
        -11    1    3    3    0    0  0.41660720423E+01  0.20278942923E+01 -0.17203968291E+02  0.17816987308E+02  0.51100000000E-03 0.  1.
         12    1    3    3    0    0 -0.10609692694E+02  0.13269169664E+02 -0.20966021373E+02  0.26985375573E+02  0.00000000000E+00 0. -1.
</event>
<event>
 7    1  0.4519840E-010  0.4778727E+02  0.7816164E-02  0.1312668E+00
        -11   -1    0    0    0    0  0.00000000000E+00  0.00000000000E+00  0.45593999997E+02  0.45594000000E+02  0.51100000000E-03 0. -1.
         11   -1    0    0    0    0 -0.00000000000E+00 -0.00000000000E+00 -0.45593999997E+02  0.45594000000E+02  0.51100000000E-03 0.  1.
    9900012    2    1    2    0    0  0.29685192425E+02  0.23352450184E+01 -0.31574662545E+02  0.47787270359E+02  0.19999996874E+02 0.  0.
         12    1    1    2    0    0 -0.29685192425E+02 -0.23352450184E+01  0.31574662545E+02  0.43400729641E+02  0.00000000000E+00 0. -1.
         11    1    3    3    0    0  0.81285128067E+01  0.14361274189E+01 -0.13973586882E+02  0.16229488995E+02  0.51100000000E-03 0. -1.
        -11    1    3    3    0    0 -0.52138212527E+00 -0.18765438145E+01 -0.63128191692E+01  0.66064318760E+01  0.51100000000E-03 0.  1.
         12    1    3    3    0    0  0.22078061743E+02  0.27756614141E+01 -0.11288256493E+02  0.24951349488E+02  0.00000000000E+00 0. -1.
</event>
<event>
 7    1  0.4519840E-010  0.4778727E+02  0.7816164E-02  0.1312668E+00
        -11   -1    0    0    0    0  0.00000000000E+00  0.00000000000E+00  0.45593999997E+02  0.45594000000E+02  0.51100000000E-03 0. -1.
         11   -1    0    0    0    0 -0.00000000000E+00 -0.00000000000E+00 -0.45593999997E+02  0.45594000000E+02  0.51100000000E-03 0.  1.
    9900012    2    1    2    0    0  0.54693343408E+01  0.36248159088E+02  0.23233184933E+02  0.47787268007E+02  0.19999986150E+02 0.  0.
        -12    1    1    2    0    0 -0.54693343408E+01 -0.36248159088E+02 -0.23233184933E+02  0.43400731993E+02  0.00000000000E+00 0.  1.
         11    1    3    3    0    0  0.10601860454E+00 -0.67882779140E+00  0.43047448368E+00  0.81077472649E+00  0.51100000000E-03 0. -1.
        -11    1    3    3    0    0 -0.76021609664E+00  0.28962022880E+02  0.98854209503E+01  0.30612060457E+02  0.51100000000E-03 0.  1.
         12    1    3    3    0    0  0.61235318329E+01  0.79649639998E+01  0.12917289499E+02  0.16364432823E+02  0.00000000000E+00 0. -1.
</event>
<event>
 7    1  0.4519840E-010  0.4778725E+02  0.7816164E-02  0.1312668E+00
        -11   -1    0    0    0    0  0.00000000000E+00  0.00000000000E+00  0.45593999997E+02  0.45594000000E+02  0.51100000000E-03 0. -1.
         11   -1    0    0    0    0 -0.00000000000E+00 -0.00000000000E+00 -0.45593999997E+02  0.45594000000E+02  0.51100000000E-03 0.  1.
    9900012    2    1    2    0    0 -0.28610970052E+02 -0.13993202688E+02 -0.29482662049E+02  0.47787254726E+02  0.19999925600E+02 0.  0.
         12    1    1    2    0    0  0.28610970052E+02  0.13993202688E+02  0.29482662049E+02  0.43400745274E+02  0.00000000000E+00 0. -1.
         11    1    3    3    0    0 -0.88446756480E+01 -0.61143029411E+01 -0.21032152298E+02  0.23621270463E+02  0.51100000000E-03 0. -1.
        -11    1    3    3    0    0 -0.61255758000E+01 -0.47649182486E+01 -0.63295342458E+01  0.10014495935E+02  0.51100000000E-03 0.  1.
        -12    1    3    3    0    0 -0.13640718604E+02 -0.31139814987E+01 -0.21209755057E+01  0.14151488328E+02  0.00000000000E+00 0.  1.
</event>
<event>
 7    1  0.4519840E-010  0.4778727E+02  0.7816164E-02  0.1312668E+00
        -11   -1    0    0    0    0  0.00000000000E+00  0.00000000000E+00  0.45593999997E+02  0.45594000000E+02  0.51100000000E-03 0.  1.
         11   -1    0    0    0    0 -0.00000000000E+00 -0.00000000000E+00 -0.45593999997E+02  0.45594000000E+02  0.51100000000E-03 0. -1.
    9900012    2    1    2    0    0  0.12152818226E+02 -0.41609991353E+02  0.21309098882E+01  0.47787272493E+02  0.20000006603E+02 0.  0.
         12    1    1    2    0    0 -0.12152818226E+02  0.41609991353E+02 -0.21309098882E+01  0.43400727507E+02  0.00000000000E+00 0. -1.
         11    1    3    3    0    0  0.74942103960E+01 -0.50323873037E+01 -0.35422167822E+01  0.96971857478E+01  0.51100000000E-03 0. -1.
        -11    1    3    3    0    0  0.29545927494E+01 -0.36693046638E+01  0.58443612951E+00  0.47471023668E+01  0.51100000000E-03 0.  1.
         12    1    3    3    0    0  0.17040150810E+01 -0.32908299385E+02  0.50886905409E+01  0.33342984378E+02  0.00000000000E+00 0. -1.
</event>
<event>
 7    1  0.4519840E-010  0.4778727E+02  0.7816164E-02  0.1312668E+00
        -11   -1    0    0    0    0  0.00000000000E+00  0.00000000000E+00  0.45593999997E+02  0.45594000000E+02  0.51100000000E-03 0. -1.
         11   -1    0    0    0    0 -0.00000000000E+00 -0.00000000000E+00 -0.45593999997E+02  0.45594000000E+02  0.51100000000E-03 0.  1.
    9900012    2    1    2    0    0  0.30120904639E+02  0.70432520227E+01  0.30442517980E+02  0.47787271938E+02  0.20000004074E+02 0.  0.
        -12    1    1    2    0    0 -0.30120904639E+02 -0.70432520227E+01 -0.30442517980E+02  0.43400728062E+02  0.00000000000E+00 0.  1.
         11    1    3    3    0    0  0.58402680721E+00  0.40965505840E+01  0.46376771105E+01  0.62153731378E+01  0.51100000000E-03 0. -1.
        -11    1    3    3    0    0  0.89759146307E+01  0.27270399278E+01  0.16548149323E+02  0.19022224804E+02  0.51100000000E-03 0.  1.
        -12    1    3    3    0    0  0.20560963201E+02  0.21966151089E+00  0.92566915467E+01  0.22549673996E+02  0.00000000000E+00 0.  1.
</event>
<event>
 7    1  0.4519840E-010  0.4778726E+02  0.7816164E-02  0.1312668E+00
        -11   -1    0    0    0    0  0.00000000000E+00  0.00000000000E+00  0.45593999997E+02  0.45594000000E+02  0.51100000000E-03 0. -1.
         11   -1    0    0    0    0 -0.00000000000E+00 -0.00000000000E+00 -0.45593999997E+02  0.45594000000E+02  0.51100000000E-03 0.  1.
    9900012    2    1    2    0    0 -0.20867925002E+02 -0.13423451431E+02  0.35608491061E+02  0.47787262934E+02  0.19999963022E+02 0.  0.
        -12    1    1    2    0    0  0.20867925002E+02  0.13423451431E+02 -0.35608491061E+02  0.43400737066E+02  0.00000000000E+00 0.  1.
         11    1    3    3    0    0 -0.89105076776E+01 -0.68949285175E+01  0.12413072823E+02  0.16763697787E+02  0.51100000000E-03 0. -1.
        -11    1    3    3    0    0  0.14547072146E+01 -0.58934264694E+01  0.29981140741E+01  0.67703276799E+01  0.51100000000E-03 0.  1.
         12    1    3    3    0    0 -0.13412124539E+02 -0.63509644451E+00  0.20197304164E+02  0.24253237467E+02  0.00000000000E+00 0. -1.
</event>
<event>
 7    1  0.4519840E-010  0.4778727E+02  0.7816164E-02  0.1312668E+00
        -11   -1    0    0    0    0  0.00000000000E+00  0.00000000000E+00  0.45593999997E+02  0.45594000000E+02  0.51100000000E-03 0. -1.
         11   -1    0    0    0    0 -0.00000000000E+00 -0.00000000000E+00 -0.45593999997E+02  0.45594000000E+02  0.51100000000E-03 0.  1.
    9900012    2    1    2    0    0  0.18990995481E+02  0.26287476850E+00 -0.39024303620E+02  0.47787270910E+02  0.19999999389E+02 0.  0.
         12    1    1    2    0    0 -0.18990995481E+02 -0.26287476850E+00  0.39024303620E+02  0.43400729090E+02  0.00000000000E+00 0. -1.
         11    1    3    3    0    0  0.23232715493E+01 -0.14601020588E-01 -0.13124716973E+01  0.26684051602E+01  0.51100000000E-03 0. -1.
        -11    1    3    3    0    0  0.14617526749E+02 -0.76797159438E+01 -0.26373021082E+02  0.31115693251E+02  0.51100000000E-03 0.  1.
        -12    1    3    3    0    0  0.20501971821E+01  0.79571917329E+01 -0.11338810841E+02  0.14003172499E+02  0.00000000000E+00 0.  1.
</event>
<event>
 7    1  0.4519840E-010  0.4778726E+02  0.7816164E-02  0.1312668E+00
        -11   -1    0    0    0    0  0.00000000000E+00  0.00000000000E+00  0.45593999997E+02  0.45594000000E+02  0.51100000000E-03 0. -1.
         11   -1    0    0    0    0 -0.00000000000E+00 -0.00000000000E+00 -0.45593999997E+02  0.45594000000E+02  0.51100000000E-03 0.  1.
    9900012    2    1    2    0    0  0.25386762122E+02  0.56677489772E+01 -0.34742096533E+02  0.47787258750E+02  0.19999943946E+02 0.  0.
         12    1    1    2    0    0 -0.25386762122E+02 -0.56677489772E+01  0.34742096533E+02  0.43400741250E+02  0.00000000000E+00 0. -1.
         11    1    3    3    0    0 -0.19742216866E+01  0.44335611701E+00 -0.11013019220E-01  0.20234222154E+01  0.51100000000E-03 0. -1.
        -11    1    3    3    0    0  0.58420915721E+01  0.47262952202E+00 -0.15296972809E+02  0.16381415995E+02  0.51100000000E-03 0.  1.
         12    1    3    3    0    0  0.21518892237E+02  0.47517633382E+01 -0.19434110704E+02  0.29382420540E+02  0.00000000000E+00 0. -1.
</event>
<event>
 7    1  0.4519840E-010  0.4778727E+02  0.7816164E-02  0.1312668E+00
        -11   -1    0    0    0    0  0.00000000000E+00  0.00000000000E+00  0.45593999997E+02  0.45594000000E+02  0.51100000000E-03 0. -1.
         11   -1    0    0    0    0 -0.00000000000E+00 -0.00000000000E+00 -0.45593999997E+02  0.45594000000E+02  0.51100000000E-03 0.  1.
    9900012    2    1    2    0    0  0.39447697133E+02 -0.13630520917E+02 -0.11904273482E+02  0.47787266864E+02  0.19999980942E+02 0.  0.
         12    1    1    2    0    0 -0.39447697133E+02  0.13630520917E+02  0.11904273482E+02  0.43400733136E+02  0.00000000000E+00 0. -1.
         11    1    3    3    0    0  0.16452689313E+02  0.13179669769E+01 -0.88947211724E+01  0.18749508995E+02  0.51100000000E-03 0. -1.
        -11    1    3    3    0    0  0.49875576914E+01  0.11119730879E+00 -0.24462583727E+01  0.55562826470E+01  0.51100000000E-03 0.  1.
        -12    1    3    3    0    0  0.18007450129E+02 -0.15059685203E+02 -0.56329393740E+00  0.23481475222E+02  0.00000000000E+00 0.  1.
</event>
<event>
 7    1  0.4519840E-010  0.4778727E+02  0.7816164E-02  0.1312668E+00
        -11   -1    0    0    0    0  0.00000000000E+00  0.00000000000E+00  0.45593999997E+02  0.45594000000E+02  0.51100000000E-03 0. -1.
         11   -1    0    0    0    0 -0.00000000000E+00 -0.00000000000E+00 -0.45593999997E+02  0.45594000000E+02  0.51100000000E-03 0.  1.
    9900012    2    1    2    0    0 -0.38563128444E+01 -0.25205283846E+02  0.35120445581E+02  0.47787272122E+02  0.20000004913E+02 0.  0.
        -12    1    1    2    0    0  0.38563128444E+01  0.25205283846E+02 -0.35120445581E+02  0.43400727878E+02  0.00000000000E+00 0.  1.
         11    1    3    3    0    0 -0.13126073524E+01 -0.12816591895E+02  0.19400138854E+02  0.23288481137E+02  0.51100000000E-03 0. -1.
        -11    1    3    3    0    0 -0.81783082829E+00  0.30420675713E+01  0.37226431041E+01  0.48765863381E+01  0.51100000000E-03 0.  1.
         12    1    3    3    0    0 -0.17258746637E+01 -0.15430759522E+02  0.11997663623E+02  0.19622204647E+02  0.00000000000E+00 0. -1.
</event>
<event>
 7    1  0.4519840E-010  0.4778725E+02  0.7816164E-02  0.1312668E+00
        -11   -1    0    0    0    0  0.00000000000E+00  0.00000000000E+00  0.45593999997E+02  0.45594000000E+02  0.51100000000E-03 0. -1.
         11   -1    0    0    0    0 -0.00000000000E+00 -0.00000000000E+00 -0.45593999997E+02  0.45594000000E+02  0.51100000000E-03 0.  1.
    9900012    2    1    2    0    0 -0.24199939193E+02 -0.17286679228E+02 -0.31609472298E+02  0.47787250299E+02  0.19999905412E+02 0.  0.
         12    1    1    2    0    0  0.24199939193E+02  0.17286679228E+02  0.31609472298E+02  0.43400749701E+02  0.00000000000E+00 0. -1.
         11    1    3    3    0    0  0.27916902216E-01 -0.17223225269E+01 -0.10142802707E+02  0.10288032915E+02  0.51100000000E-03 0. -1.
        -11    1    3    3    0    0 -0.60726510695E+01 -0.16958642694E+01 -0.10284346680E+02  0.12063201629E+02  0.51100000000E-03 0.  1.
         12    1    3    3    0    0 -0.18155205025E+02 -0.13868492431E+02 -0.11182322911E+02  0.25436015756E+02  0.00000000000E+00 0. -1.
</event>
<event>
 7    1  0.4519840E-010  0.4778727E+02  0.7816164E-02  0.1312668E+00
        -11   -1    0    0    0    0  0.00000000000E+00  0.00000000000E+00  0.45593999997E+02  0.45594000000E+02  0.51100000000E-03 0. -1.
         11   -1    0    0    0    0 -0.00000000000E+00 -0.00000000000E+00 -0.45593999997E+02  0.45594000000E+02  0.51100000000E-03 0.  1.
    9900012    2    1    2    0    0 -0.29817334694E+02 -0.29210368273E+02  0.11887162502E+02  0.47787266190E+02  0.19999977867E+02 0.  0.
        -12    1    1    2    0    0  0.29817334694E+02  0.29210368273E+02 -0.11887162502E+02  0.43400733810E+02  0.00000000000E+00 0.  1.
         11    1    3    3    0    0 -0.11716445774E+02 -0.59547198063E+01 -0.43311410101E+01  0.13838084125E+02  0.51100000000E-03 0. -1.
        -11    1    3    3    0    0 -0.40268494729E+01 -0.24839925524E+01  0.24066751127E+01  0.53082785380E+01  0.51100000000E-03 0.  1.
         12    1    3    3    0    0 -0.14074039447E+02 -0.20771655914E+02  0.13811628400E+02  0.28640903527E+02  0.00000000000E+00 0. -1.
</event>
<event>
 7    1  0.4519840E-010  0.4778727E+02  0.7816164E-02  0.1312668E+00
        -11   -1    0    0    0    0  0.00000000000E+00  0.00000000000E+00  0.45593999997E+02  0.45594000000E+02  0.51100000000E-03 0. -1.
         11   -1    0    0    0    0 -0.00000000000E+00 -0.00000000000E+00 -0.45593999997E+02  0.45594000000E+02  0.51100000000E-03 0.  1.
    9900012    2    1    2    0    0 -0.96513920707E+01  0.38615200007E+02 -0.17301453954E+02  0.47787270174E+02  0.19999996033E+02 0.  0.
         12    1    1    2    0    0  0.96513920707E+01 -0.38615200007E+02  0.17301453954E+02  0.43400729826E+02  0.00000000000E+00 0. -1.
         11    1    3    3    0    0 -0.21122893302E+01  0.50304587845E+00  0.36817999483E+00  0.22023574052E+01  0.51100000000E-03 0. -1.
        -11    1    3    3    0    0 -0.95611490909E+01  0.22972931642E+02 -0.17301198633E+02  0.30306808386E+02  0.51100000000E-03 0.  1.
        -12    1    3    3    0    0  0.20220463504E+01  0.15139222487E+02 -0.36843531508E+00  0.15278104383E+02  0.00000000000E+00 0.  1.
</event>
<event>
 7    1  0.4519840E-010  0.4778727E+02  0.7816164E-02  0.1312668E+00
        -11   -1    0    0    0    0  0.00000000000E+00  0.00000000000E+00  0.45593999997E+02  0.45594000000E+02  0.51100000000E-03 0. -1.
         11   -1    0    0    0    0 -0.00000000000E+00 -0.00000000000E+00 -0.45593999997E+02  0.45594000000E+02  0.51100000000E-03 0.  1.
    9900012    2    1    2    0    0 -0.96571532535E+00  0.35114550334E+01  0.43247663057E+02  0.47787270946E+02  0.19999999549E+02 0.  0.
        -12    1    1    2    0    0  0.96571532535E+00 -0.35114550334E+01 -0.43247663057E+02  0.43400729054E+02  0.00000000000E+00 0.  1.
         11    1    3    3    0    0 -0.19826315199E+01  0.12289393534E+01 -0.67396869275E+00  0.24280349540E+01  0.51100000000E-03 0. -1.
        -11    1    3    3    0    0  0.38425960048E+01  0.39971359626E+01  0.11471271595E+02  0.12740985528E+02  0.51100000000E-03 0.  1.
         12    1    3    3    0    0 -0.28256798103E+01 -0.17146202826E+01  0.32450360155E+02  0.32618250463E+02  0.00000000000E+00 0. -1.
</event>
<event>
 7    1  0.4519840E-010  0.4778727E+02  0.7816164E-02  0.1312668E+00
        -11   -1    0    0    0    0  0.00000000000E+00  0.00000000000E+00  0.45593999997E+02  0.45594000000E+02  0.51100000000E-03 0. -1.
         11   -1    0    0    0    0 -0.00000000000E+00 -0.00000000000E+00 -0.45593999997E+02  0.45594000000E+02  0.51100000000E-03 0.  1.
    9900012    2    1    2    0    0  0.19858701261E+02 -0.32716892619E+01  0.38451940161E+02  0.47787266498E+02  0.19999979269E+02 0.  0.
        -12    1    1    2    0    0 -0.19858701261E+02  0.32716892619E+01 -0.38451940161E+02  0.43400733502E+02  0.00000000000E+00 0.  1.
         11    1    3    3    0    0  0.12660124607E+02  0.40510010256E+01  0.27300255531E+02  0.30364342850E+02  0.51100000000E-03 0. -1.
        -11    1    3    3    0    0 -0.63253404276E+00  0.52217844880E+00  0.43308853236E+01  0.44078722299E+01  0.51100000000E-03 0.  1.
        -12    1    3    3    0    0  0.78311106967E+01 -0.78448687364E+01  0.68207993061E+01  0.13015051418E+02  0.00000000000E+00 0.  1.
</event>
<event>
 7    1  0.4519840E-010  0.4778727E+02  0.7816164E-02  0.1312668E+00
        -11   -1    0    0    0    0  0.00000000000E+00  0.00000000000E+00  0.45593999997E+02  0.45594000000E+02  0.51100000000E-03 0.  1.
         11   -1    0    0    0    0 -0.00000000000E+00 -0.00000000000E+00 -0.45593999997E+02  0.45594000000E+02  0.51100000000E-03 0. -1.
    9900012    2    1    2    0    0 -0.17505645818E+02 -0.39326696278E+02 -0.55305307446E+01  0.47787269062E+02  0.19999990960E+02 0.  0.
        -12    1    1    2    0    0  0.17505645818E+02  0.39326696278E+02  0.55305307446E+01  0.43400730938E+02  0.00000000000E+00 0.  1.
         11    1    3    3    0    0 -0.10380044247E+02 -0.28080653752E+02  0.14469958373E+01  0.29972691419E+02  0.51100000000E-03 0.  1.
        -11    1    3    3    0    0 -0.46210059880E+01 -0.12678295593E+02 -0.60036717899E+01  0.14769460069E+02  0.51100000000E-03 0. -1.
        -12    1    3    3    0    0 -0.25045955828E+01  0.14322530671E+01 -0.97385479193E+00  0.30451175736E+01  0.00000000000E+00 0.  1.
</event>
<event>
 7    1  0.4519840E-010  0.4778727E+02  0.7816164E-02  0.1312668E+00
        -11   -1    0    0    0    0  0.00000000000E+00  0.00000000000E+00  0.45593999997E+02  0.45594000000E+02  0.51100000000E-03 0.  1.
         11   -1    0    0    0    0 -0.00000000000E+00 -0.00000000000E+00 -0.45593999997E+02  0.45594000000E+02  0.51100000000E-03 0. -1.
    9900012    2    1    2    0    0  0.39913891021E+02  0.15663411008E+02  0.67202774709E+01  0.47787271087E+02  0.20000000194E+02 0.  0.
        -12    1    1    2    0    0 -0.39913891021E+02 -0.15663411008E+02 -0.67202774709E+01  0.43400728913E+02  0.00000000000E+00 0.  1.
         11    1    3    3    0    0  0.25789483069E+02  0.54958753268E+01  0.73038091883E+00  0.26378694796E+02  0.51100000000E-03 0. -1.
        -11    1    3    3    0    0  0.73604157392E+01  0.57554317609E+00 -0.14338277163E+01  0.75208265491E+01  0.51100000000E-03 0.  1.
        -12    1    3    3    0    0  0.67639922128E+01  0.95919925055E+01  0.74237242684E+01  0.13887749742E+02  0.00000000000E+00 0.  1.
</event>
<event>
 7    1  0.4519840E-010  0.4778727E+02  0.7816164E-02  0.1312668E+00
        -11   -1    0    0    0    0  0.00000000000E+00  0.00000000000E+00  0.45593999997E+02  0.45594000000E+02  0.51100000000E-03 0. -1.
         11   -1    0    0    0    0 -0.00000000000E+00 -0.00000000000E+00 -0.45593999997E+02  0.45594000000E+02  0.51100000000E-03 0.  1.
    9900012    2    1    2    0    0 -0.29646509315E+02  0.24675078232E+02  0.19895942391E+02  0.47787268164E+02  0.19999986865E+02 0.  0.
        -12    1    1    2    0    0  0.29646509315E+02 -0.24675078232E+02 -0.19895942391E+02  0.43400731836E+02  0.00000000000E+00 0.  1.
         11    1    3    3    0    0  0.13920047403E+01  0.15429894817E+01  0.14213748797E+01  0.25176974694E+01  0.51100000000E-03 0. -1.
        -11    1    3    3    0    0 -0.52118710623E+00 -0.12808526393E+01 -0.90001782486E+00  0.16499247951E+01  0.51100000000E-03 0.  1.
        -12    1    3    3    0    0 -0.30517326949E+02  0.24412941389E+02  0.19374585336E+02  0.43619645899E+02  0.00000000000E+00 0.  1.
</event>
<event>
 7    1  0.4519840E-010  0.4778727E+02  0.7816164E-02  0.1312668E+00
        -11   -1    0    0    0    0  0.00000000000E+00  0.00000000000E+00  0.45593999997E+02  0.45594000000E+02  0.51100000000E-03 0. -1.
         11   -1    0    0    0    0 -0.00000000000E+00 -0.00000000000E+00 -0.45593999997E+02  0.45594000000E+02  0.51100000000E-03 0.  1.
    9900012    2    1    2    0    0 -0.97562026209E+01  0.15199881098E+02  0.39463950698E+02  0.47787270978E+02  0.19999999697E+02 0.  0.
        -12    1    1    2    0    0  0.97562026209E+01 -0.15199881098E+02 -0.39463950698E+02  0.43400729022E+02  0.00000000000E+00 0.  1.
         11    1    3    3    0    0  0.15849543576E+01  0.36525090714E+01  0.12103512697E+02  0.12741582425E+02  0.51100000000E-03 0. -1.
        -11    1    3    3    0    0 -0.36652052293E+01 -0.34211598415E+01  0.51963946704E+01  0.72208435702E+01  0.51100000000E-03 0.  1.
        -12    1    3    3    0    0 -0.76759517492E+01  0.14968531868E+02  0.22164043331E+02  0.27824844983E+02  0.00000000000E+00 0.  1.
</event>
<event>
 7    1  0.4519840E-010  0.4778728E+02  0.7816164E-02  0.1312668E+00
        -11   -1    0    0    0    0  0.00000000000E+00  0.00000000000E+00  0.45593999997E+02  0.45594000000E+02  0.51100000000E-03 0. -1.
         11   -1    0    0    0    0 -0.00000000000E+00 -0.00000000000E+00 -0.45593999997E+02  0.45594000000E+02  0.51100000000E-03 0.  1.
    9900012    2    1    2    0    0 -0.35247695188E+01 -0.15206112769E+02 -0.40496578807E+02  0.47787276955E+02  0.20000026950E+02 0.  0.
         12    1    1    2    0    0  0.35247695188E+01  0.15206112769E+02  0.40496578807E+02  0.43400723045E+02  0.00000000000E+00 0. -1.
         11    1    3    3    0    0 -0.12968687147E+01  0.11791021834E+01 -0.12760006773E+02  0.12879826223E+02  0.51100000000E-03 0. -1.
        -11    1    3    3    0    0 -0.60683968287E+01 -0.16077784821E+02 -0.24175501806E+02  0.29661009637E+02  0.51100000000E-03 0.  1.
         12    1    3    3    0    0  0.38404960246E+01 -0.30743013080E+00 -0.35610702279E+01  0.52464410954E+01  0.00000000000E+00 0. -1.
</event>
<event>
 7    1  0.4519840E-010  0.4778727E+02  0.7816164E-02  0.1312668E+00
        -11   -1    0    0    0    0  0.00000000000E+00  0.00000000000E+00  0.45593999997E+02  0.45594000000E+02  0.51100000000E-03 0.  1.
         11   -1    0    0    0    0 -0.00000000000E+00 -0.00000000000E+00 -0.45593999997E+02  0.45594000000E+02  0.51100000000E-03 0. -1.
    9900012    2    1    2    0    0 -0.33739287603E+02  0.15896348497E+02  0.22194367793E+02  0.47787269761E+02  0.19999994148E+02 0.  0.
        -12    1    1    2    0    0  0.33739287603E+02 -0.15896348497E+02 -0.22194367793E+02  0.43400730239E+02  0.00000000000E+00 0.  1.
         11    1    3    3    0    0 -0.19419336033E+02  0.12154741246E+02  0.53726019572E+01  0.23531111295E+02  0.51100000000E-03 0. -1.
        -11    1    3    3    0    0 -0.12241834022E+02  0.17536950658E+01  0.74146007316E+01  0.14419231979E+02  0.51100000000E-03 0.  1.
        -12    1    3    3    0    0 -0.20781175489E+01  0.19879121852E+01  0.94071651046E+01  0.98369264868E+01  0.00000000000E+00 0.  1.
</event>
<event>
 7    1  0.4519840E-010  0.4778727E+02  0.7816164E-02  0.1312668E+00
        -11   -1    0    0    0    0  0.00000000000E+00  0.00000000000E+00  0.45593999997E+02  0.45594000000E+02  0.51100000000E-03 0.  1.
         11   -1    0    0    0    0 -0.00000000000E+00 -0.00000000000E+00 -0.45593999997E+02  0.45594000000E+02  0.51100000000E-03 0. -1.
    9900012    2    1    2    0    0 -0.37298504807E+01 -0.40238547328E+02  0.15829435414E+02  0.47787268425E+02  0.19999988059E+02 0.  0.
        -12    1    1    2    0    0  0.37298504807E+01  0.40238547328E+02 -0.15829435414E+02  0.43400731575E+02  0.00000000000E+00 0.  1.
         11    1    3    3    0    0  0.46373626252E+01 -0.19173219104E+02  0.41161918552E+01  0.20150942871E+02  0.51100000000E-03 0. -1.
        -11    1    3    3    0    0  0.11140305289E+01 -0.48234235593E+00  0.32098803734E+01  0.34317707442E+01  0.51100000000E-03 0.  1.
        -12    1    3    3    0    0 -0.94812436348E+01 -0.20582985868E+02  0.85033631850E+01  0.24204554810E+02  0.00000000000E+00 0.  1.
</event>
<event>
 7    1  0.4519840E-010  0.4778728E+02  0.7816164E-02  0.1312668E+00
        -11   -1    0    0    0    0  0.00000000000E+00  0.00000000000E+00  0.45593999997E+02  0.45594000000E+02  0.51100000000E-03 0. -1.
         11   -1    0    0    0    0 -0.00000000000E+00 -0.00000000000E+00 -0.45593999997E+02  0.45594000000E+02  0.51100000000E-03 0.  1.
    9900012    2    1    2    0    0 -0.29395169033E+02 -0.22570295246E+02  0.22586026590E+02  0.47787276653E+02  0.20000025569E+02 0.  0.
        -12    1    1    2    0    0  0.29395169033E+02  0.22570295246E+02 -0.22586026590E+02  0.43400723347E+02  0.00000000000E+00 0.  1.
         11    1    3    3    0    0 -0.80982305972E+01 -0.11721489651E+02  0.85608133639E+01  0.16621136669E+02  0.51100000000E-03 0. -1.
        -11    1    3    3    0    0 -0.16624181191E+02 -0.69274117987E+01  0.16648342351E+02  0.24525899327E+02  0.51100000000E-03 0.  1.
        -12    1    3    3    0    0 -0.46727572445E+01 -0.39213937961E+01 -0.26231291251E+01  0.66402406566E+01  0.00000000000E+00 0.  1.
</event>
<event>
 7    1  0.4519840E-010  0.4778727E+02  0.7816164E-02  0.1312668E+00
        -11   -1    0    0    0    0  0.00000000000E+00  0.00000000000E+00  0.45593999997E+02  0.45594000000E+02  0.51100000000E-03 0. -1.
         11   -1    0    0    0    0 -0.00000000000E+00 -0.00000000000E+00 -0.45593999997E+02  0.45594000000E+02  0.51100000000E-03 0.  1.
    9900012    2    1    2    0    0  0.28651424865E+02 -0.27633472143E+02  0.17294806335E+02  0.47787271254E+02  0.20000000955E+02 0.  0.
        -12    1    1    2    0    0 -0.28651424865E+02  0.27633472143E+02 -0.17294806335E+02  0.43400728746E+02  0.00000000000E+00 0.  1.
         11    1    3    3    0    0 -0.96405596500E+00 -0.29285861738E+01  0.72551115266E+00  0.31673944457E+01  0.51100000000E-03 0.  1.
        -11    1    3    3    0    0  0.76692452784E+01 -0.10814245537E+02  0.12702507245E+02  0.18360798464E+02  0.51100000000E-03 0. -1.
         12    1    3    3    0    0  0.21946235552E+02 -0.13890640433E+02  0.38667879380E+01  0.26259078344E+02  0.00000000000E+00 0. -1.
</event>
<event>
 7    1  0.4519840E-010  0.4778727E+02  0.7816164E-02  0.1312668E+00
        -11   -1    0    0    0    0  0.00000000000E+00  0.00000000000E+00  0.45593999997E+02  0.45594000000E+02  0.51100000000E-03 0. -1.
         11   -1    0    0    0    0 -0.00000000000E+00 -0.00000000000E+00 -0.45593999997E+02  0.45594000000E+02  0.51100000000E-03 0.  1.
    9900012    2    1    2    0    0  0.10159656723E+02 -0.14964778014E+02  0.39451999506E+02  0.47787268776E+02  0.19999989658E+02 0.  0.
        -12    1    1    2    0    0 -0.10159656723E+02  0.14964778014E+02 -0.39451999506E+02  0.43400731224E+02  0.00000000000E+00 0.  1.
         11    1    3    3    0    0  0.28839070920E+00 -0.17509348568E+01  0.20294762776E+02  0.20372195230E+02  0.51100000000E-03 0. -1.
        -11    1    3    3    0    0  0.40642815481E+01 -0.70322923353E+00  0.10112467721E+02  0.10921305761E+02  0.51100000000E-03 0.  1.
        -12    1    3    3    0    0  0.58069844655E+01 -0.12510613924E+02  0.90447690094E+01  0.16493767786E+02  0.00000000000E+00 0.  1.
</event>
<event>
 7    1  0.4519840E-010  0.4778727E+02  0.7816164E-02  0.1312668E+00
        -11   -1    0    0    0    0  0.00000000000E+00  0.00000000000E+00  0.45593999997E+02  0.45594000000E+02  0.51100000000E-03 0. -1.
         11   -1    0    0    0    0 -0.00000000000E+00 -0.00000000000E+00 -0.45593999997E+02  0.45594000000E+02  0.51100000000E-03 0.  1.
    9900012    2    1    2    0    0 -0.21746974796E+02 -0.17497081907E+02 -0.33234692871E+02  0.47787267308E+02  0.19999982963E+02 0.  0.
         12    1    1    2    0    0  0.21746974796E+02  0.17497081907E+02  0.33234692871E+02  0.43400732692E+02  0.00000000000E+00 0. -1.
         11    1    3    3    0    0 -0.14401009873E+02 -0.16094199166E+02 -0.19699323023E+02  0.29231415634E+02  0.51100000000E-03 0. -1.
        -11    1    3    3    0    0 -0.23010588659E+01 -0.48718564135E+01 -0.10316602604E+02  0.11638820661E+02  0.51100000000E-03 0.  1.
         12    1    3    3    0    0 -0.50449060563E+01  0.34689736729E+01 -0.32187672436E+01  0.69170310126E+01  0.00000000000E+00 0. -1.
</event>
<event>
 7    1  0.4519840E-010  0.4778727E+02  0.7816164E-02  0.1312668E+00
        -11   -1    0    0    0    0  0.00000000000E+00  0.00000000000E+00  0.45593999997E+02  0.45594000000E+02  0.51100000000E-03 0. -1.
         11   -1    0    0    0    0 -0.00000000000E+00 -0.00000000000E+00 -0.45593999997E+02  0.45594000000E+02  0.51100000000E-03 0.  1.
    9900012    2    1    2    0    0  0.61634179580E+01 -0.18763426005E+02 -0.38646724799E+02  0.47787271734E+02  0.20000003142E+02 0.  0.
         12    1    1    2    0    0 -0.61634179580E+01  0.18763426005E+02  0.38646724799E+02  0.43400728266E+02  0.00000000000E+00 0. -1.
         11    1    3    3    0    0  0.58224147647E+01 -0.11581362404E+02 -0.22774659552E+02  0.26205220602E+02  0.51100000000E-03 0. -1.
        -11    1    3    3    0    0  0.43714375852E+01 -0.61160855961E+01 -0.30737290165E+01  0.81218089061E+01  0.51100000000E-03 0.  1.
         12    1    3    3    0    0 -0.40304343919E+01 -0.10659780045E+01 -0.12798336231E+02  0.13460242225E+02  0.00000000000E+00 0. -1.
</event>
<event>
 7    1  0.4519840E-010  0.4778728E+02  0.7816164E-02  0.1312668E+00
        -11   -1    0    0    0    0  0.00000000000E+00  0.00000000000E+00  0.45593999997E+02  0.45594000000E+02  0.51100000000E-03 0. -1.
         11   -1    0    0    0    0 -0.00000000000E+00 -0.00000000000E+00 -0.45593999997E+02  0.45594000000E+02  0.51100000000E-03 0.  1.
    9900012    2    1    2    0    0  0.85065277940E+01 -0.15596737593E+02 -0.39598023759E+02  0.47787277376E+02  0.20000028868E+02 0.  0.
         12    1    1    2    0    0 -0.85065277940E+01  0.15596737593E+02  0.39598023759E+02  0.43400722624E+02  0.00000000000E+00 0. -1.
         11    1    3    3    0    0  0.43783243156E-01  0.29905057828E+00 -0.27748225606E+01  0.27912342654E+01  0.51100000000E-03 0. -1.
        -11    1    3    3    0    0 -0.21340449412E+01 -0.94696284787E+01 -0.28395644074E+02  0.30009008880E+02  0.51100000000E-03 0.  1.
         12    1    3    3    0    0  0.10596789492E+02 -0.64261596928E+01 -0.84275571247E+01  0.14987034231E+02  0.00000000000E+00 0. -1.
</event>
<event>
 7    1  0.4519840E-010  0.4778724E+02  0.7816164E-02  0.1312668E+00
        -11   -1    0    0    0    0  0.00000000000E+00  0.00000000000E+00  0.45593999997E+02  0.45594000000E+02  0.51100000000E-03 0. -1.
         11   -1    0    0    0    0 -0.00000000000E+00 -0.00000000000E+00 -0.45593999997E+02  0.45594000000E+02  0.51100000000E-03 0.  1.
    9900012    2    1    2    0    0  0.62493128678E+01  0.38544458675E+01 -0.42775167184E+02  0.47787244340E+02  0.19999878243E+02 0.  0.
         12    1    1    2    0    0 -0.62493128678E+01 -0.38544458675E+01  0.42775167184E+02  0.43400755660E+02  0.00000000000E+00 0. -1.
         11    1    3    3    0    0 -0.17294787371E+01 -0.35611333781E+00 -0.19737174987E+02  0.19816003385E+02  0.51100000000E-03 0. -1.
        -11    1    3    3    0    0  0.37229918777E+01  0.19957646547E+01 -0.22778221110E+02  0.23166594534E+02  0.51100000000E-03 0.  1.
        -12    1    3    3    0    0  0.42557997272E+01  0.22147945506E+01 -0.25977108659E+00  0.48046464216E+01  0.00000000000E+00 0.  1.
</event>
<event>
 7    1  0.4519840E-010  0.4778727E+02  0.7816164E-02  0.1312668E+00
        -11   -1    0    0    0    0  0.00000000000E+00  0.00000000000E+00  0.45593999997E+02  0.45594000000E+02  0.51100000000E-03 0. -1.
         11   -1    0    0    0    0 -0.00000000000E+00 -0.00000000000E+00 -0.45593999997E+02  0.45594000000E+02  0.51100000000E-03 0.  1.
    9900012    2    1    2    0    0 -0.26228689030E+02 -0.14232199630E+02  0.31513860244E+02  0.47787273946E+02  0.20000013229E+02 0.  0.
        -12    1    1    2    0    0  0.26228689030E+02  0.14232199630E+02 -0.31513860244E+02  0.43400726054E+02  0.00000000000E+00 0.  1.
         11    1    3    3    0    0 -0.28141823096E+01 -0.80766901993E+01  0.56350344062E+01  0.10242370803E+02  0.51100000000E-03 0.  1.
        -11    1    3    3    0    0 -0.44233500439E+01 -0.68992884185E+01  0.77999821634E+01  0.11313970492E+02  0.51100000000E-03 0. -1.
        -12    1    3    3    0    0 -0.18991156677E+02  0.74377898807E+00  0.18078843674E+02  0.26230932650E+02  0.00000000000E+00 0.  1.
</event>
<event>
 7    1  0.4519840E-010  0.4778727E+02  0.7816164E-02  0.1312668E+00
        -11   -1    0    0    0    0  0.00000000000E+00  0.00000000000E+00  0.45593999997E+02  0.45594000000E+02  0.51100000000E-03 0. -1.
         11   -1    0    0    0    0 -0.00000000000E+00 -0.00000000000E+00 -0.45593999997E+02  0.45594000000E+02  0.51100000000E-03 0.  1.
    9900012    2    1    2    0    0 -0.35867062288E+02  0.17114232107E+02 -0.17443625881E+02  0.47787272107E+02  0.20000004843E+02 0.  0.
         12    1    1    2    0    0  0.35867062288E+02 -0.17114232107E+02  0.17443625881E+02  0.43400727893E+02  0.00000000000E+00 0. -1.
         11    1    3    3    0    0 -0.24857266554E+02  0.11181028127E+02 -0.13060811920E+02  0.30223896155E+02  0.51100000000E-03 0. -1.
        -11    1    3    3    0    0 -0.10792155946E+02 -0.26885880388E+00 -0.30136357793E+01  0.11208252134E+02  0.51100000000E-03 0.  1.
         12    1    3    3    0    0 -0.21763978842E+00  0.62020627841E+01 -0.13691781816E+01  0.63551238185E+01  0.00000000000E+00 0. -1.
</event>
<event>
 7    1  0.4519840E-010  0.4778727E+02  0.7816164E-02  0.1312668E+00
        -11   -1    0    0    0    0  0.00000000000E+00  0.00000000000E+00  0.45593999997E+02  0.45594000000E+02  0.51100000000E-03 0. -1.
         11   -1    0    0    0    0 -0.00000000000E+00 -0.00000000000E+00 -0.45593999997E+02  0.45594000000E+02  0.51100000000E-03 0.  1.
    9900012    2    1    2    0    0 -0.88089265930E+01 -0.17147559125E+02  0.38884280544E+02  0.47787271376E+02  0.20000001510E+02 0.  0.
        -12    1    1    2    0    0  0.88089265930E+01  0.17147559125E+02 -0.38884280544E+02  0.43400728624E+02  0.00000000000E+00 0.  1.
         11    1    3    3    0    0 -0.56633024509E+01 -0.15673536090E+01  0.14867104539E+01  0.60613447535E+01  0.51100000000E-03 0. -1.
        -11    1    3    3    0    0 -0.37884641118E+01 -0.20916249949E+01  0.14612248154E+02  0.15239591590E+02  0.51100000000E-03 0.  1.
         12    1    3    3    0    0  0.64283996976E+00 -0.13488580521E+02  0.22785321936E+02  0.26486335032E+02  0.00000000000E+00 0. -1.
</event>
<event>
 7    1  0.4519840E-010  0.4778727E+02  0.7816164E-02  0.1312668E+00
        -11   -1    0    0    0    0  0.00000000000E+00  0.00000000000E+00  0.45593999997E+02  0.45594000000E+02  0.51100000000E-03 0.  1.
         11   -1    0    0    0    0 -0.00000000000E+00 -0.00000000000E+00 -0.45593999997E+02  0.45594000000E+02  0.51100000000E-03 0. -1.
    9900012    2    1    2    0    0 -0.41655611235E+02 -0.12088201326E+02 -0.15194421423E+01  0.47787271169E+02  0.20000000568E+02 0.  0.
        -12    1    1    2    0    0  0.41655611235E+02  0.12088201326E+02  0.15194421423E+01  0.43400728831E+02  0.00000000000E+00 0.  1.
         11    1    3    3    0    0 -0.15061879497E+02 -0.47359260422E+01 -0.46928083410E+01  0.16471540907E+02  0.51100000000E-03 0. -1.
        -11    1    3    3    0    0 -0.70086663764E+01  0.43152856529E+01 -0.39981141944E+00  0.82403242699E+01  0.51100000000E-03 0.  1.
         12    1    3    3    0    0 -0.19585065361E+02 -0.11667560937E+02  0.35731776181E+01  0.23075405992E+02  0.00000000000E+00 0. -1.
</event>
<event>
 7    1  0.4519840E-010  0.4778727E+02  0.7816164E-02  0.1312668E+00
        -11   -1    0    0    0    0  0.00000000000E+00  0.00000000000E+00  0.45593999997E+02  0.45594000000E+02  0.51100000000E-03 0. -1.
         11   -1    0    0    0    0 -0.00000000000E+00 -0.00000000000E+00 -0.45593999997E+02  0.45594000000E+02  0.51100000000E-03 0.  1.
    9900012    2    1    2    0    0  0.31138886656E+01  0.16280283789E+02  0.40110838553E+02  0.47787270602E+02  0.19999997982E+02 0.  0.
        -12    1    1    2    0    0 -0.31138886656E+01 -0.16280283789E+02 -0.40110838553E+02  0.43400729398E+02  0.00000000000E+00 0.  1.
         11    1    3    3    0    0 -0.26840817836E+01  0.14326387719E+02  0.13353304686E+02  0.19767661126E+02  0.51100000000E-03 0. -1.
        -11    1    3    3    0    0  0.10926559794E+01 -0.17559599126E+00  0.42519173922E+00  0.11855459998E+01  0.51100000000E-03 0.  1.
         12    1    3    3    0    0  0.47053144698E+01  0.21294920611E+01  0.26332342127E+02  0.26834063476E+02  0.00000000000E+00 0. -1.
</event>
<event>
 7    1  0.4519840E-010  0.4778729E+02  0.7816164E-02  0.1312668E+00
        -11   -1    0    0    0    0  0.00000000000E+00  0.00000000000E+00  0.45593999997E+02  0.45594000000E+02  0.51100000000E-03 0. -1.
         11   -1    0    0    0    0 -0.00000000000E+00 -0.00000000000E+00 -0.45593999997E+02  0.45594000000E+02  0.51100000000E-03 0.  1.
    9900012    2    1    2    0    0  0.49570233612E+00 -0.16479080521E+02 -0.40147428817E+02  0.47787287376E+02  0.20000074462E+02 0.  0.
         12    1    1    2    0    0 -0.49570233612E+00  0.16479080521E+02  0.40147428817E+02  0.43400712624E+02  0.00000000000E+00 0. -1.
         11    1    3    3    0    0 -0.76759799064E+01 -0.30460638144E+01 -0.82428508726E+01  0.11668065952E+02  0.51100000000E-03 0. -1.
        -11    1    3    3    0    0  0.94163060131E+00 -0.63729706716E+00 -0.78366299970E+01  0.79186858576E+01  0.51100000000E-03 0.  1.
         12    1    3    3    0    0  0.72300516412E+01 -0.12795719639E+02 -0.24067947948E+02  0.28200535567E+02  0.00000000000E+00 0. -1.
</event>
<event>
 7    1  0.4519840E-010  0.4778727E+02  0.7816164E-02  0.1312668E+00
        -11   -1    0    0    0    0  0.00000000000E+00  0.00000000000E+00  0.45593999997E+02  0.45594000000E+02  0.51100000000E-03 0.  1.
         11   -1    0    0    0    0 -0.00000000000E+00 -0.00000000000E+00 -0.45593999997E+02  0.45594000000E+02  0.51100000000E-03 0. -1.
    9900012    2    1    2    0    0  0.38069723611E+02 -0.18329944925E+02 -0.99162762023E+01  0.47787271083E+02  0.20000000178E+02 0.  0.
         12    1    1    2    0    0 -0.38069723611E+02  0.18329944925E+02  0.99162762023E+01  0.43400728917E+02  0.00000000000E+00 0. -1.
         11    1    3    3    0    0  0.25762367082E+02 -0.20250669035E+02 -0.97278112347E+01  0.34182151273E+02  0.51100000000E-03 0. -1.
        -11    1    3    3    0    0  0.62162392350E+01 -0.16374863540E+01  0.81534702837E+00  0.64797980543E+01  0.51100000000E-03 0.  1.
        -12    1    3    3    0    0  0.60911172944E+01  0.35582104639E+01 -0.10038119960E+01  0.71253217557E+01  0.00000000000E+00 0.  1.
</event>
<event>
 7    1  0.4519840E-010  0.4778727E+02  0.7816164E-02  0.1312668E+00
        -11   -1    0    0    0    0  0.00000000000E+00  0.00000000000E+00  0.45593999997E+02  0.45594000000E+02  0.51100000000E-03 0. -1.
         11   -1    0    0    0    0 -0.00000000000E+00 -0.00000000000E+00 -0.45593999997E+02  0.45594000000E+02  0.51100000000E-03 0.  1.
    9900012    2    1    2    0    0 -0.16605140059E+02  0.39946891734E+02  0.34840277701E+01  0.47787270915E+02  0.19999999411E+02 0.  0.
         12    1    1    2    0    0  0.16605140059E+02 -0.39946891734E+02 -0.34840277701E+01  0.43400729085E+02  0.00000000000E+00 0. -1.
         11    1    3    3    0    0 -0.18593430908E+02  0.26655731832E+02  0.14589840392E+01  0.32532635109E+02  0.51100000000E-03 0. -1.
        -11    1    3    3    0    0  0.18725509504E+00  0.36682214981E+01 -0.25267468822E+01  0.44581793927E+01  0.51100000000E-03 0.  1.
         12    1    3    3    0    0  0.18010357540E+01  0.96229384037E+01  0.45517906132E+01  0.10796456414E+02  0.00000000000E+00 0. -1.
</event>
<event>
 7    1  0.4519840E-010  0.4778727E+02  0.7816164E-02  0.1312668E+00
        -11   -1    0    0    0    0  0.00000000000E+00  0.00000000000E+00  0.45593999997E+02  0.45594000000E+02  0.51100000000E-03 0. -1.
         11   -1    0    0    0    0 -0.00000000000E+00 -0.00000000000E+00 -0.45593999997E+02  0.45594000000E+02  0.51100000000E-03 0.  1.
    9900012    2    1    2    0    0 -0.23040869922E+02  0.23704260915E+02 -0.28122051306E+02  0.47787269108E+02  0.19999991173E+02 0.  0.
         12    1    1    2    0    0  0.23040869922E+02 -0.23704260915E+02  0.28122051306E+02  0.43400730892E+02  0.00000000000E+00 0. -1.
         11    1    3    3    0    0 -0.13547534525E+02  0.11813527646E+02 -0.98682565213E+01  0.20505550814E+02  0.51100000000E-03 0. -1.
        -11    1    3    3    0    0 -0.92129604130E+01  0.14602334359E+02 -0.17164801020E+02  0.24346194828E+02  0.51100000000E-03 0.  1.
         12    1    3    3    0    0 -0.28037498414E+00 -0.27116010900E+01 -0.10889937648E+01  0.29355234665E+01  0.00000000000E+00 0. -1.
</event>
<event>
 7    1  0.4519840E-010  0.4778727E+02  0.7816164E-02  0.1312668E+00
        -11   -1    0    0    0    0  0.00000000000E+00  0.00000000000E+00  0.45593999997E+02  0.45594000000E+02  0.51100000000E-03 0. -1.
         11   -1    0    0    0    0 -0.00000000000E+00 -0.00000000000E+00 -0.45593999997E+02  0.45594000000E+02  0.51100000000E-03 0.  1.
    9900012    2    1    2    0    0  0.11679770511E+02  0.30882697278E+02 -0.28168510779E+02  0.47787273855E+02  0.20000012816E+02 0.  0.
         12    1    1    2    0    0 -0.11679770511E+02 -0.30882697278E+02  0.28168510779E+02  0.43400726145E+02  0.00000000000E+00 0. -1.
         11    1    3    3    0    0  0.14505902152E+02  0.20368649188E+02 -0.15143202669E+02  0.29233878537E+02  0.51100000000E-03 0. -1.
        -11    1    3    3    0    0 -0.16295097159E+00  0.94749802155E+01 -0.66808492399E+01  0.11594634532E+02  0.51100000000E-03 0.  1.
         12    1    3    3    0    0 -0.26631806696E+01  0.10390678751E+01 -0.63444588703E+01  0.69587607866E+01  0.00000000000E+00 0. -1.
</event>
<event>
 7    1  0.4519840E-010  0.4778727E+02  0.7816164E-02  0.1312668E+00
        -11   -1    0    0    0    0  0.00000000000E+00  0.00000000000E+00  0.45593999997E+02  0.45594000000E+02  0.51100000000E-03 0. -1.
         11   -1    0    0    0    0 -0.00000000000E+00 -0.00000000000E+00 -0.45593999997E+02  0.45594000000E+02  0.51100000000E-03 0.  1.
    9900012    2    1    2    0    0 -0.16056600520E+02 -0.16444414766E+02  0.36815626859E+02  0.47787267537E+02  0.19999984010E+02 0.  0.
        -12    1    1    2    0    0  0.16056600520E+02  0.16444414766E+02 -0.36815626859E+02  0.43400732463E+02  0.00000000000E+00 0.  1.
         11    1    3    3    0    0  0.23523157932E+01 -0.70632211671E+00 -0.99559852626E-01  0.24580872541E+01  0.51100000000E-03 0. -1.
        -11    1    3    3    0    0 -0.48069476849E+01 -0.46574476312E+00  0.12964671050E+02  0.13834968736E+02  0.51100000000E-03 0.  1.
         12    1    3    3    0    0 -0.13601968628E+02 -0.15272347886E+02  0.23950515662E+02  0.31494211547E+02  0.00000000000E+00 0. -1.
</event>
<event>
 7    1  0.4519840E-010  0.4778727E+02  0.7816164E-02  0.1312668E+00
        -11   -1    0    0    0    0  0.00000000000E+00  0.00000000000E+00  0.45593999997E+02  0.45594000000E+02  0.51100000000E-03 0. -1.
         11   -1    0    0    0    0 -0.00000000000E+00 -0.00000000000E+00 -0.45593999997E+02  0.45594000000E+02  0.51100000000E-03 0.  1.
    9900012    2    1    2    0    0  0.25866475092E+02  0.16577172810E+01  0.34810924993E+02  0.47787273518E+02  0.20000011280E+02 0.  0.
        -12    1    1    2    0    0 -0.25866475092E+02 -0.16577172810E+01 -0.34810924993E+02  0.43400726482E+02  0.00000000000E+00 0.  1.
         11    1    3    3    0    0  0.12243825050E+02 -0.21246575350E+01  0.19987454041E+02  0.23535584564E+02  0.51100000000E-03 0. -1.
        -11    1    3    3    0    0  0.44269817009E-01 -0.36854569261E+01  0.31886956171E+01  0.48736364832E+01  0.51100000000E-03 0.  1.
         12    1    3    3    0    0  0.13578380225E+02  0.74678317422E+01  0.11634775335E+02  0.19378052471E+02  0.00000000000E+00 0. -1.
</event>
<event>
 7    1  0.4519840E-010  0.4778723E+02  0.7816164E-02  0.1312668E+00
        -11   -1    0    0    0    0  0.00000000000E+00  0.00000000000E+00  0.45593999997E+02  0.45594000000E+02  0.51100000000E-03 0. -1.
         11   -1    0    0    0    0 -0.00000000000E+00 -0.00000000000E+00 -0.45593999997E+02  0.45594000000E+02  0.51100000000E-03 0.  1.
    9900012    2    1    2    0    0  0.17860538729E+01 -0.28348812626E+01  0.43271237366E+02  0.47787233608E+02  0.19999829311E+02 0.  0.
        -12    1    1    2    0    0 -0.17860538729E+01  0.28348812626E+01 -0.43271237366E+02  0.43400766392E+02  0.00000000000E+00 0.  1.
         11    1    3    3    0    0 -0.18802473034E+01  0.14900531368E+01  0.11974462237E+02  0.12212425410E+02  0.51100000000E-03 0. -1.
        -11    1    3    3    0    0  0.11902156503E+01  0.59310984193E+01  0.14848660118E+02  0.16033628701E+02  0.51100000000E-03 0.  1.
         12    1    3    3    0    0  0.24760855259E+01 -0.10256032819E+02  0.16448115011E+02  0.19541179497E+02  0.00000000000E+00 0. -1.
</event>
<event>
 7    1  0.4519840E-010  0.4778727E+02  0.7816164E-02  0.1312668E+00
        -11   -1    0    0    0    0  0.00000000000E+00  0.00000000000E+00  0.45593999997E+02  0.45594000000E+02  0.51100000000E-03 0. -1.
         11   -1    0    0    0    0 -0.00000000000E+00 -0.00000000000E+00 -0.45593999997E+02  0.45594000000E+02  0.51100000000E-03 0.  1.
    9900012    2    1    2    0    0  0.13475813025E+02 -0.22818595773E+02 -0.34370585535E+02  0.47787274202E+02  0.20000014397E+02 0.  0.
         12    1    1    2    0    0 -0.13475813025E+02  0.22818595773E+02  0.34370585535E+02  0.43400725798E+02  0.00000000000E+00 0. -1.
         11    1    3    3    0    0  0.52617634912E+01 -0.47739363866E+00 -0.40504799578E+01  0.66573604283E+01  0.51100000000E-03 0. -1.
        -11    1    3    3    0    0  0.11935678285E+02 -0.13575191056E+02 -0.22089082366E+02  0.28542490928E+02  0.51100000000E-03 0.  1.
         12    1    3    3    0    0 -0.37216287514E+01 -0.87660110786E+01 -0.82310232110E+01  0.12587422846E+02  0.00000000000E+00 0. -1.
</event>
<event>
 7    1  0.4519840E-010  0.4778727E+02  0.7816164E-02  0.1312668E+00
        -11   -1    0    0    0    0  0.00000000000E+00  0.00000000000E+00  0.45593999997E+02  0.45594000000E+02  0.51100000000E-03 0. -1.
         11   -1    0    0    0    0 -0.00000000000E+00 -0.00000000000E+00 -0.45593999997E+02  0.45594000000E+02  0.51100000000E-03 0.  1.
    9900012    2    1    2    0    0 -0.16355990172E+02 -0.16519532746E+02  0.36649828233E+02  0.47787270903E+02  0.19999999355E+02 0.  0.
        -12    1    1    2    0    0  0.16355990172E+02  0.16519532746E+02 -0.36649828233E+02  0.43400729097E+02  0.00000000000E+00 0.  1.
         11    1    3    3    0    0 -0.24685744662E+01 -0.38723257121E+00  0.13552928270E+01  0.28426445201E+01  0.51100000000E-03 0. -1.
        -11    1    3    3    0    0 -0.70974225687E+01 -0.17591715764E+02  0.17366640691E+02  0.25718516283E+02  0.51100000000E-03 0.  1.
         12    1    3    3    0    0 -0.67899931374E+01  0.14594155896E+01  0.17927894715E+02  0.19226110100E+02  0.00000000000E+00 0. -1.
</event>
<event>
 7    1  0.4519840E-010  0.4778728E+02  0.7816164E-02  0.1312668E+00
        -11   -1    0    0    0    0  0.00000000000E+00  0.00000000000E+00  0.45593999997E+02  0.45594000000E+02  0.51100000000E-03 0.  1.
         11   -1    0    0    0    0 -0.00000000000E+00 -0.00000000000E+00 -0.45593999997E+02  0.45594000000E+02  0.51100000000E-03 0. -1.
    9900012    2    1    2    0    0 -0.14390719278E+02  0.36248574757E+02  0.19041291481E+02  0.47787277028E+02  0.20000027279E+02 0.  0.
        -12    1    1    2    0    0  0.14390719278E+02 -0.36248574757E+02 -0.19041291481E+02  0.43400722972E+02  0.00000000000E+00 0.  1.
         11    1    3    3    0    0 -0.99557356862E+01  0.13644078317E+02  0.23020841720E+00  0.16891729999E+02  0.51100000000E-03 0. -1.
        -11    1    3    3    0    0  0.21338544581E+01  0.43730592743E+01  0.20735175390E+01  0.52892775982E+01  0.51100000000E-03 0.  1.
         12    1    3    3    0    0 -0.65688380502E+01  0.18231437166E+02  0.16737565525E+02  0.25606269430E+02  0.00000000000E+00 0. -1.
</event>
<event>
 7    1  0.4519840E-010  0.4778727E+02  0.7816164E-02  0.1312668E+00
        -11   -1    0    0    0    0  0.00000000000E+00  0.00000000000E+00  0.45593999997E+02  0.45594000000E+02  0.51100000000E-03 0. -1.
         11   -1    0    0    0    0 -0.00000000000E+00 -0.00000000000E+00 -0.45593999997E+02  0.45594000000E+02  0.51100000000E-03 0.  1.
    9900012    2    1    2    0    0  0.34866962879E+02  0.25794804668E+02  0.15957617084E+01  0.47787268397E+02  0.19999987929E+02 0.  0.
        -12    1    1    2    0    0 -0.34866962879E+02 -0.25794804668E+02 -0.15957617084E+01  0.43400731603E+02  0.00000000000E+00 0.  1.
         11    1    3    3    0    0  0.31446232095E+02  0.17668606353E+02 -0.74316964324E+00  0.36077658805E+02  0.51100000000E-03 0. -1.
        -11    1    3    3    0    0  0.32215307015E+01 -0.82380402710E-01  0.22259387230E+00  0.32302623554E+01  0.51100000000E-03 0.  1.
        -12    1    3    3    0    0  0.19920008222E+00  0.82085787178E+01  0.21163374794E+01  0.84793472370E+01  0.00000000000E+00 0.  1.
</event>
<event>
 7    1  0.4519840E-010  0.4778727E+02  0.7816164E-02  0.1312668E+00
        -11   -1    0    0    0    0  0.00000000000E+00  0.00000000000E+00  0.45593999997E+02  0.45594000000E+02  0.51100000000E-03 0. -1.
         11   -1    0    0    0    0 -0.00000000000E+00 -0.00000000000E+00 -0.45593999997E+02  0.45594000000E+02  0.51100000000E-03 0.  1.
    9900012    2    1    2    0    0  0.89129918470E+01  0.14367147666E+01 -0.42451356767E+02  0.47787271154E+02  0.20000000502E+02 0.  0.
         12    1    1    2    0    0 -0.89129918470E+01 -0.14367147666E+01  0.42451356767E+02  0.43400728846E+02  0.00000000000E+00 0. -1.
         11    1    3    3    0    0  0.27688497152E+01  0.17089292513E+01 -0.39752018774E+01  0.51370417711E+01  0.51100000000E-03 0. -1.
        -11    1    3    3    0    0  0.96375333376E+01 -0.26336249798E+01 -0.11030454208E+02  0.14882504818E+02  0.51100000000E-03 0.  1.
         12    1    3    3    0    0 -0.34933912057E+01  0.23614104950E+01 -0.27445700681E+02  0.27767724565E+02  0.00000000000E+00 0. -1.
</event>
<event>
 7    1  0.4519840E-010  0.4778727E+02  0.7816164E-02  0.1312668E+00
        -11   -1    0    0    0    0  0.00000000000E+00  0.00000000000E+00  0.45593999997E+02  0.45594000000E+02  0.51100000000E-03 0. -1.
         11   -1    0    0    0    0 -0.00000000000E+00 -0.00000000000E+00 -0.45593999997E+02  0.45594000000E+02  0.51100000000E-03 0.  1.
    9900012    2    1    2    0    0  0.13436161907E+02 -0.29325095896E+02 -0.29036728146E+02  0.47787271003E+02  0.19999999810E+02 0.  0.
         12    1    1    2    0    0 -0.13436161907E+02  0.29325095896E+02  0.29036728146E+02  0.43400728997E+02  0.00000000000E+00 0. -1.
         11    1    3    3    0    0  0.49679906156E+01 -0.67133744737E+01 -0.20654902484E+01  0.86032887786E+01  0.51100000000E-03 0. -1.
        -11    1    3    3    0    0  0.86264326242E+01 -0.13310983400E+02 -0.73760414423E+01  0.17492958769E+02  0.51100000000E-03 0.  1.
        -12    1    3    3    0    0 -0.15826133281E+00 -0.93007380223E+01 -0.19595196455E+02  0.21691023455E+02  0.00000000000E+00 0.  1.
</event>
<event>
 7    1  0.4519840E-010  0.4778727E+02  0.7816164E-02  0.1312668E+00
        -11   -1    0    0    0    0  0.00000000000E+00  0.00000000000E+00  0.45593999997E+02  0.45594000000E+02  0.51100000000E-03 0. -1.
         11   -1    0    0    0    0 -0.00000000000E+00 -0.00000000000E+00 -0.45593999997E+02  0.45594000000E+02  0.51100000000E-03 0.  1.
    9900012    2    1    2    0    0  0.17861925730E+02  0.73118655661E+01  0.38873017617E+02  0.47787271118E+02  0.20000000333E+02 0.  0.
        -12    1    1    2    0    0 -0.17861925730E+02 -0.73118655661E+01 -0.38873017617E+02  0.43400728882E+02  0.00000000000E+00 0.  1.
         11    1    3    3    0    0  0.31022203256E+01  0.43562320931E+01  0.14557261819E+02  0.15508526717E+02  0.51100000000E-03 0. -1.
        -11    1    3    3    0    0  0.66954534961E+00 -0.11431405181E+01  0.14644202798E+02  0.14704004117E+02  0.51100000000E-03 0.  1.
        -12    1    3    3    0    0  0.14090160055E+02  0.40987739911E+01  0.96715529999E+01  0.17574740283E+02  0.00000000000E+00 0.  1.
</event>
<event>
 7    1  0.5258039E-010  0.4778727E+02  0.7816164E-02  0.1312668E+00
        -11   -1    0    0    0    0  0.00000000000E+00  0.00000000000E+00  0.45593999997E+02  0.45594000000E+02  0.51100000000E-03 0. -1.
         11   -1    0    0    0    0 -0.00000000000E+00 -0.00000000000E+00 -0.45593999997E+02  0.45594000000E+02  0.51100000000E-03 0.  1.
    9900012    2    1    2    0    0  0.55352715751E+01 -0.29473691930E+02 -0.31373331411E+02  0.47787266467E+02  0.19999979129E+02 0.  0.
         12    1    1    2    0    0 -0.55352715751E+01  0.29473691930E+02  0.31373331411E+02  0.43400733533E+02  0.00000000000E+00 0. -1.
         11    1    3    3    0    0 -0.39324253446E+01 -0.34735958911E+01 -0.51568136272E+01  0.73568039632E+01  0.51100000000E-03 0. -1.
        -11    1    3    3    0    0 -0.54359223883E+00 -0.16760899948E+02 -0.17605158214E+02  0.24313881953E+02  0.51100000000E-03 0.  1.
        -12    1    3    3    0    0  0.10011289159E+02 -0.92391960906E+01 -0.86113595695E+01  0.16116580551E+02  0.00000000000E+00 0.  1.
</event>
<event>
 7    1  0.4519840E-010  0.4778727E+02  0.7816164E-02  0.1312668E+00
        -11   -1    0    0    0    0  0.00000000000E+00  0.00000000000E+00  0.45593999997E+02  0.45594000000E+02  0.51100000000E-03 0. -1.
         11   -1    0    0    0    0 -0.00000000000E+00 -0.00000000000E+00 -0.45593999997E+02  0.45594000000E+02  0.51100000000E-03 0.  1.
    9900012    2    1    2    0    0  0.28941642906E+02  0.14178957658E+02 -0.29068226530E+02  0.47787270422E+02  0.19999997160E+02 0.  0.
         12    1    1    2    0    0 -0.28941642906E+02 -0.14178957658E+02  0.29068226530E+02  0.43400729578E+02  0.00000000000E+00 0. -1.
         11    1    3    3    0    0  0.16490807254E+02  0.11902574495E+02 -0.27313671537E+02  0.34053702538E+02  0.51100000000E-03 0.  1.
        -11    1    3    3    0    0  0.38750480514E+01  0.13270835921E+00 -0.28698106207E+01  0.48238389452E+01  0.51100000000E-03 0. -1.
        -12    1    3    3    0    0  0.85757876004E+01  0.21436748040E+01  0.11152556278E+01  0.89097289379E+01  0.00000000000E+00 0.  1.
</event>
<event>
 7    1  0.4519840E-010  0.4778728E+02  0.7816164E-02  0.1312668E+00
        -11   -1    0    0    0    0  0.00000000000E+00  0.00000000000E+00  0.45593999997E+02  0.45594000000E+02  0.51100000000E-03 0. -1.
         11   -1    0    0    0    0 -0.00000000000E+00 -0.00000000000E+00 -0.45593999997E+02  0.45594000000E+02  0.51100000000E-03 0.  1.
    9900012    2    1    2    0    0 -0.16465137297E+02 -0.30337963745E+02 -0.26308361989E+02  0.47787277645E+02  0.20000030094E+02 0.  0.
         12    1    1    2    0    0  0.16465137297E+02  0.30337963745E+02  0.26308361989E+02  0.43400722355E+02  0.00000000000E+00 0. -1.
         11    1    3    3    0    0 -0.26553954930E+01 -0.28911741043E+01 -0.93661054469E+00  0.40357468328E+01  0.51100000000E-03 0. -1.
        -11    1    3    3    0    0 -0.12225088345E+02 -0.27240681826E+02 -0.27831757198E+02  0.40818062673E+02  0.51100000000E-03 0.  1.
        -12    1    3    3    0    0 -0.15846534589E+01 -0.20610781439E+00  0.24600057534E+01  0.29334681390E+01  0.00000000000E+00 0.  1.
</event>
<event>
 7    1  0.4519840E-010  0.4778727E+02  0.7816164E-02  0.1312668E+00
        -11   -1    0    0    0    0  0.00000000000E+00  0.00000000000E+00  0.45593999997E+02  0.45594000000E+02  0.51100000000E-03 0. -1.
         11   -1    0    0    0    0 -0.00000000000E+00 -0.00000000000E+00 -0.45593999997E+02  0.45594000000E+02  0.51100000000E-03 0.  1.
    9900012    2    1    2    0    0 -0.27081321199E+02 -0.19461612393E+02 -0.27775363619E+02  0.47787272598E+02  0.20000007085E+02 0.  0.
         12    1    1    2    0    0  0.27081321199E+02  0.19461612393E+02  0.27775363619E+02  0.43400727402E+02  0.00000000000E+00 0. -1.
         11    1    3    3    0    0 -0.74307860967E+01  0.45291680323E+00  0.84054288552E+00  0.74918774849E+01  0.51100000000E-03 0. -1.
        -11    1    3    3    0    0 -0.68417566629E+01 -0.69618923065E+01 -0.69146587790E+01  0.11962026794E+02  0.51100000000E-03 0.  1.
         12    1    3    3    0    0 -0.12808778440E+02 -0.12952636890E+02 -0.21701247725E+02  0.28333368320E+02  0.00000000000E+00 0. -1.
</event>
<event>
 7    1  0.4519840E-010  0.4778727E+02  0.7816164E-02  0.1312668E+00
        -11   -1    0    0    0    0  0.00000000000E+00  0.00000000000E+00  0.45593999997E+02  0.45594000000E+02  0.51100000000E-03 0. -1.
         11   -1    0    0    0    0 -0.00000000000E+00 -0.00000000000E+00 -0.45593999997E+02  0.45594000000E+02  0.51100000000E-03 0.  1.
    9900012    2    1    2    0    0 -0.12560491156E+02 -0.17784910392E+02  0.37544029255E+02  0.47787272951E+02  0.20000008691E+02 0.  0.
        -12    1    1    2    0    0  0.12560491156E+02  0.17784910392E+02 -0.37544029255E+02  0.43400727049E+02  0.00000000000E+00 0.  1.
         11    1    3    3    0    0 -0.69313117914E+01 -0.66571358671E+01  0.23533548040E+02  0.25420236520E+02  0.51100000000E-03 0. -1.
        -11    1    3    3    0    0 -0.83896936167E+01 -0.10963393164E+02  0.13913080836E+02  0.19599917532E+02  0.51100000000E-03 0.  1.
        -12    1    3    3    0    0  0.27605142518E+01 -0.16438136057E+00  0.97400378697E-01  0.27671188988E+01  0.00000000000E+00 0.  1.
</event>
<event>
 7    1  0.4519840E-010  0.4778727E+02  0.7816164E-02  0.1312668E+00
        -11   -1    0    0    0    0  0.00000000000E+00  0.00000000000E+00  0.45593999997E+02  0.45594000000E+02  0.51100000000E-03 0. -1.
         11   -1    0    0    0    0 -0.00000000000E+00 -0.00000000000E+00 -0.45593999997E+02  0.45594000000E+02  0.51100000000E-03 0.  1.
    9900012    2    1    2    0    0 -0.26493698768E+02  0.30108737151E+02 -0.16588294746E+02  0.47787266714E+02  0.19999980254E+02 0.  0.
         12    1    1    2    0    0  0.26493698768E+02 -0.30108737151E+02  0.16588294746E+02  0.43400733286E+02  0.00000000000E+00 0. -1.
         11    1    3    3    0    0 -0.54665857792E+01  0.13192164395E+01 -0.64308593443E+01  0.85428241386E+01  0.51100000000E-03 0. -1.
        -11    1    3    3    0    0 -0.46079197053E+01  0.33830392120E+01 -0.66844746555E+01  0.87954579188E+01  0.51100000000E-03 0.  1.
         12    1    3    3    0    0 -0.16419193283E+02  0.25406481499E+02 -0.34729607466E+01  0.30448984656E+02  0.00000000000E+00 0. -1.
</event>
<event>
 7    1  0.4519840E-010  0.4778728E+02  0.7816164E-02  0.1312668E+00
        -11   -1    0    0    0    0  0.00000000000E+00  0.00000000000E+00  0.45593999997E+02  0.45594000000E+02  0.51100000000E-03 0. -1.
         11   -1    0    0    0    0 -0.00000000000E+00 -0.00000000000E+00 -0.45593999997E+02  0.45594000000E+02  0.51100000000E-03 0.  1.
    9900012    2    1    2    0    0  0.11027277966E+02 -0.12296916171E+02  0.40134870310E+02  0.47787276256E+02  0.20000023763E+02 0.  0.
        -12    1    1    2    0    0 -0.11027277966E+02  0.12296916171E+02 -0.40134870310E+02  0.43400723744E+02  0.00000000000E+00 0.  1.
         11    1    3    3    0    0 -0.21584330328E+00  0.71702647468E+00  0.49979282503E+01  0.50537117402E+01  0.51100000000E-03 0. -1.
        -11    1    3    3    0    0  0.31470574013E-02 -0.77840012924E+01  0.26512508911E+02  0.27631572793E+02  0.51100000000E-03 0.  1.
         12    1    3    3    0    0  0.11239974212E+02 -0.52299413536E+01  0.86244331489E+01  0.15101991723E+02  0.00000000000E+00 0. -1.
</event>
<event>
 7    1  0.4519840E-010  0.4778727E+02  0.7816164E-02  0.1312668E+00
        -11   -1    0    0    0    0  0.00000000000E+00  0.00000000000E+00  0.45593999997E+02  0.45594000000E+02  0.51100000000E-03 0. -1.
         11   -1    0    0    0    0 -0.00000000000E+00 -0.00000000000E+00 -0.45593999997E+02  0.45594000000E+02  0.51100000000E-03 0.  1.
    9900012    2    1    2    0    0  0.11338367680E+01 -0.41012120638E+02  0.14154290636E+02  0.47787267651E+02  0.19999984528E+02 0.  0.
        -12    1    1    2    0    0 -0.11338367680E+01  0.41012120638E+02 -0.14154290636E+02  0.43400732349E+02  0.00000000000E+00 0.  1.
         11    1    3    3    0    0 -0.54023843417E+00  0.67031176038E-01  0.41065877509E+00  0.68190295130E+00  0.51100000000E-03 0. -1.
        -11    1    3    3    0    0 -0.65593982104E+01 -0.24956869902E+02  0.28105844262E+01  0.25957088536E+02  0.51100000000E-03 0.  1.
         12    1    3    3    0    0  0.82334734126E+01 -0.16122281911E+02  0.10933047435E+02  0.21148276163E+02  0.00000000000E+00 0. -1.
</event>
<event>
 7    1  0.4519840E-010  0.4778727E+02  0.7816164E-02  0.1312668E+00
        -11   -1    0    0    0    0  0.00000000000E+00  0.00000000000E+00  0.45593999997E+02  0.45594000000E+02  0.51100000000E-03 0. -1.
         11   -1    0    0    0    0 -0.00000000000E+00 -0.00000000000E+00 -0.45593999997E+02  0.45594000000E+02  0.51100000000E-03 0.  1.
    9900012    2    1    2    0    0  0.24188512673E+02 -0.24374795742E+02  0.26540697532E+02  0.47787269150E+02  0.19999991364E+02 0.  0.
        -12    1    1    2    0    0 -0.24188512673E+02  0.24374795742E+02 -0.26540697532E+02  0.43400730850E+02  0.00000000000E+00 0.  1.
         11    1    3    3    0    0 -0.63940269358E+00  0.12657145316E+01  0.16998651287E+01  0.22136871497E+01  0.51100000000E-03 0. -1.
        -11    1    3    3    0    0  0.15713353755E+02 -0.72665680490E+01  0.81725581776E+01  0.19144273422E+02  0.51100000000E-03 0.  1.
         12    1    3    3    0    0  0.91145616114E+01 -0.18373942224E+02  0.16668274226E+02  0.26429308578E+02  0.00000000000E+00 0. -1.
</event>
<event>
 7    1  0.4519840E-010  0.4778727E+02  0.7816164E-02  0.1312668E+00
        -11   -1    0    0    0    0  0.00000000000E+00  0.00000000000E+00  0.45593999997E+02  0.45594000000E+02  0.51100000000E-03 0. -1.
         11   -1    0    0    0    0 -0.00000000000E+00 -0.00000000000E+00 -0.45593999997E+02  0.45594000000E+02  0.51100000000E-03 0.  1.
    9900012    2    1    2    0    0  0.26773569585E+02  0.32975535152E+02 -0.89114377618E+01  0.47787266482E+02  0.19999979198E+02 0.  0.
         12    1    1    2    0    0 -0.26773569585E+02 -0.32975535152E+02  0.89114377618E+01  0.43400733518E+02  0.00000000000E+00 0. -1.
         11    1    3    3    0    0  0.54207368146E+01  0.44007773454E+01 -0.59277440169E+01  0.91591144903E+01  0.51100000000E-03 0. -1.
        -11    1    3    3    0    0 -0.16675673928E+01  0.18118022316E+01  0.17356337078E+01  0.30126123157E+01  0.51100000000E-03 0.  1.
        -12    1    3    3    0    0  0.23020400164E+02  0.26762955575E+02 -0.47193274527E+01  0.35615539676E+02  0.00000000000E+00 0.  1.
</event>
<event>
 7    1  0.4519840E-010  0.4778727E+02  0.7816164E-02  0.1312668E+00
        -11   -1    0    0    0    0  0.00000000000E+00  0.00000000000E+00  0.45593999997E+02  0.45594000000E+02  0.51100000000E-03 0. -1.
         11   -1    0    0    0    0 -0.00000000000E+00 -0.00000000000E+00 -0.45593999997E+02  0.45594000000E+02  0.51100000000E-03 0.  1.
    9900012    2    1    2    0    0  0.16220325147E+01 -0.21402153179E+01 -0.43317569750E+02  0.47787270051E+02  0.19999995471E+02 0.  0.
         12    1    1    2    0    0 -0.16220325147E+01  0.21402153179E+01  0.43317569750E+02  0.43400729949E+02  0.00000000000E+00 0. -1.
         11    1    3    3    0    0  0.28791333287E+01  0.10741198396E+01 -0.37375582365E+02  0.37501697289E+02  0.51100000000E-03 0. -1.
        -11    1    3    3    0    0  0.25653009424E+01 -0.31509336613E+01 -0.48144210323E+01  0.62998255532E+01  0.51100000000E-03 0.  1.
         12    1    3    3    0    0 -0.38224017564E+01 -0.63401496224E-01 -0.11275663521E+01  0.39857472092E+01  0.00000000000E+00 0. -1.
</event>
<event>
 7    1  0.4519840E-010  0.4778728E+02  0.7816164E-02  0.1312668E+00
        -11   -1    0    0    0    0  0.00000000000E+00  0.00000000000E+00  0.45593999997E+02  0.45594000000E+02  0.51100000000E-03 0. -1.
         11   -1    0    0    0    0 -0.00000000000E+00 -0.00000000000E+00 -0.45593999997E+02  0.45594000000E+02  0.51100000000E-03 0.  1.
    9900012    2    1    2    0    0  0.94074009108E+01 -0.95652609489E+01  0.41275046486E+02  0.47787275682E+02  0.20000021143E+02 0.  0.
        -12    1    1    2    0    0 -0.94074009108E+01  0.95652609489E+01 -0.41275046486E+02  0.43400724318E+02  0.00000000000E+00 0.  1.
         11    1    3    3    0    0  0.12475079587E+01  0.28522711141E+01  0.55008893285E+01  0.63207207090E+01  0.51100000000E-03 0. -1.
        -11    1    3    3    0    0 -0.27884209827E+01 -0.75149705455E+01  0.20726911894E+02  0.22222847495E+02  0.51100000000E-03 0.  1.
         12    1    3    3    0    0  0.10948313935E+02 -0.49025615175E+01  0.15047245264E+02  0.19243707477E+02  0.00000000000E+00 0. -1.
</event>
<event>
 7    1  0.4519840E-010  0.4778727E+02  0.7816164E-02  0.1312668E+00
        -11   -1    0    0    0    0  0.00000000000E+00  0.00000000000E+00  0.45593999997E+02  0.45594000000E+02  0.51100000000E-03 0.  1.
         11   -1    0    0    0    0 -0.00000000000E+00 -0.00000000000E+00 -0.45593999997E+02  0.45594000000E+02  0.51100000000E-03 0. -1.
    9900012    2    1    2    0    0 -0.40503862586E+02  0.15331136999E+02  0.28313208778E+01  0.47787273924E+02  0.20000013127E+02 0.  0.
        -12    1    1    2    0    0  0.40503862586E+02 -0.15331136999E+02 -0.28313208778E+01  0.43400726076E+02  0.00000000000E+00 0.  1.
         11    1    3    3    0    0 -0.16866494180E+02  0.36026410941E+01  0.15177221342E+01  0.17313611106E+02  0.51100000000E-03 0. -1.
        -11    1    3    3    0    0 -0.34531668286E+01 -0.36731167396E+01  0.57010280564E+00  0.50735751891E+01  0.51100000000E-03 0.  1.
        -12    1    3    3    0    0 -0.20184201577E+02  0.15401612644E+02  0.74349593794E+00  0.25400087629E+02  0.00000000000E+00 0.  1.
</event>
<event>
 7    1  0.4519840E-010  0.4778728E+02  0.7816164E-02  0.1312668E+00
        -11   -1    0    0    0    0  0.00000000000E+00  0.00000000000E+00  0.45593999997E+02  0.45594000000E+02  0.51100000000E-03 0. -1.
         11   -1    0    0    0    0 -0.00000000000E+00 -0.00000000000E+00 -0.45593999997E+02  0.45594000000E+02  0.51100000000E-03 0.  1.
    9900012    2    1    2    0    0 -0.42246299540E+01 -0.39978920245E+02  0.16354240608E+02  0.47787277102E+02  0.20000027619E+02 0.  0.
        -12    1    1    2    0    0  0.42246299540E+01  0.39978920245E+02 -0.16354240608E+02  0.43400722898E+02  0.00000000000E+00 0.  1.
         11    1    3    3    0    0 -0.55226528759E+01 -0.19075218728E+02  0.48492664483E+00  0.19864511532E+02  0.51100000000E-03 0. -1.
        -11    1    3    3    0    0  0.23540856030E+01 -0.46784577099E+01  0.50211568199E-01  0.52375764465E+01  0.51100000000E-03 0.  1.
        -12    1    3    3    0    0 -0.10560626811E+01 -0.16225243808E+02  0.15819102395E+02  0.22685189124E+02  0.00000000000E+00 0.  1.
</event>
<event>
 7    1  0.4519840E-010  0.4778727E+02  0.7816164E-02  0.1312668E+00
        -11   -1    0    0    0    0  0.00000000000E+00  0.00000000000E+00  0.45593999997E+02  0.45594000000E+02  0.51100000000E-03 0. -1.
         11   -1    0    0    0    0 -0.00000000000E+00 -0.00000000000E+00 -0.45593999997E+02  0.45594000000E+02  0.51100000000E-03 0.  1.
    9900012    2    1    2    0    0  0.24067906728E+02 -0.16975214231E+02 -0.31877918050E+02  0.47787266232E+02  0.19999978056E+02 0.  0.
         12    1    1    2    0    0 -0.24067906728E+02  0.16975214231E+02  0.31877918050E+02  0.43400733768E+02  0.00000000000E+00 0. -1.
         11    1    3    3    0    0  0.84379375351E+01 -0.34666015021E+01  0.13184727671E+00  0.91232395445E+01  0.51100000000E-03 0. -1.
        -11    1    3    3    0    0 -0.36839122618E+00 -0.61703110307E+00 -0.31919036761E+01  0.32718020747E+01  0.51100000000E-03 0.  1.
        -12    1    3    3    0    0  0.15998360419E+02 -0.12891581626E+02 -0.28817861651E+02  0.35392224612E+02  0.00000000000E+00 0.  1.
</event>
<event>
 7    1  0.4519840E-010  0.4778727E+02  0.7816164E-02  0.1312668E+00
        -11   -1    0    0    0    0  0.00000000000E+00  0.00000000000E+00  0.45593999997E+02  0.45594000000E+02  0.51100000000E-03 0. -1.
         11   -1    0    0    0    0 -0.00000000000E+00 -0.00000000000E+00 -0.45593999997E+02  0.45594000000E+02  0.51100000000E-03 0.  1.
    9900012    2    1    2    0    0  0.29930148358E+02  0.29004488649E+01 -0.31295317756E+02  0.47787270769E+02  0.19999998742E+02 0.  0.
         12    1    1    2    0    0 -0.29930148358E+02 -0.29004488649E+01  0.31295317756E+02  0.43400729231E+02  0.00000000000E+00 0. -1.
         11    1    3    3    0    0  0.16623937781E+02 -0.82976028564E+00 -0.95428514829E+01  0.19186188369E+02  0.51100000000E-03 0. -1.
        -11    1    3    3    0    0  0.15374141670E+02  0.32812929083E+01 -0.21238313366E+02  0.26423418971E+02  0.51100000000E-03 0.  1.
        -12    1    3    3    0    0 -0.20679310919E+01  0.44891624220E+00 -0.51415290726E+00  0.21776634280E+01  0.00000000000E+00 0.  1.
</event>
<event>
 7    1  0.4519840E-010  0.4778727E+02  0.7816164E-02  0.1312668E+00
        -11   -1    0    0    0    0  0.00000000000E+00  0.00000000000E+00  0.45593999997E+02  0.45594000000E+02  0.51100000000E-03 0. -1.
         11   -1    0    0    0    0 -0.00000000000E+00 -0.00000000000E+00 -0.45593999997E+02  0.45594000000E+02  0.51100000000E-03 0.  1.
    9900012    2    1    2    0    0  0.72837119621E+01  0.25685637598E+02 -0.34217229851E+02  0.47787271233E+02  0.20000000861E+02 0.  0.
         12    1    1    2    0    0 -0.72837119621E+01 -0.25685637598E+02  0.34217229851E+02  0.43400728767E+02  0.00000000000E+00 0. -1.
         11    1    3    3    0    0 -0.33413460536E+00  0.14659451349E+02 -0.10041855857E+02  0.17772170073E+02  0.51100000000E-03 0. -1.
        -11    1    3    3    0    0  0.15330736571E+01  0.11549026098E+02 -0.16698782423E+02  0.20361229170E+02  0.51100000000E-03 0.  1.
         12    1    3    3    0    0  0.60847729104E+01 -0.52283984842E+00 -0.74765915718E+01  0.96538719906E+01  0.00000000000E+00 0. -1.
</event>
<event>
 7    1  0.4519840E-010  0.4778727E+02  0.7816164E-02  0.1312668E+00
        -11   -1    0    0    0    0  0.00000000000E+00  0.00000000000E+00  0.45593999997E+02  0.45594000000E+02  0.51100000000E-03 0. -1.
         11   -1    0    0    0    0 -0.00000000000E+00 -0.00000000000E+00 -0.45593999997E+02  0.45594000000E+02  0.51100000000E-03 0.  1.
    9900012    2    1    2    0    0 -0.39636381811E-01  0.22676341664E+02 -0.37005480544E+02  0.47787266912E+02  0.19999981157E+02 0.  0.
         12    1    1    2    0    0  0.39636381811E-01 -0.22676341664E+02  0.37005480544E+02  0.43400733088E+02  0.00000000000E+00 0. -1.
         11    1    3    3    0    0 -0.29716651541E+01  0.18021873522E+01 -0.11938585846E+02  0.12434166852E+02  0.51100000000E-03 0. -1.
        -11    1    3    3    0    0  0.22672842412E+01  0.16936791896E+01  0.98380276417E+00  0.29961634080E+01  0.51100000000E-03 0.  1.
        -12    1    3    3    0    0  0.66474453114E+00  0.19180475123E+02 -0.26050697462E+02  0.32356936651E+02  0.00000000000E+00 0.  1.
</event>
<event>
 7    1  0.4519840E-010  0.4778727E+02  0.7816164E-02  0.1312668E+00
        -11   -1    0    0    0    0  0.00000000000E+00  0.00000000000E+00  0.45593999997E+02  0.45594000000E+02  0.51100000000E-03 0. -1.
         11   -1    0    0    0    0 -0.00000000000E+00 -0.00000000000E+00 -0.45593999997E+02  0.45594000000E+02  0.51100000000E-03 0.  1.
    9900012    2    1    2    0    0 -0.24868416595E+01  0.21800439319E+02 -0.37445686275E+02  0.47787274700E+02  0.20000016669E+02 0.  0.
         12    1    1    2    0    0  0.24868416595E+01 -0.21800439319E+02  0.37445686275E+02  0.43400725300E+02  0.00000000000E+00 0. -1.
         11    1    3    3    0    0 -0.35353833436E+00 -0.72123455745E+00 -0.55253093722E+00  0.97491504165E+00  0.51100000000E-03 0. -1.
        -11    1    3    3    0    0 -0.73654656329E+01  0.18294213432E+02 -0.17790295547E+02  0.26559799416E+02  0.51100000000E-03 0.  1.
         12    1    3    3    0    0  0.52321623078E+01  0.42274604445E+01 -0.19102859791E+02  0.20252560243E+02  0.00000000000E+00 0. -1.
</event>
<event>
 7    1  0.4519840E-010  0.4778728E+02  0.7816164E-02  0.1312668E+00
        -11   -1    0    0    0    0  0.00000000000E+00  0.00000000000E+00  0.45593999997E+02  0.45594000000E+02  0.51100000000E-03 0. -1.
         11   -1    0    0    0    0 -0.00000000000E+00 -0.00000000000E+00 -0.45593999997E+02  0.45594000000E+02  0.51100000000E-03 0.  1.
    9900012    2    1    2    0    0  0.28208266715E+02 -0.18390500973E+02  0.27380751854E+02  0.47787281007E+02  0.20000045422E+02 0.  0.
        -12    1    1    2    0    0 -0.28208266715E+02  0.18390500973E+02 -0.27380751854E+02  0.43400718993E+02  0.00000000000E+00 0.  1.
         11    1    3    3    0    0  0.35376101032E+01 -0.19382725200E+01 -0.28186638899E+01  0.49210214376E+01  0.51100000000E-03 0. -1.
        -11    1    3    3    0    0  0.43556755148E+00 -0.18725254470E+01  0.83361747008E+00  0.20954686801E+01  0.51100000000E-03 0.  1.
         12    1    3    3    0    0  0.24235089060E+02 -0.14579703006E+02  0.29365798273E+02  0.40770790889E+02  0.00000000000E+00 0. -1.
</event>
<event>
 7    1  0.4519840E-010  0.4778727E+02  0.7816164E-02  0.1312668E+00
        -11   -1    0    0    0    0  0.00000000000E+00  0.00000000000E+00  0.45593999997E+02  0.45594000000E+02  0.51100000000E-03 0. -1.
         11   -1    0    0    0    0 -0.00000000000E+00 -0.00000000000E+00 -0.45593999997E+02  0.45594000000E+02  0.51100000000E-03 0.  1.
    9900012    2    1    2    0    0 -0.17707476398E+02 -0.25986399455E+02  0.29912801893E+02  0.47787269659E+02  0.19999993684E+02 0.  0.
        -12    1    1    2    0    0  0.17707476398E+02  0.25986399455E+02 -0.29912801893E+02  0.43400730341E+02  0.00000000000E+00 0.  1.
         11    1    3    3    0    0 -0.50487422213E+01 -0.43167067907E+01  0.48400490648E-01  0.66427478052E+01  0.51100000000E-03 0. -1.
        -11    1    3    3    0    0  0.15117235776E+01 -0.90474781951E+01  0.77901443143E+01  0.12034472093E+02  0.51100000000E-03 0.  1.
         12    1    3    3    0    0 -0.14170457754E+02 -0.12622214469E+02  0.22074257088E+02  0.29110049761E+02  0.00000000000E+00 0. -1.
</event>
<event>
 7    1  0.4519840E-010  0.4778726E+02  0.7816164E-02  0.1312668E+00
        -11   -1    0    0    0    0  0.00000000000E+00  0.00000000000E+00  0.45593999997E+02  0.45594000000E+02  0.51100000000E-03 0. -1.
         11   -1    0    0    0    0 -0.00000000000E+00 -0.00000000000E+00 -0.45593999997E+02  0.45594000000E+02  0.51100000000E-03 0.  1.
    9900012    2    1    2    0    0 -0.11602495438E+01 -0.14979217680E+02 -0.40717326572E+02  0.47787264701E+02  0.19999971078E+02 0.  0.
         12    1    1    2    0    0  0.11602495438E+01  0.14979217680E+02  0.40717326572E+02  0.43400735299E+02  0.00000000000E+00 0. -1.
         11    1    3    3    0    0  0.27313470042E+01 -0.40237011601E+01 -0.16956913658E+02  0.17640503070E+02  0.51100000000E-03 0. -1.
        -11    1    3    3    0    0  0.38186808221E+01 -0.71768417635E+01 -0.50767306621E+01  0.95844966168E+01  0.51100000000E-03 0.  1.
         12    1    3    3    0    0 -0.77102773701E+01 -0.37786747567E+01 -0.18683682252E+02  0.20562265015E+02  0.00000000000E+00 0. -1.
</event>
<event>
 7    1  0.4519840E-010  0.4778728E+02  0.7816164E-02  0.1312668E+00
        -11   -1    0    0    0    0  0.00000000000E+00  0.00000000000E+00  0.45593999997E+02  0.45594000000E+02  0.51100000000E-03 0. -1.
         11   -1    0    0    0    0 -0.00000000000E+00 -0.00000000000E+00 -0.45593999997E+02  0.45594000000E+02  0.51100000000E-03 0.  1.
    9900012    2    1    2    0    0 -0.64727349431E+01 -0.27756250019E+02  0.32730979658E+02  0.47787277170E+02  0.20000027931E+02 0.  0.
        -12    1    1    2    0    0  0.64727349431E+01  0.27756250019E+02 -0.32730979658E+02  0.43400722830E+02  0.00000000000E+00 0.  1.
         11    1    3    3    0    0 -0.99123710424E+01 -0.21795393986E+02  0.23241490491E+02  0.33368565734E+02  0.51100000000E-03 0. -1.
        -11    1    3    3    0    0  0.20838236532E+00 -0.45310927280E+01  0.26840858226E+00  0.45438164518E+01  0.51100000000E-03 0.  1.
         12    1    3    3    0    0  0.32312537340E+01 -0.14297633059E+01  0.92210805848E+01  0.98748949845E+01  0.00000000000E+00 0. -1.
</event>
<event>
 7    1  0.4519840E-010  0.4778727E+02  0.7816164E-02  0.1312668E+00
        -11   -1    0    0    0    0  0.00000000000E+00  0.00000000000E+00  0.45593999997E+02  0.45594000000E+02  0.51100000000E-03 0. -1.
         11   -1    0    0    0    0 -0.00000000000E+00 -0.00000000000E+00 -0.45593999997E+02  0.45594000000E+02  0.51100000000E-03 0.  1.
    9900012    2    1    2    0    0  0.41701844407E+02 -0.49393712186E+01  0.10962762308E+02  0.47787269909E+02  0.19999994823E+02 0.  0.
        -12    1    1    2    0    0 -0.41701844407E+02  0.49393712186E+01 -0.10962762308E+02  0.43400730091E+02  0.00000000000E+00 0.  1.
         11    1    3    3    0    0  0.21197651202E+01  0.68990754384E-01  0.15941648966E+01  0.26532104832E+01  0.51100000000E-03 0. -1.
        -11    1    3    3    0    0 -0.14397093351E+01 -0.15712245316E+01  0.26874880534E+01  0.34298836419E+01  0.51100000000E-03 0.  1.
        -12    1    3    3    0    0  0.41021788622E+02 -0.34371374414E+01  0.66811093584E+01  0.41704175784E+02  0.00000000000E+00 0.  1.
</event>
<event>
 7    1  0.4519840E-010  0.4778727E+02  0.7816164E-02  0.1312668E+00
        -11   -1    0    0    0    0  0.00000000000E+00  0.00000000000E+00  0.45593999997E+02  0.45594000000E+02  0.51100000000E-03 0. -1.
         11   -1    0    0    0    0 -0.00000000000E+00 -0.00000000000E+00 -0.45593999997E+02  0.45594000000E+02  0.51100000000E-03 0.  1.
    9900012    2    1    2    0    0 -0.60113484078E+01 -0.25594726729E+02  0.34531098545E+02  0.47787272901E+02  0.20000008464E+02 0.  0.
        -12    1    1    2    0    0  0.60113484078E+01  0.25594726729E+02 -0.34531098545E+02  0.43400727099E+02  0.00000000000E+00 0.  1.
         11    1    3    3    0    0 -0.51819020940E+01 -0.12123710510E+01  0.34542526272E+01  0.63445893761E+01  0.51100000000E-03 0. -1.
        -11    1    3    3    0    0 -0.45469705994E+01 -0.24572037082E+01  0.54072225249E+01  0.74800299057E+01  0.51100000000E-03 0.  1.
         12    1    3    3    0    0  0.37175242856E+01 -0.21925151970E+02  0.25669623393E+02  0.33962653619E+02  0.00000000000E+00 0. -1.
</event>
<event>
 7    1  0.4519840E-010  0.4778727E+02  0.7816164E-02  0.1312668E+00
        -11   -1    0    0    0    0  0.00000000000E+00  0.00000000000E+00  0.45593999997E+02  0.45594000000E+02  0.51100000000E-03 0. -1.
         11   -1    0    0    0    0 -0.00000000000E+00 -0.00000000000E+00 -0.45593999997E+02  0.45594000000E+02  0.51100000000E-03 0.  1.
    9900012    2    1    2    0    0  0.15775124630E+02  0.14251112705E+02  0.37837478488E+02  0.47787267878E+02  0.19999985563E+02 0.  0.
        -12    1    1    2    0    0 -0.15775124630E+02 -0.14251112705E+02 -0.37837478488E+02  0.43400732122E+02  0.00000000000E+00 0.  1.
         11    1    3    3    0    0  0.12719222105E+02  0.10882046725E+02  0.21791064411E+02  0.27478137497E+02  0.51100000000E-03 0. -1.
        -11    1    3    3    0    0  0.20379034073E+01  0.73339912673E+01  0.13471041420E+02  0.15472861255E+02  0.51100000000E-03 0.  1.
         12    1    3    3    0    0  0.10179991176E+01 -0.39649252874E+01  0.25753726563E+01  0.48362691258E+01  0.00000000000E+00 0. -1.
</event>
<event>
 7    1  0.4519840E-010  0.4778727E+02  0.7816164E-02  0.1312668E+00
        -11   -1    0    0    0    0  0.00000000000E+00  0.00000000000E+00  0.45593999997E+02  0.45594000000E+02  0.51100000000E-03 0. -1.
         11   -1    0    0    0    0 -0.00000000000E+00 -0.00000000000E+00 -0.45593999997E+02  0.45594000000E+02  0.51100000000E-03 0.  1.
    9900012    2    1    2    0    0 -0.25115846624E+02 -0.80513272784E+01  0.34467283882E+02  0.47787270965E+02  0.19999999636E+02 0.  0.
        -12    1    1    2    0    0  0.25115846624E+02  0.80513272784E+01 -0.34467283882E+02  0.43400729035E+02  0.00000000000E+00 0.  1.
         11    1    3    3    0    0 -0.10153562114E+02 -0.33492334844E+01  0.67994896305E+01  0.12670645131E+02  0.51100000000E-03 0. -1.
        -11    1    3    3    0    0 -0.37146233331E+01 -0.58544905194E+01  0.22366554586E+01  0.72853355207E+01  0.51100000000E-03 0.  1.
        -12    1    3    3    0    0 -0.11247661177E+02  0.11523967254E+01  0.25431138793E+02  0.27831290313E+02  0.00000000000E+00 0.  1.
</event>
<event>
 7    1  0.4519840E-010  0.4778727E+02  0.7816164E-02  0.1312668E+00
        -11   -1    0    0    0    0  0.00000000000E+00  0.00000000000E+00  0.45593999997E+02  0.45594000000E+02  0.51100000000E-03 0. -1.
         11   -1    0    0    0    0 -0.00000000000E+00 -0.00000000000E+00 -0.45593999997E+02  0.45594000000E+02  0.51100000000E-03 0.  1.
    9900012    2    1    2    0    0 -0.35476537311E+02  0.79578415319E+01  0.23700444264E+02  0.47787274203E+02  0.20000014402E+02 0.  0.
        -12    1    1    2    0    0  0.35476537311E+02 -0.79578415319E+01 -0.23700444264E+02  0.43400725797E+02  0.00000000000E+00 0.  1.
         11    1    3    3    0    0 -0.69280104617E+01 -0.36063865726E+01  0.96200851532E+01  0.12391504819E+02  0.51100000000E-03 0. -1.
        -11    1    3    3    0    0 -0.17826169808E+01 -0.13015325673E+01 -0.57229706034E+00  0.22801829993E+01  0.51100000000E-03 0.  1.
        -12    1    3    3    0    0 -0.26765909868E+02  0.12865760672E+02  0.14652656171E+02  0.33115586385E+02  0.00000000000E+00 0.  1.
</event>
<event>
 7    1  0.4519840E-010  0.4778727E+02  0.7816164E-02  0.1312668E+00
        -11   -1    0    0    0    0  0.00000000000E+00  0.00000000000E+00  0.45593999997E+02  0.45594000000E+02  0.51100000000E-03 0. -1.
         11   -1    0    0    0    0 -0.00000000000E+00 -0.00000000000E+00 -0.45593999997E+02  0.45594000000E+02  0.51100000000E-03 0.  1.
    9900012    2    1    2    0    0  0.35917272239E+02 -0.29544827654E+01 -0.24183541827E+02  0.47787272946E+02  0.20000008672E+02 0.  0.
         12    1    1    2    0    0 -0.35917272239E+02  0.29544827654E+01  0.24183541827E+02  0.43400727054E+02  0.00000000000E+00 0. -1.
         11    1    3    3    0    0  0.58736272266E+01 -0.44178473515E+01 -0.57872196033E+01  0.93546129271E+01  0.51100000000E-03 0. -1.
        -11    1    3    3    0    0  0.19014105560E+02 -0.55731403055E+01 -0.15179012997E+02  0.24959938680E+02  0.51100000000E-03 0.  1.
        -12    1    3    3    0    0  0.11029539452E+02  0.70365048916E+01 -0.32173092269E+01  0.13472721339E+02  0.00000000000E+00 0.  1.
</event>
<event>
 7    1  0.4519840E-010  0.4778727E+02  0.7816164E-02  0.1312668E+00
        -11   -1    0    0    0    0  0.00000000000E+00  0.00000000000E+00  0.45593999997E+02  0.45594000000E+02  0.51100000000E-03 0. -1.
         11   -1    0    0    0    0 -0.00000000000E+00 -0.00000000000E+00 -0.45593999997E+02  0.45594000000E+02  0.51100000000E-03 0.  1.
    9900012    2    1    2    0    0  0.20002537653E+02  0.17490899066E+02 -0.34316036697E+02  0.47787269162E+02  0.19999991418E+02 0.  0.
         12    1    1    2    0    0 -0.20002537653E+02 -0.17490899066E+02  0.34316036697E+02  0.43400730838E+02  0.00000000000E+00 0. -1.
         11    1    3    3    0    0  0.50987876465E+01  0.57833552068E+01 -0.14004367555E+02  0.15986467521E+02  0.51100000000E-03 0. -1.
        -11    1    3    3    0    0  0.11422982048E+02  0.41038784715E+01 -0.20045678526E+02  0.23434068473E+02  0.51100000000E-03 0.  1.
         12    1    3    3    0    0  0.34807679581E+01  0.76036653876E+01 -0.26599061597E+00  0.83667331685E+01  0.00000000000E+00 0. -1.
</event>
<event>
 7    1  0.4519840E-010  0.4778727E+02  0.7816164E-02  0.1312668E+00
        -11   -1    0    0    0    0  0.00000000000E+00  0.00000000000E+00  0.45593999997E+02  0.45594000000E+02  0.51100000000E-03 0.  1.
         11   -1    0    0    0    0 -0.00000000000E+00 -0.00000000000E+00 -0.45593999997E+02  0.45594000000E+02  0.51100000000E-03 0. -1.
    9900012    2    1    2    0    0  0.34871834771E+02 -0.25764724925E+02  0.19384350254E+01  0.47787269118E+02  0.19999991216E+02 0.  0.
         12    1    1    2    0    0 -0.34871834771E+02  0.25764724925E+02 -0.19384350254E+01  0.43400730882E+02  0.00000000000E+00 0. -1.
         11    1    3    3    0    0  0.51993109957E+01 -0.64305009302E+00 -0.18936005296E+00  0.52423473505E+01  0.51100000000E-03 0. -1.
        -11    1    3    3    0    0  0.24566202450E+02 -0.11990683327E+02 -0.31126449276E+01  0.27512966910E+02  0.51100000000E-03 0.  1.
         12    1    3    3    0    0  0.51063213248E+01 -0.13130991505E+02  0.52404400060E+01  0.15031954857E+02  0.00000000000E+00 0. -1.
</event>
<event>
 7    1  0.5720217E-010  0.4778727E+02  0.7816164E-02  0.1312668E+00
        -11   -1    0    0    0    0  0.00000000000E+00  0.00000000000E+00  0.45593999997E+02  0.45594000000E+02  0.51100000000E-03 0. -1.
         11   -1    0    0    0    0 -0.00000000000E+00 -0.00000000000E+00 -0.45593999997E+02  0.45594000000E+02  0.51100000000E-03 0.  1.
    9900012    2    1    2    0    0 -0.23005434965E+02 -0.32158369949E+02 -0.17894472702E+02  0.47787274787E+02  0.20000017065E+02 0.  0.
         12    1    1    2    0    0  0.23005434965E+02  0.32158369949E+02  0.17894472702E+02  0.43400725213E+02  0.00000000000E+00 0. -1.
         11    1    3    3    0    0  0.16074387296E+01 -0.76484277320E+01 -0.16169598330E+01  0.79810316002E+01  0.51100000000E-03 0. -1.
        -11    1    3    3    0    0 -0.23262346278E+01  0.65048249533E+00  0.98632634413E-01  0.24174829219E+01  0.51100000000E-03 0.  1.
        -12    1    3    3    0    0 -0.22286639066E+02 -0.25160424712E+02 -0.16376145504E+02  0.37388760265E+02  0.00000000000E+00 0.  1.
</event>
<event>
 7    1  0.4519840E-010  0.4778727E+02  0.7816164E-02  0.1312668E+00
        -11   -1    0    0    0    0  0.00000000000E+00  0.00000000000E+00  0.45593999997E+02  0.45594000000E+02  0.51100000000E-03 0. -1.
         11   -1    0    0    0    0 -0.00000000000E+00 -0.00000000000E+00 -0.45593999997E+02  0.45594000000E+02  0.51100000000E-03 0.  1.
    9900012    2    1    2    0    0 -0.18904588864E+02  0.34228842093E+02 -0.18831516064E+02  0.47787272951E+02  0.20000008691E+02 0.  0.
         12    1    1    2    0    0  0.18904588864E+02 -0.34228842093E+02  0.18831516064E+02  0.43400727049E+02  0.00000000000E+00 0. -1.
         11    1    3    3    0    0  0.63828439061E+00  0.56598558422E+00  0.48308835775E+00  0.98036792448E+00  0.51100000000E-03 0. -1.
        -11    1    3    3    0    0 -0.22052966768E+02  0.27666949743E+02 -0.12856912703E+02  0.37644304428E+02  0.51100000000E-03 0.  1.
        -12    1    3    3    0    0  0.25100935136E+01  0.59959067659E+01 -0.64576917183E+01  0.91626005982E+01  0.00000000000E+00 0.  1.
</event>
<event>
 7    1  0.4519840E-010  0.4778726E+02  0.7816164E-02  0.1312668E+00
        -11   -1    0    0    0    0  0.00000000000E+00  0.00000000000E+00  0.45593999997E+02  0.45594000000E+02  0.51100000000E-03 0. -1.
         11   -1    0    0    0    0 -0.00000000000E+00 -0.00000000000E+00 -0.45593999997E+02  0.45594000000E+02  0.51100000000E-03 0.  1.
    9900012    2    1    2    0    0  0.12591444272E+02  0.24835507918E+02  0.33290793945E+02  0.47787264017E+02  0.19999967958E+02 0.  0.
        -12    1    1    2    0    0 -0.12591444272E+02 -0.24835507918E+02 -0.33290793945E+02  0.43400735983E+02  0.00000000000E+00 0.  1.
         11    1    3    3    0    0  0.20787456884E+01 -0.62656953794E+00  0.90691309824E+01  0.93253906117E+01  0.51100000000E-03 0. -1.
        -11    1    3    3    0    0 -0.46874449274E+00  0.32352680308E+01 -0.66276849452E+00  0.33355573700E+01  0.51100000000E-03 0.  1.
         12    1    3    3    0    0  0.10981443077E+02  0.22226809425E+02  0.24884431457E+02  0.35126316035E+02  0.00000000000E+00 0. -1.
</event>
<event>
 7    1  0.4519840E-010  0.4778727E+02  0.7816164E-02  0.1312668E+00
        -11   -1    0    0    0    0  0.00000000000E+00  0.00000000000E+00  0.45593999997E+02  0.45594000000E+02  0.51100000000E-03 0. -1.
         11   -1    0    0    0    0 -0.00000000000E+00 -0.00000000000E+00 -0.45593999997E+02  0.45594000000E+02  0.51100000000E-03 0.  1.
    9900012    2    1    2    0    0  0.18365095682E+02 -0.10460259490E+02 -0.37906854045E+02  0.47787270149E+02  0.19999995919E+02 0.  0.
         12    1    1    2    0    0 -0.18365095682E+02  0.10460259490E+02  0.37906854045E+02  0.43400729851E+02  0.00000000000E+00 0. -1.
         11    1    3    3    0    0  0.54525724579E+01  0.81078051484E+00 -0.44599942589E+01  0.70908011185E+01  0.51100000000E-03 0. -1.
        -11    1    3    3    0    0  0.14768573789E+02 -0.48618249241E+01 -0.28222418160E+02  0.32221933530E+02  0.51100000000E-03 0.  1.
         12    1    3    3    0    0 -0.18560505651E+01 -0.64092150809E+01 -0.52244416260E+01  0.84745355010E+01  0.00000000000E+00 0. -1.
</event>
<event>
 7    1  0.4519840E-010  0.4778727E+02  0.7816164E-02  0.1312668E+00
        -11   -1    0    0    0    0  0.00000000000E+00  0.00000000000E+00  0.45593999997E+02  0.45594000000E+02  0.51100000000E-03 0. -1.
         11   -1    0    0    0    0 -0.00000000000E+00 -0.00000000000E+00 -0.45593999997E+02  0.45594000000E+02  0.51100000000E-03 0.  1.
    9900012    2    1    2    0    0 -0.37559685590E+02  0.12981256985E+02 -0.17446493148E+02  0.47787272613E+02  0.20000007153E+02 0.  0.
         12    1    1    2    0    0  0.37559685590E+02 -0.12981256985E+02  0.17446493148E+02  0.43400727387E+02  0.00000000000E+00 0. -1.
         11    1    3    3    0    0 -0.96001975566E+01  0.35655462503E+01 -0.19696216685E+01  0.10428629966E+02  0.51100000000E-03 0. -1.
        -11    1    3    3    0    0 -0.14802504142E+02 -0.35408100883E+01 -0.95369807420E+01  0.17961221197E+02  0.51100000000E-03 0.  1.
         12    1    3    3    0    0 -0.13156983892E+02  0.12956520823E+02 -0.59398907373E+01  0.19397421451E+02  0.00000000000E+00 0. -1.
</event>
<event>
 7    1  0.4519840E-010  0.4778727E+02  0.7816164E-02  0.1312668E+00
        -11   -1    0    0    0    0  0.00000000000E+00  0.00000000000E+00  0.45593999997E+02  0.45594000000E+02  0.51100000000E-03 0. -1.
         11   -1    0    0    0    0 -0.00000000000E+00 -0.00000000000E+00 -0.45593999997E+02  0.45594000000E+02  0.51100000000E-03 0.  1.
    9900012    2    1    2    0    0  0.19709044571E+01 -0.84788520519E+01 -0.42518791586E+02  0.47787273803E+02  0.20000012577E+02 0.  0.
         12    1    1    2    0    0 -0.19709044571E+01  0.84788520519E+01  0.42518791586E+02  0.43400726197E+02  0.00000000000E+00 0. -1.
         11    1    3    3    0    0 -0.24778462739E+01 -0.31904300012E+01 -0.27328546527E+01  0.48771980238E+01  0.51100000000E-03 0. -1.
        -11    1    3    3    0    0 -0.85402730445E+00  0.46371246129E+01 -0.96172115770E+01  0.10710884468E+02  0.51100000000E-03 0.  1.
        -12    1    3    3    0    0  0.53027780355E+01 -0.99255466636E+01 -0.30168725356E+02  0.32199191311E+02  0.00000000000E+00 0.  1.
</event>
<event>
 7    1  0.4519840E-010  0.4778727E+02  0.7816164E-02  0.1312668E+00
        -11   -1    0    0    0    0  0.00000000000E+00  0.00000000000E+00  0.45593999997E+02  0.45594000000E+02  0.51100000000E-03 0. -1.
         11   -1    0    0    0    0 -0.00000000000E+00 -0.00000000000E+00 -0.45593999997E+02  0.45594000000E+02  0.51100000000E-03 0.  1.
    9900012    2    1    2    0    0  0.13212767903E+02 -0.39692614440E+02  0.11556046036E+02  0.47787273316E+02  0.20000010358E+02 0.  0.
        -12    1    1    2    0    0 -0.13212767903E+02  0.39692614440E+02 -0.11556046036E+02  0.43400726684E+02  0.00000000000E+00 0.  1.
         11    1    3    3    0    0  0.39236807162E+01 -0.96651301447E+01  0.64526464649E+01  0.12265669885E+02  0.51100000000E-03 0. -1.
        -11    1    3    3    0    0 -0.41451506118E+01 -0.10517249627E+02  0.32425621471E+01  0.11760485655E+02  0.51100000000E-03 0.  1.
         12    1    3    3    0    0  0.13434237798E+02 -0.19510234668E+02  0.18608374240E+01  0.23761117776E+02  0.00000000000E+00 0. -1.
</event>
<event>
 7    1  0.4519840E-010  0.4778727E+02  0.7816164E-02  0.1312668E+00
        -11   -1    0    0    0    0  0.00000000000E+00  0.00000000000E+00  0.45593999997E+02  0.45594000000E+02  0.51100000000E-03 0. -1.
         11   -1    0    0    0    0 -0.00000000000E+00 -0.00000000000E+00 -0.45593999997E+02  0.45594000000E+02  0.51100000000E-03 0.  1.
    9900012    2    1    2    0    0  0.96860414016E+01 -0.33681523799E+02  0.25599972897E+02  0.47787273557E+02  0.20000011456E+02 0.  0.
        -12    1    1    2    0    0 -0.96860414016E+01  0.33681523799E+02 -0.25599972897E+02  0.43400726443E+02  0.00000000000E+00 0.  1.
         11    1    3    3    0    0  0.80638060303E+01 -0.20941808610E+02  0.14255756751E+02  0.26585915752E+02  0.51100000000E-03 0. -1.
        -11    1    3    3    0    0  0.58669687535E+01 -0.62910138532E+01  0.15674102622E+01  0.87438522888E+01  0.51100000000E-03 0.  1.
        -12    1    3    3    0    0 -0.42447333822E+01 -0.64487013355E+01  0.97768058841E+01  0.12457505517E+02  0.00000000000E+00 0.  1.
</event>
<event>
 7    1  0.4519840E-010  0.4778727E+02  0.7816164E-02  0.1312668E+00
        -11   -1    0    0    0    0  0.00000000000E+00  0.00000000000E+00  0.45593999997E+02  0.45594000000E+02  0.51100000000E-03 0. -1.
         11   -1    0    0    0    0 -0.00000000000E+00 -0.00000000000E+00 -0.45593999997E+02  0.45594000000E+02  0.51100000000E-03 0.  1.
    9900012    2    1    2    0    0 -0.20316207620E+02  0.14974238505E+01 -0.38322742497E+02  0.47787272325E+02  0.20000005837E+02 0.  0.
         12    1    1    2    0    0  0.20316207620E+02 -0.14974238505E+01  0.38322742497E+02  0.43400727675E+02  0.00000000000E+00 0. -1.
         11    1    3    3    0    0  0.72135489380E+00  0.64932937515E+00 -0.27324464748E+01  0.28996974875E+01  0.51100000000E-03 0. -1.
        -11    1    3    3    0    0 -0.23118262718E+02  0.34854018168E+01 -0.27302176849E+02  0.35944553939E+02  0.51100000000E-03 0.  1.
        -12    1    3    3    0    0  0.20807002041E+01 -0.26373073414E+01 -0.82881191735E+01  0.89430208983E+01  0.00000000000E+00 0.  1.
</event>
<event>
 7    1  0.4519840E-010  0.4778726E+02  0.7816164E-02  0.1312668E+00
        -11   -1    0    0    0    0  0.00000000000E+00  0.00000000000E+00  0.45593999997E+02  0.45594000000E+02  0.51100000000E-03 0.  1.
         11   -1    0    0    0    0 -0.00000000000E+00 -0.00000000000E+00 -0.45593999997E+02  0.45594000000E+02  0.51100000000E-03 0. -1.
    9900012    2    1    2    0    0 -0.37928172712E+02  0.62416152588E+00  0.21087639823E+02  0.47787257884E+02  0.19999939998E+02 0.  0.
         12    1    1    2    0    0  0.37928172712E+02 -0.62416152588E+00 -0.21087639823E+02  0.43400742116E+02  0.00000000000E+00 0. -1.
         11    1    3    3    0    0 -0.10066045443E+02 -0.62556770032E+01  0.93072620201E+01  0.15069302977E+02  0.51100000000E-03 0. -1.
        -11    1    3    3    0    0  0.20092301944E+00 -0.11476530835E+01 -0.17050846194E+00  0.11775190260E+01  0.51100000000E-03 0.  1.
        -12    1    3    3    0    0 -0.28063050289E+02  0.80274916126E+01  0.11950886264E+02  0.31540435882E+02  0.00000000000E+00 0.  1.
</event>
<event>
 7    1  0.4519840E-010  0.4778727E+02  0.7816164E-02  0.1312668E+00
        -11   -1    0    0    0    0  0.00000000000E+00  0.00000000000E+00  0.45593999997E+02  0.45594000000E+02  0.51100000000E-03 0. -1.
         11   -1    0    0    0    0 -0.00000000000E+00 -0.00000000000E+00 -0.45593999997E+02  0.45594000000E+02  0.51100000000E-03 0.  1.
    9900012    2    1    2    0    0 -0.81146862878E+01 -0.17151194425E+02  0.39033466840E+02  0.47787272618E+02  0.20000007172E+02 0.  0.
        -12    1    1    2    0    0  0.81146862878E+01  0.17151194425E+02 -0.39033466840E+02  0.43400727382E+02  0.00000000000E+00 0.  1.
         11    1    3    3    0    0 -0.57799814080E+01 -0.22759986253E+01  0.18246010842E+01  0.64743744251E+01  0.51100000000E-03 0.  1.
        -11    1    3    3    0    0 -0.56593881048E+01 -0.52942303849E+01  0.17811797933E+02  0.19424667177E+02  0.51100000000E-03 0. -1.
        -12    1    3    3    0    0  0.33246832250E+01 -0.95809654150E+01  0.19397067823E+02  0.21888231015E+02  0.00000000000E+00 0.  1.
</event>
<event>
 7    1  0.4519840E-010  0.4778727E+02  0.7816164E-02  0.1312668E+00
        -11   -1    0    0    0    0  0.00000000000E+00  0.00000000000E+00  0.45593999997E+02  0.45594000000E+02  0.51100000000E-03 0. -1.
         11   -1    0    0    0    0 -0.00000000000E+00 -0.00000000000E+00 -0.45593999997E+02  0.45594000000E+02  0.51100000000E-03 0.  1.
    9900012    2    1    2    0    0  0.29404850269E+02  0.30721348018E+02 -0.86704692124E+01  0.47787268673E+02  0.19999989186E+02 0.  0.
         12    1    1    2    0    0 -0.29404850269E+02 -0.30721348018E+02  0.86704692124E+01  0.43400731327E+02  0.00000000000E+00 0. -1.
         11    1    3    3    0    0  0.57962617792E+01  0.98388665835E+01 -0.93510686449E+00  0.11457502842E+02  0.51100000000E-03 0. -1.
        -11    1    3    3    0    0 -0.67397279368E+00  0.56968863108E+01 -0.49097626649E+01  0.75507961601E+01  0.51100000000E-03 0.  1.
         12    1    3    3    0    0  0.24282561283E+02  0.15185595124E+02 -0.28255996830E+01  0.28778969671E+02  0.00000000000E+00 0. -1.
</event>
<event>
 7    1  0.4519840E-010  0.4778732E+02  0.7816164E-02  0.1312668E+00
        -11   -1    0    0    0    0  0.00000000000E+00  0.00000000000E+00  0.45593999997E+02  0.45594000000E+02  0.51100000000E-03 0. -1.
         11   -1    0    0    0    0 -0.00000000000E+00 -0.00000000000E+00 -0.45593999997E+02  0.45594000000E+02  0.51100000000E-03 0.  1.
    9900012    2    1    2    0    0  0.72151645161E+01 -0.12071824347E+02  0.41058873181E+02  0.47787324787E+02  0.20000245034E+02 0.  0.
        -12    1    1    2    0    0 -0.72151645161E+01  0.12071824347E+02 -0.41058873181E+02  0.43400675213E+02  0.00000000000E+00 0.  1.
         11    1    3    3    0    0  0.38240391222E+01 -0.65656110771E+00  0.20037074470E+02  0.20409279784E+02  0.51100000000E-03 0. -1.
        -11    1    3    3    0    0  0.20352968815E+01 -0.34756107268E+01  0.18506701934E+02  0.18939913412E+02  0.51100000000E-03 0.  1.
        -12    1    3    3    0    0  0.13558285124E+01 -0.79396525121E+01  0.25150967764E+01  0.84381315919E+01  0.00000000000E+00 0.  1.
</event>
<event>
 7    1  0.4519840E-010  0.4778728E+02  0.7816164E-02  0.1312668E+00
        -11   -1    0    0    0    0  0.00000000000E+00  0.00000000000E+00  0.45593999997E+02  0.45594000000E+02  0.51100000000E-03 0.  1.
         11   -1    0    0    0    0 -0.00000000000E+00 -0.00000000000E+00 -0.45593999997E+02  0.45594000000E+02  0.51100000000E-03 0. -1.
    9900012    2    1    2    0    0  0.13481129675E+01  0.41783606911E+02  0.11659132535E+02  0.47787278963E+02  0.20000036104E+02 0.  0.
        -12    1    1    2    0    0 -0.13481129675E+01 -0.41783606911E+02 -0.11659132535E+02  0.43400721037E+02  0.00000000000E+00 0.  1.
         11    1    3    3    0    0 -0.15098539871E+01  0.30233771822E+01  0.48918148779E+01  0.59456136528E+01  0.51100000000E-03 0. -1.
        -11    1    3    3    0    0  0.65925029057E+01  0.16048395323E+02  0.72896819880E+01  0.18818914707E+02  0.51100000000E-03 0.  1.
         12    1    3    3    0    0 -0.37345359511E+01  0.22711834405E+02 -0.52236433090E+00  0.23022750603E+02  0.00000000000E+00 0. -1.
</event>
<event>
 7    1  0.4519840E-010  0.4778727E+02  0.7816164E-02  0.1312668E+00
        -11   -1    0    0    0    0  0.00000000000E+00  0.00000000000E+00  0.45593999997E+02  0.45594000000E+02  0.51100000000E-03 0. -1.
         11   -1    0    0    0    0 -0.00000000000E+00 -0.00000000000E+00 -0.45593999997E+02  0.45594000000E+02  0.51100000000E-03 0.  1.
    9900012    2    1    2    0    0  0.30873349965E+02  0.13562037440E+02 -0.27322710650E+02  0.47787272876E+02  0.20000008351E+02 0.  0.
         12    1    1    2    0    0 -0.30873349965E+02 -0.13562037440E+02  0.27322710650E+02  0.43400727124E+02  0.00000000000E+00 0. -1.
         11    1    3    3    0    0  0.24178195809E-01  0.49824486733E+00 -0.14184416611E+01  0.15035988627E+01  0.51100000000E-03 0. -1.
        -11    1    3    3    0    0  0.11116635810E+02 -0.17032174685E+01 -0.10728150424E+01  0.11297410050E+02  0.51100000000E-03 0.  1.
        -12    1    3    3    0    0  0.19732535960E+02  0.14767010041E+02 -0.24831453947E+02  0.34986263963E+02  0.00000000000E+00 0.  1.
</event>
<event>
 7    1  0.4519840E-010  0.4778727E+02  0.7816164E-02  0.1312668E+00
        -11   -1    0    0    0    0  0.00000000000E+00  0.00000000000E+00  0.45593999997E+02  0.45594000000E+02  0.51100000000E-03 0. -1.
         11   -1    0    0    0    0 -0.00000000000E+00 -0.00000000000E+00 -0.45593999997E+02  0.45594000000E+02  0.51100000000E-03 0.  1.
    9900012    2    1    2    0    0 -0.32842321364E+02  0.15972802381E+02  0.23449409008E+02  0.47787271074E+02  0.20000000134E+02 0.  0.
        -12    1    1    2    0    0  0.32842321364E+02 -0.15972802381E+02 -0.23449409008E+02  0.43400728926E+02  0.00000000000E+00 0.  1.
         11    1    3    3    0    0 -0.27266945776E+01  0.55815732134E+00  0.74583458476E+00  0.28814358233E+01  0.51100000000E-03 0. -1.
        -11    1    3    3    0    0 -0.15499004414E+02  0.85248555658E+00  0.17953805591E+02  0.23733626038E+02  0.51100000000E-03 0.  1.
        -12    1    3    3    0    0 -0.14616622372E+02  0.14562159503E+02  0.47497688324E+01  0.21172209213E+02  0.00000000000E+00 0.  1.
</event>
<event>
 7    1  0.4519840E-010  0.4778727E+02  0.7816164E-02  0.1312668E+00
        -11   -1    0    0    0    0  0.00000000000E+00  0.00000000000E+00  0.45593999997E+02  0.45594000000E+02  0.51100000000E-03 0. -1.
         11   -1    0    0    0    0 -0.00000000000E+00 -0.00000000000E+00 -0.45593999997E+02  0.45594000000E+02  0.51100000000E-03 0.  1.
    9900012    2    1    2    0    0 -0.23329879783E+02  0.36454398554E+02  0.32274838980E+01  0.47787272853E+02  0.20000008244E+02 0.  0.
         12    1    1    2    0    0  0.23329879783E+02 -0.36454398554E+02 -0.32274838980E+01  0.43400727147E+02  0.00000000000E+00 0. -1.
         11    1    3    3    0    0 -0.86947084211E+01  0.17574862823E+01 -0.15518977495E+01  0.90052817528E+01  0.51100000000E-03 0. -1.
        -11    1    3    3    0    0 -0.11508179338E+02  0.20825664800E+02  0.40791292842E-01  0.23793868332E+02  0.51100000000E-03 0.  1.
        -12    1    3    3    0    0 -0.31269920238E+01  0.13871247472E+02  0.47385903547E+01  0.14988122768E+02  0.00000000000E+00 0.  1.
</event>
<event>
 7    1  0.4519840E-010  0.4778725E+02  0.7816164E-02  0.1312668E+00
        -11   -1    0    0    0    0  0.00000000000E+00  0.00000000000E+00  0.45593999997E+02  0.45594000000E+02  0.51100000000E-03 0. -1.
         11   -1    0    0    0    0 -0.00000000000E+00 -0.00000000000E+00 -0.45593999997E+02  0.45594000000E+02  0.51100000000E-03 0.  1.
    9900012    2    1    2    0    0  0.51655082767E+01 -0.26345482632E+02  0.34100704961E+02  0.47787251046E+02  0.19999908819E+02 0.  0.
        -12    1    1    2    0    0 -0.51655082767E+01  0.26345482632E+02 -0.34100704961E+02  0.43400748954E+02  0.00000000000E+00 0.  1.
         11    1    3    3    0    0 -0.33714303452E+01 -0.52467505310E+01  0.13587392769E+02  0.14950323616E+02  0.51100000000E-03 0. -1.
        -11    1    3    3    0    0  0.18941676324E+01  0.40164957118E+00  0.53817056839E+01  0.57194361371E+01  0.51100000000E-03 0.  1.
         12    1    3    3    0    0  0.66427709895E+01 -0.21500381673E+02  0.15131606509E+02  0.27117491293E+02  0.00000000000E+00 0. -1.
</event>
<event>
 7    1  0.4519840E-010  0.4778727E+02  0.7816164E-02  0.1312668E+00
        -11   -1    0    0    0    0  0.00000000000E+00  0.00000000000E+00  0.45593999997E+02  0.45594000000E+02  0.51100000000E-03 0. -1.
         11   -1    0    0    0    0 -0.00000000000E+00 -0.00000000000E+00 -0.45593999997E+02  0.45594000000E+02  0.51100000000E-03 0.  1.
    9900012    2    1    2    0    0  0.12834643984E+02  0.13943961321E+02 -0.39044350422E+02  0.47787269092E+02  0.19999991098E+02 0.  0.
         12    1    1    2    0    0 -0.12834643984E+02 -0.13943961321E+02  0.39044350422E+02  0.43400730908E+02  0.00000000000E+00 0. -1.
         11    1    3    3    0    0  0.75397087285E+01  0.73480121469E+01 -0.10533044291E+02  0.14892464958E+02  0.51100000000E-03 0. -1.
        -11    1    3    3    0    0  0.66359138396E+01  0.82478525025E+01 -0.11042988950E+02  0.15297386332E+02  0.51100000000E-03 0.  1.
         12    1    3    3    0    0 -0.13409785846E+01 -0.16519033286E+01 -0.17468317181E+02  0.17597417802E+02  0.00000000000E+00 0. -1.
</event>
<event>
 7    1  0.4519840E-010  0.4778727E+02  0.7816164E-02  0.1312668E+00
        -11   -1    0    0    0    0  0.00000000000E+00  0.00000000000E+00  0.45593999997E+02  0.45594000000E+02  0.51100000000E-03 0. -1.
         11   -1    0    0    0    0 -0.00000000000E+00 -0.00000000000E+00 -0.45593999997E+02  0.45594000000E+02  0.51100000000E-03 0.  1.
    9900012    2    1    2    0    0  0.31613303585E+02  0.12281121509E+02  0.27081296251E+02  0.47787268258E+02  0.19999987297E+02 0.  0.
        -12    1    1    2    0    0 -0.31613303585E+02 -0.12281121509E+02 -0.27081296251E+02  0.43400731742E+02  0.00000000000E+00 0.  1.
         11    1    3    3    0    0  0.11174032473E+02  0.14369223071E+02  0.11130380405E+02  0.21335860461E+02  0.51100000000E-03 0. -1.
        -11    1    3    3    0    0  0.56968353917E+01  0.13111796833E+01  0.31925533678E+01  0.66607449215E+01  0.51100000000E-03 0.  1.
        -12    1    3    3    0    0  0.14742435720E+02 -0.33992812451E+01  0.12758362479E+02  0.19790662876E+02  0.00000000000E+00 0.  1.
</event>
<event>
 7    1  0.4519840E-010  0.4778727E+02  0.7816164E-02  0.1312668E+00
        -11   -1    0    0    0    0  0.00000000000E+00  0.00000000000E+00  0.45593999997E+02  0.45594000000E+02  0.51100000000E-03 0. -1.
         11   -1    0    0    0    0 -0.00000000000E+00 -0.00000000000E+00 -0.45593999997E+02  0.45594000000E+02  0.51100000000E-03 0.  1.
    9900012    2    1    2    0    0  0.23518498431E+02 -0.11385424557E+01 -0.36458293302E+02  0.47787271920E+02  0.20000003993E+02 0.  0.
         12    1    1    2    0    0 -0.23518498431E+02  0.11385424557E+01  0.36458293302E+02  0.43400728080E+02  0.00000000000E+00 0. -1.
         11    1    3    3    0    0  0.11337675199E+02 -0.14343434045E+01 -0.12131991658E+02  0.16666896585E+02  0.51100000000E-03 0. -1.
        -11    1    3    3    0    0  0.10604453232E+02  0.33123835130E+01 -0.25256454870E+02  0.27591934070E+02  0.51100000000E-03 0.  1.
        -12    1    3    3    0    0  0.15763699995E+01 -0.30165825641E+01  0.93015322496E+00  0.35284412654E+01  0.00000000000E+00 0.  1.
</event>
<event>
 7    1  0.4519840E-010  0.4778727E+02  0.7816164E-02  0.1312668E+00
        -11   -1    0    0    0    0  0.00000000000E+00  0.00000000000E+00  0.45593999997E+02  0.45594000000E+02  0.51100000000E-03 0. -1.
         11   -1    0    0    0    0 -0.00000000000E+00 -0.00000000000E+00 -0.45593999997E+02  0.45594000000E+02  0.51100000000E-03 0.  1.
    9900012    2    1    2    0    0 -0.36613643009E+02  0.25618769762E+01  0.23162489224E+02  0.47787274487E+02  0.20000015694E+02 0.  0.
        -12    1    1    2    0    0  0.36613643009E+02 -0.25618769762E+01 -0.23162489224E+02  0.43400725513E+02  0.00000000000E+00 0.  1.
         11    1    3    3    0    0 -0.18637676525E+02  0.19956415913E+01  0.16719904505E+02  0.25117738324E+02  0.51100000000E-03 0. -1.
        -11    1    3    3    0    0 -0.13583207603E+02  0.58947853498E+01  0.48644995530E+01  0.15585742820E+02  0.51100000000E-03 0.  1.
        -12    1    3    3    0    0 -0.43927588813E+01 -0.53285499648E+01  0.15780851657E+01  0.70837933416E+01  0.00000000000E+00 0.  1.
</event>
<event>
 7    1  0.4519840E-010  0.4778727E+02  0.7816164E-02  0.1312668E+00
        -11   -1    0    0    0    0  0.00000000000E+00  0.00000000000E+00  0.45593999997E+02  0.45594000000E+02  0.51100000000E-03 0. -1.
         11   -1    0    0    0    0 -0.00000000000E+00 -0.00000000000E+00 -0.45593999997E+02  0.45594000000E+02  0.51100000000E-03 0.  1.
    9900012    2    1    2    0    0  0.20836998582E+02 -0.76781154751E+01  0.37289269291E+02  0.47787267617E+02  0.19999984372E+02 0.  0.
        -12    1    1    2    0    0 -0.20836998582E+02  0.76781154751E+01 -0.37289269291E+02  0.43400732383E+02  0.00000000000E+00 0.  1.
         11    1    3    3    0    0  0.10351555618E+02  0.17217027015E+01  0.11747195054E+02  0.15751684222E+02  0.51100000000E-03 0. -1.
        -11    1    3    3    0    0  0.88470987119E+01 -0.58200634566E+01  0.61461633753E+01  0.12244166724E+02  0.51100000000E-03 0.  1.
         12    1    3    3    0    0  0.16383442522E+01 -0.35797547200E+01  0.19395910861E+02  0.19791416672E+02  0.00000000000E+00 0. -1.
</event>
<event>
 7    1  0.4519840E-010  0.4778727E+02  0.7816164E-02  0.1312668E+00
        -11   -1    0    0    0    0  0.00000000000E+00  0.00000000000E+00  0.45593999997E+02  0.45594000000E+02  0.51100000000E-03 0. -1.
         11   -1    0    0    0    0 -0.00000000000E+00 -0.00000000000E+00 -0.45593999997E+02  0.45594000000E+02  0.51100000000E-03 0.  1.
    9900012    2    1    2    0    0  0.29345034600E+02 -0.26016404308E+02  0.18591362874E+02  0.47787272790E+02  0.20000007961E+02 0.  0.
        -12    1    1    2    0    0 -0.29345034600E+02  0.26016404308E+02 -0.18591362874E+02  0.43400727210E+02  0.00000000000E+00 0.  1.
         11    1    3    3    0    0  0.20633317635E+01  0.50424311113E+00 -0.23836128319E+00  0.21373851885E+01  0.51100000000E-03 0. -1.
        -11    1    3    3    0    0  0.12731263812E+02 -0.23007556350E+02  0.92322099323E+01  0.27868735672E+02  0.51100000000E-03 0.  1.
         12    1    3    3    0    0  0.14550439025E+02 -0.35130910693E+01  0.95975142246E+01  0.17781151930E+02  0.00000000000E+00 0. -1.
</event>
<event>
 7    1  0.4519840E-010  0.4778727E+02  0.7816164E-02  0.1312668E+00
        -11   -1    0    0    0    0  0.00000000000E+00  0.00000000000E+00  0.45593999997E+02  0.45594000000E+02  0.51100000000E-03 0. -1.
         11   -1    0    0    0    0 -0.00000000000E+00 -0.00000000000E+00 -0.45593999997E+02  0.45594000000E+02  0.51100000000E-03 0.  1.
    9900012    2    1    2    0    0  0.38917851308E+02  0.11780678322E+02  0.15173655424E+02  0.47787270155E+02  0.19999995946E+02 0.  0.
        -12    1    1    2    0    0 -0.38917851308E+02 -0.11780678322E+02 -0.15173655424E+02  0.43400729845E+02  0.00000000000E+00 0.  1.
         11    1    3    3    0    0  0.17828518616E+01  0.15678779624E+01  0.26280406664E+01  0.35416662845E+01  0.51100000000E-03 0. -1.
        -11    1    3    3    0    0  0.21692652938E+02  0.76722401045E+01 -0.17144370011E+01  0.23073225917E+02  0.51100000000E-03 0.  1.
         12    1    3    3    0    0  0.15442346508E+02  0.25405602552E+01  0.14260051758E+02  0.21172377954E+02  0.00000000000E+00 0. -1.
</event>
<event>
 7    1  0.4519840E-010  0.4778728E+02  0.7816164E-02  0.1312668E+00
        -11   -1    0    0    0    0  0.00000000000E+00  0.00000000000E+00  0.45593999997E+02  0.45594000000E+02  0.51100000000E-03 0. -1.
         11   -1    0    0    0    0 -0.00000000000E+00 -0.00000000000E+00 -0.45593999997E+02  0.45594000000E+02  0.51100000000E-03 0.  1.
    9900012    2    1    2    0    0 -0.17936822929E+01 -0.47480519767E+00  0.43361038290E+02  0.47787281368E+02  0.20000047071E+02 0.  0.
        -12    1    1    2    0    0  0.17936822929E+01  0.47480519767E+00 -0.43361038290E+02  0.43400718632E+02  0.00000000000E+00 0.  1.
         11    1    3    3    0    0 -0.78321564114E+01 -0.53281086090E+01  0.28495079325E+02  0.30028335975E+02  0.51100000000E-03 0.  1.
        -11    1    3    3    0    0 -0.75559338565E+00  0.23329432157E+01  0.42192952401E+01  0.48801637264E+01  0.51100000000E-03 0. -1.
        -12    1    3    3    0    0  0.67940675041E+01  0.25203601956E+01  0.10646663725E+02  0.12878781667E+02  0.00000000000E+00 0.  1.
</event>
<event>
 7    1  0.4519840E-010  0.4778728E+02  0.7816164E-02  0.1312668E+00
        -11   -1    0    0    0    0  0.00000000000E+00  0.00000000000E+00  0.45593999997E+02  0.45594000000E+02  0.51100000000E-03 0. -1.
         11   -1    0    0    0    0 -0.00000000000E+00 -0.00000000000E+00 -0.45593999997E+02  0.45594000000E+02  0.51100000000E-03 0.  1.
    9900012    2    1    2    0    0 -0.71409304538E+01 -0.40577620892E+02  0.13641358146E+02  0.47787275846E+02  0.20000021893E+02 0.  0.
        -12    1    1    2    0    0  0.71409304538E+01  0.40577620892E+02 -0.13641358146E+02  0.43400724154E+02  0.00000000000E+00 0.  1.
         11    1    3    3    0    0 -0.42394681828E+01 -0.35550815156E+02  0.18191926478E+02  0.40159429004E+02  0.51100000000E-03 0. -1.
        -11    1    3    3    0    0  0.26501292698E+00 -0.47591965955E+00 -0.65526265052E+00  0.85211547111E+00  0.51100000000E-03 0.  1.
         12    1    3    3    0    0 -0.31664751980E+01 -0.45508860767E+01 -0.38953056811E+01  0.67757313710E+01  0.00000000000E+00 0. -1.
</event>
<event>
 7    1  0.4519840E-010  0.4778727E+02  0.7816164E-02  0.1312668E+00
        -11   -1    0    0    0    0  0.00000000000E+00  0.00000000000E+00  0.45593999997E+02  0.45594000000E+02  0.51100000000E-03 0. -1.
         11   -1    0    0    0    0 -0.00000000000E+00 -0.00000000000E+00 -0.45593999997E+02  0.45594000000E+02  0.51100000000E-03 0.  1.
    9900012    2    1    2    0    0 -0.45066055245E+01  0.22603737963E+02  0.36774787166E+02  0.47787269196E+02  0.19999991571E+02 0.  0.
        -12    1    1    2    0    0  0.45066055245E+01 -0.22603737963E+02 -0.36774787166E+02  0.43400730804E+02  0.00000000000E+00 0.  1.
         11    1    3    3    0    0  0.82753109187E+00  0.12071213099E+02  0.15809794187E+02  0.19908505365E+02  0.51100000000E-03 0.  1.
        -11    1    3    3    0    0 -0.22539919635E+01  0.13601263946E+02  0.13862136634E+02  0.19550797759E+02  0.51100000000E-03 0. -1.
        -12    1    3    3    0    0 -0.30801446529E+01 -0.30687390813E+01  0.71028563447E+01  0.83279660713E+01  0.00000000000E+00 0.  1.
</event>
<event>
 7    1  0.4519840E-010  0.4778722E+02  0.7816164E-02  0.1312668E+00
        -11   -1    0    0    0    0  0.00000000000E+00  0.00000000000E+00  0.45593999997E+02  0.45594000000E+02  0.51100000000E-03 0.  1.
         11   -1    0    0    0    0 -0.00000000000E+00 -0.00000000000E+00 -0.45593999997E+02  0.45594000000E+02  0.51100000000E-03 0. -1.
    9900012    2    1    2    0    0  0.41017810793E+02  0.11951412258E+02 -0.76374445600E+01  0.47787221014E+02  0.19999771891E+02 0.  0.
        -12    1    1    2    0    0 -0.41017810793E+02 -0.11951412258E+02  0.76374445600E+01  0.43400778986E+02  0.00000000000E+00 0.  1.
         11    1    3    3    0    0  0.62259957427E+00 -0.15240886068E+01 -0.13278273170E+01  0.21150891131E+01  0.51100000000E-03 0. -1.
        -11    1    3    3    0    0  0.98542697348E+01  0.62445083208E+01 -0.81529660355E+01  0.14232756993E+02  0.51100000000E-03 0.  1.
         12    1    3    3    0    0  0.30540941483E+02  0.72309925439E+01  0.18433487925E+01  0.31439374908E+02  0.00000000000E+00 0. -1.
</event>
<event>
 7    1  0.4519840E-010  0.4778726E+02  0.7816164E-02  0.1312668E+00
        -11   -1    0    0    0    0  0.00000000000E+00  0.00000000000E+00  0.45593999997E+02  0.45594000000E+02  0.51100000000E-03 0. -1.
         11   -1    0    0    0    0 -0.00000000000E+00 -0.00000000000E+00 -0.45593999997E+02  0.45594000000E+02  0.51100000000E-03 0.  1.
    9900012    2    1    2    0    0 -0.23583801043E+02  0.61928950955E+01  0.35903707360E+02  0.47787264713E+02  0.19999971130E+02 0.  0.
        -12    1    1    2    0    0  0.23583801043E+02 -0.61928950955E+01 -0.35903707360E+02  0.43400735287E+02  0.00000000000E+00 0.  1.
         11    1    3    3    0    0 -0.55911111751E+01 -0.22925933339E+01  0.68303051766E+01  0.91197356011E+01  0.51100000000E-03 0. -1.
        -11    1    3    3    0    0 -0.70225736855E+01  0.65400934197E+01  0.25955282382E+01  0.99411332454E+01  0.51100000000E-03 0.  1.
         12    1    3    3    0    0 -0.10970116183E+02  0.19453950097E+01  0.26477873945E+02  0.28726395866E+02  0.00000000000E+00 0. -1.
</event>
<event>
 7    1  0.4519840E-010  0.4778727E+02  0.7816164E-02  0.1312668E+00
        -11   -1    0    0    0    0  0.00000000000E+00  0.00000000000E+00  0.45593999997E+02  0.45594000000E+02  0.51100000000E-03 0. -1.
         11   -1    0    0    0    0 -0.00000000000E+00 -0.00000000000E+00 -0.45593999997E+02  0.45594000000E+02  0.51100000000E-03 0.  1.
    9900012    2    1    2    0    0 -0.18685429601E+02 -0.38481781966E+02 -0.73232889534E+01  0.47787269779E+02  0.19999994229E+02 0.  0.
         12    1    1    2    0    0  0.18685429601E+02  0.38481781966E+02  0.73232889534E+01  0.43400730221E+02  0.00000000000E+00 0. -1.
         11    1    3    3    0    0 -0.28063157891E+01 -0.29660279563E+01  0.32591961101E+01  0.52244702785E+01  0.51100000000E-03 0. -1.
        -11    1    3    3    0    0 -0.32683530954E+01 -0.27741937311E+01 -0.57095470218E+01  0.71398326500E+01  0.51100000000E-03 0.  1.
         12    1    3    3    0    0 -0.12610760717E+02 -0.32741560278E+02 -0.48729380417E+01  0.35422966850E+02  0.00000000000E+00 0. -1.
</event>
<event>
 7    1  0.4519840E-010  0.4778726E+02  0.7816164E-02  0.1312668E+00
        -11   -1    0    0    0    0  0.00000000000E+00  0.00000000000E+00  0.45593999997E+02  0.45594000000E+02  0.51100000000E-03 0.  1.
         11   -1    0    0    0    0 -0.00000000000E+00 -0.00000000000E+00 -0.45593999997E+02  0.45594000000E+02  0.51100000000E-03 0. -1.
    9900012    2    1    2    0    0 -0.60703974985E+01  0.42229153327E+02 -0.79669847454E+01  0.47787263112E+02  0.19999963832E+02 0.  0.
         12    1    1    2    0    0  0.60703974985E+01 -0.42229153327E+02  0.79669847454E+01  0.43400736888E+02  0.00000000000E+00 0. -1.
         11    1    3    3    0    0  0.39410502233E+00  0.29239348706E+01  0.45111300723E+01  0.53902698157E+01  0.51100000000E-03 0. -1.
        -11    1    3    3    0    0 -0.32229053788E+01  0.11453058569E+02 -0.50799600031E+00  0.11908724947E+02  0.51100000000E-03 0.  1.
        -12    1    3    3    0    0 -0.32415971421E+01  0.27852159887E+02 -0.11970118817E+02  0.30488268349E+02  0.00000000000E+00 0.  1.
</event>
<event>
 7    1  0.4519840E-010  0.4778727E+02  0.7816164E-02  0.1312668E+00
        -11   -1    0    0    0    0  0.00000000000E+00  0.00000000000E+00  0.45593999997E+02  0.45594000000E+02  0.51100000000E-03 0. -1.
         11   -1    0    0    0    0 -0.00000000000E+00 -0.00000000000E+00 -0.45593999997E+02  0.45594000000E+02  0.51100000000E-03 0.  1.
    9900012    2    1    2    0    0 -0.85345838601E+01 -0.23255313621E+01  0.42489722085E+02  0.47787266128E+02  0.19999977582E+02 0.  0.
        -12    1    1    2    0    0  0.85345838601E+01  0.23255313621E+01 -0.42489722085E+02  0.43400733872E+02  0.00000000000E+00 0.  1.
         11    1    3    3    0    0 -0.96952506544E+01 -0.26100420302E+01  0.16449745810E+02  0.19271853624E+02  0.51100000000E-03 0. -1.
        -11    1    3    3    0    0 -0.19338970251E+01 -0.49189210763E+01  0.90672690020E+01  0.10495289880E+02  0.51100000000E-03 0.  1.
        -12    1    3    3    0    0  0.30945638194E+01  0.52034317444E+01  0.16972707274E+02  0.18020122623E+02  0.00000000000E+00 0.  1.
</event>
<event>
 7    1  0.4519840E-010  0.4778727E+02  0.7816164E-02  0.1312668E+00
        -11   -1    0    0    0    0  0.00000000000E+00  0.00000000000E+00  0.45593999997E+02  0.45594000000E+02  0.51100000000E-03 0. -1.
         11   -1    0    0    0    0 -0.00000000000E+00 -0.00000000000E+00 -0.45593999997E+02  0.45594000000E+02  0.51100000000E-03 0.  1.
    9900012    2    1    2    0    0  0.85783100451E+01 -0.18317140417E+01  0.42505064006E+02  0.47787273673E+02  0.20000011986E+02 0.  0.
        -12    1    1    2    0    0 -0.85783100451E+01  0.18317140417E+01 -0.42505064006E+02  0.43400726327E+02  0.00000000000E+00 0.  1.
         11    1    3    3    0    0  0.82195740666E-01 -0.22601331572E+01  0.46068401352E+01  0.51320497192E+01  0.51100000000E-03 0.  1.
        -11    1    3    3    0    0  0.49166878724E+01 -0.22977757364E+01  0.37765942078E+02  0.38153898546E+02  0.51100000000E-03 0. -1.
        -12    1    3    3    0    0  0.35794264321E+01  0.27261948520E+01  0.13228179240E+00  0.45013254077E+01  0.00000000000E+00 0.  1.
</event>
<event>
 7    1  0.4519840E-010  0.4778727E+02  0.7816164E-02  0.1312668E+00
        -11   -1    0    0    0    0  0.00000000000E+00  0.00000000000E+00  0.45593999997E+02  0.45594000000E+02  0.51100000000E-03 0.  1.
         11   -1    0    0    0    0 -0.00000000000E+00 -0.00000000000E+00 -0.45593999997E+02  0.45594000000E+02  0.51100000000E-03 0. -1.
    9900012    2    1    2    0    0 -0.31712275150E+02 -0.23185064079E+02  0.18450137966E+02  0.47787272097E+02  0.20000004799E+02 0.  0.
        -12    1    1    2    0    0  0.31712275150E+02  0.23185064079E+02 -0.18450137966E+02  0.43400727903E+02  0.00000000000E+00 0.  1.
         11    1    3    3    0    0 -0.20181604263E+02 -0.21828121736E+02  0.74608779099E+01  0.30650101934E+02  0.51100000000E-03 0. -1.
        -11    1    3    3    0    0 -0.69015664438E+01 -0.38386227804E+01  0.65494047543E+01  0.10259695274E+02  0.51100000000E-03 0.  1.
        -12    1    3    3    0    0 -0.46291044429E+01  0.24816804366E+01  0.44398553018E+01  0.68774748879E+01  0.00000000000E+00 0.  1.
</event>
<event>
 7    1  0.4519840E-010  0.4778727E+02  0.7816164E-02  0.1312668E+00
        -11   -1    0    0    0    0  0.00000000000E+00  0.00000000000E+00  0.45593999997E+02  0.45594000000E+02  0.51100000000E-03 0. -1.
         11   -1    0    0    0    0 -0.00000000000E+00 -0.00000000000E+00 -0.45593999997E+02  0.45594000000E+02  0.51100000000E-03 0.  1.
    9900012    2    1    2    0    0 -0.66459482959E+01  0.37065356950E+02 -0.21578094915E+02  0.47787268500E+02  0.19999988398E+02 0.  0.
         12    1    1    2    0    0  0.66459482959E+01 -0.37065356950E+02  0.21578094915E+02  0.43400731500E+02  0.00000000000E+00 0. -1.
         11    1    3    3    0    0  0.87618699407E+00  0.71023329608E+01 -0.36478527696E+01  0.80322890402E+01  0.51100000000E-03 0. -1.
        -11    1    3    3    0    0 -0.12561472958E+02  0.16853166147E+02 -0.13687052939E+02  0.25082966938E+02  0.51100000000E-03 0.  1.
        -12    1    3    3    0    0  0.50393376676E+01  0.13109857842E+02 -0.42431892071E+01  0.14672012521E+02  0.00000000000E+00 0.  1.
</event>
<event>
 7    1  0.4519840E-010  0.4778727E+02  0.7816164E-02  0.1312668E+00
        -11   -1    0    0    0    0  0.00000000000E+00  0.00000000000E+00  0.45593999997E+02  0.45594000000E+02  0.51100000000E-03 0.  1.
         11   -1    0    0    0    0 -0.00000000000E+00 -0.00000000000E+00 -0.45593999997E+02  0.45594000000E+02  0.51100000000E-03 0. -1.
    9900012    2    1    2    0    0  0.26748139273E+02 -0.31918021505E+02  0.12222929313E+02  0.47787273596E+02  0.20000011634E+02 0.  0.
        -12    1    1    2    0    0 -0.26748139273E+02  0.31918021505E+02 -0.12222929313E+02  0.43400726404E+02  0.00000000000E+00 0.  1.
         11    1    3    3    0    0  0.37330632034E+01 -0.61931475600E+01  0.17099684889E+01  0.74306682118E+01  0.51100000000E-03 0. -1.
        -11    1    3    3    0    0  0.18612352485E+02 -0.25636765471E+02  0.32287358984E+01  0.31844750660E+02  0.51100000000E-03 0.  1.
        -12    1    3    3    0    0  0.44027235852E+01 -0.88108474186E-01  0.72842249261E+01  0.85118547241E+01  0.00000000000E+00 0.  1.
</event>
<event>
 7    1  0.4519840E-010  0.4778727E+02  0.7816164E-02  0.1312668E+00
        -11   -1    0    0    0    0  0.00000000000E+00  0.00000000000E+00  0.45593999997E+02  0.45594000000E+02  0.51100000000E-03 0. -1.
         11   -1    0    0    0    0 -0.00000000000E+00 -0.00000000000E+00 -0.45593999997E+02  0.45594000000E+02  0.51100000000E-03 0.  1.
    9900012    2    1    2    0    0 -0.41624909600E+01  0.24686319128E+01 -0.43130065122E+02  0.47787274293E+02  0.20000014810E+02 0.  0.
         12    1    1    2    0    0  0.41624909600E+01 -0.24686319128E+01  0.43130065122E+02  0.43400725707E+02  0.00000000000E+00 0. -1.
         11    1    3    3    0    0  0.33394804594E+01  0.74559041447E+01 -0.29734471940E+02  0.30836365839E+02  0.51100000000E-03 0. -1.
        -11    1    3    3    0    0 -0.72908508697E+00 -0.17112774882E+01 -0.64451868543E+01  0.67082389309E+01  0.51100000000E-03 0.  1.
         12    1    3    3    0    0 -0.67728863324E+01 -0.32759947437E+01 -0.69504063274E+01  0.10242669523E+02  0.00000000000E+00 0. -1.
</event>
<event>
 7    1  0.4519840E-010  0.4778727E+02  0.7816164E-02  0.1312668E+00
        -11   -1    0    0    0    0  0.00000000000E+00  0.00000000000E+00  0.45593999997E+02  0.45594000000E+02  0.51100000000E-03 0. -1.
         11   -1    0    0    0    0 -0.00000000000E+00 -0.00000000000E+00 -0.45593999997E+02  0.45594000000E+02  0.51100000000E-03 0.  1.
    9900012    2    1    2    0    0  0.31914139821E+02 -0.11620382915E+02  0.27019950437E+02  0.47787270268E+02  0.19999996461E+02 0.  0.
        -12    1    1    2    0    0 -0.31914139821E+02  0.11620382915E+02 -0.27019950437E+02  0.43400729732E+02  0.00000000000E+00 0.  1.
         11    1    3    3    0    0  0.56148519835E+01 -0.61961995689E+01  0.16814509792E+02  0.18778902835E+02  0.51100000000E-03 0. -1.
        -11    1    3    3    0    0  0.15851236091E+01  0.63442216074E+00  0.59595852037E+00  0.18083902104E+01  0.51100000000E-03 0.  1.
        -12    1    3    3    0    0  0.24714164229E+02 -0.60586055066E+01  0.96094821249E+01  0.27199977223E+02  0.00000000000E+00 0.  1.
</event>
<event>
 7    1  0.4519840E-010  0.4778728E+02  0.7816164E-02  0.1312668E+00
        -11   -1    0    0    0    0  0.00000000000E+00  0.00000000000E+00  0.45593999997E+02  0.45594000000E+02  0.51100000000E-03 0. -1.
         11   -1    0    0    0    0 -0.00000000000E+00 -0.00000000000E+00 -0.45593999997E+02  0.45594000000E+02  0.51100000000E-03 0.  1.
    9900012    2    1    2    0    0  0.33158522858E+02 -0.80758517028E+01 -0.26812605039E+02  0.47787276414E+02  0.20000024480E+02 0.  0.
         12    1    1    2    0    0 -0.33158522858E+02  0.80758517028E+01  0.26812605039E+02  0.43400723586E+02  0.00000000000E+00 0. -1.
         11    1    3    3    0    0  0.78846224146E+01 -0.19003417930E+01 -0.14607054618E+00  0.81117141479E+01  0.51100000000E-03 0. -1.
        -11    1    3    3    0    0  0.16496263135E+02  0.25074166980E+01 -0.12280322185E+02  0.20717628946E+02  0.51100000000E-03 0.  1.
        -12    1    3    3    0    0  0.87776373087E+01 -0.86829266079E+01 -0.14386212308E+02  0.18957933320E+02  0.00000000000E+00 0.  1.
</event>
<event>
 7    1  0.4519840E-010  0.4778728E+02  0.7816164E-02  0.1312668E+00
        -11   -1    0    0    0    0  0.00000000000E+00  0.00000000000E+00  0.45593999997E+02  0.45594000000E+02  0.51100000000E-03 0. -1.
         11   -1    0    0    0    0 -0.00000000000E+00 -0.00000000000E+00 -0.45593999997E+02  0.45594000000E+02  0.51100000000E-03 0.  1.
    9900012    2    1    2    0    0 -0.89458868236E+01  0.86105342756E+01  0.41586689205E+02  0.47787275229E+02  0.20000019081E+02 0.  0.
        -12    1    1    2    0    0  0.89458868236E+01 -0.86105342756E+01 -0.41586689205E+02  0.43400724771E+02  0.00000000000E+00 0.  1.
         11    1    3    3    0    0 -0.21708812374E+01  0.73605030842E+00  0.26109604369E+02  0.26210035024E+02  0.51100000000E-03 0. -1.
        -11    1    3    3    0    0 -0.23485642458E+01  0.98630769444E+01  0.11215657366E+02  0.15119094260E+02  0.51100000000E-03 0.  1.
         12    1    3    3    0    0 -0.44264413404E+01 -0.19885929772E+01  0.42614274705E+01  0.64581459457E+01  0.00000000000E+00 0. -1.
</event>
<event>
 7    1  0.4519840E-010  0.4778727E+02  0.7816164E-02  0.1312668E+00
        -11   -1    0    0    0    0  0.00000000000E+00  0.00000000000E+00  0.45593999997E+02  0.45594000000E+02  0.51100000000E-03 0. -1.
         11   -1    0    0    0    0 -0.00000000000E+00 -0.00000000000E+00 -0.45593999997E+02  0.45594000000E+02  0.51100000000E-03 0.  1.
    9900012    2    1    2    0    0 -0.18202230204E+02  0.17304653551E+02 -0.35395636236E+02  0.47787270934E+02  0.19999999497E+02 0.  0.
         12    1    1    2    0    0  0.18202230204E+02 -0.17304653551E+02  0.35395636236E+02  0.43400729066E+02  0.00000000000E+00 0. -1.
         11    1    3    3    0    0  0.95109014428E+00 -0.22464846263E+01 -0.74978084551E+00  0.25521436512E+01  0.51100000000E-03 0. -1.
        -11    1    3    3    0    0 -0.23242733699E+01  0.85412338361E+01 -0.12550428999E+02  0.15358000861E+02  0.51100000000E-03 0.  1.
         12    1    3    3    0    0 -0.16829046978E+02  0.11009904341E+02 -0.22095426392E+02  0.29877126422E+02  0.00000000000E+00 0. -1.
</event>
<event>
 7    1  0.5338651E-010  0.4778726E+02  0.7816164E-02  0.1312668E+00
        -11   -1    0    0    0    0  0.00000000000E+00  0.00000000000E+00  0.45593999997E+02  0.45594000000E+02  0.51100000000E-03 0. -1.
         11   -1    0    0    0    0 -0.00000000000E+00 -0.00000000000E+00 -0.45593999997E+02  0.45594000000E+02  0.51100000000E-03 0.  1.
    9900012    2    1    2    0    0  0.24425944583E+02  0.33070653190E+02 -0.13904292928E+02  0.47787259995E+02  0.19999949620E+02 0.  0.
         12    1    1    2    0    0 -0.24425944583E+02 -0.33070653190E+02  0.13904292928E+02  0.43400740005E+02  0.00000000000E+00 0. -1.
         11    1    3    3    0    0  0.49479095766E+01 -0.30615268237E+00  0.99668555318E+00  0.50565720598E+01  0.51100000000E-03 0. -1.
        -11    1    3    3    0    0  0.39521465559E+01  0.15505160591E+01 -0.35808769623E+01  0.55539393703E+01  0.51100000000E-03 0.  1.
        -12    1    3    3    0    0  0.15525888451E+02  0.31826289813E+02 -0.11320101518E+02  0.37176748565E+02  0.00000000000E+00 0.  1.
</event>
<event>
 7    1  0.4519840E-010  0.4778728E+02  0.7816164E-02  0.1312668E+00
        -11   -1    0    0    0    0  0.00000000000E+00  0.00000000000E+00  0.45593999997E+02  0.45594000000E+02  0.51100000000E-03 0. -1.
         11   -1    0    0    0    0 -0.00000000000E+00 -0.00000000000E+00 -0.45593999997E+02  0.45594000000E+02  0.51100000000E-03 0.  1.
    9900012    2    1    2    0    0 -0.70740844624E+01  0.18689891201E+01  0.42779516487E+02  0.47787276249E+02  0.20000023727E+02 0.  0.
        -12    1    1    2    0    0  0.70740844624E+01 -0.18689891201E+01 -0.42779516487E+02  0.43400723751E+02  0.00000000000E+00 0.  1.
         11    1    3    3    0    0  0.39365703475E+00  0.38578410676E+01  0.20016931201E+02  0.20389100974E+02  0.51100000000E-03 0. -1.
        -11    1    3    3    0    0 -0.97240668366E+01  0.25281259850E+01  0.13250164772E+02  0.16628763141E+02  0.51100000000E-03 0.  1.
         12    1    3    3    0    0  0.22563253395E+01 -0.45169779324E+01  0.95124205133E+01  0.10769412133E+02  0.00000000000E+00 0. -1.
</event>
<event>
 7    1  0.6222903E-010  0.4778727E+02  0.7816164E-02  0.1312668E+00
        -11   -1    0    0    0    0  0.00000000000E+00  0.00000000000E+00  0.45593999997E+02  0.45594000000E+02  0.51100000000E-03 0. -1.
         11   -1    0    0    0    0 -0.00000000000E+00 -0.00000000000E+00 -0.45593999997E+02  0.45594000000E+02  0.51100000000E-03 0.  1.
    9900012    2    1    2    0    0  0.31501136441E+02 -0.13410844717E+02 -0.26673044408E+02  0.47787266699E+02  0.19999980187E+02 0.  0.
         12    1    1    2    0    0 -0.31501136441E+02  0.13410844717E+02  0.26673044408E+02  0.43400733301E+02  0.00000000000E+00 0. -1.
         11    1    3    3    0    0  0.22856821069E+01 -0.36406438341E+01 -0.25826407478E+00  0.43064290095E+01  0.51100000000E-03 0.  1.
        -11    1    3    3    0    0 -0.18636730492E+01 -0.96051346905E-01 -0.67885050116E+00  0.19857848221E+01  0.51100000000E-03 0. -1.
        -12    1    3    3    0    0  0.31079127383E+02 -0.96741495365E+01 -0.25735929832E+02  0.41495052867E+02  0.00000000000E+00 0.  1.
</event>
<event>
 7    1  0.4519840E-010  0.4778727E+02  0.7816164E-02  0.1312668E+00
        -11   -1    0    0    0    0  0.00000000000E+00  0.00000000000E+00  0.45593999997E+02  0.45594000000E+02  0.51100000000E-03 0. -1.
         11   -1    0    0    0    0 -0.00000000000E+00 -0.00000000000E+00 -0.45593999997E+02  0.45594000000E+02  0.51100000000E-03 0.  1.
    9900012    2    1    2    0    0 -0.35563239907E+02  0.20561623581E+02 -0.14003536145E+02  0.47787269343E+02  0.19999992242E+02 0.  0.
         12    1    1    2    0    0  0.35563239907E+02 -0.20561623581E+02  0.14003536145E+02  0.43400730657E+02  0.00000000000E+00 0. -1.
         11    1    3    3    0    0 -0.58493983461E+01  0.80186661571E+01 -0.46269901026E+01  0.10950959119E+02  0.51100000000E-03 0. -1.
        -11    1    3    3    0    0 -0.15687432724E+02  0.28370053015E+01 -0.11486727346E+02  0.19649148835E+02  0.51100000000E-03 0.  1.
         12    1    3    3    0    0 -0.14026408837E+02  0.97059521228E+01  0.21101813038E+01  0.17187161389E+02  0.00000000000E+00 0. -1.
</event>
<event>
 7    1  0.4519840E-010  0.4778728E+02  0.7816164E-02  0.1312668E+00
        -11   -1    0    0    0    0  0.00000000000E+00  0.00000000000E+00  0.45593999997E+02  0.45594000000E+02  0.51100000000E-03 0. -1.
         11   -1    0    0    0    0 -0.00000000000E+00 -0.00000000000E+00 -0.45593999997E+02  0.45594000000E+02  0.51100000000E-03 0.  1.
    9900012    2    1    2    0    0  0.24906900885E+02 -0.22106952289E+02 -0.27830771925E+02  0.47787275154E+02  0.20000018736E+02 0.  0.
         12    1    1    2    0    0 -0.24906900885E+02  0.22106952289E+02  0.27830771925E+02  0.43400724846E+02  0.00000000000E+00 0. -1.
         11    1    3    3    0    0  0.14157916277E+02 -0.15161287057E+02 -0.15750138408E+02  0.26045692133E+02  0.51100000000E-03 0.  1.
        -11    1    3    3    0    0  0.88685757034E+01 -0.10678576988E+02 -0.88991997412E+01  0.16488765805E+02  0.51100000000E-03 0. -1.
         12    1    3    3    0    0  0.18804089046E+01  0.37329117560E+01 -0.31814337764E+01  0.52528172156E+01  0.00000000000E+00 0. -1.
</event>
<event>
 7    1  0.4519840E-010  0.4778727E+02  0.7816164E-02  0.1312668E+00
        -11   -1    0    0    0    0  0.00000000000E+00  0.00000000000E+00  0.45593999997E+02  0.45594000000E+02  0.51100000000E-03 0. -1.
         11   -1    0    0    0    0 -0.00000000000E+00 -0.00000000000E+00 -0.45593999997E+02  0.45594000000E+02  0.51100000000E-03 0.  1.
    9900012    2    1    2    0    0 -0.81560081700E+01 -0.83433252038E+01 -0.41803009459E+02  0.47787272534E+02  0.20000006791E+02 0.  0.
         12    1    1    2    0    0  0.81560081700E+01  0.83433252038E+01  0.41803009459E+02  0.43400727466E+02  0.00000000000E+00 0. -1.
         11    1    3    3    0    0 -0.57999716581E+01 -0.38018458325E+01 -0.15278728455E+02  0.16778952484E+02  0.51100000000E-03 0. -1.
        -11    1    3    3    0    0 -0.39849067438E+01 -0.44818976058E+01 -0.18440805041E+01  0.62743542354E+01  0.51100000000E-03 0.  1.
         12    1    3    3    0    0  0.16288702319E+01 -0.59581765552E-01 -0.24680200500E+02  0.24733965815E+02  0.00000000000E+00 0. -1.
</event>
<event>
 7    1  0.4519840E-010  0.4778729E+02  0.7816164E-02  0.1312668E+00
        -11   -1    0    0    0    0  0.00000000000E+00  0.00000000000E+00  0.45593999997E+02  0.45594000000E+02  0.51100000000E-03 0. -1.
         11   -1    0    0    0    0 -0.00000000000E+00 -0.00000000000E+00 -0.45593999997E+02  0.45594000000E+02  0.51100000000E-03 0.  1.
    9900012    2    1    2    0    0  0.38696852279E+02  0.10896406094E+02 -0.16353699064E+02  0.47787291306E+02  0.20000092380E+02 0.  0.
         12    1    1    2    0    0 -0.38696852279E+02 -0.10896406094E+02  0.16353699064E+02  0.43400708694E+02  0.00000000000E+00 0. -1.
         11    1    3    3    0    0  0.44840196024E-01 -0.60103816317E+00  0.12574560822E+01  0.13944366520E+01  0.51100000000E-03 0. -1.
        -11    1    3    3    0    0  0.13840984444E+02  0.84595046474E+01 -0.13408366673E+02  0.21045673340E+02  0.51100000000E-03 0.  1.
         12    1    3    3    0    0  0.24811027639E+02  0.30379396098E+01 -0.42027884733E+01  0.25347181313E+02  0.00000000000E+00 0. -1.
</event>
<event>
 7    1  0.4519840E-010  0.4778727E+02  0.7816164E-02  0.1312668E+00
        -11   -1    0    0    0    0  0.00000000000E+00  0.00000000000E+00  0.45593999997E+02  0.45594000000E+02  0.51100000000E-03 0. -1.
         11   -1    0    0    0    0 -0.00000000000E+00 -0.00000000000E+00 -0.45593999997E+02  0.45594000000E+02  0.51100000000E-03 0.  1.
    9900012    2    1    2    0    0  0.63789596182E+01  0.68488600362E+01 -0.42379537785E+02  0.47787271521E+02  0.20000002174E+02 0.  0.
         12    1    1    2    0    0 -0.63789596182E+01 -0.68488600362E+01  0.42379537785E+02  0.43400728479E+02  0.00000000000E+00 0. -1.
         11    1    3    3    0    0 -0.99665344190E+00 -0.31761738354E+00  0.33597445503E+00  0.10986710068E+01  0.51100000000E-03 0. -1.
        -11    1    3    3    0    0  0.11044003888E+02  0.51304251442E+00 -0.21957395967E+02  0.24583744068E+02  0.51100000000E-03 0.  1.
        -12    1    3    3    0    0 -0.36683908278E+01  0.66534349053E+01 -0.20758116273E+02  0.22104856447E+02  0.00000000000E+00 0.  1.
</event>
<event>
 7    1  0.4519840E-010  0.4778727E+02  0.7816164E-02  0.1312668E+00
        -11   -1    0    0    0    0  0.00000000000E+00  0.00000000000E+00  0.45593999997E+02  0.45594000000E+02  0.51100000000E-03 0.  1.
         11   -1    0    0    0    0 -0.00000000000E+00 -0.00000000000E+00 -0.45593999997E+02  0.45594000000E+02  0.51100000000E-03 0. -1.
    9900012    2    1    2    0    0  0.88581548395E+01  0.40087838699E+02  0.14075558229E+02  0.47787273530E+02  0.20000011331E+02 0.  0.
        -12    1    1    2    0    0 -0.88581548395E+01 -0.40087838699E+02 -0.14075558229E+02  0.43400726470E+02  0.00000000000E+00 0.  1.
         11    1    3    3    0    0  0.46405916675E+01  0.17203019498E+02  0.87792429374E+01  0.19863385353E+02  0.51100000000E-03 0. -1.
        -11    1    3    3    0    0  0.77553522792E+01  0.86467037308E+01  0.63089328585E+01  0.13217927540E+02  0.51100000000E-03 0.  1.
         12    1    3    3    0    0 -0.35377891072E+01  0.14238115470E+02 -0.10126175670E+01  0.14705960637E+02  0.00000000000E+00 0. -1.
</event>
<event>
 7    1  0.4519840E-010  0.4778728E+02  0.7816164E-02  0.1312668E+00
        -11   -1    0    0    0    0  0.00000000000E+00  0.00000000000E+00  0.45593999997E+02  0.45594000000E+02  0.51100000000E-03 0.  1.
         11   -1    0    0    0    0 -0.00000000000E+00 -0.00000000000E+00 -0.45593999997E+02  0.45594000000E+02  0.51100000000E-03 0. -1.
    9900012    2    1    2    0    0 -0.79504172835E+01  0.37234569871E+02 -0.20832675652E+02  0.47787277618E+02  0.20000029970E+02 0.  0.
        -12    1    1    2    0    0  0.79504172835E+01 -0.37234569871E+02  0.20832675652E+02  0.43400722382E+02  0.00000000000E+00 0.  1.
         11    1    3    3    0    0 -0.97657524459E+01  0.19309034427E+02 -0.10648891226E+02  0.24116542371E+02  0.51100000000E-03 0. -1.
        -11    1    3    3    0    0  0.13171286732E+01  0.18133581813E+02 -0.11994391457E+02  0.21781346239E+02  0.51100000000E-03 0.  1.
        -12    1    3    3    0    0  0.49820648925E+00 -0.20804636901E+00  0.18106070313E+01  0.18893890069E+01  0.00000000000E+00 0.  1.
</event>
<event>
 7    1  0.4519840E-010  0.4778727E+02  0.7816164E-02  0.1312668E+00
        -11   -1    0    0    0    0  0.00000000000E+00  0.00000000000E+00  0.45593999997E+02  0.45594000000E+02  0.51100000000E-03 0. -1.
         11   -1    0    0    0    0 -0.00000000000E+00 -0.00000000000E+00 -0.45593999997E+02  0.45594000000E+02  0.51100000000E-03 0.  1.
    9900012    2    1    2    0    0 -0.20450861815E+02 -0.32159545937E+02  0.20764140655E+02  0.47787266354E+02  0.19999978616E+02 0.  0.
        -12    1    1    2    0    0  0.20450861815E+02  0.32159545937E+02 -0.20764140655E+02  0.43400733646E+02  0.00000000000E+00 0.  1.
         11    1    3    3    0    0 -0.54048249800E+01 -0.24695960072E+01  0.73287103092E+00  0.59873314350E+01  0.51100000000E-03 0. -1.
        -11    1    3    3    0    0 -0.43089845542E+01 -0.11043618952E+01  0.76509555993E+01  0.88500895435E+01  0.51100000000E-03 0.  1.
         12    1    3    3    0    0 -0.10737052281E+02 -0.28585588034E+02  0.12380314025E+02  0.32949845376E+02  0.00000000000E+00 0. -1.
</event>
<event>
 7    1  0.4519840E-010  0.4778727E+02  0.7816164E-02  0.1312668E+00
        -11   -1    0    0    0    0  0.00000000000E+00  0.00000000000E+00  0.45593999997E+02  0.45594000000E+02  0.51100000000E-03 0. -1.
         11   -1    0    0    0    0 -0.00000000000E+00 -0.00000000000E+00 -0.45593999997E+02  0.45594000000E+02  0.51100000000E-03 0.  1.
    9900012    2    1    2    0    0 -0.68610259764E+01 -0.13090210696E+02  0.40806813850E+02  0.47787270166E+02  0.19999995994E+02 0.  0.
        -12    1    1    2    0    0  0.68610259764E+01  0.13090210696E+02 -0.40806813850E+02  0.43400729834E+02  0.00000000000E+00 0.  1.
         11    1    3    3    0    0  0.38710543706E+01 -0.16786043206E+01  0.60771817728E+01  0.73983047359E+01  0.51100000000E-03 0. -1.
        -11    1    3    3    0    0 -0.32750730915E+01  0.66774725512E+00  0.56155092704E+00  0.33892963659E+01  0.51100000000E-03 0.  1.
        -12    1    3    3    0    0 -0.74570072555E+01 -0.12079353631E+02  0.34168081151E+02  0.36999669064E+02  0.00000000000E+00 0.  1.
</event>
<event>
 7    1  0.4519840E-010  0.4778727E+02  0.7816164E-02  0.1312668E+00
        -11   -1    0    0    0    0  0.00000000000E+00  0.00000000000E+00  0.45593999997E+02  0.45594000000E+02  0.51100000000E-03 0. -1.
         11   -1    0    0    0    0 -0.00000000000E+00 -0.00000000000E+00 -0.45593999997E+02  0.45594000000E+02  0.51100000000E-03 0.  1.
    9900012    2    1    2    0    0 -0.35425385413E+01  0.83348238685E+01  0.42445311232E+02  0.47787270584E+02  0.19999997902E+02 0.  0.
        -12    1    1    2    0    0  0.35425385413E+01 -0.83348238685E+01 -0.42445311232E+02  0.43400729416E+02  0.00000000000E+00 0.  1.
         11    1    3    3    0    0  0.37935928325E+01  0.49484158758E+01  0.99571740296E+01  0.11748339507E+02  0.51100000000E-03 0. -1.
        -11    1    3    3    0    0  0.33280870953E+01 -0.48118864442E+00  0.32469230162E+01  0.46744214145E+01  0.51100000000E-03 0.  1.
        -12    1    3    3    0    0 -0.10664218469E+02  0.38675966371E+01  0.29241214186E+02  0.31364509663E+02  0.00000000000E+00 0.  1.
</event>
<event>
 7    1  0.4519840E-010  0.4778727E+02  0.7816164E-02  0.1312668E+00
        -11   -1    0    0    0    0  0.00000000000E+00  0.00000000000E+00  0.45593999997E+02  0.45594000000E+02  0.51100000000E-03 0. -1.
         11   -1    0    0    0    0 -0.00000000000E+00 -0.00000000000E+00 -0.45593999997E+02  0.45594000000E+02  0.51100000000E-03 0.  1.
    9900012    2    1    2    0    0 -0.89937580350E+01  0.29571574945E+02 -0.30467320195E+02  0.47787270419E+02  0.19999997149E+02 0.  0.
         12    1    1    2    0    0  0.89937580350E+01 -0.29571574945E+02  0.30467320195E+02  0.43400729581E+02  0.00000000000E+00 0. -1.
         11    1    3    3    0    0 -0.53072046894E+01  0.78801986925E+01 -0.61297866221E+01  0.11306557272E+02  0.51100000000E-03 0.  1.
        -11    1    3    3    0    0  0.39638869506E+01  0.12601273934E+02 -0.57201820451E+01  0.14395311299E+02  0.51100000000E-03 0. -1.
        -12    1    3    3    0    0 -0.76504402961E+01  0.90901023185E+01 -0.18617351527E+02  0.22085401848E+02  0.00000000000E+00 0.  1.
</event>
<event>
 7    1  0.4519840E-010  0.4778727E+02  0.7816164E-02  0.1312668E+00
        -11   -1    0    0    0    0  0.00000000000E+00  0.00000000000E+00  0.45593999997E+02  0.45594000000E+02  0.51100000000E-03 0. -1.
         11   -1    0    0    0    0 -0.00000000000E+00 -0.00000000000E+00 -0.45593999997E+02  0.45594000000E+02  0.51100000000E-03 0.  1.
    9900012    2    1    2    0    0  0.20443133839E+01  0.34817963315E+02 -0.25829315140E+02  0.47787270660E+02  0.19999998248E+02 0.  0.
         12    1    1    2    0    0 -0.20443133839E+01 -0.34817963315E+02  0.25829315140E+02  0.43400729340E+02  0.00000000000E+00 0. -1.
         11    1    3    3    0    0  0.35584924987E+01 -0.13378093983E+01 -0.11262707739E+01  0.39649828457E+01  0.51100000000E-03 0. -1.
        -11    1    3    3    0    0 -0.14152804776E-01  0.24775058299E+01 -0.14801700830E+01  0.28860248049E+01  0.51100000000E-03 0.  1.
         12    1    3    3    0    0 -0.15000263100E+01  0.33678266883E+02 -0.23222874284E+02  0.40936263009E+02  0.00000000000E+00 0. -1.
</event>
<event>
 7    1  0.4519840E-010  0.4778727E+02  0.7816164E-02  0.1312668E+00
        -11   -1    0    0    0    0  0.00000000000E+00  0.00000000000E+00  0.45593999997E+02  0.45594000000E+02  0.51100000000E-03 0. -1.
         11   -1    0    0    0    0 -0.00000000000E+00 -0.00000000000E+00 -0.45593999997E+02  0.45594000000E+02  0.51100000000E-03 0.  1.
    9900012    2    1    2    0    0  0.81633049715E+00  0.17338849687E+02 -0.39778399325E+02  0.47787272393E+02  0.20000006149E+02 0.  0.
         12    1    1    2    0    0 -0.81633049715E+00 -0.17338849687E+02  0.39778399325E+02  0.43400727607E+02  0.00000000000E+00 0. -1.
         11    1    3    3    0    0 -0.11095942667E+01  0.21745124365E+00 -0.20324871595E+02  0.20356298536E+02  0.51100000000E-03 0. -1.
        -11    1    3    3    0    0 -0.14248716375E+01  0.12501555286E+01  0.24709186586E+00  0.19115968927E+01  0.51100000000E-03 0.  1.
        -12    1    3    3    0    0  0.33507964014E+01  0.15871242914E+02 -0.19700619596E+02  0.25519376964E+02  0.00000000000E+00 0.  1.
</event>
<event>
 7    1  0.4519840E-010  0.4778727E+02  0.7816164E-02  0.1312668E+00
        -11   -1    0    0    0    0  0.00000000000E+00  0.00000000000E+00  0.45593999997E+02  0.45594000000E+02  0.51100000000E-03 0. -1.
         11   -1    0    0    0    0 -0.00000000000E+00 -0.00000000000E+00 -0.45593999997E+02  0.45594000000E+02  0.51100000000E-03 0.  1.
    9900012    2    1    2    0    0 -0.26051612448E+01  0.33801032556E+02 -0.27098462613E+02  0.47787270249E+02  0.19999996374E+02 0.  0.
         12    1    1    2    0    0  0.26051612448E+01 -0.33801032556E+02  0.27098462613E+02  0.43400729751E+02  0.00000000000E+00 0. -1.
         11    1    3    3    0    0 -0.41140528819E+01  0.16406757202E+02 -0.20318998918E+02  0.26438018652E+02  0.51100000000E-03 0.  1.
        -11    1    3    3    0    0 -0.41781002112E+01  0.48533317694E+01 -0.13339991610E+01  0.65414757251E+01  0.51100000000E-03 0. -1.
         12    1    3    3    0    0  0.56869918483E+01  0.12540943584E+02 -0.54454645342E+01  0.14807775872E+02  0.00000000000E+00 0. -1.
</event>
<event>
 7    1  0.4519840E-010  0.4778727E+02  0.7816164E-02  0.1312668E+00
        -11   -1    0    0    0    0  0.00000000000E+00  0.00000000000E+00  0.45593999997E+02  0.45594000000E+02  0.51100000000E-03 0. -1.
         11   -1    0    0    0    0 -0.00000000000E+00 -0.00000000000E+00 -0.45593999997E+02  0.45594000000E+02  0.51100000000E-03 0.  1.
    9900012    2    1    2    0    0  0.20782369247E+02  0.28523279404E+02 -0.25261415315E+02  0.47787269094E+02  0.19999991105E+02 0.  0.
         12    1    1    2    0    0 -0.20782369247E+02 -0.28523279404E+02  0.25261415315E+02  0.43400730906E+02  0.00000000000E+00 0. -1.
         11    1    3    3    0    0  0.18130319439E+01  0.27585392359E+01 -0.10369221186E+02  0.10881974628E+02  0.51100000000E-03 0. -1.
        -11    1    3    3    0    0  0.77688484159E+01  0.12092935944E+02 -0.12541423253E+02  0.19075675688E+02  0.51100000000E-03 0.  1.
        -12    1    3    3    0    0  0.11200488887E+02  0.13671804224E+02 -0.23507708761E+01  0.17829618778E+02  0.00000000000E+00 0.  1.
</event>
<event>
 7    1  0.4519840E-010  0.4778727E+02  0.7816164E-02  0.1312668E+00
        -11   -1    0    0    0    0  0.00000000000E+00  0.00000000000E+00  0.45593999997E+02  0.45594000000E+02  0.51100000000E-03 0. -1.
         11   -1    0    0    0    0 -0.00000000000E+00 -0.00000000000E+00 -0.45593999997E+02  0.45594000000E+02  0.51100000000E-03 0.  1.
    9900012    2    1    2    0    0  0.28914617800E+02 -0.11497371464E+02  0.30255226003E+02  0.47787269896E+02  0.19999994764E+02 0.  0.
        -12    1    1    2    0    0 -0.28914617800E+02  0.11497371464E+02 -0.30255226003E+02  0.43400730104E+02  0.00000000000E+00 0.  1.
         11    1    3    3    0    0  0.67415356981E+01 -0.10366853121E+02  0.16835946285E+02  0.20889447929E+02  0.51100000000E-03 0. -1.
        -11    1    3    3    0    0  0.67551214737E+00  0.12030537654E+01  0.20395764506E+01  0.24624230714E+01  0.51100000000E-03 0.  1.
        -12    1    3    3    0    0  0.21497569955E+02 -0.23335721075E+01  0.11379703267E+02  0.24435398896E+02  0.00000000000E+00 0.  1.
</event>
<event>
 7    1  0.4519840E-010  0.4778727E+02  0.7816164E-02  0.1312668E+00
        -11   -1    0    0    0    0  0.00000000000E+00  0.00000000000E+00  0.45593999997E+02  0.45594000000E+02  0.51100000000E-03 0. -1.
         11   -1    0    0    0    0 -0.00000000000E+00 -0.00000000000E+00 -0.45593999997E+02  0.45594000000E+02  0.51100000000E-03 0.  1.
    9900012    2    1    2    0    0  0.54350614748E+01  0.83373873973E+01  0.42244191648E+02  0.47787266713E+02  0.19999980252E+02 0.  0.
        -12    1    1    2    0    0 -0.54350614748E+01 -0.83373873973E+01 -0.42244191648E+02  0.43400733287E+02  0.00000000000E+00 0.  1.
         11    1    3    3    0    0 -0.27365207455E+00  0.22305403932E+01  0.69855519440E+01  0.73381286529E+01  0.51100000000E-03 0. -1.
        -11    1    3    3    0    0 -0.25211496835E+01 -0.24856776311E+01  0.33720430686E+00  0.35564724121E+01  0.51100000000E-03 0.  1.
         12    1    3    3    0    0  0.82298632328E+01  0.85925246353E+01  0.34921435397E+02  0.36892665648E+02  0.00000000000E+00 0. -1.
</event>
<event>
 7    1  0.4519840E-010  0.4778728E+02  0.7816164E-02  0.1312668E+00
        -11   -1    0    0    0    0  0.00000000000E+00  0.00000000000E+00  0.45593999997E+02  0.45594000000E+02  0.51100000000E-03 0. -1.
         11   -1    0    0    0    0 -0.00000000000E+00 -0.00000000000E+00 -0.45593999997E+02  0.45594000000E+02  0.51100000000E-03 0.  1.
    9900012    2    1    2    0    0  0.18073932420E+02 -0.20894903391E+02 -0.33471761195E+02  0.47787276292E+02  0.20000023928E+02 0.  0.
         12    1    1    2    0    0 -0.18073932420E+02  0.20894903391E+02  0.33471761195E+02  0.43400723708E+02  0.00000000000E+00 0. -1.
         11    1    3    3    0    0 -0.95670022160E+00  0.20853536456E+01  0.50970782402E+00  0.23502717860E+01  0.51100000000E-03 0. -1.
        -11    1    3    3    0    0  0.31457235078E+01 -0.41068501901E+01 -0.36038557557E+01  0.63047261194E+01  0.51100000000E-03 0.  1.
        -12    1    3    3    0    0  0.15884909134E+02 -0.18873406847E+02 -0.30377613263E+02  0.39132278387E+02  0.00000000000E+00 0.  1.
</event>
<event>
 7    1  0.4519840E-010  0.4778727E+02  0.7816164E-02  0.1312668E+00
        -11   -1    0    0    0    0  0.00000000000E+00  0.00000000000E+00  0.45593999997E+02  0.45594000000E+02  0.51100000000E-03 0. -1.
         11   -1    0    0    0    0 -0.00000000000E+00 -0.00000000000E+00 -0.45593999997E+02  0.45594000000E+02  0.51100000000E-03 0.  1.
    9900012    2    1    2    0    0  0.13477735223E+02 -0.17156135279E+02 -0.37518537461E+02  0.47787274457E+02  0.20000015558E+02 0.  0.
         12    1    1    2    0    0 -0.13477735223E+02  0.17156135279E+02  0.37518537461E+02  0.43400725543E+02  0.00000000000E+00 0. -1.
         11    1    3    3    0    0  0.11471937315E+02 -0.77945832716E+01 -0.80180869473E+01  0.16020318121E+02  0.51100000000E-03 0. -1.
        -11    1    3    3    0    0 -0.10838464125E+01 -0.23661232121E+01 -0.21755018653E+01  0.33920599535E+01  0.51100000000E-03 0.  1.
        -12    1    3    3    0    0  0.30896443204E+01 -0.69954287956E+01 -0.27324948649E+02  0.28374896382E+02  0.00000000000E+00 0.  1.
</event>
<event>
 7    1  0.4519840E-010  0.4778727E+02  0.7816164E-02  0.1312668E+00
        -11   -1    0    0    0    0  0.00000000000E+00  0.00000000000E+00  0.45593999997E+02  0.45594000000E+02  0.51100000000E-03 0.  1.
         11   -1    0    0    0    0 -0.00000000000E+00 -0.00000000000E+00 -0.45593999997E+02  0.45594000000E+02  0.51100000000E-03 0. -1.
    9900012    2    1    2    0    0 -0.12374577145E+01 -0.42690566509E+02  0.77206202457E+01  0.47787265588E+02  0.19999975124E+02 0.  0.
        -12    1    1    2    0    0  0.12374577145E+01  0.42690566509E+02 -0.77206202457E+01  0.43400734412E+02  0.00000000000E+00 0.  1.
         11    1    3    3    0    0  0.34580674465E+01 -0.10818175001E+02 -0.29127190712E+01  0.11724976480E+02  0.51100000000E-03 0. -1.
        -11    1    3    3    0    0 -0.55988294919E+01 -0.99205049194E+01 -0.55933648085E+00  0.11405093910E+02  0.51100000000E-03 0.  1.
         12    1    3    3    0    0  0.90330433091E+00 -0.21951886589E+02  0.11192675798E+02  0.24657195198E+02  0.00000000000E+00 0. -1.
</event>
<event>
 7    1  0.4519840E-010  0.4778727E+02  0.7816164E-02  0.1312668E+00
        -11   -1    0    0    0    0  0.00000000000E+00  0.00000000000E+00  0.45593999997E+02  0.45594000000E+02  0.51100000000E-03 0.  1.
         11   -1    0    0    0    0 -0.00000000000E+00 -0.00000000000E+00 -0.45593999997E+02  0.45594000000E+02  0.51100000000E-03 0. -1.
    9900012    2    1    2    0    0 -0.20507573877E+01 -0.43080513350E+02 -0.48463311794E+01  0.47787272331E+02  0.20000005864E+02 0.  0.
        -12    1    1    2    0    0  0.20507573877E+01  0.43080513350E+02  0.48463311794E+01  0.43400727669E+02  0.00000000000E+00 0.  1.
         11    1    3    3    0    0  0.23944463903E+01 -0.20812748203E+02 -0.75846324165E+01  0.22280720599E+02  0.51100000000E-03 0. -1.
        -11    1    3    3    0    0 -0.35126405884E+01 -0.27958213306E+01 -0.27369740637E+01  0.52579737639E+01  0.51100000000E-03 0.  1.
         12    1    3    3    0    0 -0.93256318963E+00 -0.19471943816E+02  0.54752753008E+01  0.20248577967E+02  0.00000000000E+00 0. -1.
</event>
<event>
 7    1  0.4519840E-010  0.4778727E+02  0.7816164E-02  0.1312668E+00
        -11   -1    0    0    0    0  0.00000000000E+00  0.00000000000E+00  0.45593999997E+02  0.45594000000E+02  0.51100000000E-03 0. -1.
         11   -1    0    0    0    0 -0.00000000000E+00 -0.00000000000E+00 -0.45593999997E+02  0.45594000000E+02  0.51100000000E-03 0.  1.
    9900012    2    1    2    0    0 -0.14047377192E+02 -0.32162759022E+02  0.25531375813E+02  0.47787273914E+02  0.20000013083E+02 0.  0.
        -12    1    1    2    0    0  0.14047377192E+02  0.32162759022E+02 -0.25531375813E+02  0.43400726086E+02  0.00000000000E+00 0.  1.
         11    1    3    3    0    0  0.22324585536E+01 -0.52590546125E+01  0.97621547982E+01  0.11311109281E+02  0.51100000000E-03 0. -1.
        -11    1    3    3    0    0 -0.19450760393E+01 -0.91767692576E+01  0.12893677196E+01  0.94688375307E+01  0.51100000000E-03 0.  1.
        -12    1    3    3    0    0 -0.14334759707E+02 -0.17726935152E+02  0.14479853295E+02  0.27007327102E+02  0.00000000000E+00 0.  1.
</event>
<event>
 7    1  0.4519840E-010  0.4778727E+02  0.7816164E-02  0.1312668E+00
        -11   -1    0    0    0    0  0.00000000000E+00  0.00000000000E+00  0.45593999997E+02  0.45594000000E+02  0.51100000000E-03 0. -1.
         11   -1    0    0    0    0 -0.00000000000E+00 -0.00000000000E+00 -0.45593999997E+02  0.45594000000E+02  0.51100000000E-03 0.  1.
    9900012    2    1    2    0    0 -0.70450226085E+01  0.39677357370E+02  0.16115156297E+02  0.47787270814E+02  0.19999998949E+02 0.  0.
        -12    1    1    2    0    0  0.70450226085E+01 -0.39677357370E+02 -0.16115156297E+02  0.43400729186E+02  0.00000000000E+00 0.  1.
         11    1    3    3    0    0  0.37740241657E+01  0.16845033715E+01 -0.22613568185E+00  0.41390756963E+01  0.51100000000E-03 0.  1.
        -11    1    3    3    0    0 -0.13747680924E+01  0.12067138832E+02  0.12789082515E+01  0.12212347582E+02  0.51100000000E-03 0. -1.
        -12    1    3    3    0    0 -0.94442786817E+01  0.25925715167E+02  0.15062383727E+02  0.31435847536E+02  0.00000000000E+00 0.  1.
</event>
<event>
 7    1  0.4519840E-010  0.4778727E+02  0.7816164E-02  0.1312668E+00
        -11   -1    0    0    0    0  0.00000000000E+00  0.00000000000E+00  0.45593999997E+02  0.45594000000E+02  0.51100000000E-03 0. -1.
         11   -1    0    0    0    0 -0.00000000000E+00 -0.00000000000E+00 -0.45593999997E+02  0.45594000000E+02  0.51100000000E-03 0.  1.
    9900012    2    1    2    0    0  0.95730749644E+01  0.31884128414E+02  0.27845678512E+02  0.47787271657E+02  0.20000002791E+02 0.  0.
        -12    1    1    2    0    0 -0.95730749644E+01 -0.31884128414E+02 -0.27845678512E+02  0.43400728343E+02  0.00000000000E+00 0.  1.
         11    1    3    3    0    0  0.38071977333E+01  0.28804559334E+02  0.23948709771E+02  0.37652863011E+02  0.51100000000E-03 0. -1.
        -11    1    3    3    0    0 -0.86981551058E+00  0.14887023237E+00  0.26254021332E+01  0.27697433077E+01  0.51100000000E-03 0.  1.
        -12    1    3    3    0    0  0.66356927417E+01  0.29306988476E+01  0.12715666076E+01  0.73646653376E+01  0.00000000000E+00 0.  1.
</event>
<event>
 7    1  0.4519840E-010  0.4778727E+02  0.7816164E-02  0.1312668E+00
        -11   -1    0    0    0    0  0.00000000000E+00  0.00000000000E+00  0.45593999997E+02  0.45594000000E+02  0.51100000000E-03 0. -1.
         11   -1    0    0    0    0 -0.00000000000E+00 -0.00000000000E+00 -0.45593999997E+02  0.45594000000E+02  0.51100000000E-03 0.  1.
    9900012    2    1    2    0    0  0.16323692531E+01 -0.39990068847E+01  0.43185257239E+02  0.47787272722E+02  0.20000007648E+02 0.  0.
        -12    1    1    2    0    0 -0.16323692531E+01  0.39990068847E+01 -0.43185257239E+02  0.43400727278E+02  0.00000000000E+00 0.  1.
         11    1    3    3    0    0 -0.51459996399E+01 -0.45872414257E+01  0.18054405470E+02  0.19325776914E+02  0.51100000000E-03 0. -1.
        -11    1    3    3    0    0 -0.21525650056E+01 -0.21012188542E+01  0.22618197436E+01  0.37635735133E+01  0.51100000000E-03 0.  1.
         12    1    3    3    0    0  0.89309338986E+01  0.26894533952E+01  0.22869032026E+02  0.24697922294E+02  0.00000000000E+00 0. -1.
</event>
<event>
 7    1  0.4519840E-010  0.4778727E+02  0.7816164E-02  0.1312668E+00
        -11   -1    0    0    0    0  0.00000000000E+00  0.00000000000E+00  0.45593999997E+02  0.45594000000E+02  0.51100000000E-03 0. -1.
         11   -1    0    0    0    0 -0.00000000000E+00 -0.00000000000E+00 -0.45593999997E+02  0.45594000000E+02  0.51100000000E-03 0.  1.
    9900012    2    1    2    0    0 -0.53332785050E+01 -0.62565339052E+01  0.42614964933E+02  0.47787270601E+02  0.19999997980E+02 0.  0.
        -12    1    1    2    0    0  0.53332785050E+01  0.62565339052E+01 -0.42614964933E+02  0.43400729399E+02  0.00000000000E+00 0.  1.
         11    1    3    3    0    0  0.16713335301E+01  0.26687312373E+01  0.27151796190E+01  0.41578459339E+01  0.51100000000E-03 0. -1.
        -11    1    3    3    0    0  0.10390842740E+01 -0.61490121255E+01  0.59138146398E+01  0.85943731652E+01  0.51100000000E-03 0.  1.
         12    1    3    3    0    0 -0.80436963090E+01 -0.27762530170E+01  0.33985970674E+02  0.35035051502E+02  0.00000000000E+00 0. -1.
</event>
<event>
 7    1  0.4519840E-010  0.4778728E+02  0.7816164E-02  0.1312668E+00
        -11   -1    0    0    0    0  0.00000000000E+00  0.00000000000E+00  0.45593999997E+02  0.45594000000E+02  0.51100000000E-03 0. -1.
         11   -1    0    0    0    0 -0.00000000000E+00 -0.00000000000E+00 -0.45593999997E+02  0.45594000000E+02  0.51100000000E-03 0.  1.
    9900012    2    1    2    0    0  0.14619769005E+02  0.25053015227E+02  0.32283606488E+02  0.47787280356E+02  0.20000042457E+02 0.  0.
        -12    1    1    2    0    0 -0.14619769005E+02 -0.25053015227E+02 -0.32283606488E+02  0.43400719644E+02  0.00000000000E+00 0.  1.
         11    1    3    3    0    0  0.17608793835E-01  0.65388550048E+01  0.55350694421E+01  0.85670256702E+01  0.51100000000E-03 0. -1.
        -11    1    3    3    0    0 -0.27624586394E+00  0.10885450691E+02  0.55513644308E+01  0.12222397302E+02  0.51100000000E-03 0.  1.
         12    1    3    3    0    0  0.14878406075E+02  0.76287095315E+01  0.21197172615E+02  0.26997857384E+02  0.00000000000E+00 0. -1.
</event>
<event>
 7    1  0.4891379E-010  0.4778727E+02  0.7816164E-02  0.1312668E+00
        -11   -1    0    0    0    0  0.00000000000E+00  0.00000000000E+00  0.45593999997E+02  0.45594000000E+02  0.51100000000E-03 0. -1.
         11   -1    0    0    0    0 -0.00000000000E+00 -0.00000000000E+00 -0.45593999997E+02  0.45594000000E+02  0.51100000000E-03 0.  1.
    9900012    2    1    2    0    0  0.27740938282E+02  0.41319626649E+00 -0.33375034532E+02  0.47787270537E+02  0.19999997685E+02 0.  0.
         12    1    1    2    0    0 -0.27740938282E+02 -0.41319626649E+00  0.33375034532E+02  0.43400729463E+02  0.00000000000E+00 0. -1.
         11    1    3    3    0    0  0.11674249174E+02 -0.41772164042E+01 -0.79640648441E+01  0.14736470397E+02  0.51100000000E-03 0.  1.
        -11    1    3    3    0    0 -0.38599280018E+00 -0.29908113702E+01 -0.38187814861E+01  0.48659054032E+01  0.51100000000E-03 0. -1.
        -12    1    3    3    0    0  0.16452681908E+02  0.75812240409E+01 -0.21592188202E+02  0.28184894736E+02  0.00000000000E+00 0.  1.
</event>
<event>
 7    1  0.4519840E-010  0.4778727E+02  0.7816164E-02  0.1312668E+00
        -11   -1    0    0    0    0  0.00000000000E+00  0.00000000000E+00  0.45593999997E+02  0.45594000000E+02  0.51100000000E-03 0. -1.
         11   -1    0    0    0    0 -0.00000000000E+00 -0.00000000000E+00 -0.45593999997E+02  0.45594000000E+02  0.51100000000E-03 0.  1.
    9900012    2    1    2    0    0 -0.32335211917E+02  0.11544428402E+02  0.26547756904E+02  0.47787272431E+02  0.20000006324E+02 0.  0.
        -12    1    1    2    0    0  0.32335211917E+02 -0.11544428402E+02 -0.26547756904E+02  0.43400727569E+02  0.00000000000E+00 0.  1.
         11    1    3    3    0    0 -0.13516514843E+02  0.10631485941E+01  0.60872228031E+01  0.14862057063E+02  0.51100000000E-03 0. -1.
        -11    1    3    3    0    0 -0.54880281848E+01  0.11249895135E+01 -0.12940829339E+01  0.57496700482E+01  0.51100000000E-03 0.  1.
         12    1    3    3    0    0 -0.13330668889E+02  0.93562902940E+01  0.21754617035E+02  0.27175545320E+02  0.00000000000E+00 0. -1.
</event>
<event>
 7    1  0.4519840E-010  0.4778727E+02  0.7816164E-02  0.1312668E+00
        -11   -1    0    0    0    0  0.00000000000E+00  0.00000000000E+00  0.45593999997E+02  0.45594000000E+02  0.51100000000E-03 0. -1.
         11   -1    0    0    0    0 -0.00000000000E+00 -0.00000000000E+00 -0.45593999997E+02  0.45594000000E+02  0.51100000000E-03 0.  1.
    9900012    2    1    2    0    0 -0.13288349737E+02 -0.11403122591E+02  0.39711608367E+02  0.47787270943E+02  0.19999999540E+02 0.  0.
        -12    1    1    2    0    0  0.13288349737E+02  0.11403122591E+02 -0.39711608367E+02  0.43400729057E+02  0.00000000000E+00 0.  1.
         11    1    3    3    0    0 -0.59317064061E+01 -0.11314835571E+02  0.14864085403E+02  0.19599787754E+02  0.51100000000E-03 0. -1.
        -11    1    3    3    0    0 -0.23714800692E+01 -0.47884640291E+01  0.55254535397E+01  0.76866080008E+01  0.51100000000E-03 0.  1.
         12    1    3    3    0    0 -0.49851632611E+01  0.47001770089E+01  0.19322069424E+02  0.20500875189E+02  0.00000000000E+00 0. -1.
</event>
<event>
 7    1  0.4519840E-010  0.4778726E+02  0.7816164E-02  0.1312668E+00
        -11   -1    0    0    0    0  0.00000000000E+00  0.00000000000E+00  0.45593999997E+02  0.45594000000E+02  0.51100000000E-03 0. -1.
         11   -1    0    0    0    0 -0.00000000000E+00 -0.00000000000E+00 -0.45593999997E+02  0.45594000000E+02  0.51100000000E-03 0.  1.
    9900012    2    1    2    0    0  0.17797303804E+02  0.67951450195E+01 -0.38996235637E+02  0.47787257928E+02  0.19999940196E+02 0.  0.
         12    1    1    2    0    0 -0.17797303804E+02 -0.67951450195E+01  0.38996235637E+02  0.43400742072E+02  0.00000000000E+00 0. -1.
         11    1    3    3    0    0  0.47449967343E+01  0.88517072208E-01 -0.20012207277E+02  0.20567237774E+02  0.51100000000E-03 0.  1.
        -11    1    3    3    0    0  0.54010296932E+01  0.42625749611E+01 -0.17822263716E+02  0.19104286201E+02  0.51100000000E-03 0. -1.
         12    1    3    3    0    0  0.76512773768E+01  0.24440529862E+01 -0.11617646441E+01  0.81157339523E+01  0.00000000000E+00 0. -1.
</event>
<event>
 7    1  0.4519840E-010  0.4778727E+02  0.7816164E-02  0.1312668E+00
        -11   -1    0    0    0    0  0.00000000000E+00  0.00000000000E+00  0.45593999997E+02  0.45594000000E+02  0.51100000000E-03 0. -1.
         11   -1    0    0    0    0 -0.00000000000E+00 -0.00000000000E+00 -0.45593999997E+02  0.45594000000E+02  0.51100000000E-03 0.  1.
    9900012    2    1    2    0    0 -0.33088894241E+01 -0.11761371069E+02 -0.41645463183E+02  0.47787271868E+02  0.20000003755E+02 0.  0.
         12    1    1    2    0    0  0.33088894241E+01  0.11761371069E+02  0.41645463183E+02  0.43400728132E+02  0.00000000000E+00 0. -1.
         11    1    3    3    0    0  0.38066937686E+01  0.19198169533E+01 -0.38231530107E+01  0.57265272012E+01  0.51100000000E-03 0. -1.
        -11    1    3    3    0    0 -0.99119662590E+00 -0.59170576003E+00 -0.15022464718E+02  0.15066752567E+02  0.51100000000E-03 0.  1.
         12    1    3    3    0    0 -0.61243865668E+01 -0.13089482263E+02 -0.22799845454E+02  0.26993992100E+02  0.00000000000E+00 0. -1.
</event>
<event>
 7    1  0.4519840E-010  0.4778728E+02  0.7816164E-02  0.1312668E+00
        -11   -1    0    0    0    0  0.00000000000E+00  0.00000000000E+00  0.45593999997E+02  0.45594000000E+02  0.51100000000E-03 0. -1.
         11   -1    0    0    0    0 -0.00000000000E+00 -0.00000000000E+00 -0.45593999997E+02  0.45594000000E+02  0.51100000000E-03 0.  1.
    9900012    2    1    2    0    0 -0.25985744137E+02 -0.10978729789E+02  0.32982291029E+02  0.47787275033E+02  0.20000018187E+02 0.  0.
        -12    1    1    2    0    0  0.25985744137E+02  0.10978729789E+02 -0.32982291029E+02  0.43400724967E+02  0.00000000000E+00 0.  1.
         11    1    3    3    0    0 -0.25395620370E+01  0.12156751414E+01  0.49303302021E+01  0.56776225264E+01  0.51100000000E-03 0. -1.
        -11    1    3    3    0    0 -0.10241488415E+01  0.29931814212E+01  0.74136795727E+01  0.80604380116E+01  0.51100000000E-03 0.  1.
         12    1    3    3    0    0 -0.22422033259E+02 -0.15187586351E+02  0.20638281254E+02  0.34049214495E+02  0.00000000000E+00 0. -1.
</event>
<event>
 7    1  0.4519840E-010  0.4778728E+02  0.7816164E-02  0.1312668E+00
        -11   -1    0    0    0    0  0.00000000000E+00  0.00000000000E+00  0.45593999997E+02  0.45594000000E+02  0.51100000000E-03 0. -1.
         11   -1    0    0    0    0 -0.00000000000E+00 -0.00000000000E+00 -0.45593999997E+02  0.45594000000E+02  0.51100000000E-03 0.  1.
    9900012    2    1    2    0    0  0.36164574677E+02 -0.43394781729E+01 -0.23599053061E+02  0.47787276069E+02  0.20000022907E+02 0.  0.
         12    1    1    2    0    0 -0.36164574677E+02  0.43394781729E+01  0.23599053061E+02  0.43400723931E+02  0.00000000000E+00 0. -1.
         11    1    3    3    0    0  0.16768272259E+02 -0.27347479885E+00 -0.66081385638E+01  0.18025460842E+02  0.51100000000E-03 0. -1.
        -11    1    3    3    0    0  0.37749133720E+01  0.50286293838E+01 -0.54040338585E+01  0.82909991346E+01  0.51100000000E-03 0.  1.
         12    1    3    3    0    0  0.15621389046E+02 -0.90946327578E+01 -0.11586880639E+02  0.21470816092E+02  0.00000000000E+00 0. -1.
</event>
<event>
 7    1  0.4519840E-010  0.4778727E+02  0.7816164E-02  0.1312668E+00
        -11   -1    0    0    0    0  0.00000000000E+00  0.00000000000E+00  0.45593999997E+02  0.45594000000E+02  0.51100000000E-03 0. -1.
         11   -1    0    0    0    0 -0.00000000000E+00 -0.00000000000E+00 -0.45593999997E+02  0.45594000000E+02  0.51100000000E-03 0.  1.
    9900012    2    1    2    0    0 -0.30450414601E+02 -0.10376117411E+02  0.29132998610E+02  0.47787272242E+02  0.20000005462E+02 0.  0.
        -12    1    1    2    0    0  0.30450414601E+02  0.10376117411E+02 -0.29132998610E+02  0.43400727758E+02  0.00000000000E+00 0.  1.
         11    1    3    3    0    0 -0.85692767516E+01  0.16652216196E+01  0.13977075323E+02  0.16479202102E+02  0.51100000000E-03 0. -1.
        -11    1    3    3    0    0  0.40279786467E+00 -0.33359037503E+01  0.28427401016E+01  0.44013261067E+01  0.51100000000E-03 0.  1.
         12    1    3    3    0    0 -0.22283935714E+02 -0.87054352806E+01  0.12313183185E+02  0.26906744033E+02  0.00000000000E+00 0. -1.
</event>
<event>
 7    1  0.4519840E-010  0.4778727E+02  0.7816164E-02  0.1312668E+00
        -11   -1    0    0    0    0  0.00000000000E+00  0.00000000000E+00  0.45593999997E+02  0.45594000000E+02  0.51100000000E-03 0. -1.
         11   -1    0    0    0    0 -0.00000000000E+00 -0.00000000000E+00 -0.45593999997E+02  0.45594000000E+02  0.51100000000E-03 0.  1.
    9900012    2    1    2    0    0  0.33602594231E+02 -0.21430543882E+02  0.17181988175E+02  0.47787271115E+02  0.20000000321E+02 0.  0.
        -12    1    1    2    0    0 -0.33602594231E+02  0.21430543882E+02 -0.17181988175E+02  0.43400728885E+02  0.00000000000E+00 0.  1.
         11    1    3    3    0    0  0.29750113953E+02 -0.22448828478E+02  0.12242719076E+02  0.39228858649E+02  0.51100000000E-03 0. -1.
        -11    1    3    3    0    0  0.32799495852E+01  0.38487045517E+00 -0.23818278978E+00  0.33110309348E+01  0.51100000000E-03 0.  1.
         12    1    3    3    0    0  0.57253069261E+00  0.63341414112E+00  0.51774518896E+01  0.52473815315E+01  0.00000000000E+00 0. -1.
</event>
<event>
 7    1  0.4519840E-010  0.4778727E+02  0.7816164E-02  0.1312668E+00
        -11   -1    0    0    0    0  0.00000000000E+00  0.00000000000E+00  0.45593999997E+02  0.45594000000E+02  0.51100000000E-03 0. -1.
         11   -1    0    0    0    0 -0.00000000000E+00 -0.00000000000E+00 -0.45593999997E+02  0.45594000000E+02  0.51100000000E-03 0.  1.
    9900012    2    1    2    0    0 -0.21211512485E+02  0.20195359212E+02  0.32028779938E+02  0.47787267980E+02  0.19999986027E+02 0.  0.
        -12    1    1    2    0    0  0.21211512485E+02 -0.20195359212E+02 -0.32028779938E+02  0.43400732020E+02  0.00000000000E+00 0.  1.
         11    1    3    3    0    0 -0.10250875755E+02  0.11918879905E+02  0.27955306100E+02  0.32072407009E+02  0.51100000000E-03 0. -1.
        -11    1    3    3    0    0 -0.69113455068E+00  0.60918999947E-01  0.23509367722E+01  0.24511797281E+01  0.51100000000E-03 0.  1.
         12    1    3    3    0    0 -0.10269502179E+02  0.82155603069E+01  0.17225370656E+01  0.13263681243E+02  0.00000000000E+00 0. -1.
</event>
<event>
 7    1  0.4519840E-010  0.4778727E+02  0.7816164E-02  0.1312668E+00
        -11   -1    0    0    0    0  0.00000000000E+00  0.00000000000E+00  0.45593999997E+02  0.45594000000E+02  0.51100000000E-03 0. -1.
         11   -1    0    0    0    0 -0.00000000000E+00 -0.00000000000E+00 -0.45593999997E+02  0.45594000000E+02  0.51100000000E-03 0.  1.
    9900012    2    1    2    0    0 -0.44280127951E+01 -0.27590065906E+02  0.33208499288E+02  0.47787268912E+02  0.19999990278E+02 0.  0.
        -12    1    1    2    0    0  0.44280127951E+01  0.27590065906E+02 -0.33208499288E+02  0.43400731088E+02  0.00000000000E+00 0.  1.
         11    1    3    3    0    0  0.38917483144E+01 -0.23808880074E+01  0.95402508561E+01  0.10575004459E+02  0.51100000000E-03 0.  1.
        -11    1    3    3    0    0 -0.53858586915E+01 -0.61484675041E+01  0.12474419062E+02  0.14913827734E+02  0.51100000000E-03 0. -1.
         12    1    3    3    0    0 -0.29339024181E+01 -0.19060710395E+02  0.11193829370E+02  0.22298436719E+02  0.00000000000E+00 0. -1.
</event>
<event>
 7    1  0.4519840E-010  0.4778727E+02  0.7816164E-02  0.1312668E+00
        -11   -1    0    0    0    0  0.00000000000E+00  0.00000000000E+00  0.45593999997E+02  0.45594000000E+02  0.51100000000E-03 0. -1.
         11   -1    0    0    0    0 -0.00000000000E+00 -0.00000000000E+00 -0.45593999997E+02  0.45594000000E+02  0.51100000000E-03 0.  1.
    9900012    2    1    2    0    0 -0.19399416414E+02  0.37665465825E+02 -0.94126898278E+01  0.47787269559E+02  0.19999993228E+02 0.  0.
         12    1    1    2    0    0  0.19399416414E+02 -0.37665465825E+02  0.94126898278E+01  0.43400730441E+02  0.00000000000E+00 0. -1.
         11    1    3    3    0    0 -0.62731518611E+01  0.15430176976E+02 -0.96206721841E+00  0.16684375007E+02  0.51100000000E-03 0. -1.
        -11    1    3    3    0    0 -0.74515707262E+01  0.19832914081E+02 -0.69604059159E+00  0.21197991886E+02  0.51100000000E-03 0.  1.
         12    1    3    3    0    0 -0.56746938266E+01  0.24023747675E+01 -0.77545820178E+01  0.99049026658E+01  0.00000000000E+00 0. -1.
</event>
<event>
 7    1  0.4519840E-010  0.4778727E+02  0.7816164E-02  0.1312668E+00
        -11   -1    0    0    0    0  0.00000000000E+00  0.00000000000E+00  0.45593999997E+02  0.45594000000E+02  0.51100000000E-03 0. -1.
         11   -1    0    0    0    0 -0.00000000000E+00 -0.00000000000E+00 -0.45593999997E+02  0.45594000000E+02  0.51100000000E-03 0.  1.
    9900012    2    1    2    0    0 -0.35835379154E+02  0.72605937647E+01  0.23382308249E+02  0.47787274660E+02  0.20000016486E+02 0.  0.
        -12    1    1    2    0    0  0.35835379154E+02 -0.72605937647E+01 -0.23382308249E+02  0.43400725340E+02  0.00000000000E+00 0.  1.
         11    1    3    3    0    0 -0.11648402206E+01  0.18535934651E+01  0.13556743222E+01  0.25749785634E+01  0.51100000000E-03 0.  1.
        -11    1    3    3    0    0 -0.26957408155E+02  0.97393591024E+01  0.22370169708E+02  0.36359063013E+02  0.51100000000E-03 0. -1.
         12    1    3    3    0    0 -0.77131307789E+01 -0.43323588028E+01 -0.34353578041E+00  0.88532330841E+01  0.00000000000E+00 0. -1.
</event>
<event>
 7    1  0.4519840E-010  0.4778727E+02  0.7816164E-02  0.1312668E+00
        -11   -1    0    0    0    0  0.00000000000E+00  0.00000000000E+00  0.45593999997E+02  0.45594000000E+02  0.51100000000E-03 0. -1.
         11   -1    0    0    0    0 -0.00000000000E+00 -0.00000000000E+00 -0.45593999997E+02  0.45594000000E+02  0.51100000000E-03 0.  1.
    9900012    2    1    2    0    0 -0.11117711168E+02  0.51345478347E+01  0.41637200474E+02  0.47787267904E+02  0.19999985683E+02 0.  0.
        -12    1    1    2    0    0  0.11117711168E+02 -0.51345478347E+01 -0.41637200474E+02  0.43400732096E+02  0.00000000000E+00 0.  1.
         11    1    3    3    0    0 -0.61470562136E+01  0.27329121779E+01  0.27244842251E+02  0.28063081417E+02  0.51100000000E-03 0. -1.
        -11    1    3    3    0    0 -0.67108577460E+01  0.55228104689E+01  0.13475110083E+02  0.16034825823E+02  0.51100000000E-03 0.  1.
         12    1    3    3    0    0  0.17402027912E+01 -0.31211748121E+01  0.91724814024E+00  0.36893606645E+01  0.00000000000E+00 0. -1.
</event>
<event>
 7    1  0.4519840E-010  0.4778727E+02  0.7816164E-02  0.1312668E+00
        -11   -1    0    0    0    0  0.00000000000E+00  0.00000000000E+00  0.45593999997E+02  0.45594000000E+02  0.51100000000E-03 0. -1.
         11   -1    0    0    0    0 -0.00000000000E+00 -0.00000000000E+00 -0.45593999997E+02  0.45594000000E+02  0.51100000000E-03 0.  1.
    9900012    2    1    2    0    0  0.18561868780E+02 -0.19840395391E+02  0.33844335292E+02  0.47787270821E+02  0.19999998982E+02 0.  0.
        -12    1    1    2    0    0 -0.18561868780E+02  0.19840395391E+02 -0.33844335292E+02  0.43400729179E+02  0.00000000000E+00 0.  1.
         11    1    3    3    0    0  0.63482808054E+01 -0.90015445991E+01  0.12578677582E+02  0.16719796779E+02  0.51100000000E-03 0. -1.
        -11    1    3    3    0    0  0.35045731172E+01  0.39114310881E+01  0.71487979120E+01  0.88705488972E+01  0.51100000000E-03 0.  1.
         12    1    3    3    0    0  0.87090148575E+01 -0.14750281880E+02  0.14116859799E+02  0.22196925145E+02  0.00000000000E+00 0. -1.
</event>
<event>
 7    1  0.4519840E-010  0.4778728E+02  0.7816164E-02  0.1312668E+00
        -11   -1    0    0    0    0  0.00000000000E+00  0.00000000000E+00  0.45593999997E+02  0.45594000000E+02  0.51100000000E-03 0. -1.
         11   -1    0    0    0    0 -0.00000000000E+00 -0.00000000000E+00 -0.45593999997E+02  0.45594000000E+02  0.51100000000E-03 0.  1.
    9900012    2    1    2    0    0 -0.75195029615E+00 -0.42383924843E+02 -0.93091296846E+01  0.47787280999E+02  0.20000045386E+02 0.  0.
         12    1    1    2    0    0  0.75195029615E+00  0.42383924843E+02  0.93091296846E+01  0.43400719001E+02  0.00000000000E+00 0. -1.
         11    1    3    3    0    0 -0.47233333799E+01 -0.21794033091E+02 -0.56060878756E+01  0.22993868273E+02  0.51100000000E-03 0. -1.
        -11    1    3    3    0    0 -0.28153884798E+01 -0.27316259372E+01  0.25651135652E+01  0.46870033514E+01  0.51100000000E-03 0.  1.
        -12    1    3    3    0    0  0.67867715636E+01 -0.17858265814E+02 -0.62681553741E+01  0.20106409375E+02  0.00000000000E+00 0.  1.
</event>
<event>
 7    1  0.4519840E-010  0.4778727E+02  0.7816164E-02  0.1312668E+00
        -11   -1    0    0    0    0  0.00000000000E+00  0.00000000000E+00  0.45593999997E+02  0.45594000000E+02  0.51100000000E-03 0. -1.
         11   -1    0    0    0    0 -0.00000000000E+00 -0.00000000000E+00 -0.45593999997E+02  0.45594000000E+02  0.51100000000E-03 0.  1.
    9900012    2    1    2    0    0  0.31855314443E+02  0.29192660297E+02  0.40805435065E+01  0.47787270642E+02  0.19999998165E+02 0.  0.
        -12    1    1    2    0    0 -0.31855314443E+02 -0.29192660297E+02 -0.40805435065E+01  0.43400729358E+02  0.00000000000E+00 0.  1.
         11    1    3    3    0    0  0.20896534473E+02  0.63654724416E+01  0.38870819588E+01  0.22187694761E+02  0.51100000000E-03 0. -1.
        -11    1    3    3    0    0  0.20343928932E+00 -0.65346777458E-01 -0.21495198924E+00  0.30308804754E+00  0.51100000000E-03 0.  1.
        -12    1    3    3    0    0  0.10755340681E+02  0.22892534633E+02  0.40841353698E+00  0.25296487833E+02  0.00000000000E+00 0.  1.
</event>
<event>
 7    1  0.4519840E-010  0.4778727E+02  0.7816164E-02  0.1312668E+00
        -11   -1    0    0    0    0  0.00000000000E+00  0.00000000000E+00  0.45593999997E+02  0.45594000000E+02  0.51100000000E-03 0. -1.
         11   -1    0    0    0    0 -0.00000000000E+00 -0.00000000000E+00 -0.45593999997E+02  0.45594000000E+02  0.51100000000E-03 0.  1.
    9900012    2    1    2    0    0 -0.23704069379E+02 -0.18266854332E+02 -0.31433459338E+02  0.47787271455E+02  0.20000001870E+02 0.  0.
         12    1    1    2    0    0  0.23704069379E+02  0.18266854332E+02  0.31433459338E+02  0.43400728545E+02  0.00000000000E+00 0. -1.
         11    1    3    3    0    0 -0.20899649856E+02 -0.55664805559E+01 -0.18272252749E+02  0.28313535467E+02  0.51100000000E-03 0. -1.
        -11    1    3    3    0    0  0.97867883187E+00  0.11894927048E+00 -0.84009038992E+00  0.12952657292E+01  0.51100000000E-03 0.  1.
        -12    1    3    3    0    0 -0.37830983551E+01 -0.12819323046E+02 -0.12321116199E+02  0.18178470258E+02  0.00000000000E+00 0.  1.
</event>
<event>
 7    1  0.4519840E-010  0.4778727E+02  0.7816164E-02  0.1312668E+00
        -11   -1    0    0    0    0  0.00000000000E+00  0.00000000000E+00  0.45593999997E+02  0.45594000000E+02  0.51100000000E-03 0. -1.
         11   -1    0    0    0    0 -0.00000000000E+00 -0.00000000000E+00 -0.45593999997E+02  0.45594000000E+02  0.51100000000E-03 0.  1.
    9900012    2    1    2    0    0  0.24144798346E+02 -0.18447188015E+02 -0.30989569428E+02  0.47787269059E+02  0.19999990949E+02 0.  0.
         12    1    1    2    0    0 -0.24144798346E+02  0.18447188015E+02  0.30989569428E+02  0.43400730941E+02  0.00000000000E+00 0. -1.
         11    1    3    3    0    0  0.16184638255E+02 -0.63088413731E+01 -0.19350420170E+02  0.26003514300E+02  0.51100000000E-03 0. -1.
        -11    1    3    3    0    0  0.10501092286E+02 -0.10170287374E+02 -0.11441300561E+02  0.18563702305E+02  0.51100000000E-03 0.  1.
         12    1    3    3    0    0 -0.25409321951E+01 -0.19680592680E+01 -0.19784869690E+00  0.32200524544E+01  0.00000000000E+00 0. -1.
</event>
<event>
 7    1  0.4519840E-010  0.4778727E+02  0.7816164E-02  0.1312668E+00
        -11   -1    0    0    0    0  0.00000000000E+00  0.00000000000E+00  0.45593999997E+02  0.45594000000E+02  0.51100000000E-03 0. -1.
         11   -1    0    0    0    0 -0.00000000000E+00 -0.00000000000E+00 -0.45593999997E+02  0.45594000000E+02  0.51100000000E-03 0.  1.
    9900012    2    1    2    0    0 -0.29105311757E+02 -0.29117296113E+02 -0.13736342429E+02  0.47787271795E+02  0.20000003421E+02 0.  0.
         12    1    1    2    0    0  0.29105311757E+02  0.29117296113E+02  0.13736342429E+02  0.43400728205E+02  0.00000000000E+00 0. -1.
         11    1    3    3    0    0 -0.15867040639E+02 -0.24009285452E+02 -0.11446520707E+02  0.30971464336E+02  0.51100000000E-03 0. -1.
        -11    1    3    3    0    0 -0.12676424615E+01 -0.34640515182E+01 -0.29375360681E+01  0.47154733318E+01  0.51100000000E-03 0.  1.
        -12    1    3    3    0    0 -0.11970628657E+02 -0.16439591421E+01  0.64771434572E+00  0.12100334127E+02  0.00000000000E+00 0.  1.
</event>
<event>
 7    1  0.4519840E-010  0.4778728E+02  0.7816164E-02  0.1312668E+00
        -11   -1    0    0    0    0  0.00000000000E+00  0.00000000000E+00  0.45593999997E+02  0.45594000000E+02  0.51100000000E-03 0. -1.
         11   -1    0    0    0    0 -0.00000000000E+00 -0.00000000000E+00 -0.45593999997E+02  0.45594000000E+02  0.51100000000E-03 0.  1.
    9900012    2    1    2    0    0  0.29849886379E+02  0.26842969968E+02  0.16494304841E+02  0.47787275977E+02  0.20000022489E+02 0.  0.
        -12    1    1    2    0    0 -0.29849886379E+02 -0.26842969968E+02 -0.16494304841E+02  0.43400724023E+02  0.00000000000E+00 0.  1.
         11    1    3    3    0    0  0.10182149608E+02  0.26022836216E+01 -0.33717251227E+00  0.10514834105E+02  0.51100000000E-03 0. -1.
        -11    1    3    3    0    0  0.68058145822E+01  0.12634694641E+01  0.36419369200E+01  0.78217115777E+01  0.51100000000E-03 0.  1.
        -12    1    3    3    0    0  0.12861922189E+02  0.22977216882E+02  0.13189540434E+02  0.29450730295E+02  0.00000000000E+00 0.  1.
</event>
<event>
 7    1  0.4519840E-010  0.4778727E+02  0.7816164E-02  0.1312668E+00
        -11   -1    0    0    0    0  0.00000000000E+00  0.00000000000E+00  0.45593999997E+02  0.45594000000E+02  0.51100000000E-03 0. -1.
         11   -1    0    0    0    0 -0.00000000000E+00 -0.00000000000E+00 -0.45593999997E+02  0.45594000000E+02  0.51100000000E-03 0.  1.
    9900012    2    1    2    0    0 -0.32685241320E+02  0.21228702441E+02  0.19095557172E+02  0.47787272919E+02  0.20000008547E+02 0.  0.
        -12    1    1    2    0    0  0.32685241320E+02 -0.21228702441E+02 -0.19095557172E+02  0.43400727081E+02  0.00000000000E+00 0.  1.
         11    1    3    3    0    0 -0.42611977091E+01 -0.25989281991E+01  0.83191889863E+00  0.50600714437E+01  0.51100000000E-03 0. -1.
        -11    1    3    3    0    0 -0.70838278796E+00  0.36715095504E+01 -0.30207369577E+00  0.37514047145E+01  0.51100000000E-03 0.  1.
         12    1    3    3    0    0 -0.27715660823E+02  0.20156121089E+02  0.18565711969E+02  0.38975796761E+02  0.00000000000E+00 0. -1.
</event>
<event>
 7    1  0.4519840E-010  0.4778727E+02  0.7816164E-02  0.1312668E+00
        -11   -1    0    0    0    0  0.00000000000E+00  0.00000000000E+00  0.45593999997E+02  0.45594000000E+02  0.51100000000E-03 0. -1.
         11   -1    0    0    0    0 -0.00000000000E+00 -0.00000000000E+00 -0.45593999997E+02  0.45594000000E+02  0.51100000000E-03 0.  1.
    9900012    2    1    2    0    0  0.12919953330E+01 -0.27760022695E+01  0.43292585070E+02  0.47787270022E+02  0.19999995339E+02 0.  0.
        -12    1    1    2    0    0 -0.12919953330E+01  0.27760022695E+01 -0.43292585070E+02  0.43400729978E+02  0.00000000000E+00 0.  1.
         11    1    3    3    0    0 -0.67159698882E+01  0.60675272740E+00  0.15393798444E+02  0.16805993907E+02  0.51100000000E-03 0. -1.
        -11    1    3    3    0    0  0.72220502284E+00 -0.57010038919E+01  0.10327572570E+02  0.11818704706E+02  0.51100000000E-03 0.  1.
         12    1    3    3    0    0  0.72857601983E+01  0.23182488950E+01  0.17571214056E+02  0.19162571409E+02  0.00000000000E+00 0. -1.
</event>
<event>
 7    1  0.4519840E-010  0.4778726E+02  0.7816164E-02  0.1312668E+00
        -11   -1    0    0    0    0  0.00000000000E+00  0.00000000000E+00  0.45593999997E+02  0.45594000000E+02  0.51100000000E-03 0.  1.
         11   -1    0    0    0    0 -0.00000000000E+00 -0.00000000000E+00 -0.45593999997E+02  0.45594000000E+02  0.51100000000E-03 0. -1.
    9900012    2    1    2    0    0 -0.22650632523E+02 -0.36968738442E+02  0.19710891272E+01  0.47787263047E+02  0.19999963538E+02 0.  0.
        -12    1    1    2    0    0  0.22650632523E+02  0.36968738442E+02 -0.19710891272E+01  0.43400736953E+02  0.00000000000E+00 0.  1.
         11    1    3    3    0    0 -0.77764187611E+01 -0.16757648542E+02 -0.77398365883E+01  0.20029891265E+02  0.51100000000E-03 0. -1.
        -11    1    3    3    0    0  0.47316307412E+00 -0.16861725102E+01 -0.15123115170E+00  0.17578202841E+01  0.51100000000E-03 0.  1.
         12    1    3    3    0    0 -0.15347376836E+02 -0.18524917389E+02  0.98621568672E+01  0.25999551498E+02  0.00000000000E+00 0. -1.
</event>
<event>
 7    1  0.4519840E-010  0.4778726E+02  0.7816164E-02  0.1312668E+00
        -11   -1    0    0    0    0  0.00000000000E+00  0.00000000000E+00  0.45593999997E+02  0.45594000000E+02  0.51100000000E-03 0.  1.
         11   -1    0    0    0    0 -0.00000000000E+00 -0.00000000000E+00 -0.45593999997E+02  0.45594000000E+02  0.51100000000E-03 0. -1.
    9900012    2    1    2    0    0  0.49593622892E+01 -0.29232627913E+02  0.31693574183E+02  0.47787257455E+02  0.19999938038E+02 0.  0.
        -12    1    1    2    0    0 -0.49593622892E+01  0.29232627913E+02 -0.31693574183E+02  0.43400742545E+02  0.00000000000E+00 0.  1.
         11    1    3    3    0    0 -0.14952925593E+00 -0.12102613055E+02  0.15694885417E+02  0.19819814082E+02  0.51100000000E-03 0. -1.
        -11    1    3    3    0    0 -0.44704814323E+01 -0.17840591648E+01  0.27401991708E+01  0.55386607675E+01  0.51100000000E-03 0.  1.
         12    1    3    3    0    0  0.95793729775E+01 -0.15345955693E+02  0.13258489595E+02  0.22428782605E+02  0.00000000000E+00 0. -1.
</event>
<event>
 7    1  0.4519840E-010  0.4778729E+02  0.7816164E-02  0.1312668E+00
        -11   -1    0    0    0    0  0.00000000000E+00  0.00000000000E+00  0.45593999997E+02  0.45594000000E+02  0.51100000000E-03 0.  1.
         11   -1    0    0    0    0 -0.00000000000E+00 -0.00000000000E+00 -0.45593999997E+02  0.45594000000E+02  0.51100000000E-03 0. -1.
    9900012    2    1    2    0    0 -0.25364542870E+02  0.32659318801E+02  0.13176899572E+02  0.47787287772E+02  0.20000076270E+02 0.  0.
        -12    1    1    2    0    0  0.25364542870E+02 -0.32659318801E+02 -0.13176899572E+02  0.43400712228E+02  0.00000000000E+00 0.  1.
         11    1    3    3    0    0 -0.41288203667E+01  0.38442976268E+01  0.24314269744E+00  0.56466716299E+01  0.51100000000E-03 0. -1.
        -11    1    3    3    0    0 -0.62974671278E+01 -0.77526943537E+00  0.49448397085E+01  0.80442883418E+01  0.51100000000E-03 0.  1.
         12    1    3    3    0    0 -0.14938255375E+02  0.29590290609E+02  0.79889171659E+01  0.34096327801E+02  0.00000000000E+00 0. -1.
</event>
<event>
 7    1  0.4519840E-010  0.4778727E+02  0.7816164E-02  0.1312668E+00
        -11   -1    0    0    0    0  0.00000000000E+00  0.00000000000E+00  0.45593999997E+02  0.45594000000E+02  0.51100000000E-03 0. -1.
         11   -1    0    0    0    0 -0.00000000000E+00 -0.00000000000E+00 -0.45593999997E+02  0.45594000000E+02  0.51100000000E-03 0.  1.
    9900012    2    1    2    0    0 -0.38856091394E+02  0.10055658365E+02 -0.16513982908E+02  0.47787265731E+02  0.19999975774E+02 0.  0.
         12    1    1    2    0    0  0.38856091394E+02 -0.10055658365E+02  0.16513982908E+02  0.43400734269E+02  0.00000000000E+00 0. -1.
         11    1    3    3    0    0 -0.11141316025E+02  0.87885472454E+01 -0.63120158964E+01  0.15530905653E+02  0.51100000000E-03 0. -1.
        -11    1    3    3    0    0 -0.20084439433E+01 -0.79341588407E+00 -0.56766772853E+01  0.60735509466E+01  0.51100000000E-03 0.  1.
        -12    1    3    3    0    0 -0.25706331426E+02  0.20605270039E+01 -0.45252897261E+01  0.26182809132E+02  0.00000000000E+00 0.  1.
</event>
<event>
 7    1  0.4519840E-010  0.4778727E+02  0.7816164E-02  0.1312668E+00
        -11   -1    0    0    0    0  0.00000000000E+00  0.00000000000E+00  0.45593999997E+02  0.45594000000E+02  0.51100000000E-03 0.  1.
         11   -1    0    0    0    0 -0.00000000000E+00 -0.00000000000E+00 -0.45593999997E+02  0.45594000000E+02  0.51100000000E-03 0. -1.
    9900012    2    1    2    0    0  0.36169846670E+02  0.14460317170E+02  0.19138045244E+02  0.47787270092E+02  0.19999995657E+02 0.  0.
        -12    1    1    2    0    0 -0.36169846670E+02 -0.14460317170E+02 -0.19138045244E+02  0.43400729908E+02  0.00000000000E+00 0.  1.
         11    1    3    3    0    0  0.29799809709E+02  0.48815046043E+01  0.13462709602E+02  0.33062097574E+02  0.51100000000E-03 0. -1.
        -11    1    3    3    0    0  0.77596202530E+01  0.66615359219E+01  0.51537446258E+01  0.11452023893E+02  0.51100000000E-03 0.  1.
        -12    1    3    3    0    0 -0.13895832913E+01  0.29172766434E+01  0.52159101601E+00  0.32731486257E+01  0.00000000000E+00 0.  1.
</event>
<event>
 7    1  0.4519840E-010  0.4778727E+02  0.7816164E-02  0.1312668E+00
        -11   -1    0    0    0    0  0.00000000000E+00  0.00000000000E+00  0.45593999997E+02  0.45594000000E+02  0.51100000000E-03 0. -1.
         11   -1    0    0    0    0 -0.00000000000E+00 -0.00000000000E+00 -0.45593999997E+02  0.45594000000E+02  0.51100000000E-03 0.  1.
    9900012    2    1    2    0    0  0.40701460384E+00  0.13771147035E+02  0.41155962712E+02  0.47787269380E+02  0.19999992413E+02 0.  0.
        -12    1    1    2    0    0 -0.40701460384E+00 -0.13771147035E+02 -0.41155962712E+02  0.43400730620E+02  0.00000000000E+00 0.  1.
         11    1    3    3    0    0 -0.20793094059E+00 -0.13905278414E+01  0.47524553800E+01  0.49560705557E+01  0.51100000000E-03 0.  1.
        -11    1    3    3    0    0 -0.61984590776E+01  0.47862795588E+00  0.79081692806E+01  0.10059280356E+02  0.51100000000E-03 0. -1.
         12    1    3    3    0    0  0.68134046221E+01  0.14683046920E+02  0.28495338052E+02  0.32771918468E+02  0.00000000000E+00 0. -1.
</event>
<event>
 7    1  0.4519840E-010  0.4778727E+02  0.7816164E-02  0.1312668E+00
        -11   -1    0    0    0    0  0.00000000000E+00  0.00000000000E+00  0.45593999997E+02  0.45594000000E+02  0.51100000000E-03 0. -1.
         11   -1    0    0    0    0 -0.00000000000E+00 -0.00000000000E+00 -0.45593999997E+02  0.45594000000E+02  0.51100000000E-03 0.  1.
    9900012    2    1    2    0    0 -0.32332940925E+01  0.93990130839E+01 -0.42247218425E+02  0.47787273021E+02  0.20000009013E+02 0.  0.
         12    1    1    2    0    0  0.32332940925E+01 -0.93990130839E+01  0.42247218425E+02  0.43400726979E+02  0.00000000000E+00 0. -1.
         11    1    3    3    0    0 -0.35105769848E+01  0.29631766164E+01 -0.48251960032E+01  0.66623631811E+01  0.51100000000E-03 0. -1.
        -11    1    3    3    0    0 -0.66269191014E+01  0.73785177889E+01 -0.19075067369E+02  0.21499227357E+02  0.51100000000E-03 0.  1.
        -12    1    3    3    0    0  0.69042019937E+01 -0.94268132136E+00 -0.18346955052E+02  0.19625682483E+02  0.00000000000E+00 0.  1.
</event>
<event>
 7    1  0.4519840E-010  0.4778728E+02  0.7816164E-02  0.1312668E+00
        -11   -1    0    0    0    0  0.00000000000E+00  0.00000000000E+00  0.45593999997E+02  0.45594000000E+02  0.51100000000E-03 0. -1.
         11   -1    0    0    0    0 -0.00000000000E+00 -0.00000000000E+00 -0.45593999997E+02  0.45594000000E+02  0.51100000000E-03 0.  1.
    9900012    2    1    2    0    0 -0.96549845659E+01  0.26776821528E+02 -0.32762866579E+02  0.47787281980E+02  0.20000049861E+02 0.  0.
         12    1    1    2    0    0  0.96549845659E+01 -0.26776821528E+02  0.32762866579E+02  0.43400718020E+02  0.00000000000E+00 0. -1.
         11    1    3    3    0    0 -0.20258601571E+01 -0.13401832252E+01 -0.43242938982E+00  0.24672243294E+01  0.51100000000E-03 0. -1.
        -11    1    3    3    0    0 -0.10696907687E+02  0.21570598903E+02 -0.27849134087E+02  0.36814247795E+02  0.51100000000E-03 0.  1.
         12    1    3    3    0    0  0.30677832781E+01  0.65464058506E+01 -0.44813031026E+01  0.85058098556E+01  0.00000000000E+00 0. -1.
</event>
<event>
 7    1  0.4519840E-010  0.4778727E+02  0.7816164E-02  0.1312668E+00
        -11   -1    0    0    0    0  0.00000000000E+00  0.00000000000E+00  0.45593999997E+02  0.45594000000E+02  0.51100000000E-03 0. -1.
         11   -1    0    0    0    0 -0.00000000000E+00 -0.00000000000E+00 -0.45593999997E+02  0.45594000000E+02  0.51100000000E-03 0.  1.
    9900012    2    1    2    0    0 -0.20849740931E+01  0.10849078625E+02  0.41971110350E+02  0.47787265813E+02  0.19999976147E+02 0.  0.
        -12    1    1    2    0    0  0.20849740931E+01 -0.10849078625E+02 -0.41971110350E+02  0.43400734187E+02  0.00000000000E+00 0.  1.
         11    1    3    3    0    0 -0.59422014144E+01  0.14303968557E+02  0.27673797399E+02  0.31713598611E+02  0.51100000000E-03 0. -1.
        -11    1    3    3    0    0 -0.47128295657E+00 -0.30165808748E+00  0.69991518541E+01  0.70214836157E+01  0.51100000000E-03 0.  1.
         12    1    3    3    0    0  0.43285102779E+01 -0.31532318438E+01  0.72981610965E+01  0.90521835861E+01  0.00000000000E+00 0. -1.
</event>
<event>
 7    1  0.4519840E-010  0.4778727E+02  0.7816164E-02  0.1312668E+00
        -11   -1    0    0    0    0  0.00000000000E+00  0.00000000000E+00  0.45593999997E+02  0.45594000000E+02  0.51100000000E-03 0. -1.
         11   -1    0    0    0    0 -0.00000000000E+00 -0.00000000000E+00 -0.45593999997E+02  0.45594000000E+02  0.51100000000E-03 0.  1.
    9900012    2    1    2    0    0  0.68152904607E+01  0.52098053463E+01  0.42544486977E+02  0.47787266966E+02  0.19999981404E+02 0.  0.
        -12    1    1    2    0    0 -0.68152904607E+01 -0.52098053463E+01 -0.42544486977E+02  0.43400733034E+02  0.00000000000E+00 0.  1.
         11    1    3    3    0    0  0.48959945928E+01  0.14923530706E+01  0.24669587838E+02  0.25194968646E+02  0.51100000000E-03 0. -1.
        -11    1    3    3    0    0  0.73231022825E+01  0.35338118318E+01  0.12876722585E+02  0.15229104960E+02  0.51100000000E-03 0.  1.
        -12    1    3    3    0    0 -0.54038064146E+01  0.18364044394E+00  0.49981765540E+01  0.73631933592E+01  0.00000000000E+00 0.  1.
</event>
<event>
 7    1  0.4519840E-010  0.4778727E+02  0.7816164E-02  0.1312668E+00
        -11   -1    0    0    0    0  0.00000000000E+00  0.00000000000E+00  0.45593999997E+02  0.45594000000E+02  0.51100000000E-03 0. -1.
         11   -1    0    0    0    0 -0.00000000000E+00 -0.00000000000E+00 -0.45593999997E+02  0.45594000000E+02  0.51100000000E-03 0.  1.
    9900012    2    1    2    0    0  0.25611574907E+01  0.18082823381E+02 -0.39370991810E+02  0.47787273909E+02  0.20000013062E+02 0.  0.
         12    1    1    2    0    0 -0.25611574907E+01 -0.18082823381E+02  0.39370991810E+02  0.43400726091E+02  0.00000000000E+00 0. -1.
         11    1    3    3    0    0 -0.45065046104E+01  0.27858254763E+01 -0.79884358732E+01  0.95856411027E+01  0.51100000000E-03 0. -1.
        -11    1    3    3    0    0 -0.13962071828E+01  0.18974426364E+01 -0.15802906799E+02  0.15977532557E+02  0.51100000000E-03 0.  1.
         12    1    3    3    0    0  0.84638692839E+01  0.13399555269E+02 -0.15579649138E+02  0.22224100250E+02  0.00000000000E+00 0. -1.
</event>
<event>
 7    1  0.4519840E-010  0.4778728E+02  0.7816164E-02  0.1312668E+00
        -11   -1    0    0    0    0  0.00000000000E+00  0.00000000000E+00  0.45593999997E+02  0.45594000000E+02  0.51100000000E-03 0. -1.
         11   -1    0    0    0    0 -0.00000000000E+00 -0.00000000000E+00 -0.45593999997E+02  0.45594000000E+02  0.51100000000E-03 0.  1.
    9900012    2    1    2    0    0  0.12370239010E+02  0.38531926899E+02  0.15680899879E+02  0.47787276219E+02  0.20000023592E+02 0.  0.
        -12    1    1    2    0    0 -0.12370239010E+02 -0.38531926899E+02 -0.15680899879E+02  0.43400723781E+02  0.00000000000E+00 0.  1.
         11    1    3    3    0    0  0.30681993658E+01  0.63153465756E+01  0.49908078222E+01  0.86142679722E+01  0.51100000000E-03 0. -1.
        -11    1    3    3    0    0  0.88808184817E+01  0.33474589358E+02  0.71098481442E+01  0.35354872514E+02  0.51100000000E-03 0.  1.
         12    1    3    3    0    0  0.42122116283E+00 -0.12580090346E+01  0.35802439128E+01  0.38181357329E+01  0.00000000000E+00 0. -1.
</event>
<event>
 7    1  0.4519840E-010  0.4778727E+02  0.7816164E-02  0.1312668E+00
        -11   -1    0    0    0    0  0.00000000000E+00  0.00000000000E+00  0.45593999997E+02  0.45594000000E+02  0.51100000000E-03 0. -1.
         11   -1    0    0    0    0 -0.00000000000E+00 -0.00000000000E+00 -0.45593999997E+02  0.45594000000E+02  0.51100000000E-03 0.  1.
    9900012    2    1    2    0    0 -0.19328393142E+02  0.12259526768E+02  0.36874660394E+02  0.47787270085E+02  0.19999995624E+02 0.  0.
        -12    1    1    2    0    0  0.19328393142E+02 -0.12259526768E+02 -0.36874660394E+02  0.43400729915E+02  0.00000000000E+00 0.  1.
         11    1    3    3    0    0 -0.86009805648E+01  0.66874544370E+01  0.18270085054E+02  0.21271928019E+02  0.51100000000E-03 0. -1.
        -11    1    3    3    0    0 -0.94512049306E+00 -0.16048570105E+01  0.13031482170E+02  0.13163903166E+02  0.51100000000E-03 0.  1.
        -12    1    3    3    0    0 -0.97822920843E+01  0.71769293411E+01  0.55730931702E+01  0.13351438899E+02  0.00000000000E+00 0.  1.
</event>
<event>
 7    1  0.4519840E-010  0.4778727E+02  0.7816164E-02  0.1312668E+00
        -11   -1    0    0    0    0  0.00000000000E+00  0.00000000000E+00  0.45593999997E+02  0.45594000000E+02  0.51100000000E-03 0. -1.
         11   -1    0    0    0    0 -0.00000000000E+00 -0.00000000000E+00 -0.45593999997E+02  0.45594000000E+02  0.51100000000E-03 0.  1.
    9900012    2    1    2    0    0  0.33742712017E+02  0.14796892554E+02 -0.22936973075E+02  0.47787269852E+02  0.19999994565E+02 0.  0.
         12    1    1    2    0    0 -0.33742712017E+02 -0.14796892554E+02  0.22936973075E+02  0.43400730148E+02  0.00000000000E+00 0. -1.
         11    1    3    3    0    0  0.12421946884E+02  0.10087265598E+02 -0.63080425646E+01  0.17200264326E+02  0.51100000000E-03 0.  1.
        -11    1    3    3    0    0  0.15204304440E+02  0.36889325283E+01 -0.34488512476E+01  0.16021038415E+02  0.51100000000E-03 0. -1.
         12    1    3    3    0    0  0.61164606930E+01  0.10206944284E+01 -0.13180079263E+02  0.14565967112E+02  0.00000000000E+00 0. -1.
</event>
<event>
 7    1  0.4519840E-010  0.4778727E+02  0.7816164E-02  0.1312668E+00
        -11   -1    0    0    0    0  0.00000000000E+00  0.00000000000E+00  0.45593999997E+02  0.45594000000E+02  0.51100000000E-03 0.  1.
         11   -1    0    0    0    0 -0.00000000000E+00 -0.00000000000E+00 -0.45593999997E+02  0.45594000000E+02  0.51100000000E-03 0. -1.
    9900012    2    1    2    0    0  0.26460239160E+02 -0.32230379404E+02 -0.12028359701E+02  0.47787273624E+02  0.20000011760E+02 0.  0.
         12    1    1    2    0    0 -0.26460239160E+02  0.32230379404E+02  0.12028359701E+02  0.43400726376E+02  0.00000000000E+00 0. -1.
         11    1    3    3    0    0 -0.13005416701E+01 -0.26941481370E+01  0.27271656783E+01  0.40481200227E+01  0.51100000000E-03 0. -1.
        -11    1    3    3    0    0  0.12349928706E+01 -0.45896619817E+01 -0.14203035406E+01  0.49605913866E+01  0.51100000000E-03 0.  1.
        -12    1    3    3    0    0  0.26525787959E+02 -0.24946569285E+02 -0.13335221839E+02  0.38778562215E+02  0.00000000000E+00 0.  1.
</event>
<event>
 7    1  0.4519840E-010  0.4778727E+02  0.7816164E-02  0.1312668E+00
        -11   -1    0    0    0    0  0.00000000000E+00  0.00000000000E+00  0.45593999997E+02  0.45594000000E+02  0.51100000000E-03 0. -1.
         11   -1    0    0    0    0 -0.00000000000E+00 -0.00000000000E+00 -0.45593999997E+02  0.45594000000E+02  0.51100000000E-03 0.  1.
    9900012    2    1    2    0    0  0.16961308581E+02 -0.46139718330E+01  0.39681844202E+02  0.47787268623E+02  0.19999988958E+02 0.  0.
        -12    1    1    2    0    0 -0.16961308581E+02  0.46139718330E+01 -0.39681844202E+02  0.43400731377E+02  0.00000000000E+00 0.  1.
         11    1    3    3    0    0  0.95975900695E+01 -0.44268704147E+01  0.29497468484E+02  0.31333872471E+02  0.51100000000E-03 0. -1.
        -11    1    3    3    0    0 -0.19913277302E+01 -0.14567390555E+01  0.52499570703E+01  0.58008210027E+01  0.51100000000E-03 0.  1.
         12    1    3    3    0    0  0.93550462417E+01  0.12696376373E+01  0.49344186474E+01  0.10652575149E+02  0.00000000000E+00 0. -1.
</event>
<event>
 7    1  0.4519840E-010  0.4778727E+02  0.7816164E-02  0.1312668E+00
        -11   -1    0    0    0    0  0.00000000000E+00  0.00000000000E+00  0.45593999997E+02  0.45594000000E+02  0.51100000000E-03 0. -1.
         11   -1    0    0    0    0 -0.00000000000E+00 -0.00000000000E+00 -0.45593999997E+02  0.45594000000E+02  0.51100000000E-03 0.  1.
    9900012    2    1    2    0    0 -0.83371876039E+01 -0.19023213330E+02  0.38108162060E+02  0.47787270073E+02  0.19999995573E+02 0.  0.
        -12    1    1    2    0    0  0.83371876039E+01  0.19023213330E+02 -0.38108162060E+02  0.43400729927E+02  0.00000000000E+00 0.  1.
         11    1    3    3    0    0 -0.15481768679E+01 -0.81873877381E+01  0.17354851286E+02  0.19251520278E+02  0.51100000000E-03 0. -1.
        -11    1    3    3    0    0  0.34318246248E+01 -0.57058059999E+00  0.97281355128E+01  0.10331486016E+02  0.51100000000E-03 0.  1.
         12    1    3    3    0    0 -0.10220835361E+02 -0.10265244992E+02  0.11025175261E+02  0.18204263780E+02  0.00000000000E+00 0. -1.
</event>
<event>
 7    1  0.4519840E-010  0.4778726E+02  0.7816164E-02  0.1312668E+00
        -11   -1    0    0    0    0  0.00000000000E+00  0.00000000000E+00  0.45593999997E+02  0.45594000000E+02  0.51100000000E-03 0. -1.
         11   -1    0    0    0    0 -0.00000000000E+00 -0.00000000000E+00 -0.45593999997E+02  0.45594000000E+02  0.51100000000E-03 0.  1.
    9900012    2    1    2    0    0 -0.26058157400E+02 -0.27135031063E+02  0.21639930450E+02  0.47787261899E+02  0.19999958301E+02 0.  0.
        -12    1    1    2    0    0  0.26058157400E+02  0.27135031063E+02 -0.21639930450E+02  0.43400738101E+02  0.00000000000E+00 0.  1.
         11    1    3    3    0    0 -0.19307348867E+02 -0.20571207612E+02  0.14497827842E+02  0.31719636115E+02  0.51100000000E-03 0.  1.
        -11    1    3    3    0    0 -0.74846243377E+01 -0.80478570868E+01  0.26858328192E+01  0.11313766100E+02  0.51100000000E-03 0. -1.
        -12    1    3    3    0    0  0.73381580454E+00  0.14840336358E+01  0.44562697884E+01  0.47538596839E+01  0.00000000000E+00 0.  1.
</event>
<event>
 7    1  0.4599034E-010  0.4778727E+02  0.7816164E-02  0.1312668E+00
        -11   -1    0    0    0    0  0.00000000000E+00  0.00000000000E+00  0.45593999997E+02  0.45594000000E+02  0.51100000000E-03 0. -1.
         11   -1    0    0    0    0 -0.00000000000E+00 -0.00000000000E+00 -0.45593999997E+02  0.45594000000E+02  0.51100000000E-03 0.  1.
    9900012    2    1    2    0    0  0.16519170165E+02  0.27644034001E+02 -0.29095493125E+02  0.47787270525E+02  0.19999997632E+02 0.  0.
         12    1    1    2    0    0 -0.16519170165E+02 -0.27644034001E+02  0.29095493125E+02  0.43400729475E+02  0.00000000000E+00 0. -1.
         11    1    3    3    0    0 -0.14541164508E+01  0.33280860082E+01 -0.10379222298E+02  0.10996311513E+02  0.51100000000E-03 0. -1.
        -11    1    3    3    0    0  0.95039931865E+00 -0.83261726378E+00 -0.39377566293E+00  0.13234688915E+01  0.51100000000E-03 0.  1.
        -12    1    3    3    0    0  0.17022887297E+02  0.25148565257E+02 -0.18322495164E+02  0.35467490120E+02  0.00000000000E+00 0.  1.
</event>
<event>
 7    1  0.4519840E-010  0.4778722E+02  0.7816164E-02  0.1312668E+00
        -11   -1    0    0    0    0  0.00000000000E+00  0.00000000000E+00  0.45593999997E+02  0.45594000000E+02  0.51100000000E-03 0. -1.
         11   -1    0    0    0    0 -0.00000000000E+00 -0.00000000000E+00 -0.45593999997E+02  0.45594000000E+02  0.51100000000E-03 0.  1.
    9900012    2    1    2    0    0 -0.38764022209E+02  0.57251842143E+01  0.18660131533E+02  0.47787220503E+02  0.19999769559E+02 0.  0.
        -12    1    1    2    0    0  0.38764022209E+02 -0.57251842143E+01 -0.18660131533E+02  0.43400779497E+02  0.00000000000E+00 0.  1.
         11    1    3    3    0    0 -0.89754801604E+01 -0.89519435229E+00  0.94090064004E+01  0.13034186539E+02  0.51100000000E-03 0. -1.
        -11    1    3    3    0    0 -0.11701199268E+02 -0.38356721105E+01  0.12341380109E+01  0.12375521878E+02  0.51100000000E-03 0.  1.
         12    1    3    3    0    0 -0.18087342781E+02  0.10456050677E+02  0.80169871222E+01  0.22377512086E+02  0.00000000000E+00 0. -1.
</event>
<event>
 7    1  0.4519840E-010  0.4778727E+02  0.7816164E-02  0.1312668E+00
        -11   -1    0    0    0    0  0.00000000000E+00  0.00000000000E+00  0.45593999997E+02  0.45594000000E+02  0.51100000000E-03 0. -1.
         11   -1    0    0    0    0 -0.00000000000E+00 -0.00000000000E+00 -0.45593999997E+02  0.45594000000E+02  0.51100000000E-03 0.  1.
    9900012    2    1    2    0    0 -0.69831374146E+01 -0.17711850948E+02  0.39001918147E+02  0.47787268540E+02  0.19999988581E+02 0.  0.
        -12    1    1    2    0    0  0.69831374146E+01  0.17711850948E+02 -0.39001918147E+02  0.43400731460E+02  0.00000000000E+00 0.  1.
         11    1    3    3    0    0 -0.80289072347E+01 -0.67167605232E+01  0.21179320152E+02  0.23625025411E+02  0.51100000000E-03 0. -1.
        -11    1    3    3    0    0 -0.16795067205E+01  0.31390130399E-01  0.10532757585E+02  0.10665866621E+02  0.51100000000E-03 0.  1.
         12    1    3    3    0    0  0.27252765406E+01 -0.11026480555E+02  0.72898404090E+01  0.13496376508E+02  0.00000000000E+00 0. -1.
</event>
<event>
 7    1  0.4519840E-010  0.4778726E+02  0.7816164E-02  0.1312668E+00
        -11   -1    0    0    0    0  0.00000000000E+00  0.00000000000E+00  0.45593999997E+02  0.45594000000E+02  0.51100000000E-03 0. -1.
         11   -1    0    0    0    0 -0.00000000000E+00 -0.00000000000E+00 -0.45593999997E+02  0.45594000000E+02  0.51100000000E-03 0.  1.
    9900012    2    1    2    0    0  0.24555168266E+01 -0.10349859702E+02  0.42077009887E+02  0.47787263603E+02  0.19999966072E+02 0.  0.
        -12    1    1    2    0    0 -0.24555168266E+01  0.10349859702E+02 -0.42077009887E+02  0.43400736397E+02  0.00000000000E+00 0.  1.
         11    1    3    3    0    0 -0.47344431260E+01  0.69437132470E+00  0.19848212797E+02  0.20416871816E+02  0.51100000000E-03 0. -1.
        -11    1    3    3    0    0  0.12514713694E+01 -0.11207697897E+01 -0.59639863472E+00  0.17826937770E+01  0.51100000000E-03 0.  1.
         12    1    3    3    0    0  0.59384885832E+01 -0.99234612367E+01  0.22825195726E+02  0.25587698011E+02  0.00000000000E+00 0. -1.
</event>
<event>
 7    1  0.4519840E-010  0.4778727E+02  0.7816164E-02  0.1312668E+00
        -11   -1    0    0    0    0  0.00000000000E+00  0.00000000000E+00  0.45593999997E+02  0.45594000000E+02  0.51100000000E-03 0. -1.
         11   -1    0    0    0    0 -0.00000000000E+00 -0.00000000000E+00 -0.45593999997E+02  0.45594000000E+02  0.51100000000E-03 0.  1.
    9900012    2    1    2    0    0 -0.18842564910E+02  0.10312983380E+02  0.37712376683E+02  0.47787271508E+02  0.20000002112E+02 0.  0.
        -12    1    1    2    0    0  0.18842564910E+02 -0.10312983380E+02 -0.37712376683E+02  0.43400728492E+02  0.00000000000E+00 0.  1.
         11    1    3    3    0    0 -0.12535513835E+01  0.33655891561E+01  0.19331072514E+01  0.40786622004E+01  0.51100000000E-03 0.  1.
        -11    1    3    3    0    0 -0.13329417836E+02 -0.31512587240E+01  0.15717328680E+02  0.20847979098E+02  0.51100000000E-03 0. -1.
         12    1    3    3    0    0 -0.42595956903E+01  0.10098652948E+02  0.20061940752E+02  0.22860630209E+02  0.00000000000E+00 0. -1.
</event>
<event>
 7    1  0.4519840E-010  0.4778727E+02  0.7816164E-02  0.1312668E+00
        -11   -1    0    0    0    0  0.00000000000E+00  0.00000000000E+00  0.45593999997E+02  0.45594000000E+02  0.51100000000E-03 0. -1.
         11   -1    0    0    0    0 -0.00000000000E+00 -0.00000000000E+00 -0.45593999997E+02  0.45594000000E+02  0.51100000000E-03 0.  1.
    9900012    2    1    2    0    0 -0.17614530537E+02 -0.23420852640E+02 -0.32012736661E+02  0.47787270364E+02  0.19999996897E+02 0.  0.
         12    1    1    2    0    0  0.17614530537E+02  0.23420852640E+02  0.32012736661E+02  0.43400729636E+02  0.00000000000E+00 0. -1.
         11    1    3    3    0    0 -0.26304293950E+01 -0.59692299492E+01 -0.14089243866E+00  0.65246238151E+01  0.51100000000E-03 0. -1.
        -11    1    3    3    0    0 -0.61516549546E+01 -0.15289795438E+02 -0.15996801324E+02  0.22967767764E+02  0.51100000000E-03 0.  1.
        -12    1    3    3    0    0 -0.88324461879E+01 -0.21618272534E+01 -0.15875042898E+02  0.18294878785E+02  0.00000000000E+00 0.  1.
</event>
<event>
 7    1  0.4519840E-010  0.4778727E+02  0.7816164E-02  0.1312668E+00
        -11   -1    0    0    0    0  0.00000000000E+00  0.00000000000E+00  0.45593999997E+02  0.45594000000E+02  0.51100000000E-03 0. -1.
         11   -1    0    0    0    0 -0.00000000000E+00 -0.00000000000E+00 -0.45593999997E+02  0.45594000000E+02  0.51100000000E-03 0.  1.
    9900012    2    1    2    0    0  0.14907102963E+02 -0.25582647012E+02 -0.31732155243E+02  0.47787271627E+02  0.20000002658E+02 0.  0.
         12    1    1    2    0    0 -0.14907102963E+02  0.25582647012E+02  0.31732155243E+02  0.43400728373E+02  0.00000000000E+00 0. -1.
         11    1    3    3    0    0 -0.30445025062E+00 -0.58414105182E+01 -0.73894941324E+01  0.94244039913E+01  0.51100000000E-03 0. -1.
        -11    1    3    3    0    0  0.77584404529E+01 -0.11781417965E+02 -0.23521790892E+02  0.27427538252E+02  0.51100000000E-03 0.  1.
        -12    1    3    3    0    0  0.74531127602E+01 -0.79598185292E+01 -0.82087021899E+00  0.10935329385E+02  0.00000000000E+00 0.  1.
</event>
<event>
 7    1  0.4519840E-010  0.4778728E+02  0.7816164E-02  0.1312668E+00
        -11   -1    0    0    0    0  0.00000000000E+00  0.00000000000E+00  0.45593999997E+02  0.45594000000E+02  0.51100000000E-03 0. -1.
         11   -1    0    0    0    0 -0.00000000000E+00 -0.00000000000E+00 -0.45593999997E+02  0.45594000000E+02  0.51100000000E-03 0.  1.
    9900012    2    1    2    0    0  0.21906411295E+02  0.21626416882E+02 -0.30594608658E+02  0.47787276021E+02  0.20000022688E+02 0.  0.
         12    1    1    2    0    0 -0.21906411295E+02 -0.21626416882E+02  0.30594608658E+02  0.43400723979E+02  0.00000000000E+00 0. -1.
         11    1    3    3    0    0  0.92361294796E+01  0.33827760548E+01 -0.14938246772E+02  0.17885761893E+02  0.51100000000E-03 0. -1.
        -11    1    3    3    0    0  0.88181628197E+01  0.80372766253E+01 -0.14725842684E+02  0.18952790139E+02  0.51100000000E-03 0.  1.
         12    1    3    3    0    0  0.38521189962E+01  0.10206364202E+02 -0.93051920230E+00  0.10948723988E+02  0.00000000000E+00 0. -1.
</event>
<event>
 7    1  0.4519840E-010  0.4778727E+02  0.7816164E-02  0.1312668E+00
        -11   -1    0    0    0    0  0.00000000000E+00  0.00000000000E+00  0.45593999997E+02  0.45594000000E+02  0.51100000000E-03 0. -1.
         11   -1    0    0    0    0 -0.00000000000E+00 -0.00000000000E+00 -0.45593999997E+02  0.45594000000E+02  0.51100000000E-03 0.  1.
    9900012    2    1    2    0    0  0.26459852352E+02 -0.16349917967E+01  0.34363150847E+02  0.47787272808E+02  0.20000008040E+02 0.  0.
        -12    1    1    2    0    0 -0.26459852352E+02  0.16349917967E+01 -0.34363150847E+02  0.43400727192E+02  0.00000000000E+00 0.  1.
         11    1    3    3    0    0  0.67323636183E+01  0.23225411054E-01  0.74970300970E+01  0.10076245325E+02  0.51100000000E-03 0. -1.
        -11    1    3    3    0    0 -0.20915648689E+01  0.19607106915E+01  0.84739594537E+01  0.89457821962E+01  0.51100000000E-03 0.  1.
        -12    1    3    3    0    0  0.21819053603E+02 -0.36189278992E+01  0.18392161296E+02  0.28765245287E+02  0.00000000000E+00 0.  1.
</event>
<event>
 7    1  0.4519840E-010  0.4778728E+02  0.7816164E-02  0.1312668E+00
        -11   -1    0    0    0    0  0.00000000000E+00  0.00000000000E+00  0.45593999997E+02  0.45594000000E+02  0.51100000000E-03 0. -1.
         11   -1    0    0    0    0 -0.00000000000E+00 -0.00000000000E+00 -0.45593999997E+02  0.45594000000E+02  0.51100000000E-03 0.  1.
    9900012    2    1    2    0    0  0.16307343436E+02 -0.39560336107E+02 -0.72576296107E+01  0.47787276154E+02  0.20000023295E+02 0.  0.
         12    1    1    2    0    0 -0.16307343436E+02  0.39560336107E+02  0.72576296107E+01  0.43400723846E+02  0.00000000000E+00 0. -1.
         11    1    3    3    0    0 -0.79604561433E+00 -0.10669811036E+02 -0.34388877298E+01  0.11238527717E+02  0.51100000000E-03 0. -1.
        -11    1    3    3    0    0  0.69036158255E+01 -0.21247958710E+02  0.22082430969E+01  0.22450211550E+02  0.51100000000E-03 0.  1.
        -12    1    3    3    0    0  0.10199773225E+02 -0.76425663608E+01 -0.60269849778E+01  0.14098536886E+02  0.00000000000E+00 0.  1.
</event>
<event>
 7    1  0.4519840E-010  0.4778727E+02  0.7816164E-02  0.1312668E+00
        -11   -1    0    0    0    0  0.00000000000E+00  0.00000000000E+00  0.45593999997E+02  0.45594000000E+02  0.51100000000E-03 0. -1.
         11   -1    0    0    0    0 -0.00000000000E+00 -0.00000000000E+00 -0.45593999997E+02  0.45594000000E+02  0.51100000000E-03 0.  1.
    9900012    2    1    2    0    0  0.35379658669E+02  0.55932700927E+01 -0.24507513930E+02  0.47787272392E+02  0.20000006145E+02 0.  0.
         12    1    1    2    0    0 -0.35379658669E+02 -0.55932700927E+01  0.24507513930E+02  0.43400727608E+02  0.00000000000E+00 0. -1.
         11    1    3    3    0    0  0.57461427885E+01  0.45198654283E+01 -0.53182506217E+01  0.90405271070E+01  0.51100000000E-03 0. -1.
        -11    1    3    3    0    0  0.41014675038E+01 -0.46264059162E+01  0.19731210905E+00  0.61858386429E+01  0.51100000000E-03 0.  1.
        -12    1    3    3    0    0  0.25532048376E+02  0.56998105806E+01 -0.19386575418E+02  0.32560906642E+02  0.00000000000E+00 0.  1.
</event>
<event>
 7    1  0.4519840E-010  0.4778727E+02  0.7816164E-02  0.1312668E+00
        -11   -1    0    0    0    0  0.00000000000E+00  0.00000000000E+00  0.45593999997E+02  0.45594000000E+02  0.51100000000E-03 0. -1.
         11   -1    0    0    0    0 -0.00000000000E+00 -0.00000000000E+00 -0.45593999997E+02  0.45594000000E+02  0.51100000000E-03 0.  1.
    9900012    2    1    2    0    0 -0.32920522588E+02 -0.48323468553E+01  0.27865942440E+02  0.47787272683E+02  0.20000007469E+02 0.  0.
        -12    1    1    2    0    0  0.32920522588E+02  0.48323468553E+01 -0.27865942440E+02  0.43400727317E+02  0.00000000000E+00 0.  1.
         11    1    3    3    0    0 -0.28938583966E+01 -0.14938693488E+00  0.20586244061E+01  0.35545277580E+01  0.51100000000E-03 0. -1.
        -11    1    3    3    0    0 -0.22904136922E+02 -0.92298559465E+01  0.25895426124E+02  0.35782157891E+02  0.51100000000E-03 0.  1.
        -12    1    3    3    0    0 -0.71225272699E+01  0.45468960260E+01 -0.88108089884E-01  0.84505870339E+01  0.00000000000E+00 0.  1.
</event>
<event>
 7    1  0.4519840E-010  0.4778724E+02  0.7816164E-02  0.1312668E+00
        -11   -1    0    0    0    0  0.00000000000E+00  0.00000000000E+00  0.45593999997E+02  0.45594000000E+02  0.51100000000E-03 0. -1.
         11   -1    0    0    0    0 -0.00000000000E+00 -0.00000000000E+00 -0.45593999997E+02  0.45594000000E+02  0.51100000000E-03 0.  1.
    9900012    2    1    2    0    0  0.62248375865E+01 -0.21572356861E+02  0.37141769500E+02  0.47787237044E+02  0.19999844979E+02 0.  0.
        -12    1    1    2    0    0 -0.62248375865E+01  0.21572356861E+02 -0.37141769500E+02  0.43400762956E+02  0.00000000000E+00 0.  1.
         11    1    3    3    0    0  0.77140657509E+00 -0.29358990576E+00  0.62274821353E+01  0.62819421474E+01  0.51100000000E-03 0. -1.
        -11    1    3    3    0    0 -0.33349602923E+00 -0.46347883839E+01 -0.12661480010E+01  0.48161825117E+01  0.51100000000E-03 0.  1.
        -12    1    3    3    0    0  0.57869270407E+01 -0.16643978571E+02  0.32180435366E+02  0.36689112385E+02  0.00000000000E+00 0.  1.
</event>
<event>
 7    1  0.4519840E-010  0.4778728E+02  0.7816164E-02  0.1312668E+00
        -11   -1    0    0    0    0  0.00000000000E+00  0.00000000000E+00  0.45593999997E+02  0.45594000000E+02  0.51100000000E-03 0. -1.
         11   -1    0    0    0    0 -0.00000000000E+00 -0.00000000000E+00 -0.45593999997E+02  0.45594000000E+02  0.51100000000E-03 0.  1.
    9900012    2    1    2    0    0 -0.18562608709E+02 -0.37906999660E+02  0.10105031418E+02  0.47787277365E+02  0.20000028818E+02 0.  0.
         12    1    1    2    0    0  0.18562608709E+02  0.37906999660E+02 -0.10105031418E+02  0.43400722635E+02  0.00000000000E+00 0. -1.
         11    1    3    3    0    0 -0.15760338051E+02 -0.10834007772E+02  0.53053491855E+01  0.19847183934E+02  0.51100000000E-03 0. -1.
        -11    1    3    3    0    0 -0.67132925085E+00 -0.24560167952E+01 -0.67023637668E+00  0.26328536844E+01  0.51100000000E-03 0.  1.
         12    1    3    3    0    0 -0.21309414072E+01 -0.24616975092E+02  0.54699186089E+01  0.25307239746E+02  0.00000000000E+00 0. -1.
</event>
<event>
 7    1  0.4519840E-010  0.4778729E+02  0.7816164E-02  0.1312668E+00
        -11   -1    0    0    0    0  0.00000000000E+00  0.00000000000E+00  0.45593999997E+02  0.45594000000E+02  0.51100000000E-03 0. -1.
         11   -1    0    0    0    0 -0.00000000000E+00 -0.00000000000E+00 -0.45593999997E+02  0.45594000000E+02  0.51100000000E-03 0.  1.
    9900012    2    1    2    0    0 -0.33633848155E+02  0.92307317372E+01 -0.25829813704E+02  0.47787292332E+02  0.20000097060E+02 0.  0.
         12    1    1    2    0    0  0.33633848155E+02 -0.92307317372E+01  0.25829813704E+02  0.43400707668E+02  0.00000000000E+00 0. -1.
         11    1    3    3    0    0 -0.38446116520E+01  0.57440042378E+01 -0.21798487031E+01  0.72475074383E+01  0.51100000000E-03 0. -1.
        -11    1    3    3    0    0 -0.69630747811E+01 -0.38990021304E+01 -0.20072488551E+01  0.82289535330E+01  0.51100000000E-03 0.  1.
         12    1    3    3    0    0 -0.22826161721E+02  0.73857296297E+01 -0.21642716145E+02  0.32310831361E+02  0.00000000000E+00 0. -1.
</event>
<event>
 7    1  0.4519840E-010  0.4778727E+02  0.7816164E-02  0.1312668E+00
        -11   -1    0    0    0    0  0.00000000000E+00  0.00000000000E+00  0.45593999997E+02  0.45594000000E+02  0.51100000000E-03 0. -1.
         11   -1    0    0    0    0 -0.00000000000E+00 -0.00000000000E+00 -0.45593999997E+02  0.45594000000E+02  0.51100000000E-03 0.  1.
    9900012    2    1    2    0    0  0.18521902412E+02  0.43476384325E+01 -0.39008462394E+02  0.47787274577E+02  0.20000016105E+02 0.  0.
         12    1    1    2    0    0 -0.18521902412E+02 -0.43476384325E+01  0.39008462394E+02  0.43400725423E+02  0.00000000000E+00 0. -1.
         11    1    3    3    0    0  0.37888894227E+01  0.13861210737E+00 -0.12805444871E+01  0.40018359309E+01  0.51100000000E-03 0. -1.
        -11    1    3    3    0    0  0.17158460204E+02  0.65747574623E+01 -0.34588698998E+02  0.39166545557E+02  0.51100000000E-03 0.  1.
        -12    1    3    3    0    0 -0.24254472145E+01 -0.23657311372E+01 -0.31392189092E+01  0.46188930886E+01  0.00000000000E+00 0.  1.
</event>
<event>
 7    1  0.4519840E-010  0.4778726E+02  0.7816164E-02  0.1312668E+00
        -11   -1    0    0    0    0  0.00000000000E+00  0.00000000000E+00  0.45593999997E+02  0.45594000000E+02  0.51100000000E-03 0. -1.
         11   -1    0    0    0    0 -0.00000000000E+00 -0.00000000000E+00 -0.45593999997E+02  0.45594000000E+02  0.51100000000E-03 0.  1.
    9900012    2    1    2    0    0  0.11366945821E+02  0.33740975648E+01 -0.41749632649E+02  0.47787264776E+02  0.19999971418E+02 0.  0.
         12    1    1    2    0    0 -0.11366945821E+02 -0.33740975648E+01  0.41749632649E+02  0.43400735224E+02  0.00000000000E+00 0. -1.
         11    1    3    3    0    0 -0.29168177940E+00  0.96090701953E+00 -0.28391651229E+01  0.30115244340E+01  0.51100000000E-03 0. -1.
        -11    1    3    3    0    0  0.17939394261E+01  0.92576962246E+01 -0.22882481909E+02  0.24749366389E+02  0.51100000000E-03 0.  1.
         12    1    3    3    0    0  0.98646881739E+01 -0.68445056793E+01 -0.16027985617E+02  0.20026373953E+02  0.00000000000E+00 0. -1.
</event>
<event>
 7    1  0.4519840E-010  0.4778727E+02  0.7816164E-02  0.1312668E+00
        -11   -1    0    0    0    0  0.00000000000E+00  0.00000000000E+00  0.45593999997E+02  0.45594000000E+02  0.51100000000E-03 0. -1.
         11   -1    0    0    0    0 -0.00000000000E+00 -0.00000000000E+00 -0.45593999997E+02  0.45594000000E+02  0.51100000000E-03 0.  1.
    9900012    2    1    2    0    0 -0.37396062189E+02  0.57262373014E+01  0.21268945379E+02  0.47787270761E+02  0.19999998709E+02 0.  0.
        -12    1    1    2    0    0  0.37396062189E+02 -0.57262373014E+01 -0.21268945379E+02  0.43400729239E+02  0.00000000000E+00 0.  1.
         11    1    3    3    0    0 -0.81277874479E+01 -0.42730924622E+01  0.38932547786E+01  0.99738498595E+01  0.51100000000E-03 0. -1.
        -11    1    3    3    0    0 -0.38466405807E+01 -0.23923438833E+01 -0.16777706421E+00  0.45330014800E+01  0.51100000000E-03 0.  1.
         12    1    3    3    0    0 -0.25421634161E+02  0.12391673647E+02  0.17543467665E+02  0.33280419422E+02  0.00000000000E+00 0. -1.
</event>
<event>
 7    1  0.4519840E-010  0.4778727E+02  0.7816164E-02  0.1312668E+00
        -11   -1    0    0    0    0  0.00000000000E+00  0.00000000000E+00  0.45593999997E+02  0.45594000000E+02  0.51100000000E-03 0. -1.
         11   -1    0    0    0    0 -0.00000000000E+00 -0.00000000000E+00 -0.45593999997E+02  0.45594000000E+02  0.51100000000E-03 0.  1.
    9900012    2    1    2    0    0 -0.20835851621E+02 -0.32249938823E+02  0.20234428608E+02  0.47787269961E+02  0.19999995060E+02 0.  0.
        -12    1    1    2    0    0  0.20835851621E+02  0.32249938823E+02 -0.20234428608E+02  0.43400730039E+02  0.00000000000E+00 0.  1.
         11    1    3    3    0    0 -0.69030782219E+01 -0.12912716430E+02  0.31878020215E+01  0.14985086470E+02  0.51100000000E-03 0. -1.
        -11    1    3    3    0    0 -0.67141855060E+01 -0.19449944997E+01  0.10983773766E+02  0.13019469153E+02  0.51100000000E-03 0.  1.
        -12    1    3    3    0    0 -0.72185878927E+01 -0.17392227894E+02  0.60628528204E+01  0.19782714338E+02  0.00000000000E+00 0.  1.
</event>
<event>
 7    1  0.4519840E-010  0.4778727E+02  0.7816164E-02  0.1312668E+00
        -11   -1    0    0    0    0  0.00000000000E+00  0.00000000000E+00  0.45593999997E+02  0.45594000000E+02  0.51100000000E-03 0.  1.
         11   -1    0    0    0    0 -0.00000000000E+00 -0.00000000000E+00 -0.45593999997E+02  0.45594000000E+02  0.51100000000E-03 0. -1.
    9900012    2    1    2    0    0 -0.40557473199E+02  0.15425257028E+02  0.88087301286E+00  0.47787272772E+02  0.20000007878E+02 0.  0.
        -12    1    1    2    0    0  0.40557473199E+02 -0.15425257028E+02 -0.88087301286E+00  0.43400727228E+02  0.00000000000E+00 0.  1.
         11    1    3    3    0    0 -0.27403575894E+02  0.13082935887E+02  0.99178775588E+00  0.30382607301E+02  0.51100000000E-03 0. -1.
        -11    1    3    3    0    0 -0.57228304756E+01  0.59301686432E+01  0.27234796426E+01  0.86795754743E+01  0.51100000000E-03 0.  1.
        -12    1    3    3    0    0 -0.74310668293E+01 -0.35878475024E+01 -0.28343943856E+01  0.87250899969E+01  0.00000000000E+00 0.  1.
</event>
<event>
 7    1  0.4519840E-010  0.4778727E+02  0.7816164E-02  0.1312668E+00
        -11   -1    0    0    0    0  0.00000000000E+00  0.00000000000E+00  0.45593999997E+02  0.45594000000E+02  0.51100000000E-03 0. -1.
         11   -1    0    0    0    0 -0.00000000000E+00 -0.00000000000E+00 -0.45593999997E+02  0.45594000000E+02  0.51100000000E-03 0.  1.
    9900012    2    1    2    0    0  0.17796819280E+02 -0.12404563527E+02  0.37590200133E+02  0.47787272831E+02  0.20000008146E+02 0.  0.
        -12    1    1    2    0    0 -0.17796819280E+02  0.12404563527E+02 -0.37590200133E+02  0.43400727169E+02  0.00000000000E+00 0.  1.
         11    1    3    3    0    0 -0.22134742747E+00 -0.33418283848E+01  0.94971008321E+01  0.10070339424E+02  0.51100000000E-03 0. -1.
        -11    1    3    3    0    0  0.15888244149E+02 -0.74523590199E+01  0.29774499573E+02  0.34561463832E+02  0.51100000000E-03 0.  1.
        -12    1    3    3    0    0  0.21299225585E+01 -0.16103761226E+01 -0.16814002730E+01  0.31554695751E+01  0.00000000000E+00 0.  1.
</event>
<event>
 7    1  0.4519840E-010  0.4778726E+02  0.7816164E-02  0.1312668E+00
        -11   -1    0    0    0    0  0.00000000000E+00  0.00000000000E+00  0.45593999997E+02  0.45594000000E+02  0.51100000000E-03 0.  1.
         11   -1    0    0    0    0 -0.00000000000E+00 -0.00000000000E+00 -0.45593999997E+02  0.45594000000E+02  0.51100000000E-03 0. -1.
    9900012    2    1    2    0    0 -0.23056664528E+02  0.36078091119E+02 -0.70982991192E+01  0.47787259357E+02  0.19999946712E+02 0.  0.
         12    1    1    2    0    0  0.23056664528E+02 -0.36078091119E+02  0.70982991192E+01  0.43400740643E+02  0.00000000000E+00 0. -1.
         11    1    3    3    0    0 -0.40295559062E+01  0.34421918777E+01  0.24040494925E+01  0.58194037450E+01  0.51100000000E-03 0. -1.
        -11    1    3    3    0    0 -0.16658192602E+02  0.31045110626E+02 -0.36044045179E+01  0.35415900479E+02  0.51100000000E-03 0.  1.
        -12    1    3    3    0    0 -0.23689160206E+01  0.15907886154E+01 -0.58979440937E+01  0.65519551329E+01  0.00000000000E+00 0.  1.
</event>
<event>
 7    1  0.4519840E-010  0.4778727E+02  0.7816164E-02  0.1312668E+00
        -11   -1    0    0    0    0  0.00000000000E+00  0.00000000000E+00  0.45593999997E+02  0.45594000000E+02  0.51100000000E-03 0. -1.
         11   -1    0    0    0    0 -0.00000000000E+00 -0.00000000000E+00 -0.45593999997E+02  0.45594000000E+02  0.51100000000E-03 0.  1.
    9900012    2    1    2    0    0 -0.18276892799E+02 -0.51905592760E+01  0.39020979987E+02  0.47787267344E+02  0.19999983128E+02 0.  0.
        -12    1    1    2    0    0  0.18276892799E+02  0.51905592760E+01 -0.39020979987E+02  0.43400732656E+02  0.00000000000E+00 0.  1.
         11    1    3    3    0    0 -0.50335968237E+01  0.12384515581E+01  0.48681655226E+01  0.71112513007E+01  0.51100000000E-03 0. -1.
        -11    1    3    3    0    0 -0.15390074038E+02 -0.95522798030E+01  0.30078838342E+02  0.35111777861E+02  0.51100000000E-03 0.  1.
         12    1    3    3    0    0  0.21467780624E+01  0.31232689690E+01  0.40739761223E+01  0.55642381821E+01  0.00000000000E+00 0. -1.
</event>
<event>
 7    1  0.4519840E-010  0.4778727E+02  0.7816164E-02  0.1312668E+00
        -11   -1    0    0    0    0  0.00000000000E+00  0.00000000000E+00  0.45593999997E+02  0.45594000000E+02  0.51100000000E-03 0.  1.
         11   -1    0    0    0    0 -0.00000000000E+00 -0.00000000000E+00 -0.45593999997E+02  0.45594000000E+02  0.51100000000E-03 0. -1.
    9900012    2    1    2    0    0 -0.38514205257E+02 -0.13563537240E+02  0.14707463381E+02  0.47787273875E+02  0.20000012908E+02 0.  0.
        -12    1    1    2    0    0  0.38514205257E+02  0.13563537240E+02 -0.14707463381E+02  0.43400726125E+02  0.00000000000E+00 0.  1.
         11    1    3    3    0    0 -0.26176269630E+02 -0.27595745905E+01  0.13460635074E+02  0.29563508597E+02  0.51100000000E-03 0. -1.
        -11    1    3    3    0    0 -0.10422103845E+02 -0.41786872009E+01  0.14639046751E+01  0.11323634242E+02  0.51100000000E-03 0.  1.
        -12    1    3    3    0    0 -0.19158317821E+01 -0.66252754482E+01 -0.21707636876E+00  0.69001310373E+01  0.00000000000E+00 0.  1.
</event>
<event>
 7    1  0.4519840E-010  0.4778727E+02  0.7816164E-02  0.1312668E+00
        -11   -1    0    0    0    0  0.00000000000E+00  0.00000000000E+00  0.45593999997E+02  0.45594000000E+02  0.51100000000E-03 0. -1.
         11   -1    0    0    0    0 -0.00000000000E+00 -0.00000000000E+00 -0.45593999997E+02  0.45594000000E+02  0.51100000000E-03 0.  1.
    9900012    2    1    2    0    0  0.11846898985E+02  0.33926874897E+01  0.41614470720E+02  0.47787268240E+02  0.19999987213E+02 0.  0.
        -12    1    1    2    0    0 -0.11846898985E+02 -0.33926874897E+01 -0.41614470720E+02  0.43400731760E+02  0.00000000000E+00 0.  1.
         11    1    3    3    0    0  0.10191969050E+02 -0.26892677538E+01  0.13778469387E+02  0.17348043495E+02  0.51100000000E-03 0. -1.
        -11    1    3    3    0    0 -0.16985975020E+01 -0.13498073784E+01  0.99444056124E+00  0.23866557614E+01  0.51100000000E-03 0.  1.
        -12    1    3    3    0    0  0.33535274371E+01  0.74317626218E+01  0.26841560772E+02  0.28052568984E+02  0.00000000000E+00 0.  1.
</event>
<event>
 7    1  0.4519840E-010  0.4778727E+02  0.7816164E-02  0.1312668E+00
        -11   -1    0    0    0    0  0.00000000000E+00  0.00000000000E+00  0.45593999997E+02  0.45594000000E+02  0.51100000000E-03 0. -1.
         11   -1    0    0    0    0 -0.00000000000E+00 -0.00000000000E+00 -0.45593999997E+02  0.45594000000E+02  0.51100000000E-03 0.  1.
    9900012    2    1    2    0    0  0.23309672453E+02  0.22608266591E+02 -0.28794943768E+02  0.47787270343E+02  0.19999996803E+02 0.  0.
         12    1    1    2    0    0 -0.23309672453E+02 -0.22608266591E+02  0.28794943768E+02  0.43400729657E+02  0.00000000000E+00 0. -1.
         11    1    3    3    0    0  0.23403618600E+02  0.16319364483E+02 -0.18691670950E+02  0.34109083597E+02  0.51100000000E-03 0. -1.
        -11    1    3    3    0    0  0.13601298161E+01  0.48236021097E+01 -0.21361281971E+01  0.54479477204E+01  0.51100000000E-03 0.  1.
         12    1    3    3    0    0 -0.14540759635E+01  0.14652999988E+01 -0.79671446217E+01  0.82302390255E+01  0.00000000000E+00 0. -1.
</event>
<event>
 7    1  0.4519840E-010  0.4778727E+02  0.7816164E-02  0.1312668E+00
        -11   -1    0    0    0    0  0.00000000000E+00  0.00000000000E+00  0.45593999997E+02  0.45594000000E+02  0.51100000000E-03 0. -1.
         11   -1    0    0    0    0 -0.00000000000E+00 -0.00000000000E+00 -0.45593999997E+02  0.45594000000E+02  0.51100000000E-03 0.  1.
    9900012    2    1    2    0    0 -0.24746201795E+02 -0.57234471291E+01 -0.35192195856E+02  0.47787274205E+02  0.20000014411E+02 0.  0.
         12    1    1    2    0    0  0.24746201795E+02  0.57234471291E+01  0.35192195856E+02  0.43400725795E+02  0.00000000000E+00 0. -1.
         11    1    3    3    0    0 -0.11793884503E+02  0.94733703761E+00 -0.11987695737E+02  0.16843337213E+02  0.51100000000E-03 0. -1.
        -11    1    3    3    0    0 -0.12412357182E+02 -0.39132797098E+01 -0.75640327608E+01  0.15053071473E+02  0.51100000000E-03 0.  1.
        -12    1    3    3    0    0 -0.53996010986E+00 -0.27575044569E+01 -0.15640467358E+02  0.15890865518E+02  0.00000000000E+00 0.  1.
</event>
<event>
 7    1  0.4580616E-010  0.4778727E+02  0.7816164E-02  0.1312668E+00
        -11   -1    0    0    0    0  0.00000000000E+00  0.00000000000E+00  0.45593999997E+02  0.45594000000E+02  0.51100000000E-03 0. -1.
         11   -1    0    0    0    0 -0.00000000000E+00 -0.00000000000E+00 -0.45593999997E+02  0.45594000000E+02  0.51100000000E-03 0.  1.
    9900012    2    1    2    0    0 -0.82275520740E+01 -0.16452656075E+02 -0.39309550099E+02  0.47787271504E+02  0.20000002093E+02 0.  0.
         12    1    1    2    0    0  0.82275520740E+01  0.16452656075E+02  0.39309550099E+02  0.43400728496E+02  0.00000000000E+00 0. -1.
         11    1    3    3    0    0  0.43193506318E+00 -0.52332691722E+01 -0.20347444773E+01  0.56315059688E+01  0.51100000000E-03 0.  1.
        -11    1    3    3    0    0  0.74169822049E+00  0.26406709805E+01 -0.76196059163E+01  0.80982500615E+01  0.51100000000E-03 0. -1.
        -12    1    3    3    0    0 -0.94011853577E+01 -0.13860057883E+02 -0.29655199705E+02  0.34057515473E+02  0.00000000000E+00 0.  1.
</event>
<event>
 7    1  0.4519840E-010  0.4778727E+02  0.7816164E-02  0.1312668E+00
        -11   -1    0    0    0    0  0.00000000000E+00  0.00000000000E+00  0.45593999997E+02  0.45594000000E+02  0.51100000000E-03 0. -1.
         11   -1    0    0    0    0 -0.00000000000E+00 -0.00000000000E+00 -0.45593999997E+02  0.45594000000E+02  0.51100000000E-03 0.  1.
    9900012    2    1    2    0    0 -0.35389297758E+02 -0.14736253647E+02 -0.20348547933E+02  0.47787274542E+02  0.20000015947E+02 0.  0.
         12    1    1    2    0    0  0.35389297758E+02  0.14736253647E+02  0.20348547933E+02  0.43400725458E+02  0.00000000000E+00 0. -1.
         11    1    3    3    0    0 -0.11859781643E+02 -0.11005212784E+02 -0.70590315325E+01  0.17652168577E+02  0.51100000000E-03 0. -1.
        -11    1    3    3    0    0 -0.53225667035E+01 -0.67348891461E+01 -0.45874305604E+01  0.97330862285E+01  0.51100000000E-03 0.  1.
         12    1    3    3    0    0 -0.18206949411E+02  0.30038482831E+01 -0.87020858397E+01  0.20402019737E+02  0.00000000000E+00 0. -1.
</event>
<event>
 7    1  0.4519840E-010  0.4778727E+02  0.7816164E-02  0.1312668E+00
        -11   -1    0    0    0    0  0.00000000000E+00  0.00000000000E+00  0.45593999997E+02  0.45594000000E+02  0.51100000000E-03 0. -1.
         11   -1    0    0    0    0 -0.00000000000E+00 -0.00000000000E+00 -0.45593999997E+02  0.45594000000E+02  0.51100000000E-03 0.  1.
    9900012    2    1    2    0    0 -0.85278140638E+01  0.15686565494E+02 -0.39557950932E+02  0.47787269227E+02  0.19999991712E+02 0.  0.
         12    1    1    2    0    0  0.85278140638E+01 -0.15686565494E+02  0.39557950932E+02  0.43400730773E+02  0.00000000000E+00 0. -1.
         11    1    3    3    0    0  0.20749869538E+01  0.24877082683E+01 -0.12946570983E+02  0.13345709564E+02  0.51100000000E-03 0. -1.
        -11    1    3    3    0    0 -0.58515680539E+01 -0.17613711117E+01 -0.86042310302E+01  0.10553486095E+02  0.51100000000E-03 0.  1.
        -12    1    3    3    0    0 -0.47512329636E+01  0.14960228337E+02 -0.18007148919E+02  0.23888073568E+02  0.00000000000E+00 0.  1.
</event>
<event>
 7    1  0.4519840E-010  0.4778728E+02  0.7816164E-02  0.1312668E+00
        -11   -1    0    0    0    0  0.00000000000E+00  0.00000000000E+00  0.45593999997E+02  0.45594000000E+02  0.51100000000E-03 0. -1.
         11   -1    0    0    0    0 -0.00000000000E+00 -0.00000000000E+00 -0.45593999997E+02  0.45594000000E+02  0.51100000000E-03 0.  1.
    9900012    2    1    2    0    0 -0.33303746021E+02 -0.19314878601E+02 -0.20035440848E+02  0.47787275071E+02  0.20000018357E+02 0.  0.
         12    1    1    2    0    0  0.33303746021E+02  0.19314878601E+02  0.20035440848E+02  0.43400724929E+02  0.00000000000E+00 0. -1.
         11    1    3    3    0    0 -0.75417903898E+00 -0.15620652911E+01 -0.26529791828E+01  0.31697212499E+01  0.51100000000E-03 0. -1.
        -11    1    3    3    0    0 -0.33009603845E+02 -0.14030588560E+02 -0.18934359267E+02  0.40558615884E+02  0.51100000000E-03 0.  1.
        -12    1    3    3    0    0  0.46003686287E+00 -0.37222247501E+01  0.15518976017E+01  0.40589379364E+01  0.00000000000E+00 0.  1.
</event>
<event>
 7    1  0.4519840E-010  0.4778726E+02  0.7816164E-02  0.1312668E+00
        -11   -1    0    0    0    0  0.00000000000E+00  0.00000000000E+00  0.45593999997E+02  0.45594000000E+02  0.51100000000E-03 0. -1.
         11   -1    0    0    0    0 -0.00000000000E+00 -0.00000000000E+00 -0.45593999997E+02  0.45594000000E+02  0.51100000000E-03 0.  1.
    9900012    2    1    2    0    0  0.22479456358E+02 -0.16351103032E+02  0.33330760338E+02  0.47787261374E+02  0.19999955911E+02 0.  0.
        -12    1    1    2    0    0 -0.22479456358E+02  0.16351103032E+02 -0.33330760338E+02  0.43400738626E+02  0.00000000000E+00 0.  1.
         11    1    3    3    0    0  0.19715020335E+02 -0.16943067469E+02  0.33280667281E+02  0.42229757009E+02  0.51100000000E-03 0. -1.
        -11    1    3    3    0    0 -0.26865936204E+00 -0.16669779971E+01  0.46925781225E+00  0.17524829959E+01  0.51100000000E-03 0.  1.
        -12    1    3    3    0    0  0.30330953846E+01  0.22589424335E+01 -0.41916475565E+00  0.38050213695E+01  0.00000000000E+00 0.  1.
</event>
<event>
 7    1  0.4519840E-010  0.4778727E+02  0.7816164E-02  0.1312668E+00
        -11   -1    0    0    0    0  0.00000000000E+00  0.00000000000E+00  0.45593999997E+02  0.45594000000E+02  0.51100000000E-03 0. -1.
         11   -1    0    0    0    0 -0.00000000000E+00 -0.00000000000E+00 -0.45593999997E+02  0.45594000000E+02  0.51100000000E-03 0.  1.
    9900012    2    1    2    0    0  0.11098783280E+01 -0.74766940995E+00 -0.43380093038E+02  0.47787270612E+02  0.19999998027E+02 0.  0.
         12    1    1    2    0    0 -0.11098783280E+01  0.74766940995E+00  0.43380093038E+02  0.43400729388E+02  0.00000000000E+00 0. -1.
         11    1    3    3    0    0  0.30452148362E+01  0.26701446678E+01 -0.93573716767E+01  0.10196244941E+02  0.51100000000E-03 0. -1.
        -11    1    3    3    0    0 -0.23523024161E+00  0.61453454732E+01 -0.15513985818E+02  0.16688449913E+02  0.51100000000E-03 0.  1.
        -12    1    3    3    0    0 -0.17001062666E+01 -0.95631595509E+01 -0.18508735543E+02  0.20902575758E+02  0.00000000000E+00 0.  1.
</event>
<event>
 7    1  0.4519840E-010  0.4778728E+02  0.7816164E-02  0.1312668E+00
        -11   -1    0    0    0    0  0.00000000000E+00  0.00000000000E+00  0.45593999997E+02  0.45594000000E+02  0.51100000000E-03 0. -1.
         11   -1    0    0    0    0 -0.00000000000E+00 -0.00000000000E+00 -0.45593999997E+02  0.45594000000E+02  0.51100000000E-03 0.  1.
    9900012    2    1    2    0    0  0.26795957997E+02 -0.20702129271E+02 -0.27148133147E+02  0.47787278177E+02  0.20000032521E+02 0.  0.
         12    1    1    2    0    0 -0.26795957997E+02  0.20702129271E+02  0.27148133147E+02  0.43400721823E+02  0.00000000000E+00 0. -1.
         11    1    3    3    0    0  0.12183841596E+02 -0.80455025535E+00 -0.14232693996E+02  0.18752676497E+02  0.51100000000E-03 0. -1.
        -11    1    3    3    0    0  0.87120970291E+01 -0.67726417184E+01 -0.86636298109E+01  0.14029532859E+02  0.51100000000E-03 0.  1.
        -12    1    3    3    0    0  0.59000193718E+01 -0.13124937298E+02 -0.42518093409E+01  0.15005068821E+02  0.00000000000E+00 0.  1.
</event>
<event>
 7    1  0.4519840E-010  0.4778727E+02  0.7816164E-02  0.1312668E+00
        -11   -1    0    0    0    0  0.00000000000E+00  0.00000000000E+00  0.45593999997E+02  0.45594000000E+02  0.51100000000E-03 0. -1.
         11   -1    0    0    0    0 -0.00000000000E+00 -0.00000000000E+00 -0.45593999997E+02  0.45594000000E+02  0.51100000000E-03 0.  1.
    9900012    2    1    2    0    0  0.13957281685E+02  0.78121126901E+01 -0.40345861359E+02  0.47787270219E+02  0.19999996235E+02 0.  0.
         12    1    1    2    0    0 -0.13957281685E+02 -0.78121126901E+01  0.40345861359E+02  0.43400729781E+02  0.00000000000E+00 0. -1.
         11    1    3    3    0    0  0.88009178571E+01  0.88453185312E+01 -0.20284140071E+02  0.23814746560E+02  0.51100000000E-03 0. -1.
        -11    1    3    3    0    0  0.81314802448E+01 -0.59555517582E+00 -0.75759158440E+01  0.11129697124E+02  0.51100000000E-03 0.  1.
        -12    1    3    3    0    0 -0.29751164166E+01 -0.43765066531E+00 -0.12485805444E+02  0.12842826534E+02  0.00000000000E+00 0.  1.
</event>
<event>
 7    1  0.4519840E-010  0.4778727E+02  0.7816164E-02  0.1312668E+00
        -11   -1    0    0    0    0  0.00000000000E+00  0.00000000000E+00  0.45593999997E+02  0.45594000000E+02  0.51100000000E-03 0. -1.
         11   -1    0    0    0    0 -0.00000000000E+00 -0.00000000000E+00 -0.45593999997E+02  0.45594000000E+02  0.51100000000E-03 0.  1.
    9900012    2    1    2    0    0  0.45195047052E+01 -0.98266064245E+01 -0.42031363114E+02  0.47787267267E+02  0.19999982776E+02 0.  0.
         12    1    1    2    0    0 -0.45195047052E+01  0.98266064245E+01  0.42031363114E+02  0.43400732733E+02  0.00000000000E+00 0. -1.
         11    1    3    3    0    0 -0.34986000906E-01  0.29263966622E+01 -0.38623364139E+01  0.48458914846E+01  0.51100000000E-03 0. -1.
        -11    1    3    3    0    0 -0.38272417632E-01  0.31336239971E+01 -0.63815113846E+01  0.71094832404E+01  0.51100000000E-03 0.  1.
        -12    1    3    3    0    0  0.45927631238E+01 -0.15886627084E+02 -0.31787515315E+02  0.35831892542E+02  0.00000000000E+00 0.  1.
</event>
<event>
 7    1  0.4519840E-010  0.4778727E+02  0.7816164E-02  0.1312668E+00
        -11   -1    0    0    0    0  0.00000000000E+00  0.00000000000E+00  0.45593999997E+02  0.45594000000E+02  0.51100000000E-03 0. -1.
         11   -1    0    0    0    0 -0.00000000000E+00 -0.00000000000E+00 -0.45593999997E+02  0.45594000000E+02  0.51100000000E-03 0.  1.
    9900012    2    1    2    0    0 -0.90428770277E+01 -0.26464290387E+02 -0.33188717580E+02  0.47787271144E+02  0.20000000454E+02 0.  0.
         12    1    1    2    0    0  0.90428770277E+01  0.26464290387E+02  0.33188717580E+02  0.43400728856E+02  0.00000000000E+00 0. -1.
         11    1    3    3    0    0  0.39609004065E+00  0.27790169908E+01 -0.33711590552E+01  0.43868595136E+01  0.51100000000E-03 0. -1.
        -11    1    3    3    0    0  0.45667458741E+00 -0.88801528392E+01 -0.81116005936E+01  0.12035934969E+02  0.51100000000E-03 0.  1.
        -12    1    3    3    0    0 -0.98956416558E+01 -0.20363154539E+02 -0.21705957931E+02  0.31364476662E+02  0.00000000000E+00 0.  1.
</event>
<event>
 7    1  0.4519840E-010  0.4778727E+02  0.7816164E-02  0.1312668E+00
        -11   -1    0    0    0    0  0.00000000000E+00  0.00000000000E+00  0.45593999997E+02  0.45594000000E+02  0.51100000000E-03 0. -1.
         11   -1    0    0    0    0 -0.00000000000E+00 -0.00000000000E+00 -0.45593999997E+02  0.45594000000E+02  0.51100000000E-03 0.  1.
    9900012    2    1    2    0    0  0.37061082060E+02 -0.21569634150E+02  0.66970350012E+01  0.47787271911E+02  0.20000003953E+02 0.  0.
        -12    1    1    2    0    0 -0.37061082060E+02  0.21569634150E+02 -0.66970350012E+01  0.43400728089E+02  0.00000000000E+00 0.  1.
         11    1    3    3    0    0  0.11181251050E+00 -0.11664756672E+01 -0.15803107133E+01  0.19673712745E+01  0.51100000000E-03 0.  1.
        -11    1    3    3    0    0  0.10391396698E+02 -0.57458610363E+01 -0.47731260964E+01  0.12797608268E+02  0.51100000000E-03 0. -1.
        -12    1    3    3    0    0  0.26557872851E+02 -0.14657297446E+02  0.13050471811E+02  0.33022292369E+02  0.00000000000E+00 0.  1.
</event>
<event>
 7    1  0.4519840E-010  0.4778721E+02  0.7816164E-02  0.1312668E+00
        -11   -1    0    0    0    0  0.00000000000E+00  0.00000000000E+00  0.45593999997E+02  0.45594000000E+02  0.51100000000E-03 0.  1.
         11   -1    0    0    0    0 -0.00000000000E+00 -0.00000000000E+00 -0.45593999997E+02  0.45594000000E+02  0.51100000000E-03 0. -1.
    9900012    2    1    2    0    0 -0.21066545226E+02 -0.32670456495E+02  0.19299494398E+02  0.47787210382E+02  0.19999723416E+02 0.  0.
        -12    1    1    2    0    0  0.21066545226E+02  0.32670456495E+02 -0.19299494398E+02  0.43400789618E+02  0.00000000000E+00 0.  1.
         11    1    3    3    0    0 -0.17887454182E+02 -0.18576922066E+02  0.77144535947E+01  0.26917946524E+02  0.51100000000E-03 0. -1.
        -11    1    3    3    0    0 -0.65996119081E+01 -0.99777579275E+01  0.73074537691E+01  0.14018181460E+02  0.51100000000E-03 0.  1.
        -12    1    3    3    0    0  0.34205208634E+01 -0.41157765019E+01  0.42775870346E+01  0.68510823984E+01  0.00000000000E+00 0.  1.
</event>
<event>
 7    1  0.4519840E-010  0.4778728E+02  0.7816164E-02  0.1312668E+00
        -11   -1    0    0    0    0  0.00000000000E+00  0.00000000000E+00  0.45593999997E+02  0.45594000000E+02  0.51100000000E-03 0. -1.
         11   -1    0    0    0    0 -0.00000000000E+00 -0.00000000000E+00 -0.45593999997E+02  0.45594000000E+02  0.51100000000E-03 0.  1.
    9900012    2    1    2    0    0 -0.13746153556E+02  0.30677978788E+01 -0.41051852895E+02  0.47787277108E+02  0.20000027646E+02 0.  0.
         12    1    1    2    0    0  0.13746153556E+02 -0.30677978788E+01  0.41051852895E+02  0.43400722892E+02  0.00000000000E+00 0. -1.
         11    1    3    3    0    0 -0.38360818023E+01 -0.10907395733E+01  0.11700535142E+01  0.41562316944E+01  0.51100000000E-03 0. -1.
        -11    1    3    3    0    0 -0.21146914521E+01  0.18845835671E+00 -0.58955908322E+01  0.62662132115E+01  0.51100000000E-03 0.  1.
         12    1    3    3    0    0 -0.77953803019E+01  0.39700790954E+01 -0.36326315577E+02  0.37364832202E+02  0.00000000000E+00 0. -1.
</event>
<event>
 7    1  0.4519840E-010  0.4778727E+02  0.7816164E-02  0.1312668E+00
        -11   -1    0    0    0    0  0.00000000000E+00  0.00000000000E+00  0.45593999997E+02  0.45594000000E+02  0.51100000000E-03 0.  1.
         11   -1    0    0    0    0 -0.00000000000E+00 -0.00000000000E+00 -0.45593999997E+02  0.45594000000E+02  0.51100000000E-03 0. -1.
    9900012    2    1    2    0    0 -0.38408397516E+02  0.12470319384E+02 -0.15903132187E+02  0.47787268685E+02  0.19999989243E+02 0.  0.
         12    1    1    2    0    0  0.38408397516E+02 -0.12470319384E+02  0.15903132187E+02  0.43400731315E+02  0.00000000000E+00 0. -1.
         11    1    3    3    0    0 -0.14719558003E+02  0.77057846532E+01  0.34124412633E-01  0.16614622164E+02  0.51100000000E-03 0. -1.
        -11    1    3    3    0    0 -0.86747864103E+01  0.63615709456E+01 -0.26956289837E+01  0.11089991886E+02  0.51100000000E-03 0.  1.
         12    1    3    3    0    0 -0.15014053103E+02 -0.15970362151E+01 -0.13241627616E+02  0.20082654634E+02  0.00000000000E+00 0. -1.
</event>
<event>
 7    1  0.4519840E-010  0.4778727E+02  0.7816164E-02  0.1312668E+00
        -11   -1    0    0    0    0  0.00000000000E+00  0.00000000000E+00  0.45593999997E+02  0.45594000000E+02  0.51100000000E-03 0. -1.
         11   -1    0    0    0    0 -0.00000000000E+00 -0.00000000000E+00 -0.45593999997E+02  0.45594000000E+02  0.51100000000E-03 0.  1.
    9900012    2    1    2    0    0  0.29839536365E+01  0.27775155642E+02 -0.33215364725E+02  0.47787266088E+02  0.19999977402E+02 0.  0.
         12    1    1    2    0    0 -0.29839536365E+01 -0.27775155642E+02  0.33215364725E+02  0.43400733912E+02  0.00000000000E+00 0. -1.
         11    1    3    3    0    0 -0.11375833614E+01  0.14516563074E+02 -0.16651811383E+02  0.22120296607E+02  0.51100000000E-03 0. -1.
        -11    1    3    3    0    0  0.35227593134E+01  0.15847540325E+02 -0.11328755671E+02  0.19796339885E+02  0.51100000000E-03 0.  1.
         12    1    3    3    0    0  0.59877768447E+00 -0.25889477560E+01 -0.52347976718E+01  0.58706295968E+01  0.00000000000E+00 0. -1.
</event>
<event>
 7    1  0.4519840E-010  0.4778727E+02  0.7816164E-02  0.1312668E+00
        -11   -1    0    0    0    0  0.00000000000E+00  0.00000000000E+00  0.45593999997E+02  0.45594000000E+02  0.51100000000E-03 0.  1.
         11   -1    0    0    0    0 -0.00000000000E+00 -0.00000000000E+00 -0.45593999997E+02  0.45594000000E+02  0.51100000000E-03 0. -1.
    9900012    2    1    2    0    0  0.52604605418E+00 -0.41744249268E+02  0.11864413958E+02  0.47787269707E+02  0.19999993901E+02 0.  0.
         12    1    1    2    0    0 -0.52604605418E+00  0.41744249268E+02 -0.11864413958E+02  0.43400730293E+02  0.00000000000E+00 0. -1.
         11    1    3    3    0    0  0.28062815531E+01 -0.90188236388E+01 -0.92105626787E+00  0.94901391398E+01  0.51100000000E-03 0. -1.
        -11    1    3    3    0    0 -0.39430418894E+01 -0.33178533329E+02  0.97483141387E+01  0.34805061155E+02  0.51100000000E-03 0.  1.
         12    1    3    3    0    0  0.16628063905E+01  0.45310769977E+00  0.30371560868E+01  0.34920694116E+01  0.00000000000E+00 0. -1.
</event>
<event>
 7    1  0.4519840E-010  0.4778727E+02  0.7816164E-02  0.1312668E+00
        -11   -1    0    0    0    0  0.00000000000E+00  0.00000000000E+00  0.45593999997E+02  0.45594000000E+02  0.51100000000E-03 0. -1.
         11   -1    0    0    0    0 -0.00000000000E+00 -0.00000000000E+00 -0.45593999997E+02  0.45594000000E+02  0.51100000000E-03 0.  1.
    9900012    2    1    2    0    0  0.29009010301E+02  0.19823339983E+02 -0.25478143596E+02  0.47787270884E+02  0.19999999269E+02 0.  0.
         12    1    1    2    0    0 -0.29009010301E+02 -0.19823339983E+02  0.25478143596E+02  0.43400729116E+02  0.00000000000E+00 0. -1.
         11    1    3    3    0    0  0.32419614405E+01 -0.14168279282E+01 -0.50281949374E+01  0.61482078648E+01  0.51100000000E-03 0. -1.
        -11    1    3    3    0    0  0.75898478279E+01 -0.12107053911E+00 -0.77541290000E+01  0.10851127358E+02  0.51100000000E-03 0.  1.
        -12    1    3    3    0    0  0.18177201033E+02  0.21361238450E+02 -0.12695819658E+02  0.30787935661E+02  0.00000000000E+00 0.  1.
</event>
<event>
 7    1  0.4519840E-010  0.4778727E+02  0.7816164E-02  0.1312668E+00
        -11   -1    0    0    0    0  0.00000000000E+00  0.00000000000E+00  0.45593999997E+02  0.45594000000E+02  0.51100000000E-03 0. -1.
         11   -1    0    0    0    0 -0.00000000000E+00 -0.00000000000E+00 -0.45593999997E+02  0.45594000000E+02  0.51100000000E-03 0.  1.
    9900012    2    1    2    0    0  0.11019449387E+02  0.29489376294E+02 -0.29875933953E+02  0.47787274101E+02  0.20000013938E+02 0.  0.
         12    1    1    2    0    0 -0.11019449387E+02 -0.29489376294E+02  0.29875933953E+02  0.43400725899E+02  0.00000000000E+00 0. -1.
         11    1    3    3    0    0  0.44044056073E+01 -0.63583252207E-03 -0.33081878431E+01  0.55084386376E+01  0.51100000000E-03 0. -1.
        -11    1    3    3    0    0  0.45182444484E+01  0.13586248268E+02 -0.45228144686E+01  0.15015209818E+02  0.51100000000E-03 0.  1.
        -12    1    3    3    0    0  0.20967993311E+01  0.15903763858E+02 -0.22044931641E+02  0.27263625645E+02  0.00000000000E+00 0.  1.
</event>
<event>
 7    1  0.4519840E-010  0.4778725E+02  0.7816164E-02  0.1312668E+00
        -11   -1    0    0    0    0  0.00000000000E+00  0.00000000000E+00  0.45593999997E+02  0.45594000000E+02  0.51100000000E-03 0. -1.
         11   -1    0    0    0    0 -0.00000000000E+00 -0.00000000000E+00 -0.45593999997E+02  0.45594000000E+02  0.51100000000E-03 0.  1.
    9900012    2    1    2    0    0 -0.25562670902E+01 -0.14014409339E+02 -0.40996177035E+02  0.47787254591E+02  0.19999924983E+02 0.  0.
         12    1    1    2    0    0  0.25562670902E+01  0.14014409339E+02  0.40996177035E+02  0.43400745409E+02  0.00000000000E+00 0. -1.
         11    1    3    3    0    0  0.41068353175E+01 -0.26936477118E+01 -0.78679386426E+01  0.92750360142E+01  0.51100000000E-03 0. -1.
        -11    1    3    3    0    0  0.20704657005E+01 -0.95186901271E+00 -0.18218871776E+02  0.18360832549E+02  0.51100000000E-03 0.  1.
         12    1    3    3    0    0 -0.87335681081E+01 -0.10368892615E+02 -0.14909366616E+02  0.20151386028E+02  0.00000000000E+00 0. -1.
</event>
<event>
 7    1  0.4519840E-010  0.4778727E+02  0.7816164E-02  0.1312668E+00
        -11   -1    0    0    0    0  0.00000000000E+00  0.00000000000E+00  0.45593999997E+02  0.45594000000E+02  0.51100000000E-03 0. -1.
         11   -1    0    0    0    0 -0.00000000000E+00 -0.00000000000E+00 -0.45593999997E+02  0.45594000000E+02  0.51100000000E-03 0.  1.
    9900012    2    1    2    0    0  0.18631221270E+02  0.30540372666E+02  0.24572065360E+02  0.47787272303E+02  0.20000005738E+02 0.  0.
        -12    1    1    2    0    0 -0.18631221270E+02 -0.30540372666E+02 -0.24572065360E+02  0.43400727697E+02  0.00000000000E+00 0.  1.
         11    1    3    3    0    0  0.12058726160E+02  0.13360529313E+02  0.79633586586E+01  0.19680744435E+02  0.51100000000E-03 0. -1.
        -11    1    3    3    0    0  0.64605482985E+01  0.21168389626E+01  0.19141328316E+01  0.70628320289E+01  0.51100000000E-03 0.  1.
        -12    1    3    3    0    0  0.11194681136E+00  0.15063004390E+02  0.14694573870E+02  0.21043695839E+02  0.00000000000E+00 0.  1.
</event>
<event>
 7    1  0.4519840E-010  0.4778727E+02  0.7816164E-02  0.1312668E+00
        -11   -1    0    0    0    0  0.00000000000E+00  0.00000000000E+00  0.45593999997E+02  0.45594000000E+02  0.51100000000E-03 0. -1.
         11   -1    0    0    0    0 -0.00000000000E+00 -0.00000000000E+00 -0.45593999997E+02  0.45594000000E+02  0.51100000000E-03 0.  1.
    9900012    2    1    2    0    0 -0.10817354796E+01 -0.33722921143E+02 -0.27298675825E+02  0.47787271160E+02  0.20000000527E+02 0.  0.
         12    1    1    2    0    0  0.10817354796E+01  0.33722921143E+02  0.27298675825E+02  0.43400728840E+02  0.00000000000E+00 0. -1.
         11    1    3    3    0    0  0.30219431569E+00 -0.10196962850E+02 -0.55518975984E+01  0.11614341995E+02  0.51100000000E-03 0.  1.
        -11    1    3    3    0    0 -0.68433382540E+01 -0.16172490355E+02 -0.20397735832E+02  0.26915578204E+02  0.51100000000E-03 0. -1.
        -12    1    3    3    0    0  0.54594084586E+01 -0.73534679377E+01 -0.13490423946E+01  0.92573509608E+01  0.00000000000E+00 0.  1.
</event>
<event>
 7    1  0.4519840E-010  0.4778727E+02  0.7816164E-02  0.1312668E+00
        -11   -1    0    0    0    0  0.00000000000E+00  0.00000000000E+00  0.45593999997E+02  0.45594000000E+02  0.51100000000E-03 0. -1.
         11   -1    0    0    0    0 -0.00000000000E+00 -0.00000000000E+00 -0.45593999997E+02  0.45594000000E+02  0.51100000000E-03 0.  1.
    9900012    2    1    2    0    0  0.33758234601E+02 -0.12280773649E+01 -0.27248790113E+02  0.47787272587E+02  0.20000007034E+02 0.  0.
         12    1    1    2    0    0 -0.33758234601E+02  0.12280773649E+01  0.27248790113E+02  0.43400727413E+02  0.00000000000E+00 0. -1.
         11    1    3    3    0    0  0.89936562819E+01  0.39610787915E+01 -0.14379352672E+02  0.17416709851E+02  0.51100000000E-03 0. -1.
        -11    1    3    3    0    0  0.40036082109E+01 -0.44019603673E+01 -0.60953908098E+01  0.85182112657E+01  0.51100000000E-03 0.  1.
         12    1    3    3    0    0  0.20760970108E+02 -0.78719578906E+00 -0.67740466304E+01  0.21852351470E+02  0.00000000000E+00 0. -1.
</event>
<event>
 7    1  0.4519840E-010  0.4778727E+02  0.7816164E-02  0.1312668E+00
        -11   -1    0    0    0    0  0.00000000000E+00  0.00000000000E+00  0.45593999997E+02  0.45594000000E+02  0.51100000000E-03 0. -1.
         11   -1    0    0    0    0 -0.00000000000E+00 -0.00000000000E+00 -0.45593999997E+02  0.45594000000E+02  0.51100000000E-03 0.  1.
    9900012    2    1    2    0    0 -0.20659114521E+02 -0.14307708095E+02  0.35385220170E+02  0.47787270396E+02  0.19999997042E+02 0.  0.
        -12    1    1    2    0    0  0.20659114521E+02  0.14307708095E+02 -0.35385220170E+02  0.43400729604E+02  0.00000000000E+00 0.  1.
         11    1    3    3    0    0 -0.59927966645E+01 -0.53746750920E+01  0.58176274115E+01  0.99320457695E+01  0.51100000000E-03 0. -1.
        -11    1    3    3    0    0  0.92312104795E+00  0.20805278166E+01 -0.41387989524E+00  0.23134487878E+01  0.51100000000E-03 0.  1.
         12    1    3    3    0    0 -0.15589438904E+02 -0.11013560819E+02  0.29981472654E+02  0.35541775838E+02  0.00000000000E+00 0. -1.
</event>
<event>
 7    1  0.4519840E-010  0.4778727E+02  0.7816164E-02  0.1312668E+00
        -11   -1    0    0    0    0  0.00000000000E+00  0.00000000000E+00  0.45593999997E+02  0.45594000000E+02  0.51100000000E-03 0. -1.
         11   -1    0    0    0    0 -0.00000000000E+00 -0.00000000000E+00 -0.45593999997E+02  0.45594000000E+02  0.51100000000E-03 0.  1.
    9900012    2    1    2    0    0 -0.28269335579E+02 -0.30994603711E+02 -0.11126656219E+02  0.47787271067E+02  0.20000000103E+02 0.  0.
         12    1    1    2    0    0  0.28269335579E+02  0.30994603711E+02  0.11126656219E+02  0.43400728933E+02  0.00000000000E+00 0. -1.
         11    1    3    3    0    0 -0.10033194169E+01  0.17172327950E+01 -0.74047892527E+00  0.21222270435E+01  0.51100000000E-03 0. -1.
        -11    1    3    3    0    0 -0.79400301474E+01 -0.20114763797E+01 -0.18227526339E+01  0.83912182306E+01  0.51100000000E-03 0.  1.
        -12    1    3    3    0    0 -0.19325986015E+02 -0.30700360126E+02 -0.85634246600E+01  0.37273825793E+02  0.00000000000E+00 0.  1.
</event>
<event>
 7    1  0.4519840E-010  0.4778727E+02  0.7816164E-02  0.1312668E+00
        -11   -1    0    0    0    0  0.00000000000E+00  0.00000000000E+00  0.45593999997E+02  0.45594000000E+02  0.51100000000E-03 0. -1.
         11   -1    0    0    0    0 -0.00000000000E+00 -0.00000000000E+00 -0.45593999997E+02  0.45594000000E+02  0.51100000000E-03 0.  1.
    9900012    2    1    2    0    0  0.19175214018E+02  0.17790723661E+02 -0.34632712433E+02  0.47787268998E+02  0.19999990669E+02 0.  0.
         12    1    1    2    0    0 -0.19175214018E+02 -0.17790723661E+02  0.34632712433E+02  0.43400731002E+02  0.00000000000E+00 0. -1.
         11    1    3    3    0    0  0.24238317933E+01  0.16220955320E+01 -0.10991394556E+02  0.11371759276E+02  0.51100000000E-03 0. -1.
        -11    1    3    3    0    0  0.59874042574E+01  0.15302578074E+02 -0.17444081951E+02  0.23964847190E+02  0.51100000000E-03 0.  1.
        -12    1    3    3    0    0  0.10763977967E+02  0.86605005541E+00 -0.61972359261E+01  0.12450662532E+02  0.00000000000E+00 0.  1.
</event>
<event>
 7    1  0.4519840E-010  0.4778726E+02  0.7816164E-02  0.1312668E+00
        -11   -1    0    0    0    0  0.00000000000E+00  0.00000000000E+00  0.45593999997E+02  0.45594000000E+02  0.51100000000E-03 0. -1.
         11   -1    0    0    0    0 -0.00000000000E+00 -0.00000000000E+00 -0.45593999997E+02  0.45594000000E+02  0.51100000000E-03 0.  1.
    9900012    2    1    2    0    0 -0.22354399390E+02 -0.59081153699E+01  0.36728723616E+02  0.47787261092E+02  0.19999954621E+02 0.  0.
        -12    1    1    2    0    0  0.22354399390E+02  0.59081153699E+01 -0.36728723616E+02  0.43400738908E+02  0.00000000000E+00 0.  1.
         11    1    3    3    0    0 -0.19468286884E+02 -0.33814269687E+00  0.31447224172E+02  0.36987247033E+02  0.51100000000E-03 0. -1.
        -11    1    3    3    0    0 -0.50170442682E+01 -0.23906477760E+01  0.26628390781E+01  0.61625191436E+01  0.51100000000E-03 0.  1.
         12    1    3    3    0    0  0.21309317622E+01 -0.31793248970E+01  0.26186603664E+01  0.46374949154E+01  0.00000000000E+00 0. -1.
</event>
<event>
 7    1  0.4519840E-010  0.4778727E+02  0.7816164E-02  0.1312668E+00
        -11   -1    0    0    0    0  0.00000000000E+00  0.00000000000E+00  0.45593999997E+02  0.45594000000E+02  0.51100000000E-03 0. -1.
         11   -1    0    0    0    0 -0.00000000000E+00 -0.00000000000E+00 -0.45593999997E+02  0.45594000000E+02  0.51100000000E-03 0.  1.
    9900012    2    1    2    0    0  0.61795168142E+01 -0.51092919862E+01 -0.42653627833E+02  0.47787271204E+02  0.20000000729E+02 0.  0.
         12    1    1    2    0    0 -0.61795168142E+01  0.51092919862E+01  0.42653627833E+02  0.43400728796E+02  0.00000000000E+00 0. -1.
         11    1    3    3    0    0  0.12591141514E+02 -0.16470565002E+01 -0.20344666786E+02  0.23982391595E+02  0.51100000000E-03 0. -1.
        -11    1    3    3    0    0 -0.33002122069E+01 -0.38886438005E+01 -0.12324101559E+02  0.13337782077E+02  0.51100000000E-03 0.  1.
         12    1    3    3    0    0 -0.31114124930E+01  0.42640831454E+00 -0.99848594880E+01  0.10467097532E+02  0.00000000000E+00 0. -1.
</event>
<event>
 7    1  0.4519840E-010  0.4778727E+02  0.7816164E-02  0.1312668E+00
        -11   -1    0    0    0    0  0.00000000000E+00  0.00000000000E+00  0.45593999997E+02  0.45594000000E+02  0.51100000000E-03 0. -1.
         11   -1    0    0    0    0 -0.00000000000E+00 -0.00000000000E+00 -0.45593999997E+02  0.45594000000E+02  0.51100000000E-03 0.  1.
    9900012    2    1    2    0    0 -0.19583892895E+01  0.69945116607E+01  0.42788607143E+02  0.47787269785E+02  0.19999994258E+02 0.  0.
        -12    1    1    2    0    0  0.19583892895E+01 -0.69945116607E+01 -0.42788607143E+02  0.43400730215E+02  0.00000000000E+00 0.  1.
         11    1    3    3    0    0  0.38812482640E+00 -0.21509485126E+01  0.50231323361E+00  0.22426634234E+01  0.51100000000E-03 0. -1.
        -11    1    3    3    0    0  0.24326287946E+01 -0.15719616224E+01  0.21336357876E+02  0.21532043885E+02  0.51100000000E-03 0.  1.
        -12    1    3    3    0    0 -0.47791429105E+01  0.10717421796E+02  0.20949936033E+02  0.24012562477E+02  0.00000000000E+00 0.  1.
</event>
<event>
 7    1  0.4519840E-010  0.4778727E+02  0.7816164E-02  0.1312668E+00
        -11   -1    0    0    0    0  0.00000000000E+00  0.00000000000E+00  0.45593999997E+02  0.45594000000E+02  0.51100000000E-03 0. -1.
         11   -1    0    0    0    0 -0.00000000000E+00 -0.00000000000E+00 -0.45593999997E+02  0.45594000000E+02  0.51100000000E-03 0.  1.
    9900012    2    1    2    0    0 -0.21566188810E+02 -0.73900380820E+01  0.36931155093E+02  0.47787269832E+02  0.19999994472E+02 0.  0.
        -12    1    1    2    0    0  0.21566188810E+02  0.73900380820E+01 -0.36931155093E+02  0.43400730168E+02  0.00000000000E+00 0.  1.
         11    1    3    3    0    0 -0.73092249241E+01  0.96900869047E+00  0.22162937602E+02  0.23357216235E+02  0.51100000000E-03 0. -1.
        -11    1    3    3    0    0  0.13172848003E+01 -0.22877722239E+01  0.29480666369E+01  0.39573018776E+01  0.51100000000E-03 0.  1.
         12    1    3    3    0    0 -0.15574248686E+02 -0.60712745486E+01  0.11820150854E+02  0.20472751720E+02  0.00000000000E+00 0. -1.
</event>
<event>
 7    1  0.4519840E-010  0.4778728E+02  0.7816164E-02  0.1312668E+00
        -11   -1    0    0    0    0  0.00000000000E+00  0.00000000000E+00  0.45593999997E+02  0.45594000000E+02  0.51100000000E-03 0. -1.
         11   -1    0    0    0    0 -0.00000000000E+00 -0.00000000000E+00 -0.45593999997E+02  0.45594000000E+02  0.51100000000E-03 0.  1.
    9900012    2    1    2    0    0  0.61332164088E+01 -0.39028892685E+02 -0.17965282470E+02  0.47787283624E+02  0.20000057353E+02 0.  0.
         12    1    1    2    0    0 -0.61332164088E+01  0.39028892685E+02  0.17965282470E+02  0.43400716376E+02  0.00000000000E+00 0. -1.
         11    1    3    3    0    0  0.26950269391E+01 -0.20255437215E+02 -0.13502734974E+02  0.24492238751E+02  0.51100000000E-03 0. -1.
        -11    1    3    3    0    0 -0.16627276732E+01 -0.60587727221E+01 -0.69526587260E+01  0.93708512865E+01  0.51100000000E-03 0.  1.
         12    1    3    3    0    0  0.51009171429E+01 -0.12714682748E+02  0.24901112305E+01  0.13924193586E+02  0.00000000000E+00 0. -1.
</event>
<event>
 7    1  0.4519840E-010  0.4778727E+02  0.7816164E-02  0.1312668E+00
        -11   -1    0    0    0    0  0.00000000000E+00  0.00000000000E+00  0.45593999997E+02  0.45594000000E+02  0.51100000000E-03 0. -1.
         11   -1    0    0    0    0 -0.00000000000E+00 -0.00000000000E+00 -0.45593999997E+02  0.45594000000E+02  0.51100000000E-03 0.  1.
    9900012    2    1    2    0    0 -0.31409987150E+02  0.18357154818E+02 -0.23665390984E+02  0.47787272401E+02  0.20000006183E+02 0.  0.
         12    1    1    2    0    0  0.31409987150E+02 -0.18357154818E+02  0.23665390984E+02  0.43400727599E+02  0.00000000000E+00 0. -1.
         11    1    3    3    0    0  0.17047147263E-01 -0.42593879056E+00  0.17780973669E+00  0.46187771338E+00  0.51100000000E-03 0. -1.
        -11    1    3    3    0    0 -0.27991347213E+02  0.10607910563E+02 -0.24136521377E+02  0.38452762576E+02  0.51100000000E-03 0.  1.
        -12    1    3    3    0    0 -0.34356870839E+01  0.81751830457E+01  0.29332065636E+00  0.88726321110E+01  0.00000000000E+00 0.  1.
</event>
<event>
 7    1  0.4519840E-010  0.4778727E+02  0.7816164E-02  0.1312668E+00
        -11   -1    0    0    0    0  0.00000000000E+00  0.00000000000E+00  0.45593999997E+02  0.45594000000E+02  0.51100000000E-03 0. -1.
         11   -1    0    0    0    0 -0.00000000000E+00 -0.00000000000E+00 -0.45593999997E+02  0.45594000000E+02  0.51100000000E-03 0.  1.
    9900012    2    1    2    0    0 -0.13162253701E+02 -0.13333872057E+02  0.39148260940E+02  0.47787269578E+02  0.19999993312E+02 0.  0.
        -12    1    1    2    0    0  0.13162253701E+02  0.13333872057E+02 -0.39148260940E+02  0.43400730422E+02  0.00000000000E+00 0.  1.
         11    1    3    3    0    0  0.47371070744E+00 -0.85751717929E+00  0.13310653716E+02  0.13346656516E+02  0.51100000000E-03 0.  1.
        -11    1    3    3    0    0 -0.10966225124E+02 -0.94115228894E+01  0.26631073204E+02  0.30299322053E+02  0.51100000000E-03 0. -1.
         12    1    3    3    0    0 -0.26697392845E+01 -0.30648319882E+01 -0.79346597948E+00  0.41412910093E+01  0.00000000000E+00 0. -1.
</event>
<event>
 7    1  0.4519840E-010  0.4778727E+02  0.7816164E-02  0.1312668E+00
        -11   -1    0    0    0    0  0.00000000000E+00  0.00000000000E+00  0.45593999997E+02  0.45594000000E+02  0.51100000000E-03 0. -1.
         11   -1    0    0    0    0 -0.00000000000E+00 -0.00000000000E+00 -0.45593999997E+02  0.45594000000E+02  0.51100000000E-03 0.  1.
    9900012    2    1    2    0    0 -0.29257943717E+02  0.19958314145E+02 -0.25085091646E+02  0.47787269627E+02  0.19999993537E+02 0.  0.
         12    1    1    2    0    0  0.29257943717E+02 -0.19958314145E+02  0.25085091646E+02  0.43400730373E+02  0.00000000000E+00 0. -1.
         11    1    3    3    0    0 -0.27960946791E+02  0.13564588490E+02 -0.14831938580E+02  0.34435432459E+02  0.51100000000E-03 0. -1.
        -11    1    3    3    0    0 -0.26080873218E+01  0.77954931308E+00 -0.40847576967E+01  0.49086721536E+01  0.51100000000E-03 0.  1.
         12    1    3    3    0    0  0.13110903960E+01  0.56141763422E+01 -0.61683953694E+01  0.84431650145E+01  0.00000000000E+00 0. -1.
</event>
<event>
 7    1  0.4519840E-010  0.4778728E+02  0.7816164E-02  0.1312668E+00
        -11   -1    0    0    0    0  0.00000000000E+00  0.00000000000E+00  0.45593999997E+02  0.45594000000E+02  0.51100000000E-03 0. -1.
         11   -1    0    0    0    0 -0.00000000000E+00 -0.00000000000E+00 -0.45593999997E+02  0.45594000000E+02  0.51100000000E-03 0.  1.
    9900012    2    1    2    0    0  0.12104624907E+02 -0.19049735481E+02  0.37070318719E+02  0.47787275398E+02  0.20000019852E+02 0.  0.
        -12    1    1    2    0    0 -0.12104624907E+02  0.19049735481E+02 -0.37070318719E+02  0.43400724602E+02  0.00000000000E+00 0.  1.
         11    1    3    3    0    0  0.71464690603E+00  0.95224064302E+00  0.14103138221E+01  0.18456618814E+01  0.51100000000E-03 0. -1.
        -11    1    3    3    0    0  0.13846222008E+02 -0.21057798665E+02  0.27253024369E+02  0.37119753313E+02  0.51100000000E-03 0.  1.
        -12    1    3    3    0    0 -0.24562440072E+01  0.10558225412E+01  0.84069805277E+01  0.88218602038E+01  0.00000000000E+00 0.  1.
</event>
<event>
 7    1  0.4519840E-010  0.4778727E+02  0.7816164E-02  0.1312668E+00
        -11   -1    0    0    0    0  0.00000000000E+00  0.00000000000E+00  0.45593999997E+02  0.45594000000E+02  0.51100000000E-03 0. -1.
         11   -1    0    0    0    0 -0.00000000000E+00 -0.00000000000E+00 -0.45593999997E+02  0.45594000000E+02  0.51100000000E-03 0.  1.
    9900012    2    1    2    0    0 -0.17622313167E+02  0.34189299372E+01 -0.39514407672E+02  0.47787269396E+02  0.19999992486E+02 0.  0.
         12    1    1    2    0    0  0.17622313167E+02 -0.34189299372E+01  0.39514407672E+02  0.43400730604E+02  0.00000000000E+00 0. -1.
         11    1    3    3    0    0  0.54934647483E+00  0.30466548942E+01 -0.10889972768E+02  0.11321457271E+02  0.51100000000E-03 0. -1.
        -11    1    3    3    0    0 -0.44375228281E+01 -0.39690702546E+01 -0.16820559629E+02  0.17843103823E+02  0.51100000000E-03 0.  1.
         12    1    3    3    0    0 -0.13734136814E+02  0.43413452976E+01 -0.11803875275E+02  0.18622708303E+02  0.00000000000E+00 0. -1.
</event>
<event>
 7    1  0.4519840E-010  0.4778727E+02  0.7816164E-02  0.1312668E+00
        -11   -1    0    0    0    0  0.00000000000E+00  0.00000000000E+00  0.45593999997E+02  0.45594000000E+02  0.51100000000E-03 0. -1.
         11   -1    0    0    0    0 -0.00000000000E+00 -0.00000000000E+00 -0.45593999997E+02  0.45594000000E+02  0.51100000000E-03 0.  1.
    9900012    2    1    2    0    0  0.40195187566E+01  0.58279307510E+01 -0.42819411763E+02  0.47787270379E+02  0.19999996967E+02 0.  0.
         12    1    1    2    0    0 -0.40195187566E+01 -0.58279307510E+01  0.42819411763E+02  0.43400729621E+02  0.00000000000E+00 0. -1.
         11    1    3    3    0    0 -0.18598507194E+00 -0.50803423311E+00 -0.11539955331E+02  0.11552629940E+02  0.51100000000E-03 0. -1.
        -11    1    3    3    0    0  0.61749616825E+00  0.27186973936E+01 -0.31007355948E+02  0.31132438713E+02  0.51100000000E-03 0.  1.
         12    1    3    3    0    0  0.35880076603E+01  0.36172675905E+01 -0.27210048438E+00  0.51022017272E+01  0.00000000000E+00 0. -1.
</event>
<event>
 7    1  0.4519840E-010  0.4778727E+02  0.7816164E-02  0.1312668E+00
        -11   -1    0    0    0    0  0.00000000000E+00  0.00000000000E+00  0.45593999997E+02  0.45594000000E+02  0.51100000000E-03 0. -1.
         11   -1    0    0    0    0 -0.00000000000E+00 -0.00000000000E+00 -0.45593999997E+02  0.45594000000E+02  0.51100000000E-03 0.  1.
    9900012    2    1    2    0    0  0.24585685191E+02 -0.31431662522E+02 -0.17065110617E+02  0.47787270449E+02  0.19999997285E+02 0.  0.
         12    1    1    2    0    0 -0.24585685191E+02  0.31431662522E+02  0.17065110617E+02  0.43400729551E+02  0.00000000000E+00 0. -1.
         11    1    3    3    0    0  0.28863173018E+01 -0.53111579516E+00 -0.84242704078E+00  0.30532925073E+01  0.51100000000E-03 0. -1.
        -11    1    3    3    0    0 -0.85641102404E+00 -0.87985418741E+01 -0.84121981816E+01  0.12202985596E+02  0.51100000000E-03 0.  1.
        -12    1    3    3    0    0  0.22555778913E+02 -0.22102004853E+02 -0.78104853944E+01  0.32530992345E+02  0.00000000000E+00 0.  1.
</event>
<event>
 7    1  0.4519840E-010  0.4778727E+02  0.7816164E-02  0.1312668E+00
        -11   -1    0    0    0    0  0.00000000000E+00  0.00000000000E+00  0.45593999997E+02  0.45594000000E+02  0.51100000000E-03 0. -1.
         11   -1    0    0    0    0 -0.00000000000E+00 -0.00000000000E+00 -0.45593999997E+02  0.45594000000E+02  0.51100000000E-03 0.  1.
    9900012    2    1    2    0    0 -0.28617723769E+02  0.23734199255E+02  0.22390555141E+02  0.47787270888E+02  0.19999999285E+02 0.  0.
        -12    1    1    2    0    0  0.28617723769E+02 -0.23734199255E+02 -0.22390555141E+02  0.43400729112E+02  0.00000000000E+00 0.  1.
         11    1    3    3    0    0 -0.17538733830E+01  0.50811761881E+01 -0.14090427512E+01  0.55569618528E+01  0.51100000000E-03 0. -1.
        -11    1    3    3    0    0 -0.40228684248E+00 -0.12500096856E+01  0.26035648765E+01  0.29159748361E+01  0.51100000000E-03 0.  1.
         12    1    3    3    0    0 -0.26461563543E+02  0.19903032752E+02  0.21196033016E+02  0.39314334199E+02  0.00000000000E+00 0. -1.
</event>
<event>
 7    1  0.4519840E-010  0.4778727E+02  0.7816164E-02  0.1312668E+00
        -11   -1    0    0    0    0  0.00000000000E+00  0.00000000000E+00  0.45593999997E+02  0.45594000000E+02  0.51100000000E-03 0. -1.
         11   -1    0    0    0    0 -0.00000000000E+00 -0.00000000000E+00 -0.45593999997E+02  0.45594000000E+02  0.51100000000E-03 0.  1.
    9900012    2    1    2    0    0 -0.16441353337E+02 -0.12362486713E+02 -0.38216148479E+02  0.47787272105E+02  0.20000004835E+02 0.  0.
         12    1    1    2    0    0  0.16441353337E+02  0.12362486713E+02  0.38216148479E+02  0.43400727895E+02  0.00000000000E+00 0. -1.
         11    1    3    3    0    0  0.12779260217E+01 -0.18295864486E+01 -0.64680396969E+01  0.68422232697E+01  0.51100000000E-03 0. -1.
        -11    1    3    3    0    0 -0.28958644898E+01  0.37040922530E+01 -0.28999764038E+01  0.55241464468E+01  0.51100000000E-03 0.  1.
        -12    1    3    3    0    0 -0.14823414869E+02 -0.14236992517E+02 -0.28848132378E+02  0.35420902388E+02  0.00000000000E+00 0.  1.
</event>
<event>
 7    1  0.4519840E-010  0.4778725E+02  0.7816164E-02  0.1312668E+00
        -11   -1    0    0    0    0  0.00000000000E+00  0.00000000000E+00  0.45593999997E+02  0.45594000000E+02  0.51100000000E-03 0. -1.
         11   -1    0    0    0    0 -0.00000000000E+00 -0.00000000000E+00 -0.45593999997E+02  0.45594000000E+02  0.51100000000E-03 0.  1.
    9900012    2    1    2    0    0 -0.34270711277E+02  0.12276968928E+02  0.23630899520E+02  0.47787250818E+02  0.19999907778E+02 0.  0.
        -12    1    1    2    0    0  0.34270711277E+02 -0.12276968928E+02 -0.23630899520E+02  0.43400749182E+02  0.00000000000E+00 0.  1.
         11    1    3    3    0    0 -0.76777100896E+00  0.29793840463E+01  0.77709251820E+01  0.83578394375E+01  0.51100000000E-03 0. -1.
        -11    1    3    3    0    0 -0.20807149313E+02  0.72484599965E+01  0.14764012847E+02  0.26522701794E+02  0.51100000000E-03 0.  1.
        -12    1    3    3    0    0 -0.12695790954E+02  0.20491248850E+01  0.10959614913E+01  0.12906709586E+02  0.00000000000E+00 0.  1.
</event>
<event>
 7    1  0.4519840E-010  0.4778728E+02  0.7816164E-02  0.1312668E+00
        -11   -1    0    0    0    0  0.00000000000E+00  0.00000000000E+00  0.45593999997E+02  0.45594000000E+02  0.51100000000E-03 0. -1.
         11   -1    0    0    0    0 -0.00000000000E+00 -0.00000000000E+00 -0.45593999997E+02  0.45594000000E+02  0.51100000000E-03 0.  1.
    9900012    2    1    2    0    0  0.21955395610E+02  0.76792678319E+01  0.36641675183E+02  0.47787275224E+02  0.20000019057E+02 0.  0.
        -12    1    1    2    0    0 -0.21955395610E+02 -0.76792678319E+01 -0.36641675183E+02  0.43400724776E+02  0.00000000000E+00 0.  1.
         11    1    3    3    0    0  0.67788733004E+01  0.20524330235E+01  0.73283517943E+01  0.10191680177E+02  0.51100000000E-03 0. -1.
        -11    1    3    3    0    0  0.10816334575E+01  0.71860362778E+01  0.18141042339E+02  0.19542427325E+02  0.51100000000E-03 0.  1.
        -12    1    3    3    0    0  0.14094888852E+02 -0.15592014694E+01  0.11172281050E+02  0.18053167723E+02  0.00000000000E+00 0.  1.
</event>
<event>
 7    1  0.4519840E-010  0.4778727E+02  0.7816164E-02  0.1312668E+00
        -11   -1    0    0    0    0  0.00000000000E+00  0.00000000000E+00  0.45593999997E+02  0.45594000000E+02  0.51100000000E-03 0. -1.
         11   -1    0    0    0    0 -0.00000000000E+00 -0.00000000000E+00 -0.45593999997E+02  0.45594000000E+02  0.51100000000E-03 0.  1.
    9900012    2    1    2    0    0 -0.24683140500E+02 -0.17059097760E+02 -0.31358466261E+02  0.47787266739E+02  0.19999980371E+02 0.  0.
         12    1    1    2    0    0  0.24683140500E+02  0.17059097760E+02  0.31358466261E+02  0.43400733261E+02  0.00000000000E+00 0. -1.
         11    1    3    3    0    0  0.12591253132E+01 -0.10322222334E+01 -0.76339475827E+00  0.17982355551E+01  0.51100000000E-03 0. -1.
        -11    1    3    3    0    0 -0.40353255655E+01  0.28225419960E+01 -0.19453953846E+01  0.52948238122E+01  0.51100000000E-03 0.  1.
        -12    1    3    3    0    0 -0.21906940248E+02 -0.18849417523E+02 -0.28649676118E+02  0.40694207372E+02  0.00000000000E+00 0.  1.
</event>
<event>
 7    1  0.4519840E-010  0.4778727E+02  0.7816164E-02  0.1312668E+00
        -11   -1    0    0    0    0  0.00000000000E+00  0.00000000000E+00  0.45593999997E+02  0.45594000000E+02  0.51100000000E-03 0. -1.
         11   -1    0    0    0    0 -0.00000000000E+00 -0.00000000000E+00 -0.45593999997E+02  0.45594000000E+02  0.51100000000E-03 0.  1.
    9900012    2    1    2    0    0 -0.32446988243E+02  0.94429429015E+01  0.27233198694E+02  0.47787270424E+02  0.19999997169E+02 0.  0.
        -12    1    1    2    0    0  0.32446988243E+02 -0.94429429015E+01 -0.27233198694E+02  0.43400729576E+02  0.00000000000E+00 0.  1.
         11    1    3    3    0    0 -0.11625342966E+02  0.22568773331E+01  0.29536710714E+01  0.12205173798E+02  0.51100000000E-03 0.  1.
        -11    1    3    3    0    0 -0.12434424030E+02 -0.28177489061E+01  0.97582619018E+01  0.16055475249E+02  0.51100000000E-03 0. -1.
         12    1    3    3    0    0 -0.83872212471E+01  0.10003814474E+02  0.14521265720E+02  0.19526621377E+02  0.00000000000E+00 0. -1.
</event>
<event>
 7    1  0.4519840E-010  0.4778726E+02  0.7816164E-02  0.1312668E+00
        -11   -1    0    0    0    0  0.00000000000E+00  0.00000000000E+00  0.45593999997E+02  0.45594000000E+02  0.51100000000E-03 0. -1.
         11   -1    0    0    0    0 -0.00000000000E+00 -0.00000000000E+00 -0.45593999997E+02  0.45594000000E+02  0.51100000000E-03 0.  1.
    9900012    2    1    2    0    0 -0.24926837008E+01 -0.35356954258E+02  0.25045882639E+02  0.47787263559E+02  0.19999965873E+02 0.  0.
        -12    1    1    2    0    0  0.24926837008E+01  0.35356954258E+02 -0.25045882639E+02  0.43400736441E+02  0.00000000000E+00 0.  1.
         11    1    3    3    0    0  0.46991931350E+01 -0.45558931641E+01  0.70767965451E+00  0.65832658610E+01  0.51100000000E-03 0. -1.
        -11    1    3    3    0    0 -0.39812926402E+01 -0.94832283822E+01  0.26433848524E+01  0.10619312378E+02  0.51100000000E-03 0.  1.
        -12    1    3    3    0    0 -0.32105841956E+01 -0.21317832712E+02  0.21694818132E+02  0.30584685321E+02  0.00000000000E+00 0.  1.
</event>
<event>
 7    1  0.4519840E-010  0.4778727E+02  0.7816164E-02  0.1312668E+00
        -11   -1    0    0    0    0  0.00000000000E+00  0.00000000000E+00  0.45593999997E+02  0.45594000000E+02  0.51100000000E-03 0. -1.
         11   -1    0    0    0    0 -0.00000000000E+00 -0.00000000000E+00 -0.45593999997E+02  0.45594000000E+02  0.51100000000E-03 0.  1.
    9900012    2    1    2    0    0 -0.59610575330E+01 -0.10532646444E+02  0.41679159108E+02  0.47787272449E+02  0.20000006402E+02 0.  0.
        -12    1    1    2    0    0  0.59610575330E+01  0.10532646444E+02 -0.41679159108E+02  0.43400727551E+02  0.00000000000E+00 0.  1.
         11    1    3    3    0    0 -0.63342844373E+01 -0.70476199797E+00  0.91423937809E+01  0.11144649528E+02  0.51100000000E-03 0. -1.
        -11    1    3    3    0    0 -0.28806026573E+01 -0.63210455669E+01  0.30767745237E+02  0.31542156489E+02  0.51100000000E-03 0.  1.
        -12    1    3    3    0    0  0.32538295616E+01 -0.35068388790E+01  0.17690200905E+01  0.51004664316E+01  0.00000000000E+00 0.  1.
</event>
<event>
 7    1  0.4519840E-010  0.4778727E+02  0.7816164E-02  0.1312668E+00
        -11   -1    0    0    0    0  0.00000000000E+00  0.00000000000E+00  0.45593999997E+02  0.45594000000E+02  0.51100000000E-03 0. -1.
         11   -1    0    0    0    0 -0.00000000000E+00 -0.00000000000E+00 -0.45593999997E+02  0.45594000000E+02  0.51100000000E-03 0.  1.
    9900012    2    1    2    0    0  0.31010835261E+01 -0.10771721444E+02 -0.41928232249E+02  0.47787270036E+02  0.19999995400E+02 0.  0.
         12    1    1    2    0    0 -0.31010835261E+01  0.10771721444E+02  0.41928232249E+02  0.43400729964E+02  0.00000000000E+00 0. -1.
         11    1    3    3    0    0 -0.73803446466E-01 -0.12171020077E+01 -0.22533281457E+02  0.22566248198E+02  0.51100000000E-03 0. -1.
        -11    1    3    3    0    0 -0.12100935706E+01 -0.56085169333E+01 -0.18355086849E+02  0.19230938670E+02  0.51100000000E-03 0.  1.
         12    1    3    3    0    0  0.43849805432E+01 -0.39461025034E+01 -0.10398639429E+01  0.59900831673E+01  0.00000000000E+00 0. -1.
</event>
<event>
 7    1  0.4519840E-010  0.4778727E+02  0.7816164E-02  0.1312668E+00
        -11   -1    0    0    0    0  0.00000000000E+00  0.00000000000E+00  0.45593999997E+02  0.45594000000E+02  0.51100000000E-03 0. -1.
         11   -1    0    0    0    0 -0.00000000000E+00 -0.00000000000E+00 -0.45593999997E+02  0.45594000000E+02  0.51100000000E-03 0.  1.
    9900012    2    1    2    0    0 -0.27398076773E+02 -0.27160422651E+02  0.19881647516E+02  0.47787273308E+02  0.20000010321E+02 0.  0.
        -12    1    1    2    0    0  0.27398076773E+02  0.27160422651E+02 -0.19881647516E+02  0.43400726692E+02  0.00000000000E+00 0.  1.
         11    1    3    3    0    0 -0.14260108151E+02 -0.14008247837E+02  0.11947014187E+02  0.23287611303E+02  0.51100000000E-03 0. -1.
        -11    1    3    3    0    0 -0.17947881283E+01 -0.10483909408E+02  0.71586436451E+01  0.12821068598E+02  0.51100000000E-03 0.  1.
        -12    1    3    3    0    0 -0.11343180493E+02 -0.26682654059E+01  0.77598968401E+00  0.11678593407E+02  0.00000000000E+00 0.  1.
</event>
<event>
 7    1  0.4519840E-010  0.4778727E+02  0.7816164E-02  0.1312668E+00
        -11   -1    0    0    0    0  0.00000000000E+00  0.00000000000E+00  0.45593999997E+02  0.45594000000E+02  0.51100000000E-03 0. -1.
         11   -1    0    0    0    0 -0.00000000000E+00 -0.00000000000E+00 -0.45593999997E+02  0.45594000000E+02  0.51100000000E-03 0.  1.
    9900012    2    1    2    0    0 -0.18017962130E+02  0.28849242223E+02 -0.26957325388E+02  0.47787272723E+02  0.20000007651E+02 0.  0.
         12    1    1    2    0    0  0.18017962130E+02 -0.28849242223E+02  0.26957325388E+02  0.43400727277E+02  0.00000000000E+00 0. -1.
         11    1    3    3    0    0 -0.12046145915E+01  0.28423640091E+01 -0.20202370886E+01  0.36893749646E+01  0.51100000000E-03 0. -1.
        -11    1    3    3    0    0 -0.36029054556E+01  0.18475812547E+02 -0.58869478942E+01  0.19722898690E+02  0.51100000000E-03 0.  1.
        -12    1    3    3    0    0 -0.13210442083E+02  0.75310656673E+01 -0.19050140405E+02  0.24374999068E+02  0.00000000000E+00 0.  1.
</event>
<event>
 7    1  0.4519840E-010  0.4778727E+02  0.7816164E-02  0.1312668E+00
        -11   -1    0    0    0    0  0.00000000000E+00  0.00000000000E+00  0.45593999997E+02  0.45594000000E+02  0.51100000000E-03 0. -1.
         11   -1    0    0    0    0 -0.00000000000E+00 -0.00000000000E+00 -0.45593999997E+02  0.45594000000E+02  0.51100000000E-03 0.  1.
    9900012    2    1    2    0    0  0.56679269132E+00 -0.49447027595E+01  0.43114409296E+02  0.47787266962E+02  0.19999981386E+02 0.  0.
        -12    1    1    2    0    0 -0.56679269132E+00  0.49447027595E+01 -0.43114409296E+02  0.43400733038E+02  0.00000000000E+00 0.  1.
         11    1    3    3    0    0 -0.19459146763E+01 -0.11366286450E+02  0.17937614678E+02  0.21324564994E+02  0.51100000000E-03 0. -1.
        -11    1    3    3    0    0 -0.18727635926E+00  0.25175761344E+01  0.37785354220E+01  0.45442922688E+01  0.51100000000E-03 0.  1.
         12    1    3    3    0    0  0.26999837269E+01  0.39040075565E+01  0.21398259196E+02  0.21918409699E+02  0.00000000000E+00 0. -1.
</event>
<event>
 7    1  0.4519840E-010  0.4778727E+02  0.7816164E-02  0.1312668E+00
        -11   -1    0    0    0    0  0.00000000000E+00  0.00000000000E+00  0.45593999997E+02  0.45594000000E+02  0.51100000000E-03 0. -1.
         11   -1    0    0    0    0 -0.00000000000E+00 -0.00000000000E+00 -0.45593999997E+02  0.45594000000E+02  0.51100000000E-03 0.  1.
    9900012    2    1    2    0    0 -0.11653998651E+02 -0.18152836637E+01 -0.41767360638E+02  0.47787270121E+02  0.19999995791E+02 0.  0.
         12    1    1    2    0    0  0.11653998651E+02  0.18152836637E+01  0.41767360638E+02  0.43400729879E+02  0.00000000000E+00 0. -1.
         11    1    3    3    0    0  0.19202547112E+01 -0.10280275932E+01  0.82866893432E+00  0.23304315807E+01  0.51100000000E-03 0. -1.
        -11    1    3    3    0    0  0.11178394447E+00  0.18835670321E+01 -0.62125070471E+01  0.64927316659E+01  0.51100000000E-03 0.  1.
        -12    1    3    3    0    0 -0.13686037306E+02 -0.26708231025E+01 -0.36383522525E+02  0.38964106875E+02  0.00000000000E+00 0.  1.
</event>
<event>
 7    1  0.4519840E-010  0.4778727E+02  0.7816164E-02  0.1312668E+00
        -11   -1    0    0    0    0  0.00000000000E+00  0.00000000000E+00  0.45593999997E+02  0.45594000000E+02  0.51100000000E-03 0. -1.
         11   -1    0    0    0    0 -0.00000000000E+00 -0.00000000000E+00 -0.45593999997E+02  0.45594000000E+02  0.51100000000E-03 0.  1.
    9900012    2    1    2    0    0 -0.33237454399E+02 -0.16295803764E+02 -0.22657042162E+02  0.47787272417E+02  0.20000006256E+02 0.  0.
         12    1    1    2    0    0  0.33237454399E+02  0.16295803764E+02  0.22657042162E+02  0.43400727583E+02  0.00000000000E+00 0. -1.
         11    1    3    3    0    0 -0.42665224258E+01 -0.69514857732E+01 -0.88796809512E+01  0.12057159787E+02  0.51100000000E-03 0. -1.
        -11    1    3    3    0    0 -0.16124475960E+02 -0.10766762513E+02 -0.11682965515E+02  0.22636554143E+02  0.51100000000E-03 0.  1.
         12    1    3    3    0    0 -0.12846456013E+02  0.14224445217E+01 -0.20943956957E+01  0.13093558487E+02  0.00000000000E+00 0. -1.
</event>
<event>
 7    1  0.4519840E-010  0.4778727E+02  0.7816164E-02  0.1312668E+00
        -11   -1    0    0    0    0  0.00000000000E+00  0.00000000000E+00  0.45593999997E+02  0.45594000000E+02  0.51100000000E-03 0. -1.
         11   -1    0    0    0    0 -0.00000000000E+00 -0.00000000000E+00 -0.45593999997E+02  0.45594000000E+02  0.51100000000E-03 0.  1.
    9900012    2    1    2    0    0  0.23661418245E+02  0.16726707685E+02  0.32310646926E+02  0.47787269958E+02  0.19999995048E+02 0.  0.
        -12    1    1    2    0    0 -0.23661418245E+02 -0.16726707685E+02 -0.32310646926E+02  0.43400730042E+02  0.00000000000E+00 0.  1.
         11    1    3    3    0    0  0.18809306065E+02  0.25860833055E+01  0.18781854809E+02  0.26706476590E+02  0.51100000000E-03 0. -1.
        -11    1    3    3    0    0  0.64050729328E+00  0.45382287493E+01  0.80178949667E+01  0.92353889865E+01  0.51100000000E-03 0.  1.
        -12    1    3    3    0    0  0.42116048867E+01  0.96023956307E+01  0.55108971499E+01  0.11845404382E+02  0.00000000000E+00 0.  1.
</event>
<event>
 7    1  0.4519840E-010  0.4778727E+02  0.7816164E-02  0.1312668E+00
        -11   -1    0    0    0    0  0.00000000000E+00  0.00000000000E+00  0.45593999997E+02  0.45594000000E+02  0.51100000000E-03 0. -1.
         11   -1    0    0    0    0 -0.00000000000E+00 -0.00000000000E+00 -0.45593999997E+02  0.45594000000E+02  0.51100000000E-03 0.  1.
    9900012    2    1    2    0    0 -0.36033666209E+01  0.28990248273E+02 -0.32096800621E+02  0.47787270098E+02  0.19999995685E+02 0.  0.
         12    1    1    2    0    0  0.36033666209E+01 -0.28990248273E+02  0.32096800621E+02  0.43400729902E+02  0.00000000000E+00 0. -1.
         11    1    3    3    0    0 -0.47628557726E+01  0.20772083788E+02 -0.12899351274E+02  0.24910992022E+02  0.51100000000E-03 0. -1.
        -11    1    3    3    0    0  0.11899555339E+01  0.91880616364E+01 -0.10016899254E+02  0.13644586536E+02  0.51100000000E-03 0.  1.
        -12    1    3    3    0    0 -0.30466382140E-01 -0.96989715091E+00 -0.91805500922E+01  0.92316915394E+01  0.00000000000E+00 0.  1.
</event>
<event>
 7    1  0.4519840E-010  0.4778732E+02  0.7816164E-02  0.1312668E+00
        -11   -1    0    0    0    0  0.00000000000E+00  0.00000000000E+00  0.45593999997E+02  0.45594000000E+02  0.51100000000E-03 0. -1.
         11   -1    0    0    0    0 -0.00000000000E+00 -0.00000000000E+00 -0.45593999997E+02  0.45594000000E+02  0.51100000000E-03 0.  1.
    9900012    2    1    2    0    0 -0.40769906313E+02 -0.10202342054E+02 -0.10832651532E+02  0.47787315865E+02  0.20000204355E+02 0.  0.
         12    1    1    2    0    0  0.40769906313E+02  0.10202342054E+02  0.10832651532E+02  0.43400684135E+02  0.00000000000E+00 0. -1.
         11    1    3    3    0    0 -0.46472718509E+01 -0.21571026817E+01 -0.54297728600E+00  0.51521890716E+01  0.51100000000E-03 0.  1.
        -11    1    3    3    0    0  0.15628326932E+01  0.18320205714E+01 -0.80214562394E+00  0.25381456349E+01  0.51100000000E-03 0. -1.
         12    1    3    3    0    0 -0.37685467155E+02 -0.98772599435E+01 -0.94875286225E+01  0.40096981159E+02  0.00000000000E+00 0. -1.
</event>
<event>
 7    1  0.4519840E-010  0.4778727E+02  0.7816164E-02  0.1312668E+00
        -11   -1    0    0    0    0  0.00000000000E+00  0.00000000000E+00  0.45593999997E+02  0.45594000000E+02  0.51100000000E-03 0. -1.
         11   -1    0    0    0    0 -0.00000000000E+00 -0.00000000000E+00 -0.45593999997E+02  0.45594000000E+02  0.51100000000E-03 0.  1.
    9900012    2    1    2    0    0  0.31364802702E+02  0.95343852795E+01 -0.28442362247E+02  0.47787270497E+02  0.19999997506E+02 0.  0.
         12    1    1    2    0    0 -0.31364802702E+02 -0.95343852795E+01  0.28442362247E+02  0.43400729503E+02  0.00000000000E+00 0. -1.
         11    1    3    3    0    0  0.12422424786E+02  0.88896108276E+01 -0.64086579343E+01  0.16565407179E+02  0.51100000000E-03 0. -1.
        -11    1    3    3    0    0  0.50482843991E+01 -0.24187549810E+01 -0.78926195198E+00  0.56531836802E+01  0.51100000000E-03 0.  1.
        -12    1    3    3    0    0  0.13894093517E+02  0.30635294329E+01 -0.21244442360E+02  0.25568679638E+02  0.00000000000E+00 0.  1.
</event>
<event>
 7    1  0.4519840E-010  0.4778727E+02  0.7816164E-02  0.1312668E+00
        -11   -1    0    0    0    0  0.00000000000E+00  0.00000000000E+00  0.45593999997E+02  0.45594000000E+02  0.51100000000E-03 0.  1.
         11   -1    0    0    0    0 -0.00000000000E+00 -0.00000000000E+00 -0.45593999997E+02  0.45594000000E+02  0.51100000000E-03 0. -1.
    9900012    2    1    2    0    0  0.39061483349E+02 -0.17893091779E+02 -0.61368467857E+01  0.47787273009E+02  0.20000008958E+02 0.  0.
        -12    1    1    2    0    0 -0.39061483349E+02  0.17893091779E+02  0.61368467857E+01  0.43400726991E+02  0.00000000000E+00 0.  1.
         11    1    3    3    0    0  0.48046356301E+01  0.23724000750E-01 -0.10527070107E+01  0.49186663515E+01  0.51100000000E-03 0. -1.
        -11    1    3    3    0    0  0.22262763702E+02 -0.20324890231E+02 -0.17843009689E+01  0.30197939346E+02  0.51100000000E-03 0.  1.
        -12    1    3    3    0    0  0.11994084017E+02  0.24080744509E+01 -0.32998388061E+01  0.12670667311E+02  0.00000000000E+00 0.  1.
</event>
<event>
 7    1  0.4519840E-010  0.4778727E+02  0.7816164E-02  0.1312668E+00
        -11   -1    0    0    0    0  0.00000000000E+00  0.00000000000E+00  0.45593999997E+02  0.45594000000E+02  0.51100000000E-03 0. -1.
         11   -1    0    0    0    0 -0.00000000000E+00 -0.00000000000E+00 -0.45593999997E+02  0.45594000000E+02  0.51100000000E-03 0.  1.
    9900012    2    1    2    0    0  0.20497530226E+02 -0.62452274366E+00 -0.38250290637E+02  0.47787268349E+02  0.19999987713E+02 0.  0.
         12    1    1    2    0    0 -0.20497530226E+02  0.62452274366E+00  0.38250290637E+02  0.43400731651E+02  0.00000000000E+00 0. -1.
         11    1    3    3    0    0  0.11198282862E+02  0.42831591871E+01 -0.22035781866E+02  0.25086304518E+02  0.51100000000E-03 0. -1.
        -11    1    3    3    0    0  0.10498221414E+02 -0.44640219816E+01 -0.17498733024E+02  0.20888891852E+02  0.51100000000E-03 0.  1.
         12    1    3    3    0    0 -0.11989740498E+01 -0.44365994915E+00  0.12842242537E+01  0.18120719788E+01  0.00000000000E+00 0. -1.
</event>
<event>
 7    1  0.4519840E-010  0.4778724E+02  0.7816164E-02  0.1312668E+00
        -11   -1    0    0    0    0  0.00000000000E+00  0.00000000000E+00  0.45593999997E+02  0.45594000000E+02  0.51100000000E-03 0. -1.
         11   -1    0    0    0    0 -0.00000000000E+00 -0.00000000000E+00 -0.45593999997E+02  0.45594000000E+02  0.51100000000E-03 0.  1.
    9900012    2    1    2    0    0  0.39798090164E+02 -0.11468249828E+02 -0.12969860855E+02  0.47787239345E+02  0.19999855471E+02 0.  0.
         12    1    1    2    0    0 -0.39798090164E+02  0.11468249828E+02  0.12969860855E+02  0.43400760655E+02  0.00000000000E+00 0. -1.
         11    1    3    3    0    0  0.14523651556E+02 -0.66355897221E+01 -0.60506230629E+01  0.17075641868E+02  0.51100000000E-03 0. -1.
        -11    1    3    3    0    0  0.15431350058E+02 -0.10108307921E+02 -0.21648775512E+01  0.18573937351E+02  0.51100000000E-03 0.  1.
         12    1    3    3    0    0  0.98430885496E+01  0.52756478146E+01 -0.47543602413E+01  0.12137660127E+02  0.00000000000E+00 0. -1.
</event>
<event>
 7    1  0.4519840E-010  0.4778727E+02  0.7816164E-02  0.1312668E+00
        -11   -1    0    0    0    0  0.00000000000E+00  0.00000000000E+00  0.45593999997E+02  0.45594000000E+02  0.51100000000E-03 0.  1.
         11   -1    0    0    0    0 -0.00000000000E+00 -0.00000000000E+00 -0.45593999997E+02  0.45594000000E+02  0.51100000000E-03 0. -1.
    9900012    2    1    2    0    0  0.39543446944E+02  0.14964160121E+02 -0.97986177023E+01  0.47787271974E+02  0.20000004239E+02 0.  0.
         12    1    1    2    0    0 -0.39543446944E+02 -0.14964160121E+02  0.97986177023E+01  0.43400728026E+02  0.00000000000E+00 0. -1.
         11    1    3    3    0    0  0.15917053041E+02  0.12078985631E+02 -0.63879846033E+01  0.20977626628E+02  0.51100000000E-03 0. -1.
        -11    1    3    3    0    0  0.23617983397E+02  0.48354382162E+01 -0.45750952176E+01  0.24538176358E+02  0.51100000000E-03 0.  1.
         12    1    3    3    0    0  0.84105059924E-02 -0.19502637264E+01  0.11644621186E+01  0.22714689883E+01  0.00000000000E+00 0. -1.
</event>
<event>
 7    1  0.4519840E-010  0.4778727E+02  0.7816164E-02  0.1312668E+00
        -11   -1    0    0    0    0  0.00000000000E+00  0.00000000000E+00  0.45593999997E+02  0.45594000000E+02  0.51100000000E-03 0. -1.
         11   -1    0    0    0    0 -0.00000000000E+00 -0.00000000000E+00 -0.45593999997E+02  0.45594000000E+02  0.51100000000E-03 0.  1.
    9900012    2    1    2    0    0 -0.26372687595E+02  0.23246701673E+02 -0.25449868422E+02  0.47787267376E+02  0.19999983272E+02 0.  0.
         12    1    1    2    0    0  0.26372687595E+02 -0.23246701673E+02  0.25449868422E+02  0.43400732624E+02  0.00000000000E+00 0. -1.
         11    1    3    3    0    0 -0.23279582050E+01  0.67938465546E+01  0.19987717180E+00  0.71844061380E+01  0.51100000000E-03 0. -1.
        -11    1    3    3    0    0 -0.16535697103E+02  0.12843195232E+02 -0.10759656617E+02  0.23540330355E+02  0.51100000000E-03 0.  1.
         12    1    3    3    0    0 -0.75090322870E+01  0.36096598864E+01 -0.14890088977E+02  0.17062530883E+02  0.00000000000E+00 0. -1.
</event>
<event>
 7    1  0.4519840E-010  0.4778727E+02  0.7816164E-02  0.1312668E+00
        -11   -1    0    0    0    0  0.00000000000E+00  0.00000000000E+00  0.45593999997E+02  0.45594000000E+02  0.51100000000E-03 0.  1.
         11   -1    0    0    0    0 -0.00000000000E+00 -0.00000000000E+00 -0.45593999997E+02  0.45594000000E+02  0.51100000000E-03 0. -1.
    9900012    2    1    2    0    0 -0.43148884167E+02 -0.55652484221E+00  0.46354224625E+01  0.47787273438E+02  0.20000010913E+02 0.  0.
        -12    1    1    2    0    0  0.43148884167E+02  0.55652484221E+00 -0.46354224625E+01  0.43400726562E+02  0.00000000000E+00 0.  1.
         11    1    3    3    0    0 -0.36293419325E+02  0.66431935020E+01  0.45928114384E+01  0.37181154143E+02  0.51100000000E-03 0. -1.
        -11    1    3    3    0    0 -0.45392396136E+01 -0.22331063040E+01  0.61546194405E+00  0.50961018141E+01  0.51100000000E-03 0.  1.
         12    1    3    3    0    0 -0.23162252277E+01 -0.49666120402E+01 -0.57285091989E+00  0.55100174809E+01  0.00000000000E+00 0. -1.
</event>
<event>
 7    1  0.4519840E-010  0.4778727E+02  0.7816164E-02  0.1312668E+00
        -11   -1    0    0    0    0  0.00000000000E+00  0.00000000000E+00  0.45593999997E+02  0.45594000000E+02  0.51100000000E-03 0. -1.
         11   -1    0    0    0    0 -0.00000000000E+00 -0.00000000000E+00 -0.45593999997E+02  0.45594000000E+02  0.51100000000E-03 0.  1.
    9900012    2    1    2    0    0  0.12398662090E+02  0.12905355757E+02  0.39539198526E+02  0.47787271332E+02  0.20000001312E+02 0.  0.
        -12    1    1    2    0    0 -0.12398662090E+02 -0.12905355757E+02 -0.39539198526E+02  0.43400728668E+02  0.00000000000E+00 0.  1.
         11    1    3    3    0    0  0.10746265431E+02  0.79103259536E+01  0.20958198949E+02  0.24845554550E+02  0.51100000000E-03 0. -1.
        -11    1    3    3    0    0  0.65206754913E+00  0.70377860120E+01  0.19302227123E+02  0.20555573361E+02  0.51100000000E-03 0.  1.
        -12    1    3    3    0    0  0.10003291091E+01 -0.20427562088E+01 -0.72122754618E+00  0.23861434216E+01  0.00000000000E+00 0.  1.
</event>
<event>
 7    1  0.4519840E-010  0.4778727E+02  0.7816164E-02  0.1312668E+00
        -11   -1    0    0    0    0  0.00000000000E+00  0.00000000000E+00  0.45593999997E+02  0.45594000000E+02  0.51100000000E-03 0. -1.
         11   -1    0    0    0    0 -0.00000000000E+00 -0.00000000000E+00 -0.45593999997E+02  0.45594000000E+02  0.51100000000E-03 0.  1.
    9900012    2    1    2    0    0  0.52813278520E+01  0.33946495758E+02  0.26521054195E+02  0.47787270585E+02  0.19999997906E+02 0.  0.
        -12    1    1    2    0    0 -0.52813278520E+01 -0.33946495758E+02 -0.26521054195E+02  0.43400729415E+02  0.00000000000E+00 0.  1.
         11    1    3    3    0    0 -0.25504493964E+01  0.57331281832E+01  0.85864879811E+01  0.10634910766E+02  0.51100000000E-03 0. -1.
        -11    1    3    3    0    0  0.16674835783E+01 -0.14655222361E+01  0.10679360067E+01  0.24634821867E+01  0.51100000000E-03 0.  1.
         12    1    3    3    0    0  0.61642936700E+01  0.29678889811E+02  0.16866630207E+02  0.34688877633E+02  0.00000000000E+00 0. -1.
</event>
<event>
 7    1  0.4519840E-010  0.4778727E+02  0.7816164E-02  0.1312668E+00
        -11   -1    0    0    0    0  0.00000000000E+00  0.00000000000E+00  0.45593999997E+02  0.45594000000E+02  0.51100000000E-03 0. -1.
         11   -1    0    0    0    0 -0.00000000000E+00 -0.00000000000E+00 -0.45593999997E+02  0.45594000000E+02  0.51100000000E-03 0.  1.
    9900012    2    1    2    0    0 -0.31144206834E+02  0.50326259769E+01  0.29804935985E+02  0.47787272441E+02  0.20000006368E+02 0.  0.
        -12    1    1    2    0    0  0.31144206834E+02 -0.50326259769E+01 -0.29804935985E+02  0.43400727559E+02  0.00000000000E+00 0.  1.
         11    1    3    3    0    0 -0.12226372441E+02 -0.52636601395E+00  0.11618191557E+02  0.16874347974E+02  0.51100000000E-03 0. -1.
        -11    1    3    3    0    0 -0.33154006777E+01 -0.31280284190E+01  0.10546585670E+02  0.11489426138E+02  0.51100000000E-03 0.  1.
        -12    1    3    3    0    0 -0.15602433716E+02  0.86870204099E+01  0.76401587592E+01  0.19423498329E+02  0.00000000000E+00 0.  1.
</event>
<event>
 7    1  0.4519840E-010  0.4778727E+02  0.7816164E-02  0.1312668E+00
        -11   -1    0    0    0    0  0.00000000000E+00  0.00000000000E+00  0.45593999997E+02  0.45594000000E+02  0.51100000000E-03 0. -1.
         11   -1    0    0    0    0 -0.00000000000E+00 -0.00000000000E+00 -0.45593999997E+02  0.45594000000E+02  0.51100000000E-03 0.  1.
    9900012    2    1    2    0    0 -0.11807858057E+02 -0.22455080125E+02 -0.35213167388E+02  0.47787270826E+02  0.19999999004E+02 0.  0.
         12    1    1    2    0    0  0.11807858057E+02  0.22455080125E+02  0.35213167388E+02  0.43400729174E+02  0.00000000000E+00 0. -1.
         11    1    3    3    0    0  0.37068108968E+00 -0.11373049111E+02 -0.10873010955E+02  0.15738679044E+02  0.51100000000E-03 0. -1.
        -11    1    3    3    0    0  0.46598274027E+00 -0.35218405734E+01  0.51715513239E-01  0.35529108761E+01  0.51100000000E-03 0.  1.
        -12    1    3    3    0    0 -0.12644521887E+02 -0.75601904411E+01 -0.24391871946E+02  0.28495680906E+02  0.00000000000E+00 0.  1.
</event>
<event>
 7    1  0.4519840E-010  0.4778727E+02  0.7816164E-02  0.1312668E+00
        -11   -1    0    0    0    0  0.00000000000E+00  0.00000000000E+00  0.45593999997E+02  0.45594000000E+02  0.51100000000E-03 0. -1.
         11   -1    0    0    0    0 -0.00000000000E+00 -0.00000000000E+00 -0.45593999997E+02  0.45594000000E+02  0.51100000000E-03 0.  1.
    9900012    2    1    2    0    0 -0.13514276244E+02 -0.29492056541E+02  0.28830654549E+02  0.47787266099E+02  0.19999977451E+02 0.  0.
        -12    1    1    2    0    0  0.13514276244E+02  0.29492056541E+02 -0.28830654549E+02  0.43400733901E+02  0.00000000000E+00 0.  1.
         11    1    3    3    0    0 -0.58890659096E+01 -0.33351468132E+01  0.12381765807E+02  0.14110720262E+02  0.51100000000E-03 0. -1.
        -11    1    3    3    0    0 -0.14538739117E+01  0.82836226991E+00  0.59377884888E+00  0.17755300572E+01  0.51100000000E-03 0.  1.
        -12    1    3    3    0    0 -0.61713364223E+01 -0.26985271998E+02  0.15855109894E+02  0.31901015780E+02  0.00000000000E+00 0.  1.
</event>
<event>
 7    1  0.4519840E-010  0.4778727E+02  0.7816164E-02  0.1312668E+00
        -11   -1    0    0    0    0  0.00000000000E+00  0.00000000000E+00  0.45593999997E+02  0.45594000000E+02  0.51100000000E-03 0. -1.
         11   -1    0    0    0    0 -0.00000000000E+00 -0.00000000000E+00 -0.45593999997E+02  0.45594000000E+02  0.51100000000E-03 0.  1.
    9900012    2    1    2    0    0  0.12519712603E+02 -0.77260651559E+01  0.40831212823E+02  0.47787271584E+02  0.20000002461E+02 0.  0.
        -12    1    1    2    0    0 -0.12519712603E+02  0.77260651559E+01 -0.40831212823E+02  0.43400728416E+02  0.00000000000E+00 0.  1.
         11    1    3    3    0    0  0.50009817229E+01 -0.20814931896E+01  0.19964931591E+02  0.20686733086E+02  0.51100000000E-03 0. -1.
        -11    1    3    3    0    0  0.75474603581E+01 -0.95639319138E+01  0.19414899884E+02  0.22920979239E+02  0.51100000000E-03 0.  1.
        -12    1    3    3    0    0 -0.28729477594E-01  0.39193599476E+01  0.14513813476E+01  0.41795592589E+01  0.00000000000E+00 0.  1.
</event>
<event>
 7    1  0.4519840E-010  0.4778726E+02  0.7816164E-02  0.1312668E+00
        -11   -1    0    0    0    0  0.00000000000E+00  0.00000000000E+00  0.45593999997E+02  0.45594000000E+02  0.51100000000E-03 0.  1.
         11   -1    0    0    0    0 -0.00000000000E+00 -0.00000000000E+00 -0.45593999997E+02  0.45594000000E+02  0.51100000000E-03 0. -1.
    9900012    2    1    2    0    0  0.67143686231E+01  0.41105245363E+02  0.12202477752E+02  0.47787258006E+02  0.19999940553E+02 0.  0.
        -12    1    1    2    0    0 -0.67143686231E+01 -0.41105245363E+02 -0.12202477752E+02  0.43400741994E+02  0.00000000000E+00 0.  1.
         11    1    3    3    0    0  0.69723809745E+00  0.70965928868E+01  0.94709603495E+01  0.11855246171E+02  0.51100000000E-03 0. -1.
        -11    1    3    3    0    0  0.48723662957E+00  0.16909294469E+02  0.54141103337E+01  0.17761594240E+02  0.51100000000E-03 0.  1.
        -12    1    3    3    0    0  0.55298938961E+01  0.17099358007E+02 -0.26825929317E+01  0.18170417595E+02  0.00000000000E+00 0.  1.
</event>
<event>
 7    1  0.4519840E-010  0.4778728E+02  0.7816164E-02  0.1312668E+00
        -11   -1    0    0    0    0  0.00000000000E+00  0.00000000000E+00  0.45593999997E+02  0.45594000000E+02  0.51100000000E-03 0. -1.
         11   -1    0    0    0    0 -0.00000000000E+00 -0.00000000000E+00 -0.45593999997E+02  0.45594000000E+02  0.51100000000E-03 0.  1.
    9900012    2    1    2    0    0  0.22978701426E+02 -0.15227855760E+02 -0.33521850408E+02  0.47787276906E+02  0.20000026727E+02 0.  0.
         12    1    1    2    0    0 -0.22978701426E+02  0.15227855760E+02  0.33521850408E+02  0.43400723094E+02  0.00000000000E+00 0. -1.
         11    1    3    3    0    0  0.11171831461E+02 -0.27452552363E+01 -0.19024669044E+02  0.22232504965E+02  0.51100000000E-03 0. -1.
        -11    1    3    3    0    0  0.12069116075E+02 -0.92361081575E+01 -0.15912025986E+02  0.22003677601E+02  0.51100000000E-03 0.  1.
         12    1    3    3    0    0 -0.26224611043E+00 -0.32464923665E+01  0.14148446226E+01  0.35510943404E+01  0.00000000000E+00 0. -1.
</event>
<event>
 7    1  0.4519840E-010  0.4778727E+02  0.7816164E-02  0.1312668E+00
        -11   -1    0    0    0    0  0.00000000000E+00  0.00000000000E+00  0.45593999997E+02  0.45594000000E+02  0.51100000000E-03 0. -1.
         11   -1    0    0    0    0 -0.00000000000E+00 -0.00000000000E+00 -0.45593999997E+02  0.45594000000E+02  0.51100000000E-03 0.  1.
    9900012    2    1    2    0    0 -0.17715995989E+02 -0.90743530581E+00 -0.39609887831E+02  0.47787272279E+02  0.20000005631E+02 0.  0.
         12    1    1    2    0    0  0.17715995989E+02  0.90743530581E+00  0.39609887831E+02  0.43400727721E+02  0.00000000000E+00 0. -1.
         11    1    3    3    0    0 -0.15488563954E+02  0.38752406927E+01 -0.13817250690E+02  0.21114675481E+02  0.51100000000E-03 0. -1.
        -11    1    3    3    0    0 -0.49903812983E-01  0.13156501603E-01  0.17176723435E+00  0.17935363950E+00  0.51100000000E-03 0.  1.
        -12    1    3    3    0    0 -0.21775282225E+01 -0.47958325001E+01 -0.25964404375E+02  0.26493243159E+02  0.00000000000E+00 0.  1.
</event>
<event>
 7    1  0.4519840E-010  0.4778727E+02  0.7816164E-02  0.1312668E+00
        -11   -1    0    0    0    0  0.00000000000E+00  0.00000000000E+00  0.45593999997E+02  0.45594000000E+02  0.51100000000E-03 0. -1.
         11   -1    0    0    0    0 -0.00000000000E+00 -0.00000000000E+00 -0.45593999997E+02  0.45594000000E+02  0.51100000000E-03 0.  1.
    9900012    2    1    2    0    0  0.21083375536E+02 -0.29867704161E+02  0.23388776374E+02  0.47787270327E+02  0.19999996731E+02 0.  0.
        -12    1    1    2    0    0 -0.21083375536E+02  0.29867704161E+02 -0.23388776374E+02  0.43400729673E+02  0.00000000000E+00 0.  1.
         11    1    3    3    0    0  0.54429900566E+01 -0.13375341081E+02  0.48042231191E+01  0.15218621811E+02  0.51100000000E-03 0.  1.
        -11    1    3    3    0    0  0.14927818421E+02 -0.10867094922E+02  0.71406555808E+01  0.19797032032E+02  0.51100000000E-03 0. -1.
        -12    1    3    3    0    0  0.71256705791E+00 -0.56252681577E+01  0.11443897674E+02  0.12771616485E+02  0.00000000000E+00 0.  1.
</event>
<event>
 7    1  0.4519840E-010  0.4778727E+02  0.7816164E-02  0.1312668E+00
        -11   -1    0    0    0    0  0.00000000000E+00  0.00000000000E+00  0.45593999997E+02  0.45594000000E+02  0.51100000000E-03 0. -1.
         11   -1    0    0    0    0 -0.00000000000E+00 -0.00000000000E+00 -0.45593999997E+02  0.45594000000E+02  0.51100000000E-03 0.  1.
    9900012    2    1    2    0    0 -0.25565050260E+02  0.14339435573E+01  0.35042763800E+02  0.47787270932E+02  0.19999999488E+02 0.  0.
        -12    1    1    2    0    0  0.25565050260E+02 -0.14339435573E+01 -0.35042763800E+02  0.43400729068E+02  0.00000000000E+00 0.  1.
         11    1    3    3    0    0 -0.38934062231E+01  0.14532821335E+01  0.70804711951E+00  0.42156816723E+01  0.51100000000E-03 0. -1.
        -11    1    3    3    0    0  0.10880793987E+00  0.40365772965E+01  0.93154390265E+01  0.10152989705E+02  0.51100000000E-03 0.  1.
         12    1    3    3    0    0 -0.21780451977E+02 -0.40559158727E+01  0.25019277653E+02  0.33418599554E+02  0.00000000000E+00 0. -1.
</event>
<event>
 7    1  0.4519840E-010  0.4778727E+02  0.7816164E-02  0.1312668E+00
        -11   -1    0    0    0    0  0.00000000000E+00  0.00000000000E+00  0.45593999997E+02  0.45594000000E+02  0.51100000000E-03 0. -1.
         11   -1    0    0    0    0 -0.00000000000E+00 -0.00000000000E+00 -0.45593999997E+02  0.45594000000E+02  0.51100000000E-03 0.  1.
    9900012    2    1    2    0    0 -0.10089186753E+02  0.29779546893E+02 -0.29916723366E+02  0.47787269137E+02  0.19999991303E+02 0.  0.
         12    1    1    2    0    0  0.10089186753E+02 -0.29779546893E+02  0.29916723366E+02  0.43400730863E+02  0.00000000000E+00 0. -1.
         11    1    3    3    0    0  0.92847477084E+00  0.58674428937E+01 -0.97704713152E+01  0.11434643042E+02  0.51100000000E-03 0. -1.
        -11    1    3    3    0    0 -0.76468902787E+01  0.25363312038E+02 -0.18608505527E+02  0.32373585014E+02  0.51100000000E-03 0.  1.
         12    1    3    3    0    0 -0.33707712448E+01 -0.14512080383E+01 -0.15377465238E+01  0.39790410813E+01  0.00000000000E+00 0. -1.
</event>
<event>
 7    1  0.4519840E-010  0.4778727E+02  0.7816164E-02  0.1312668E+00
        -11   -1    0    0    0    0  0.00000000000E+00  0.00000000000E+00  0.45593999997E+02  0.45594000000E+02  0.51100000000E-03 0. -1.
         11   -1    0    0    0    0 -0.00000000000E+00 -0.00000000000E+00 -0.45593999997E+02  0.45594000000E+02  0.51100000000E-03 0.  1.
    9900012    2    1    2    0    0 -0.21957449371E+02  0.14146563000E+02  0.34660761401E+02  0.47787271798E+02  0.20000003436E+02 0.  0.
        -12    1    1    2    0    0  0.21957449371E+02 -0.14146563000E+02 -0.34660761401E+02  0.43400728202E+02  0.00000000000E+00 0.  1.
         11    1    3    3    0    0 -0.27513699908E+00  0.12820877144E+01  0.89450925600E+00  0.15873236425E+01  0.51100000000E-03 0.  1.
        -11    1    3    3    0    0 -0.18110633529E+02  0.17129162042E+02  0.22262794474E+02  0.33422077391E+02  0.51100000000E-03 0. -1.
         12    1    3    3    0    0 -0.35716788430E+01 -0.42646867567E+01  0.11503457671E+02  0.12777870765E+02  0.00000000000E+00 0. -1.
</event>
<event>
 7    1  0.4519840E-010  0.4778727E+02  0.7816164E-02  0.1312668E+00
        -11   -1    0    0    0    0  0.00000000000E+00  0.00000000000E+00  0.45593999997E+02  0.45594000000E+02  0.51100000000E-03 0. -1.
         11   -1    0    0    0    0 -0.00000000000E+00 -0.00000000000E+00 -0.45593999997E+02  0.45594000000E+02  0.51100000000E-03 0.  1.
    9900012    2    1    2    0    0 -0.18023445993E+02 -0.26347540604E+02 -0.29403835012E+02  0.47787274030E+02  0.20000013611E+02 0.  0.
         12    1    1    2    0    0  0.18023445993E+02  0.26347540604E+02  0.29403835012E+02  0.43400725970E+02  0.00000000000E+00 0. -1.
         11    1    3    3    0    0 -0.68019909490E+01 -0.14180874859E+02 -0.15197001566E+02  0.21870371499E+02  0.51100000000E-03 0. -1.
        -11    1    3    3    0    0 -0.29167542871E+01 -0.51112602492E+01 -0.13811092432E+02  0.15012618404E+02  0.51100000000E-03 0.  1.
         12    1    3    3    0    0 -0.83047007571E+01 -0.70554054956E+01 -0.39574101358E+00  0.10904284127E+02  0.00000000000E+00 0. -1.
</event>
<event>
 7    1  0.4624777E-010  0.4778727E+02  0.7816164E-02  0.1312668E+00
        -11   -1    0    0    0    0  0.00000000000E+00  0.00000000000E+00  0.45593999997E+02  0.45594000000E+02  0.51100000000E-03 0. -1.
         11   -1    0    0    0    0 -0.00000000000E+00 -0.00000000000E+00 -0.45593999997E+02  0.45594000000E+02  0.51100000000E-03 0.  1.
    9900012    2    1    2    0    0  0.18192139145E+02 -0.23298482339E+02 -0.31778137094E+02  0.47787271859E+02  0.20000003716E+02 0.  0.
         12    1    1    2    0    0 -0.18192139145E+02  0.23298482339E+02  0.31778137094E+02  0.43400728141E+02  0.00000000000E+00 0. -1.
         11    1    3    3    0    0  0.62206818418E+00 -0.13829515420E+00 -0.91528181961E+01  0.91749755077E+01  0.51100000000E-03 0.  1.
        -11    1    3    3    0    0  0.13184254314E+01 -0.32865156307E+01  0.10458745836E+01  0.36923277908E+01  0.51100000000E-03 0. -1.
        -12    1    3    3    0    0  0.16251645529E+02 -0.19873671554E+02 -0.23671193481E+02  0.34919968561E+02  0.00000000000E+00 0.  1.
</event>
<event>
 7    1  0.4519840E-010  0.4778727E+02  0.7816164E-02  0.1312668E+00
        -11   -1    0    0    0    0  0.00000000000E+00  0.00000000000E+00  0.45593999997E+02  0.45594000000E+02  0.51100000000E-03 0. -1.
         11   -1    0    0    0    0 -0.00000000000E+00 -0.00000000000E+00 -0.45593999997E+02  0.45594000000E+02  0.51100000000E-03 0.  1.
    9900012    2    1    2    0    0 -0.44499942513E+01 -0.31685696812E+02  0.29322989970E+02  0.47787267609E+02  0.19999984336E+02 0.  0.
        -12    1    1    2    0    0  0.44499942513E+01  0.31685696812E+02 -0.29322989970E+02  0.43400732391E+02  0.00000000000E+00 0.  1.
         11    1    3    3    0    0  0.47723709337E+01 -0.17565139526E+02  0.15156830748E+02  0.23686265419E+02  0.51100000000E-03 0. -1.
        -11    1    3    3    0    0  0.12194626313E+01 -0.26672379809E+01 -0.23784799460E+00  0.29424172861E+01  0.51100000000E-03 0.  1.
        -12    1    3    3    0    0 -0.10441827816E+02 -0.11453319305E+02  0.14404007217E+02  0.21158584904E+02  0.00000000000E+00 0.  1.
</event>
<event>
 7    1  0.4519840E-010  0.4778722E+02  0.7816164E-02  0.1312668E+00
        -11   -1    0    0    0    0  0.00000000000E+00  0.00000000000E+00  0.45593999997E+02  0.45594000000E+02  0.51100000000E-03 0. -1.
         11   -1    0    0    0    0 -0.00000000000E+00 -0.00000000000E+00 -0.45593999997E+02  0.45594000000E+02  0.51100000000E-03 0.  1.
    9900012    2    1    2    0    0 -0.38271086906E+02 -0.46642262346E+01  0.19929781065E+02  0.47787224977E+02  0.19999789958E+02 0.  0.
        -12    1    1    2    0    0  0.38271086906E+02  0.46642262346E+01 -0.19929781065E+02  0.43400775023E+02  0.00000000000E+00 0.  1.
         11    1    3    3    0    0 -0.86630037453E+01 -0.38695360998E+01 -0.15641960718E+00  0.94892260418E+01  0.51100000000E-03 0. -1.
        -11    1    3    3    0    0 -0.64244777331E+00  0.32826583357E+01  0.17534093446E+01  0.37766426203E+01  0.51100000000E-03 0.  1.
         12    1    3    3    0    0 -0.28965635387E+02 -0.40773484705E+01  0.18332791328E+02  0.34521356315E+02  0.00000000000E+00 0. -1.
</event>
<event>
 7    1  0.4519840E-010  0.4778727E+02  0.7816164E-02  0.1312668E+00
        -11   -1    0    0    0    0  0.00000000000E+00  0.00000000000E+00  0.45593999997E+02  0.45594000000E+02  0.51100000000E-03 0. -1.
         11   -1    0    0    0    0 -0.00000000000E+00 -0.00000000000E+00 -0.45593999997E+02  0.45594000000E+02  0.51100000000E-03 0.  1.
    9900012    2    1    2    0    0 -0.34760612904E+02 -0.90648287700E+01  0.24354712450E+02  0.47787270183E+02  0.19999996074E+02 0.  0.
        -12    1    1    2    0    0  0.34760612904E+02  0.90648287700E+01 -0.24354712450E+02  0.43400729817E+02  0.00000000000E+00 0.  1.
         11    1    3    3    0    0 -0.15692124777E+02 -0.34736323390E+00  0.57731975765E+01  0.16724032162E+02  0.51100000000E-03 0. -1.
        -11    1    3    3    0    0 -0.10485669844E+02  0.93558618174E+00  0.13647708661E+02  0.17236140680E+02  0.51100000000E-03 0.  1.
        -12    1    3    3    0    0 -0.85828182829E+01 -0.96530517178E+01  0.49338062122E+01  0.13827097341E+02  0.00000000000E+00 0.  1.
</event>
<event>
 7    1  0.4519840E-010  0.4778727E+02  0.7816164E-02  0.1312668E+00
        -11   -1    0    0    0    0  0.00000000000E+00  0.00000000000E+00  0.45593999997E+02  0.45594000000E+02  0.51100000000E-03 0. -1.
         11   -1    0    0    0    0 -0.00000000000E+00 -0.00000000000E+00 -0.45593999997E+02  0.45594000000E+02  0.51100000000E-03 0.  1.
    9900012    2    1    2    0    0 -0.33580335186E+00  0.28370873815E+02  0.32842105863E+02  0.47787272329E+02  0.20000005855E+02 0.  0.
        -12    1    1    2    0    0  0.33580335186E+00 -0.28370873815E+02 -0.32842105863E+02  0.43400727671E+02  0.00000000000E+00 0.  1.
         11    1    3    3    0    0 -0.15416447655E+01  0.13836976287E+02  0.20649465678E+02  0.24904598259E+02  0.51100000000E-03 0. -1.
        -11    1    3    3    0    0 -0.14891625709E+01  0.15120594487E+02  0.13013457922E+02  0.20005001129E+02  0.51100000000E-03 0.  1.
        -12    1    3    3    0    0  0.26950039846E+01 -0.58669696020E+00 -0.82081773724E+00  0.28776729414E+01  0.00000000000E+00 0.  1.
</event>
<event>
 7    1  0.4519840E-010  0.4778727E+02  0.7816164E-02  0.1312668E+00
        -11   -1    0    0    0    0  0.00000000000E+00  0.00000000000E+00  0.45593999997E+02  0.45594000000E+02  0.51100000000E-03 0. -1.
         11   -1    0    0    0    0 -0.00000000000E+00 -0.00000000000E+00 -0.45593999997E+02  0.45594000000E+02  0.51100000000E-03 0.  1.
    9900012    2    1    2    0    0  0.14532370398E+02 -0.81812706745E+00 -0.40887214150E+02  0.47787269566E+02  0.19999993259E+02 0.  0.
         12    1    1    2    0    0 -0.14532370398E+02  0.81812706745E+00  0.40887214150E+02  0.43400730434E+02  0.00000000000E+00 0. -1.
         11    1    3    3    0    0  0.31649971066E+00 -0.53708818094E+00 -0.83805352550E+01  0.84036900944E+01  0.51100000000E-03 0. -1.
        -11    1    3    3    0    0  0.13020557107E+02  0.10511428028E+01 -0.34388820212E+02  0.36786285004E+02  0.51100000000E-03 0.  1.
         12    1    3    3    0    0  0.11953135804E+01 -0.13321816893E+01  0.18821413176E+01  0.25972944670E+01  0.00000000000E+00 0. -1.
</event>
<event>
 7    1  0.4519840E-010  0.4778727E+02  0.7816164E-02  0.1312668E+00
        -11   -1    0    0    0    0  0.00000000000E+00  0.00000000000E+00  0.45593999997E+02  0.45594000000E+02  0.51100000000E-03 0. -1.
         11   -1    0    0    0    0 -0.00000000000E+00 -0.00000000000E+00 -0.45593999997E+02  0.45594000000E+02  0.51100000000E-03 0.  1.
    9900012    2    1    2    0    0 -0.18083554867E+01  0.19857847429E+01 -0.43317542891E+02  0.47787274053E+02  0.20000013718E+02 0.  0.
         12    1    1    2    0    0  0.18083554867E+01 -0.19857847429E+01  0.43317542891E+02  0.43400725947E+02  0.00000000000E+00 0. -1.
         11    1    3    3    0    0 -0.18693138948E+01 -0.94825174743E+00 -0.64425038242E+01  0.67749074975E+01  0.51100000000E-03 0. -1.
        -11    1    3    3    0    0 -0.52768275257E+01 -0.52427774389E+00 -0.33293382809E+02  0.33713040726E+02  0.51100000000E-03 0.  1.
         12    1    3    3    0    0  0.53377859338E+01  0.34583142342E+01 -0.35816562577E+01  0.72993258296E+01  0.00000000000E+00 0. -1.
</event>
<event>
 7    1  0.4519840E-010  0.4778726E+02  0.7816164E-02  0.1312668E+00
        -11   -1    0    0    0    0  0.00000000000E+00  0.00000000000E+00  0.45593999997E+02  0.45594000000E+02  0.51100000000E-03 0. -1.
         11   -1    0    0    0    0 -0.00000000000E+00 -0.00000000000E+00 -0.45593999997E+02  0.45594000000E+02  0.51100000000E-03 0.  1.
    9900012    2    1    2    0    0  0.28248366800E+02  0.11944289838E+01 -0.32927608574E+02  0.47787259294E+02  0.19999946425E+02 0.  0.
         12    1    1    2    0    0 -0.28248366800E+02 -0.11944289838E+01  0.32927608574E+02  0.43400740706E+02  0.00000000000E+00 0. -1.
         11    1    3    3    0    0  0.87049713103E+01 -0.64811778874E+01 -0.62613845991E+01  0.12529450494E+02  0.51100000000E-03 0. -1.
        -11    1    3    3    0    0  0.57190652579E+01 -0.56340646917E+00 -0.12737797430E+02  0.13974141044E+02  0.51100000000E-03 0.  1.
        -12    1    3    3    0    0  0.13824330232E+02  0.82390133403E+01 -0.13928426544E+02  0.21283667756E+02  0.00000000000E+00 0.  1.
</event>
<event>
 7    1  0.4519840E-010  0.4778725E+02  0.7816164E-02  0.1312668E+00
        -11   -1    0    0    0    0  0.00000000000E+00  0.00000000000E+00  0.45593999997E+02  0.45594000000E+02  0.51100000000E-03 0.  1.
         11   -1    0    0    0    0 -0.00000000000E+00 -0.00000000000E+00 -0.45593999997E+02  0.45594000000E+02  0.51100000000E-03 0. -1.
    9900012    2    1    2    0    0 -0.25624891954E+02 -0.32229566727E+02  0.13720231864E+02  0.47787253215E+02  0.19999918708E+02 0.  0.
        -12    1    1    2    0    0  0.25624891954E+02  0.32229566727E+02 -0.13720231864E+02  0.43400746785E+02  0.00000000000E+00 0.  1.
         11    1    3    3    0    0 -0.23869135405E+01 -0.90844108314E+01  0.28573674749E+01  0.98177607198E+01  0.51100000000E-03 0. -1.
        -11    1    3    3    0    0 -0.18631925194E+02 -0.16036994572E+02  0.14729947931E+02  0.28658422804E+02  0.51100000000E-03 0.  1.
         12    1    3    3    0    0 -0.46060532195E+01 -0.71081613243E+01 -0.38670835415E+01  0.93110696910E+01  0.00000000000E+00 0. -1.
</event>
<event>
 7    1  0.4519840E-010  0.4778727E+02  0.7816164E-02  0.1312668E+00
        -11   -1    0    0    0    0  0.00000000000E+00  0.00000000000E+00  0.45593999997E+02  0.45594000000E+02  0.51100000000E-03 0. -1.
         11   -1    0    0    0    0 -0.00000000000E+00 -0.00000000000E+00 -0.45593999997E+02  0.45594000000E+02  0.51100000000E-03 0.  1.
    9900012    2    1    2    0    0 -0.34248433708E+02  0.26468892243E+02  0.31726509245E+01  0.47787272104E+02  0.20000004830E+02 0.  0.
        -12    1    1    2    0    0  0.34248433708E+02 -0.26468892243E+02 -0.31726509245E+01  0.43400727896E+02  0.00000000000E+00 0.  1.
         11    1    3    3    0    0 -0.16703243052E+02  0.99024186425E+01  0.36194869408E+00  0.19421308672E+02  0.51100000000E-03 0. -1.
        -11    1    3    3    0    0 -0.87158758829E+01  0.24515689838E+01 -0.45843575716E+01  0.10148547556E+02  0.51100000000E-03 0.  1.
        -12    1    3    3    0    0 -0.88293147729E+01  0.14114904617E+02  0.73950598020E+01  0.18217415876E+02  0.00000000000E+00 0.  1.
</event>
<event>
 7    1  0.4519840E-010  0.4778727E+02  0.7816164E-02  0.1312668E+00
        -11   -1    0    0    0    0  0.00000000000E+00  0.00000000000E+00  0.45593999997E+02  0.45594000000E+02  0.51100000000E-03 0.  1.
         11   -1    0    0    0    0 -0.00000000000E+00 -0.00000000000E+00 -0.45593999997E+02  0.45594000000E+02  0.51100000000E-03 0. -1.
    9900012    2    1    2    0    0  0.16986286300E+02  0.31695919557E+02  0.24299342978E+02  0.47787270652E+02  0.19999998209E+02 0.  0.
        -12    1    1    2    0    0 -0.16986286300E+02 -0.31695919557E+02 -0.24299342978E+02  0.43400729348E+02  0.00000000000E+00 0.  1.
         11    1    3    3    0    0 -0.28078786937E+01  0.45327452008E+01  0.15443912266E+01  0.55511355898E+01  0.51100000000E-03 0. -1.
        -11    1    3    3    0    0  0.28853500330E+01  0.13446336692E+02  0.99812176213E+01  0.16992760832E+02  0.51100000000E-03 0.  1.
        -12    1    3    3    0    0  0.16908814960E+02  0.13716837664E+02  0.12773734130E+02  0.25243374229E+02  0.00000000000E+00 0.  1.
</event>
<event>
 7    1  0.4519840E-010  0.4778728E+02  0.7816164E-02  0.1312668E+00
        -11   -1    0    0    0    0  0.00000000000E+00  0.00000000000E+00  0.45593999997E+02  0.45594000000E+02  0.51100000000E-03 0. -1.
         11   -1    0    0    0    0 -0.00000000000E+00 -0.00000000000E+00 -0.45593999997E+02  0.45594000000E+02  0.51100000000E-03 0.  1.
    9900012    2    1    2    0    0 -0.23948888707E+02  0.30720028880E+02  0.19140358872E+02  0.47787276706E+02  0.20000025813E+02 0.  0.
        -12    1    1    2    0    0  0.23948888707E+02 -0.30720028880E+02 -0.19140358872E+02  0.43400723294E+02  0.00000000000E+00 0.  1.
         11    1    3    3    0    0 -0.34466696240E+01  0.62593262027E+01  0.72952861469E+01  0.10211752848E+02  0.51100000000E-03 0. -1.
        -11    1    3    3    0    0 -0.99628232314E+01  0.13714170854E+01  0.15034340260E+01  0.10168527214E+02  0.51100000000E-03 0.  1.
        -12    1    3    3    0    0 -0.10539395851E+02  0.23089285592E+02  0.10341638699E+02  0.27406996644E+02  0.00000000000E+00 0.  1.
</event>
<event>
 7    1  0.4519840E-010  0.4778727E+02  0.7816164E-02  0.1312668E+00
        -11   -1    0    0    0    0  0.00000000000E+00  0.00000000000E+00  0.45593999997E+02  0.45594000000E+02  0.51100000000E-03 0. -1.
         11   -1    0    0    0    0 -0.00000000000E+00 -0.00000000000E+00 -0.45593999997E+02  0.45594000000E+02  0.51100000000E-03 0.  1.
    9900012    2    1    2    0    0 -0.26219022530E+02  0.78348660414E+00  0.34577049774E+02  0.47787269997E+02  0.19999995227E+02 0.  0.
        -12    1    1    2    0    0  0.26219022530E+02 -0.78348660414E+00 -0.34577049774E+02  0.43400730003E+02  0.00000000000E+00 0.  1.
         11    1    3    3    0    0 -0.29465789025E+01  0.36602781526E+01  0.49684562066E+01  0.68385320589E+01  0.51100000000E-03 0. -1.
        -11    1    3    3    0    0 -0.19947161981E+02  0.41140516727E+01  0.19317363769E+02  0.28070896593E+02  0.51100000000E-03 0.  1.
         12    1    3    3    0    0 -0.33252816460E+01 -0.69908432211E+01  0.10291229798E+02  0.12877841346E+02  0.00000000000E+00 0. -1.
</event>
<event>
 7    1  0.4519840E-010  0.4778727E+02  0.7816164E-02  0.1312668E+00
        -11   -1    0    0    0    0  0.00000000000E+00  0.00000000000E+00  0.45593999997E+02  0.45594000000E+02  0.51100000000E-03 0. -1.
         11   -1    0    0    0    0 -0.00000000000E+00 -0.00000000000E+00 -0.45593999997E+02  0.45594000000E+02  0.51100000000E-03 0.  1.
    9900012    2    1    2    0    0 -0.39058916606E+02  0.14980210777E+02 -0.11559323558E+02  0.47787266798E+02  0.19999980637E+02 0.  0.
         12    1    1    2    0    0  0.39058916606E+02 -0.14980210777E+02  0.11559323558E+02  0.43400733202E+02  0.00000000000E+00 0. -1.
         11    1    3    3    0    0 -0.23624905139E+02  0.15686292805E+02 -0.11138566568E+02  0.30467418503E+02  0.51100000000E-03 0. -1.
        -11    1    3    3    0    0 -0.47745533579E+01  0.16669742975E+01 -0.32845045120E+01  0.60301851735E+01  0.51100000000E-03 0.  1.
        -12    1    3    3    0    0 -0.10659458109E+02 -0.23730563257E+01  0.28637475220E+01  0.11289663121E+02  0.00000000000E+00 0.  1.
</event>
<event>
 7    1  0.4519840E-010  0.4778729E+02  0.7816164E-02  0.1312668E+00
        -11   -1    0    0    0    0  0.00000000000E+00  0.00000000000E+00  0.45593999997E+02  0.45594000000E+02  0.51100000000E-03 0. -1.
         11   -1    0    0    0    0 -0.00000000000E+00 -0.00000000000E+00 -0.45593999997E+02  0.45594000000E+02  0.51100000000E-03 0.  1.
    9900012    2    1    2    0    0  0.12955746505E+02  0.19282235856E+02 -0.36660141038E+02  0.47787286549E+02  0.20000070693E+02 0.  0.
         12    1    1    2    0    0 -0.12955746505E+02 -0.19282235856E+02  0.36660141038E+02  0.43400713451E+02  0.00000000000E+00 0. -1.
         11    1    3    3    0    0  0.45714674551E+01  0.89646861349E+01 -0.85775747753E+01  0.13222658639E+02  0.51100000000E-03 0. -1.
        -11    1    3    3    0    0 -0.67630386659E+00  0.94660904952E+01 -0.76240970045E+01  0.12173377164E+02  0.51100000000E-03 0.  1.
         12    1    3    3    0    0  0.90605829170E+01  0.85145922560E+00 -0.20458469258E+02  0.22391250746E+02  0.00000000000E+00 0. -1.
</event>
<event>
 7    1  0.4878405E-010  0.4778727E+02  0.7816164E-02  0.1312668E+00
        -11   -1    0    0    0    0  0.00000000000E+00  0.00000000000E+00  0.45593999997E+02  0.45594000000E+02  0.51100000000E-03 0. -1.
         11   -1    0    0    0    0 -0.00000000000E+00 -0.00000000000E+00 -0.45593999997E+02  0.45594000000E+02  0.51100000000E-03 0.  1.
    9900012    2    1    2    0    0  0.21168519571E+01  0.12939723099E+02 -0.41372768569E+02  0.47787268725E+02  0.19999989426E+02 0.  0.
         12    1    1    2    0    0 -0.21168519571E+01 -0.12939723099E+02  0.41372768569E+02  0.43400731275E+02  0.00000000000E+00 0. -1.
         11    1    3    3    0    0 -0.48388810268E+01  0.10929455543E+02 -0.16656579624E+02  0.20501449049E+02  0.51100000000E-03 0. -1.
        -11    1    3    3    0    0  0.17169690608E+00 -0.42966619419E+00  0.71545364145E+00  0.85203699460E+00  0.51100000000E-03 0.  1.
        -12    1    3    3    0    0  0.67840360778E+01  0.24399337494E+01 -0.25431642587E+02  0.26433782682E+02  0.00000000000E+00 0.  1.
</event>
<event>
 7    1  0.4519840E-010  0.4778727E+02  0.7816164E-02  0.1312668E+00
        -11   -1    0    0    0    0  0.00000000000E+00  0.00000000000E+00  0.45593999997E+02  0.45594000000E+02  0.51100000000E-03 0. -1.
         11   -1    0    0    0    0 -0.00000000000E+00 -0.00000000000E+00 -0.45593999997E+02  0.45594000000E+02  0.51100000000E-03 0.  1.
    9900012    2    1    2    0    0 -0.10742611597E+02  0.41559557757E+02  0.64048968786E+01  0.47787271333E+02  0.20000001313E+02 0.  0.
        -12    1    1    2    0    0  0.10742611597E+02 -0.41559557757E+02 -0.64048968786E+01  0.43400728667E+02  0.00000000000E+00 0.  1.
         11    1    3    3    0    0  0.29871936650E+01  0.13501087460E+01  0.27063901462E+01  0.42509607741E+01  0.51100000000E-03 0. -1.
        -11    1    3    3    0    0  0.43681165213E+00  0.10029134838E+02  0.93984344269E+00  0.10082542139E+02  0.51100000000E-03 0.  1.
        -12    1    3    3    0    0 -0.14166616914E+02  0.30180314172E+02  0.27586632896E+01  0.33453768420E+02  0.00000000000E+00 0.  1.
</event>
<event>
 7    1  0.4519840E-010  0.4778727E+02  0.7816164E-02  0.1312668E+00
        -11   -1    0    0    0    0  0.00000000000E+00  0.00000000000E+00  0.45593999997E+02  0.45594000000E+02  0.51100000000E-03 0. -1.
         11   -1    0    0    0    0 -0.00000000000E+00 -0.00000000000E+00 -0.45593999997E+02  0.45594000000E+02  0.51100000000E-03 0.  1.
    9900012    2    1    2    0    0  0.74578426325E+01  0.12956933473E+02  0.40744592796E+02  0.47787269778E+02  0.19999994224E+02 0.  0.
        -12    1    1    2    0    0 -0.74578426325E+01 -0.12956933473E+02 -0.40744592796E+02  0.43400730222E+02  0.00000000000E+00 0.  1.
         11    1    3    3    0    0  0.19645585114E+00 -0.11748142309E+00 -0.16722830033E+01  0.16878766218E+01  0.51100000000E-03 0. -1.
        -11    1    3    3    0    0  0.10893902337E+00 -0.16081169188E+01  0.54978625367E+01  0.57292582827E+01  0.51100000000E-03 0.  1.
         12    1    3    3    0    0  0.71524477579E+01  0.14682531815E+02  0.36919013262E+02  0.40370134873E+02  0.00000000000E+00 0. -1.
</event>
<event>
 7    1  0.4519840E-010  0.4778729E+02  0.7816164E-02  0.1312668E+00
        -11   -1    0    0    0    0  0.00000000000E+00  0.00000000000E+00  0.45593999997E+02  0.45594000000E+02  0.51100000000E-03 0. -1.
         11   -1    0    0    0    0 -0.00000000000E+00 -0.00000000000E+00 -0.45593999997E+02  0.45594000000E+02  0.51100000000E-03 0.  1.
    9900012    2    1    2    0    0 -0.70998114312E+01  0.18496850397E+02  0.38614511332E+02  0.47787293987E+02  0.20000104605E+02 0.  0.
        -12    1    1    2    0    0  0.70998114312E+01 -0.18496850397E+02 -0.38614511332E+02  0.43400706013E+02  0.00000000000E+00 0.  1.
         11    1    3    3    0    0 -0.61398387125E+01  0.14286038079E+02  0.15771196334E+02  0.22147666638E+02  0.51100000000E-03 0. -1.
        -11    1    3    3    0    0 -0.39309172589E+01  0.31474960355E+01  0.37277791420E+01  0.62653953892E+01  0.51100000000E-03 0.  1.
        -12    1    3    3    0    0  0.29709445402E+01  0.10633162819E+01  0.19115535857E+02  0.19374231960E+02  0.00000000000E+00 0.  1.
</event>
<event>
 7    1  0.5360652E-010  0.4778728E+02  0.7816164E-02  0.1312668E+00
        -11   -1    0    0    0    0  0.00000000000E+00  0.00000000000E+00  0.45593999997E+02  0.45594000000E+02  0.51100000000E-03 0. -1.
         11   -1    0    0    0    0 -0.00000000000E+00 -0.00000000000E+00 -0.45593999997E+02  0.45594000000E+02  0.51100000000E-03 0.  1.
    9900012    2    1    2    0    0 -0.30233686513E+02  0.19956109346E+02 -0.23901899696E+02  0.47787275242E+02  0.20000019138E+02 0.  0.
         12    1    1    2    0    0  0.30233686513E+02 -0.19956109346E+02  0.23901899696E+02  0.43400724758E+02  0.00000000000E+00 0. -1.
         11    1    3    3    0    0 -0.16831207705E+01  0.41691342269E+01 -0.89039610671E+01  0.99747229874E+01  0.51100000000E-03 0. -1.
        -11    1    3    3    0    0 -0.50479056809E+01  0.87711014358E+01 -0.33519436888E+01  0.10660633139E+02  0.51100000000E-03 0.  1.
        -12    1    3    3    0    0 -0.23502660062E+02  0.70158736838E+01 -0.11645994940E+02  0.27151919116E+02  0.00000000000E+00 0.  1.
</event>
<event>
 7    1  0.4519840E-010  0.4778726E+02  0.7816164E-02  0.1312668E+00
        -11   -1    0    0    0    0  0.00000000000E+00  0.00000000000E+00  0.45593999997E+02  0.45594000000E+02  0.51100000000E-03 0. -1.
         11   -1    0    0    0    0 -0.00000000000E+00 -0.00000000000E+00 -0.45593999997E+02  0.45594000000E+02  0.51100000000E-03 0.  1.
    9900012    2    1    2    0    0  0.74088946987E+01 -0.34756477025E+02 -0.24914246157E+02  0.47787261787E+02  0.19999957791E+02 0.  0.
         12    1    1    2    0    0 -0.74088946987E+01  0.34756477025E+02  0.24914246157E+02  0.43400738213E+02  0.00000000000E+00 0. -1.
         11    1    3    3    0    0 -0.12698172437E+01 -0.15881018184E+02 -0.15022163147E+02  0.21897135892E+02  0.51100000000E-03 0. -1.
        -11    1    3    3    0    0  0.22147060324E+01 -0.11163889466E+02 -0.10923135021E+02  0.15775050864E+02  0.51100000000E-03 0.  1.
         12    1    3    3    0    0  0.64640059100E+01 -0.77115693752E+01  0.10310520107E+01  0.10115075031E+02  0.00000000000E+00 0. -1.
</event>
<event>
 7    1  0.4519840E-010  0.4778727E+02  0.7816164E-02  0.1312668E+00
        -11   -1    0    0    0    0  0.00000000000E+00  0.00000000000E+00  0.45593999997E+02  0.45594000000E+02  0.51100000000E-03 0. -1.
         11   -1    0    0    0    0 -0.00000000000E+00 -0.00000000000E+00 -0.45593999997E+02  0.45594000000E+02  0.51100000000E-03 0.  1.
    9900012    2    1    2    0    0 -0.19388174905E+02  0.35813290124E+01 -0.38663887072E+02  0.47787269509E+02  0.19999993000E+02 0.  0.
         12    1    1    2    0    0  0.19388174905E+02 -0.35813290124E+01  0.38663887072E+02  0.43400730491E+02  0.00000000000E+00 0. -1.
         11    1    3    3    0    0 -0.28681194999E+01  0.86571600082E+00  0.92923230604E+00  0.31367254581E+01  0.51100000000E-03 0. -1.
        -11    1    3    3    0    0  0.19367239980E+01  0.90212101812E-01 -0.28255985076E+01  0.34268126962E+01  0.51100000000E-03 0.  1.
        -12    1    3    3    0    0 -0.18456779403E+02  0.26254009097E+01 -0.36767520870E+02  0.41223731355E+02  0.00000000000E+00 0.  1.
</event>
<event>
 7    1  0.5009713E-010  0.4778728E+02  0.7816164E-02  0.1312668E+00
        -11   -1    0    0    0    0  0.00000000000E+00  0.00000000000E+00  0.45593999997E+02  0.45594000000E+02  0.51100000000E-03 0. -1.
         11   -1    0    0    0    0 -0.00000000000E+00 -0.00000000000E+00 -0.45593999997E+02  0.45594000000E+02  0.51100000000E-03 0.  1.
    9900012    2    1    2    0    0 -0.39876034333E+02  0.56802015604E+01 -0.16163542802E+02  0.47787275123E+02  0.20000018596E+02 0.  0.
         12    1    1    2    0    0  0.39876034333E+02 -0.56802015604E+01  0.16163542802E+02  0.43400724877E+02  0.00000000000E+00 0. -1.
         11    1    3    3    0    0 -0.54305966152E+01 -0.15291041162E+01  0.25482919058E+01  0.61905840511E+01  0.51100000000E-03 0. -1.
        -11    1    3    3    0    0 -0.77820311954E+01 -0.29041817852E+01 -0.20001690227E+01  0.85437086648E+01  0.51100000000E-03 0.  1.
        -12    1    3    3    0    0 -0.26663406523E+02  0.10113487462E+02 -0.16711665685E+02  0.33052982407E+02  0.00000000000E+00 0.  1.
</event>
<event>
 7    1  0.4519840E-010  0.4778727E+02  0.7816164E-02  0.1312668E+00
        -11   -1    0    0    0    0  0.00000000000E+00  0.00000000000E+00  0.45593999997E+02  0.45594000000E+02  0.51100000000E-03 0. -1.
         11   -1    0    0    0    0 -0.00000000000E+00 -0.00000000000E+00 -0.45593999997E+02  0.45594000000E+02  0.51100000000E-03 0.  1.
    9900012    2    1    2    0    0 -0.50701054943E+01  0.32104410148E+02 -0.28761507558E+02  0.47787269157E+02  0.19999991396E+02 0.  0.
         12    1    1    2    0    0  0.50701054943E+01 -0.32104410148E+02  0.28761507558E+02  0.43400730843E+02  0.00000000000E+00 0. -1.
         11    1    3    3    0    0 -0.50633035544E+01  0.77029745642E+01 -0.83299582048E+01  0.12424212811E+02  0.51100000000E-03 0. -1.
        -11    1    3    3    0    0 -0.63863586300E+01  0.56565368900E+01 -0.31912427767E+01  0.91085683211E+01  0.51100000000E-03 0.  1.
         12    1    3    3    0    0  0.63795566901E+01  0.18744898694E+02 -0.17240306576E+02  0.26254488025E+02  0.00000000000E+00 0. -1.
</event>
<event>
 7    1  0.4519840E-010  0.4778727E+02  0.7816164E-02  0.1312668E+00
        -11   -1    0    0    0    0  0.00000000000E+00  0.00000000000E+00  0.45593999997E+02  0.45594000000E+02  0.51100000000E-03 0.  1.
         11   -1    0    0    0    0 -0.00000000000E+00 -0.00000000000E+00 -0.45593999997E+02  0.45594000000E+02  0.51100000000E-03 0. -1.
    9900012    2    1    2    0    0 -0.22296572954E+02  0.35440664886E+02 -0.11421274731E+02  0.47787269482E+02  0.19999992874E+02 0.  0.
         12    1    1    2    0    0  0.22296572954E+02 -0.35440664886E+02  0.11421274731E+02  0.43400730518E+02  0.00000000000E+00 0. -1.
         11    1    3    3    0    0 -0.84978927153E+01  0.19970859766E+02  0.10990012368E+01  0.21731480032E+02  0.51100000000E-03 0. -1.
        -11    1    3    3    0    0 -0.73477324979E+01  0.92398640002E+01 -0.15815498096E+01  0.11910732961E+02  0.51100000000E-03 0.  1.
         12    1    3    3    0    0 -0.64509477403E+01  0.62299411203E+01 -0.10938726158E+02  0.14145056489E+02  0.00000000000E+00 0. -1.
</event>
<event>
 7    1  0.4519840E-010  0.4778728E+02  0.7816164E-02  0.1312668E+00
        -11   -1    0    0    0    0  0.00000000000E+00  0.00000000000E+00  0.45593999997E+02  0.45594000000E+02  0.51100000000E-03 0. -1.
         11   -1    0    0    0    0 -0.00000000000E+00 -0.00000000000E+00 -0.45593999997E+02  0.45594000000E+02  0.51100000000E-03 0.  1.
    9900012    2    1    2    0    0 -0.19360496981E+02 -0.18053627293E+02  0.34392738241E+02  0.47787277131E+02  0.20000027753E+02 0.  0.
        -12    1    1    2    0    0  0.19360496981E+02  0.18053627293E+02 -0.34392738241E+02  0.43400722869E+02  0.00000000000E+00 0.  1.
         11    1    3    3    0    0 -0.72865691081E+01 -0.44167432071E+01  0.71367129975E+01  0.11114602224E+02  0.51100000000E-03 0. -1.
        -11    1    3    3    0    0 -0.10429133976E+02 -0.10264901255E+01  0.18402324807E+02  0.21177017638E+02  0.51100000000E-03 0.  1.
         12    1    3    3    0    0 -0.16447938970E+01 -0.12610393961E+02  0.88537004366E+01  0.15495657270E+02  0.00000000000E+00 0. -1.
</event>
<event>
 7    1  0.4519840E-010  0.4778727E+02  0.7816164E-02  0.1312668E+00
        -11   -1    0    0    0    0  0.00000000000E+00  0.00000000000E+00  0.45593999997E+02  0.45594000000E+02  0.51100000000E-03 0. -1.
         11   -1    0    0    0    0 -0.00000000000E+00 -0.00000000000E+00 -0.45593999997E+02  0.45594000000E+02  0.51100000000E-03 0.  1.
    9900012    2    1    2    0    0  0.10991171613E+02  0.35975373623E+01 -0.41831507490E+02  0.47787272502E+02  0.20000006645E+02 0.  0.
         12    1    1    2    0    0 -0.10991171613E+02 -0.35975373623E+01  0.41831507490E+02  0.43400727498E+02  0.00000000000E+00 0. -1.
         11    1    3    3    0    0  0.26469610206E+01 -0.32026326985E+01 -0.15987488569E+02  0.16518566822E+02  0.51100000000E-03 0. -1.
        -11    1    3    3    0    0  0.38676608242E+01 -0.40750922183E+01 -0.61459487222E+01  0.83269359788E+01  0.51100000000E-03 0.  1.
        -12    1    3    3    0    0  0.44765497685E+01  0.10875262279E+02 -0.19698070198E+02  0.22941769701E+02  0.00000000000E+00 0.  1.
</event>
<event>
 7    1  0.4519840E-010  0.4778727E+02  0.7816164E-02  0.1312668E+00
        -11   -1    0    0    0    0  0.00000000000E+00  0.00000000000E+00  0.45593999997E+02  0.45594000000E+02  0.51100000000E-03 0. -1.
         11   -1    0    0    0    0 -0.00000000000E+00 -0.00000000000E+00 -0.45593999997E+02  0.45594000000E+02  0.51100000000E-03 0.  1.
    9900012    2    1    2    0    0  0.19973296086E+02 -0.37198626276E+02 -0.10047524592E+02  0.47787273004E+02  0.20000008933E+02 0.  0.
         12    1    1    2    0    0 -0.19973296086E+02  0.37198626276E+02  0.10047524592E+02  0.43400726996E+02  0.00000000000E+00 0. -1.
         11    1    3    3    0    0  0.56319731107E+01 -0.57776050022E+01 -0.28615428276E+01  0.85608567501E+01  0.51100000000E-03 0.  1.
        -11    1    3    3    0    0  0.34512355582E+01 -0.22391241681E+02 -0.10063158634E+02  0.24790036161E+02  0.51100000000E-03 0. -1.
         12    1    3    3    0    0  0.10890087417E+02 -0.90297795932E+01  0.28771768698E+01  0.14436380093E+02  0.00000000000E+00 0. -1.
</event>
<event>
 7    1  0.4519840E-010  0.4778727E+02  0.7816164E-02  0.1312668E+00
        -11   -1    0    0    0    0  0.00000000000E+00  0.00000000000E+00  0.45593999997E+02  0.45594000000E+02  0.51100000000E-03 0.  1.
         11   -1    0    0    0    0 -0.00000000000E+00 -0.00000000000E+00 -0.45593999997E+02  0.45594000000E+02  0.51100000000E-03 0. -1.
    9900012    2    1    2    0    0 -0.38456103485E+02  0.18676692720E+02 -0.74788033844E+01  0.47787271363E+02  0.20000001451E+02 0.  0.
         12    1    1    2    0    0  0.38456103485E+02 -0.18676692720E+02  0.74788033844E+01  0.43400728637E+02  0.00000000000E+00 0. -1.
         11    1    3    3    0    0 -0.19521197461E+01 -0.18530532002E+01  0.63225255484E+00  0.27648365630E+01  0.51100000000E-03 0. -1.
        -11    1    3    3    0    0 -0.10178867283E+02 -0.68911225412E+00 -0.40127720141E+01  0.10962962846E+02  0.51100000000E-03 0.  1.
         12    1    3    3    0    0 -0.26325116455E+02  0.21218858175E+02 -0.40982839251E+01  0.34059471954E+02  0.00000000000E+00 0. -1.
</event>
<event>
 7    1  0.4519840E-010  0.4778731E+02  0.7816164E-02  0.1312668E+00
        -11   -1    0    0    0    0  0.00000000000E+00  0.00000000000E+00  0.45593999997E+02  0.45594000000E+02  0.51100000000E-03 0. -1.
         11   -1    0    0    0    0 -0.00000000000E+00 -0.00000000000E+00 -0.45593999997E+02  0.45594000000E+02  0.51100000000E-03 0.  1.
    9900012    2    1    2    0    0  0.33038736968E+02  0.83226429521E+01 -0.26884857063E+02  0.47787308007E+02  0.20000168526E+02 0.  0.
         12    1    1    2    0    0 -0.33038736968E+02 -0.83226429521E+01  0.26884857063E+02  0.43400691993E+02  0.00000000000E+00 0. -1.
         11    1    3    3    0    0  0.77307991934E+01 -0.94478915699E+00  0.10570968493E+01  0.78597287949E+01  0.51100000000E-03 0. -1.
        -11    1    3    3    0    0  0.32753557821E+01  0.41335632128E+01 -0.23611052423E+01  0.57783318147E+01  0.51100000000E-03 0.  1.
        -12    1    3    3    0    0  0.22032581993E+02  0.51338688963E+01 -0.25580848670E+02  0.34149247397E+02  0.00000000000E+00 0.  1.
</event>
<event>
 7    1  0.4519840E-010  0.4778727E+02  0.7816164E-02  0.1312668E+00
        -11   -1    0    0    0    0  0.00000000000E+00  0.00000000000E+00  0.45593999997E+02  0.45594000000E+02  0.51100000000E-03 0.  1.
         11   -1    0    0    0    0 -0.00000000000E+00 -0.00000000000E+00 -0.45593999997E+02  0.45594000000E+02  0.51100000000E-03 0. -1.
    9900012    2    1    2    0    0  0.83467597930E+01  0.30865391692E+02  0.29347615822E+02  0.47787270078E+02  0.19999995592E+02 0.  0.
        -12    1    1    2    0    0 -0.83467597930E+01 -0.30865391692E+02 -0.29347615822E+02  0.43400729922E+02  0.00000000000E+00 0.  1.
         11    1    3    3    0    0  0.28032587902E+01  0.20722158903E+02  0.12305120437E+02  0.24262772280E+02  0.51100000000E-03 0. -1.
        -11    1    3    3    0    0 -0.23488518105E+01 -0.93129846885E+00  0.18306030197E+01  0.31201809792E+01  0.51100000000E-03 0.  1.
        -12    1    3    3    0    0  0.78923528133E+01  0.11074531257E+02  0.15211892366E+02  0.20404316819E+02  0.00000000000E+00 0.  1.
</event>
<event>
 7    1  0.4519840E-010  0.4778728E+02  0.7816164E-02  0.1312668E+00
        -11   -1    0    0    0    0  0.00000000000E+00  0.00000000000E+00  0.45593999997E+02  0.45594000000E+02  0.51100000000E-03 0. -1.
         11   -1    0    0    0    0 -0.00000000000E+00 -0.00000000000E+00 -0.45593999997E+02  0.45594000000E+02  0.51100000000E-03 0.  1.
    9900012    2    1    2    0    0  0.70119967558E+01 -0.10375926017E+02  0.41554721281E+02  0.47787276504E+02  0.20000024893E+02 0.  0.
        -12    1    1    2    0    0 -0.70119967558E+01  0.10375926017E+02 -0.41554721281E+02  0.43400723496E+02  0.00000000000E+00 0.  1.
         11    1    3    3    0    0  0.90107100137E+00  0.32604752033E+01  0.19877119469E+02  0.20162899250E+02  0.51100000000E-03 0. -1.
        -11    1    3    3    0    0 -0.20005752793E+01 -0.41753131630E+01  0.51558730453E+01  0.69295431724E+01  0.51100000000E-03 0.  1.
        -12    1    3    3    0    0  0.81115010337E+01 -0.94610880568E+01  0.16521728767E+02  0.20694834082E+02  0.00000000000E+00 0.  1.
</event>
<event>
 7    1  0.4519840E-010  0.4778727E+02  0.7816164E-02  0.1312668E+00
        -11   -1    0    0    0    0  0.00000000000E+00  0.00000000000E+00  0.45593999997E+02  0.45594000000E+02  0.51100000000E-03 0. -1.
         11   -1    0    0    0    0 -0.00000000000E+00 -0.00000000000E+00 -0.45593999997E+02  0.45594000000E+02  0.51100000000E-03 0.  1.
    9900012    2    1    2    0    0  0.13242755089E+02  0.53552942716E+01 -0.40982600479E+02  0.47787270961E+02  0.19999999619E+02 0.  0.
         12    1    1    2    0    0 -0.13242755089E+02 -0.53552942716E+01  0.40982600479E+02  0.43400729039E+02  0.00000000000E+00 0. -1.
         11    1    3    3    0    0  0.54141272586E+01  0.90609094536E+00 -0.21457566352E+01  0.58938990976E+01  0.51100000000E-03 0. -1.
        -11    1    3    3    0    0  0.44923605526E+01  0.90064941147E+00 -0.24764190564E+01  0.52081785972E+01  0.51100000000E-03 0.  1.
        -12    1    3    3    0    0  0.33362672777E+01  0.35485539148E+01 -0.36360424788E+02  0.36685193266E+02  0.00000000000E+00 0.  1.
</event>
<event>
 7    1  0.4519840E-010  0.4778728E+02  0.7816164E-02  0.1312668E+00
        -11   -1    0    0    0    0  0.00000000000E+00  0.00000000000E+00  0.45593999997E+02  0.45594000000E+02  0.51100000000E-03 0. -1.
         11   -1    0    0    0    0 -0.00000000000E+00 -0.00000000000E+00 -0.45593999997E+02  0.45594000000E+02  0.51100000000E-03 0.  1.
    9900012    2    1    2    0    0  0.16623222047E+01 -0.11554590060E+02  0.41801322234E+02  0.47787281030E+02  0.20000045529E+02 0.  0.
        -12    1    1    2    0    0 -0.16623222047E+01  0.11554590060E+02 -0.41801322234E+02  0.43400718970E+02  0.00000000000E+00 0.  1.
         11    1    3    3    0    0  0.53197305231E-01  0.15417595216E+01  0.78656912694E+00  0.17316303383E+01  0.51100000000E-03 0. -1.
        -11    1    3    3    0    0  0.50489112221E+01  0.18387018711E+01  0.77550543679E+01  0.94346805780E+01  0.51100000000E-03 0.  1.
         12    1    3    3    0    0 -0.34397863226E+01 -0.14935051452E+02  0.33259698740E+02  0.36620970114E+02  0.00000000000E+00 0. -1.
</event>
<event>
 7    1  0.4519840E-010  0.4778727E+02  0.7816164E-02  0.1312668E+00
        -11   -1    0    0    0    0  0.00000000000E+00  0.00000000000E+00  0.45593999997E+02  0.45594000000E+02  0.51100000000E-03 0. -1.
         11   -1    0    0    0    0 -0.00000000000E+00 -0.00000000000E+00 -0.45593999997E+02  0.45594000000E+02  0.51100000000E-03 0.  1.
    9900012    2    1    2    0    0  0.33726725431E+02  0.25751535556E+02  0.91098740694E+01  0.47787269622E+02  0.19999993515E+02 0.  0.
        -12    1    1    2    0    0 -0.33726725431E+02 -0.25751535556E+02 -0.91098740694E+01  0.43400730378E+02  0.00000000000E+00 0.  1.
         11    1    3    3    0    0  0.14171770755E+02  0.10048370331E+02  0.66521904579E+00  0.17385377456E+02  0.51100000000E-03 0. -1.
        -11    1    3    3    0    0  0.78799370608E+01  0.11336371101E+02 -0.22372132531E+01  0.13986130316E+02  0.51100000000E-03 0.  1.
        -12    1    3    3    0    0  0.11675017615E+02  0.43667941239E+01  0.10681868277E+02  0.16415761850E+02  0.00000000000E+00 0.  1.
</event>
<event>
 7    1  0.4519840E-010  0.4778727E+02  0.7816164E-02  0.1312668E+00
        -11   -1    0    0    0    0  0.00000000000E+00  0.00000000000E+00  0.45593999997E+02  0.45594000000E+02  0.51100000000E-03 0. -1.
         11   -1    0    0    0    0 -0.00000000000E+00 -0.00000000000E+00 -0.45593999997E+02  0.45594000000E+02  0.51100000000E-03 0.  1.
    9900012    2    1    2    0    0  0.28405657984E+02  0.45989531693E+01 -0.32489863338E+02  0.47787274251E+02  0.20000014621E+02 0.  0.
         12    1    1    2    0    0 -0.28405657984E+02 -0.45989531693E+01  0.32489863338E+02  0.43400725749E+02  0.00000000000E+00 0. -1.
         11    1    3    3    0    0 -0.93667368457E+00  0.14346377321E+01 -0.11343612364E+01  0.20548281411E+01  0.51100000000E-03 0. -1.
        -11    1    3    3    0    0  0.27649032712E+01 -0.36527498582E+01 -0.98768496074E+01  0.10887581460E+02  0.51100000000E-03 0.  1.
        -12    1    3    3    0    0  0.26577428398E+02  0.68170652954E+01 -0.21478652495E+02  0.34844864650E+02  0.00000000000E+00 0.  1.
</event>
<event>
 7    1  0.4519840E-010  0.4778727E+02  0.7816164E-02  0.1312668E+00
        -11   -1    0    0    0    0  0.00000000000E+00  0.00000000000E+00  0.45593999997E+02  0.45594000000E+02  0.51100000000E-03 0. -1.
         11   -1    0    0    0    0 -0.00000000000E+00 -0.00000000000E+00 -0.45593999997E+02  0.45594000000E+02  0.51100000000E-03 0.  1.
    9900012    2    1    2    0    0 -0.26364223727E+01  0.13558043724E+02 -0.41144280608E+02  0.47787273055E+02  0.20000009169E+02 0.  0.
         12    1    1    2    0    0  0.26364223727E+01 -0.13558043724E+02  0.41144280608E+02  0.43400726945E+02  0.00000000000E+00 0. -1.
         11    1    3    3    0    0 -0.32560683906E+01  0.30137827184E+00 -0.42494794680E+01  0.53619852888E+01  0.51100000000E-03 0. -1.
        -11    1    3    3    0    0 -0.25111314016E+01  0.10593877736E+02 -0.36732531891E+02  0.38312072846E+02  0.51100000000E-03 0.  1.
         12    1    3    3    0    0  0.31307774195E+01  0.26627877167E+01 -0.16226924946E+00  0.41132149207E+01  0.00000000000E+00 0. -1.
</event>
<event>
 7    1  0.4519840E-010  0.4778727E+02  0.7816164E-02  0.1312668E+00
        -11   -1    0    0    0    0  0.00000000000E+00  0.00000000000E+00  0.45593999997E+02  0.45594000000E+02  0.51100000000E-03 0. -1.
         11   -1    0    0    0    0 -0.00000000000E+00 -0.00000000000E+00 -0.45593999997E+02  0.45594000000E+02  0.51100000000E-03 0.  1.
    9900012    2    1    2    0    0  0.12453722839E+02  0.17687089990E+02  0.37625724797E+02  0.47787268078E+02  0.19999986474E+02 0.  0.
        -12    1    1    2    0    0 -0.12453722839E+02 -0.17687089990E+02 -0.37625724797E+02  0.43400731922E+02  0.00000000000E+00 0.  1.
         11    1    3    3    0    0 -0.11723611988E+01  0.56263926375E+01  0.14312307426E+02  0.15423127731E+02  0.51100000000E-03 0.  1.
        -11    1    3    3    0    0 -0.96890041594E+00  0.67607993083E+01  0.84994461352E+01  0.10903566397E+02  0.51100000000E-03 0. -1.
        -12    1    3    3    0    0  0.14594984454E+02  0.52998980446E+01  0.14813971236E+02  0.21460573950E+02  0.00000000000E+00 0.  1.
</event>
<event>
 7    1  0.6253466E-010  0.4778727E+02  0.7816164E-02  0.1312668E+00
        -11   -1    0    0    0    0  0.00000000000E+00  0.00000000000E+00  0.45593999997E+02  0.45594000000E+02  0.51100000000E-03 0. -1.
         11   -1    0    0    0    0 -0.00000000000E+00 -0.00000000000E+00 -0.45593999997E+02  0.45594000000E+02  0.51100000000E-03 0.  1.
    9900012    2    1    2    0    0 -0.31767142015E+02  0.22429177580E+02 -0.19271842469E+02  0.47787271540E+02  0.20000002259E+02 0.  0.
         12    1    1    2    0    0  0.31767142015E+02 -0.22429177580E+02  0.19271842469E+02  0.43400728460E+02  0.00000000000E+00 0. -1.
         11    1    3    3    0    0 -0.54877521653E+01  0.14918114396E+01  0.27088281923E+00  0.56933560368E+01  0.51100000000E-03 0. -1.
        -11    1    3    3    0    0 -0.16825077203E+01  0.11636358531E+01  0.27698960171E+01  0.34434292259E+01  0.51100000000E-03 0.  1.
        -12    1    3    3    0    0 -0.24596882130E+02  0.19773730287E+02 -0.22312621305E+02  0.38650486277E+02  0.00000000000E+00 0.  1.
</event>
<event>
 7    1  0.4519840E-010  0.4778726E+02  0.7816164E-02  0.1312668E+00
        -11   -1    0    0    0    0  0.00000000000E+00  0.00000000000E+00  0.45593999997E+02  0.45594000000E+02  0.51100000000E-03 0. -1.
         11   -1    0    0    0    0 -0.00000000000E+00 -0.00000000000E+00 -0.45593999997E+02  0.45594000000E+02  0.51100000000E-03 0.  1.
    9900012    2    1    2    0    0 -0.31397525578E+02 -0.20260718105E+02  0.22075384354E+02  0.47787263774E+02  0.19999966853E+02 0.  0.
        -12    1    1    2    0    0  0.31397525578E+02  0.20260718105E+02 -0.22075384354E+02  0.43400736226E+02  0.00000000000E+00 0.  1.
         11    1    3    3    0    0 -0.15740583125E+02 -0.45446577425E+01  0.75314256827E+01  0.18031701089E+02  0.51100000000E-03 0. -1.
        -11    1    3    3    0    0 -0.12449067918E+01  0.20927056369E+01 -0.30564420916E+00  0.24541044083E+01  0.51100000000E-03 0.  1.
        -12    1    3    3    0    0 -0.14412035662E+02 -0.17808765999E+02  0.14849602880E+02  0.27301458277E+02  0.00000000000E+00 0.  1.
</event>
<event>
 7    1  0.4519840E-010  0.4778727E+02  0.7816164E-02  0.1312668E+00
        -11   -1    0    0    0    0  0.00000000000E+00  0.00000000000E+00  0.45593999997E+02  0.45594000000E+02  0.51100000000E-03 0.  1.
         11   -1    0    0    0    0 -0.00000000000E+00 -0.00000000000E+00 -0.45593999997E+02  0.45594000000E+02  0.51100000000E-03 0. -1.
    9900012    2    1    2    0    0  0.13369056500E+02 -0.41282185801E+02  0.82022262439E+00  0.47787270727E+02  0.19999998555E+02 0.  0.
        -12    1    1    2    0    0 -0.13369056500E+02  0.41282185801E+02 -0.82022262439E+00  0.43400729273E+02  0.00000000000E+00 0.  1.
         11    1    3    3    0    0  0.13288879997E+02 -0.17311578175E+02 -0.12629195894E+01  0.21860467438E+02  0.51100000000E-03 0. -1.
        -11    1    3    3    0    0  0.15789504633E+01 -0.55690125753E+01  0.44660537691E+01  0.73111300193E+01  0.51100000000E-03 0.  1.
        -12    1    3    3    0    0 -0.14987739598E+01 -0.18401595051E+02 -0.23829115554E+01  0.18615673270E+02  0.00000000000E+00 0.  1.
</event>
<event>
 7    1  0.4519840E-010  0.4778727E+02  0.7816164E-02  0.1312668E+00
        -11   -1    0    0    0    0  0.00000000000E+00  0.00000000000E+00  0.45593999997E+02  0.45594000000E+02  0.51100000000E-03 0. -1.
         11   -1    0    0    0    0 -0.00000000000E+00 -0.00000000000E+00 -0.45593999997E+02  0.45594000000E+02  0.51100000000E-03 0.  1.
    9900012    2    1    2    0    0 -0.57825254583E+01  0.15475250914E+02  0.40133556863E+02  0.47787269845E+02  0.19999994531E+02 0.  0.
        -12    1    1    2    0    0  0.57825254583E+01 -0.15475250914E+02 -0.40133556863E+02  0.43400730155E+02  0.00000000000E+00 0.  1.
         11    1    3    3    0    0 -0.11294113714E+00  0.50228089240E+01  0.18961959022E+02  0.19616249779E+02  0.51100000000E-03 0. -1.
        -11    1    3    3    0    0 -0.70749123413E+01  0.94141276842E+01  0.22876576874E+02  0.25729709568E+02  0.51100000000E-03 0.  1.
        -12    1    3    3    0    0  0.14053280201E+01  0.10383143062E+01 -0.17049790335E+01  0.24413104980E+01  0.00000000000E+00 0.  1.
</event>
<event>
 7    1  0.4519840E-010  0.4778727E+02  0.7816164E-02  0.1312668E+00
        -11   -1    0    0    0    0  0.00000000000E+00  0.00000000000E+00  0.45593999997E+02  0.45594000000E+02  0.51100000000E-03 0.  1.
         11   -1    0    0    0    0 -0.00000000000E+00 -0.00000000000E+00 -0.45593999997E+02  0.45594000000E+02  0.51100000000E-03 0. -1.
    9900012    2    1    2    0    0 -0.40527240722E+02 -0.13986979809E+02 -0.67476174177E+01  0.47787272062E+02  0.20000004640E+02 0.  0.
         12    1    1    2    0    0  0.40527240722E+02  0.13986979809E+02  0.67476174177E+01  0.43400727938E+02  0.00000000000E+00 0. -1.
         11    1    3    3    0    0  0.11172713163E+01 -0.21170796257E+01 -0.27735357617E+01  0.36637169948E+01  0.51100000000E-03 0. -1.
        -11    1    3    3    0    0 -0.99138833426E+01 -0.57697444224E+01 -0.27139856275E+01  0.11787313175E+02  0.51100000000E-03 0.  1.
        -12    1    3    3    0    0 -0.31730628696E+02 -0.61001557606E+01 -0.12600960285E+01  0.32336241893E+02  0.00000000000E+00 0.  1.
</event>
<event>
 7    1  0.4519840E-010  0.4778727E+02  0.7816164E-02  0.1312668E+00
        -11   -1    0    0    0    0  0.00000000000E+00  0.00000000000E+00  0.45593999997E+02  0.45594000000E+02  0.51100000000E-03 0.  1.
         11   -1    0    0    0    0 -0.00000000000E+00 -0.00000000000E+00 -0.45593999997E+02  0.45594000000E+02  0.51100000000E-03 0. -1.
    9900012    2    1    2    0    0  0.32478695716E+02  0.68178765924E+01  0.27969163749E+02  0.47787271464E+02  0.20000001913E+02 0.  0.
        -12    1    1    2    0    0 -0.32478695716E+02 -0.68178765924E+01 -0.27969163749E+02  0.43400728536E+02  0.00000000000E+00 0.  1.
         11    1    3    3    0    0 -0.23815772979E-01  0.44569317993E+00  0.11763707764E+00  0.46157160316E+00  0.51100000000E-03 0. -1.
        -11    1    3    3    0    0 -0.23002113278E+01 -0.29136263042E+00  0.39600643057E+01  0.45888968066E+01  0.51100000000E-03 0.  1.
         12    1    3    3    0    0  0.34802722817E+02  0.66635460429E+01  0.23891462365E+02  0.42736803054E+02  0.00000000000E+00 0. -1.
</event>
<event>
 7    1  0.4519840E-010  0.4778727E+02  0.7816164E-02  0.1312668E+00
        -11   -1    0    0    0    0  0.00000000000E+00  0.00000000000E+00  0.45593999997E+02  0.45594000000E+02  0.51100000000E-03 0. -1.
         11   -1    0    0    0    0 -0.00000000000E+00 -0.00000000000E+00 -0.45593999997E+02  0.45594000000E+02  0.51100000000E-03 0.  1.
    9900012    2    1    2    0    0 -0.12291453704E+02 -0.36475336161E+02  0.20052263985E+02  0.47787271053E+02  0.20000000039E+02 0.  0.
        -12    1    1    2    0    0  0.12291453704E+02  0.36475336161E+02 -0.20052263985E+02  0.43400728947E+02  0.00000000000E+00 0.  1.
         11    1    3    3    0    0 -0.85296760517E+01 -0.14954338751E+02  0.10035393935E+02  0.19927286637E+02  0.51100000000E-03 0. -1.
        -11    1    3    3    0    0 -0.66976459730E+01 -0.53990839358E+01  0.72303056125E+01  0.11237699428E+02  0.51100000000E-03 0.  1.
        -12    1    3    3    0    0  0.29358683205E+01 -0.16121913474E+02  0.27865644380E+01  0.16622284988E+02  0.00000000000E+00 0.  1.
</event>
<event>
 7    1  0.4519840E-010  0.4778727E+02  0.7816164E-02  0.1312668E+00
        -11   -1    0    0    0    0  0.00000000000E+00  0.00000000000E+00  0.45593999997E+02  0.45594000000E+02  0.51100000000E-03 0. -1.
         11   -1    0    0    0    0 -0.00000000000E+00 -0.00000000000E+00 -0.45593999997E+02  0.45594000000E+02  0.51100000000E-03 0.  1.
    9900012    2    1    2    0    0 -0.37772377516E+01  0.35887311904E+02  0.24113409254E+02  0.47787272050E+02  0.20000004584E+02 0.  0.
        -12    1    1    2    0    0  0.37772377516E+01 -0.35887311904E+02 -0.24113409254E+02  0.43400727950E+02  0.00000000000E+00 0.  1.
         11    1    3    3    0    0  0.13749138029E+01  0.32281558572E+02  0.16126610589E+02  0.36111729135E+02  0.51100000000E-03 0. -1.
        -11    1    3    3    0    0 -0.16063808511E+01  0.20958636441E+01 -0.17826243419E+00  0.26466736879E+01  0.51100000000E-03 0.  1.
         12    1    3    3    0    0 -0.35457707033E+01  0.15098896884E+01  0.81650610996E+01  0.90288692267E+01  0.00000000000E+00 0. -1.
</event>
<event>
 7    1  0.4519840E-010  0.4778728E+02  0.7816164E-02  0.1312668E+00
        -11   -1    0    0    0    0  0.00000000000E+00  0.00000000000E+00  0.45593999997E+02  0.45594000000E+02  0.51100000000E-03 0. -1.
         11   -1    0    0    0    0 -0.00000000000E+00 -0.00000000000E+00 -0.45593999997E+02  0.45594000000E+02  0.51100000000E-03 0.  1.
    9900012    2    1    2    0    0 -0.47908773632E+01  0.28668100038E+02  0.32230581292E+02  0.47787276087E+02  0.20000022993E+02 0.  0.
        -12    1    1    2    0    0  0.47908773632E+01 -0.28668100038E+02 -0.32230581292E+02  0.43400723913E+02  0.00000000000E+00 0.  1.
         11    1    3    3    0    0 -0.63282020886E+00  0.14759512017E+02  0.16022947978E+02  0.21794001894E+02  0.51100000000E-03 0.  1.
        -11    1    3    3    0    0  0.45333944181E+01  0.35923664849E+01  0.90014146273E+01  0.10699636791E+02  0.51100000000E-03 0. -1.
        -12    1    3    3    0    0 -0.86914515724E+01  0.10316221536E+02  0.72062186873E+01  0.15293637402E+02  0.00000000000E+00 0.  1.
</event>
<event>
 7    1  0.4519840E-010  0.4778727E+02  0.7816164E-02  0.1312668E+00
        -11   -1    0    0    0    0  0.00000000000E+00  0.00000000000E+00  0.45593999997E+02  0.45594000000E+02  0.51100000000E-03 0. -1.
         11   -1    0    0    0    0 -0.00000000000E+00 -0.00000000000E+00 -0.45593999997E+02  0.45594000000E+02  0.51100000000E-03 0.  1.
    9900012    2    1    2    0    0 -0.26372234024E+01  0.21726826682E+02 -0.37478170534E+02  0.47787271762E+02  0.20000003273E+02 0.  0.
         12    1    1    2    0    0  0.26372234024E+01 -0.21726826682E+02  0.37478170534E+02  0.43400728238E+02  0.00000000000E+00 0. -1.
         11    1    3    3    0    0 -0.13908586892E+01 -0.55029864509E+00 -0.12853741458E+02  0.12940478594E+02  0.51100000000E-03 0. -1.
        -11    1    3    3    0    0 -0.30853217927E+01  0.11670878228E+02 -0.19477528271E+02  0.22915119834E+02  0.51100000000E-03 0.  1.
        -12    1    3    3    0    0  0.18389570795E+01  0.10606247100E+02 -0.51469008045E+01  0.11931673335E+02  0.00000000000E+00 0.  1.
</event>
<event>
 7    1  0.4519840E-010  0.4778728E+02  0.7816164E-02  0.1312668E+00
        -11   -1    0    0    0    0  0.00000000000E+00  0.00000000000E+00  0.45593999997E+02  0.45594000000E+02  0.51100000000E-03 0.  1.
         11   -1    0    0    0    0 -0.00000000000E+00 -0.00000000000E+00 -0.45593999997E+02  0.45594000000E+02  0.51100000000E-03 0. -1.
    9900012    2    1    2    0    0 -0.26884554686E+02  0.24834413838E+01 -0.33980518929E+02  0.47787280785E+02  0.20000044409E+02 0.  0.
         12    1    1    2    0    0  0.26884554686E+02 -0.24834413838E+01  0.33980518929E+02  0.43400719215E+02  0.00000000000E+00 0. -1.
         11    1    3    3    0    0 -0.93376489692E+01 -0.56914255064E+01 -0.14511078412E+02  0.18170179127E+02  0.51100000000E-03 0. -1.
        -11    1    3    3    0    0  0.14032801545E+01  0.16559824189E+01 -0.28489856657E+01  0.35816466253E+01  0.51100000000E-03 0.  1.
        -12    1    3    3    0    0 -0.18950185871E+02  0.65188844713E+01 -0.16620454851E+02  0.26035455033E+02  0.00000000000E+00 0.  1.
</event>
<event>
 7    1  0.4519840E-010  0.4778727E+02  0.7816164E-02  0.1312668E+00
        -11   -1    0    0    0    0  0.00000000000E+00  0.00000000000E+00  0.45593999997E+02  0.45594000000E+02  0.51100000000E-03 0. -1.
         11   -1    0    0    0    0 -0.00000000000E+00 -0.00000000000E+00 -0.45593999997E+02  0.45594000000E+02  0.51100000000E-03 0.  1.
    9900012    2    1    2    0    0  0.18710666062E+02  0.31440838544E+02  0.23345407552E+02  0.47787269515E+02  0.19999993028E+02 0.  0.
        -12    1    1    2    0    0 -0.18710666062E+02 -0.31440838544E+02 -0.23345407552E+02  0.43400730485E+02  0.00000000000E+00 0.  1.
         11    1    3    3    0    0  0.15333292722E+02  0.19414524865E+02  0.57486528778E+01  0.25398437976E+02  0.51100000000E-03 0. -1.
        -11    1    3    3    0    0  0.49790762339E+01  0.88245325929E+01  0.11575086019E+02  0.15383308885E+02  0.51100000000E-03 0.  1.
        -12    1    3    3    0    0 -0.16017028935E+01  0.32017810859E+01  0.60216686548E+01  0.70055226549E+01  0.00000000000E+00 0.  1.
</event>
<event>
 7    1  0.4519840E-010  0.4778725E+02  0.7816164E-02  0.1312668E+00
        -11   -1    0    0    0    0  0.00000000000E+00  0.00000000000E+00  0.45593999997E+02  0.45594000000E+02  0.51100000000E-03 0.  1.
         11   -1    0    0    0    0 -0.00000000000E+00 -0.00000000000E+00 -0.45593999997E+02  0.45594000000E+02  0.51100000000E-03 0. -1.
    9900012    2    1    2    0    0  0.23240600118E+02  0.35266865254E+02 -0.99873641425E+01  0.47787254371E+02  0.19999923978E+02 0.  0.
        -12    1    1    2    0    0 -0.23240600118E+02 -0.35266865254E+02  0.99873641425E+01  0.43400745629E+02  0.00000000000E+00 0.  1.
         11    1    3    3    0    0  0.19932127434E+02  0.20844405638E+02 -0.74554034873E+01  0.29788621853E+02  0.51100000000E-03 0. -1.
        -11    1    3    3    0    0  0.22232238592E+01 -0.31745363283E+00  0.14730799296E+01  0.26857896189E+01  0.51100000000E-03 0.  1.
        -12    1    3    3    0    0  0.10852488246E+01  0.14739913248E+02 -0.40050405848E+01  0.15312842899E+02  0.00000000000E+00 0.  1.
</event>
<event>
 7    1  0.4519840E-010  0.4778727E+02  0.7816164E-02  0.1312668E+00
        -11   -1    0    0    0    0  0.00000000000E+00  0.00000000000E+00  0.45593999997E+02  0.45594000000E+02  0.51100000000E-03 0. -1.
         11   -1    0    0    0    0 -0.00000000000E+00 -0.00000000000E+00 -0.45593999997E+02  0.45594000000E+02  0.51100000000E-03 0.  1.
    9900012    2    1    2    0    0  0.28274901856E+02 -0.14118630381E+02  0.29745883378E+02  0.47787269859E+02  0.19999994596E+02 0.  0.
        -12    1    1    2    0    0 -0.28274901856E+02  0.14118630381E+02 -0.29745883378E+02  0.43400730141E+02  0.00000000000E+00 0.  1.
         11    1    3    3    0    0  0.19512005123E+02 -0.58254318964E+01  0.17727601172E+02  0.26998552633E+02  0.51100000000E-03 0. -1.
        -11    1    3    3    0    0  0.55914450156E+01 -0.10772875199E+02  0.59780145922E+01  0.13529809908E+02  0.51100000000E-03 0.  1.
         12    1    3    3    0    0  0.31714517178E+01  0.24796767151E+01  0.60402676136E+01  0.72589073181E+01  0.00000000000E+00 0. -1.
</event>
<event>
 7    1  0.4519840E-010  0.4778729E+02  0.7816164E-02  0.1312668E+00
        -11   -1    0    0    0    0  0.00000000000E+00  0.00000000000E+00  0.45593999997E+02  0.45594000000E+02  0.51100000000E-03 0. -1.
         11   -1    0    0    0    0 -0.00000000000E+00 -0.00000000000E+00 -0.45593999997E+02  0.45594000000E+02  0.51100000000E-03 0.  1.
    9900012    2    1    2    0    0  0.12689821899E+02 -0.16384836676E+02 -0.38133023705E+02  0.47787286300E+02  0.20000069558E+02 0.  0.
         12    1    1    2    0    0 -0.12689821899E+02  0.16384836676E+02  0.38133023705E+02  0.43400713700E+02  0.00000000000E+00 0. -1.
         11    1    3    3    0    0  0.58720790791E+00  0.45087180872E+01 -0.50114083330E+01  0.67666509928E+01  0.51100000000E-03 0. -1.
        -11    1    3    3    0    0  0.33512086902E+01 -0.45331549634E+01 -0.81946536475E+01  0.99464788881E+01  0.51100000000E-03 0.  1.
         12    1    3    3    0    0  0.87514053006E+01 -0.16360399800E+02 -0.24926961725E+02  0.31074156419E+02  0.00000000000E+00 0. -1.
</event>
<event>
 7    1  0.4519840E-010  0.4778727E+02  0.7816164E-02  0.1312668E+00
        -11   -1    0    0    0    0  0.00000000000E+00  0.00000000000E+00  0.45593999997E+02  0.45594000000E+02  0.51100000000E-03 0. -1.
         11   -1    0    0    0    0 -0.00000000000E+00 -0.00000000000E+00 -0.45593999997E+02  0.45594000000E+02  0.51100000000E-03 0.  1.
    9900012    2    1    2    0    0 -0.19747392133E+02 -0.14811973792E+02  0.35696913844E+02  0.47787265886E+02  0.19999976479E+02 0.  0.
        -12    1    1    2    0    0  0.19747392133E+02  0.14811973792E+02 -0.35696913844E+02  0.43400734114E+02  0.00000000000E+00 0.  1.
         11    1    3    3    0    0 -0.30330907561E+01 -0.10517951853E+02  0.17145799787E+02  0.20342207386E+02  0.51100000000E-03 0. -1.
        -11    1    3    3    0    0 -0.95410402173E+00 -0.15725652967E+01 -0.10727446335E+01  0.21293326200E+01  0.51100000000E-03 0.  1.
        -12    1    3    3    0    0 -0.15760197355E+02 -0.27214566420E+01  0.19623858690E+02  0.25315725880E+02  0.00000000000E+00 0.  1.
</event>
<event>
 7    1  0.4519840E-010  0.4778727E+02  0.7816164E-02  0.1312668E+00
        -11   -1    0    0    0    0  0.00000000000E+00  0.00000000000E+00  0.45593999997E+02  0.45594000000E+02  0.51100000000E-03 0. -1.
         11   -1    0    0    0    0 -0.00000000000E+00 -0.00000000000E+00 -0.45593999997E+02  0.45594000000E+02  0.51100000000E-03 0.  1.
    9900012    2    1    2    0    0 -0.76814296396E+01 -0.34707505718E+02 -0.24899959015E+02  0.47787271050E+02  0.20000000024E+02 0.  0.
         12    1    1    2    0    0  0.76814296396E+01  0.34707505718E+02  0.24899959015E+02  0.43400728950E+02  0.00000000000E+00 0. -1.
         11    1    3    3    0    0  0.84233634701E+00 -0.26700870114E+01  0.21161546602E+01  0.35095592283E+01  0.51100000000E-03 0. -1.
        -11    1    3    3    0    0  0.26752952720E+01 -0.93471560410E+01 -0.86238499744E+01  0.12996050150E+02  0.51100000000E-03 0.  1.
        -12    1    3    3    0    0 -0.11199061259E+02 -0.22690262665E+02 -0.18392263701E+02  0.31281661672E+02  0.00000000000E+00 0.  1.
</event>
<event>
 7    1  0.4519840E-010  0.4778727E+02  0.7816164E-02  0.1312668E+00
        -11   -1    0    0    0    0  0.00000000000E+00  0.00000000000E+00  0.45593999997E+02  0.45594000000E+02  0.51100000000E-03 0. -1.
         11   -1    0    0    0    0 -0.00000000000E+00 -0.00000000000E+00 -0.45593999997E+02  0.45594000000E+02  0.51100000000E-03 0.  1.
    9900012    2    1    2    0    0  0.41039131066E+01 -0.12622600295E+02  0.41321318830E+02  0.47787268084E+02  0.19999986502E+02 0.  0.
        -12    1    1    2    0    0 -0.41039131066E+01  0.12622600295E+02 -0.41321318830E+02  0.43400731916E+02  0.00000000000E+00 0.  1.
         11    1    3    3    0    0  0.51988964681E+01  0.17382356051E+01  0.14426041608E+02  0.15432454900E+02  0.51100000000E-03 0. -1.
        -11    1    3    3    0    0  0.32270429347E+01 -0.70329213075E+01  0.19863325562E+02  0.21317304963E+02  0.51100000000E-03 0.  1.
        -12    1    3    3    0    0 -0.43220262962E+01 -0.73279145929E+01  0.70319516595E+01  0.11037508221E+02  0.00000000000E+00 0.  1.
</event>
<event>
 7    1  0.4519840E-010  0.4778727E+02  0.7816164E-02  0.1312668E+00
        -11   -1    0    0    0    0  0.00000000000E+00  0.00000000000E+00  0.45593999997E+02  0.45594000000E+02  0.51100000000E-03 0. -1.
         11   -1    0    0    0    0 -0.00000000000E+00 -0.00000000000E+00 -0.45593999997E+02  0.45594000000E+02  0.51100000000E-03 0.  1.
    9900012    2    1    2    0    0  0.19609477158E+02 -0.37674400029E+02  0.89292277873E+01  0.47787272807E+02  0.20000008038E+02 0.  0.
        -12    1    1    2    0    0 -0.19609477158E+02  0.37674400029E+02 -0.89292277873E+01  0.43400727193E+02  0.00000000000E+00 0.  1.
         11    1    3    3    0    0  0.26340233509E+01 -0.16036347469E+02 -0.88647799018E+00  0.16275391321E+02  0.51100000000E-03 0. -1.
        -11    1    3    3    0    0 -0.20152264323E-01 -0.38716325809E+01  0.52207179983E+01  0.64996801179E+01  0.51100000000E-03 0.  1.
         12    1    3    3    0    0  0.16995606071E+02 -0.17766419980E+02  0.45949877791E+01  0.25012201369E+02  0.00000000000E+00 0. -1.
</event>
<event>
 7    1  0.4519840E-010  0.4778727E+02  0.7816164E-02  0.1312668E+00
        -11   -1    0    0    0    0  0.00000000000E+00  0.00000000000E+00  0.45593999997E+02  0.45594000000E+02  0.51100000000E-03 0. -1.
         11   -1    0    0    0    0 -0.00000000000E+00 -0.00000000000E+00 -0.45593999997E+02  0.45594000000E+02  0.51100000000E-03 0.  1.
    9900012    2    1    2    0    0  0.28110185780E+02 -0.24097590827E+02  0.22643914661E+02  0.47787270750E+02  0.19999998656E+02 0.  0.
        -12    1    1    2    0    0 -0.28110185780E+02  0.24097590827E+02 -0.22643914661E+02  0.43400729250E+02  0.00000000000E+00 0.  1.
         11    1    3    3    0    0  0.45133168259E+01 -0.13112372866E+02  0.71370735395E+01  0.15596222937E+02  0.51100000000E-03 0. -1.
        -11    1    3    3    0    0  0.62006803312E+01 -0.81567336869E+01  0.33475730176E+01  0.10779006744E+02  0.51100000000E-03 0.  1.
         12    1    3    3    0    0  0.17396188623E+02 -0.28284842745E+01  0.12159268104E+02  0.21412041069E+02  0.00000000000E+00 0. -1.
</event>
<event>
 7    1  0.4519840E-010  0.4778727E+02  0.7816164E-02  0.1312668E+00
        -11   -1    0    0    0    0  0.00000000000E+00  0.00000000000E+00  0.45593999997E+02  0.45594000000E+02  0.51100000000E-03 0. -1.
         11   -1    0    0    0    0 -0.00000000000E+00 -0.00000000000E+00 -0.45593999997E+02  0.45594000000E+02  0.51100000000E-03 0.  1.
    9900012    2    1    2    0    0  0.32010062736E+02 -0.12059096922E+02  0.26712497101E+02  0.47787269173E+02  0.19999991468E+02 0.  0.
        -12    1    1    2    0    0 -0.32010062736E+02  0.12059096922E+02 -0.26712497101E+02  0.43400730827E+02  0.00000000000E+00 0.  1.
         11    1    3    3    0    0  0.93371001151E+01  0.13934041738E+01  0.79152597206E+01  0.12319673310E+02  0.51100000000E-03 0. -1.
        -11    1    3    3    0    0  0.52728150801E+01  0.12131215596E+01 -0.75796769259E+00  0.54634016941E+01  0.51100000000E-03 0.  1.
         12    1    3    3    0    0  0.17400147541E+02 -0.14665622656E+02  0.19555205073E+02  0.30004194169E+02  0.00000000000E+00 0. -1.
</event>
<event>
 7    1  0.4572153E-010  0.4778727E+02  0.7816164E-02  0.1312668E+00
        -11   -1    0    0    0    0  0.00000000000E+00  0.00000000000E+00  0.45593999997E+02  0.45594000000E+02  0.51100000000E-03 0. -1.
         11   -1    0    0    0    0 -0.00000000000E+00 -0.00000000000E+00 -0.45593999997E+02  0.45594000000E+02  0.51100000000E-03 0.  1.
    9900012    2    1    2    0    0  0.62132732265E+01  0.29418183342E+02 -0.31298388157E+02  0.47787269862E+02  0.19999994608E+02 0.  0.
         12    1    1    2    0    0 -0.62132732265E+01 -0.29418183342E+02  0.31298388157E+02  0.43400730138E+02  0.00000000000E+00 0. -1.
         11    1    3    3    0    0  0.28597760741E+01 -0.81888461664E+00 -0.82780796251E+00  0.30877431067E+01  0.51100000000E-03 0. -1.
        -11    1    3    3    0    0 -0.43647894294E+01  0.80075836182E+01 -0.73867335834E+01  0.11736124380E+02  0.51100000000E-03 0.  1.
        -12    1    3    3    0    0  0.77182865818E+01  0.22229484340E+02 -0.23083846611E+02  0.32963402375E+02  0.00000000000E+00 0.  1.
</event>
<event>
 7    1  0.4519840E-010  0.4778727E+02  0.7816164E-02  0.1312668E+00
        -11   -1    0    0    0    0  0.00000000000E+00  0.00000000000E+00  0.45593999997E+02  0.45594000000E+02  0.51100000000E-03 0. -1.
         11   -1    0    0    0    0 -0.00000000000E+00 -0.00000000000E+00 -0.45593999997E+02  0.45594000000E+02  0.51100000000E-03 0.  1.
    9900012    2    1    2    0    0 -0.75811027997E+01 -0.15833519921E+02  0.39691934185E+02  0.47787272908E+02  0.20000008496E+02 0.  0.
        -12    1    1    2    0    0  0.75811027997E+01  0.15833519921E+02 -0.39691934185E+02  0.43400727092E+02  0.00000000000E+00 0.  1.
         11    1    3    3    0    0 -0.31400681885E+01 -0.75694070917E+01  0.17540796568E+02  0.19360668801E+02  0.51100000000E-03 0. -1.
        -11    1    3    3    0    0 -0.95276857582E+01 -0.46304170333E+01  0.91386273456E+01  0.13990427722E+02  0.51100000000E-03 0.  1.
        -12    1    3    3    0    0  0.50866511470E+01 -0.36336957960E+01  0.13012510272E+02  0.14436176385E+02  0.00000000000E+00 0.  1.
</event>
<event>
 7    1  0.4519840E-010  0.4778727E+02  0.7816164E-02  0.1312668E+00
        -11   -1    0    0    0    0  0.00000000000E+00  0.00000000000E+00  0.45593999997E+02  0.45594000000E+02  0.51100000000E-03 0. -1.
         11   -1    0    0    0    0 -0.00000000000E+00 -0.00000000000E+00 -0.45593999997E+02  0.45594000000E+02  0.51100000000E-03 0.  1.
    9900012    2    1    2    0    0  0.78520776464E+01 -0.16534851968E+02 -0.39351835816E+02  0.47787269188E+02  0.19999991536E+02 0.  0.
         12    1    1    2    0    0 -0.78520776464E+01  0.16534851968E+02  0.39351835816E+02  0.43400730812E+02  0.00000000000E+00 0. -1.
         11    1    3    3    0    0  0.11434487965E+01  0.37031400278E+01 -0.27974635983E+01  0.47798037680E+01  0.51100000000E-03 0. -1.
        -11    1    3    3    0    0  0.37697425364E+01 -0.27744820602E+01 -0.10595959725E+02  0.11583741721E+02  0.51100000000E-03 0.  1.
        -12    1    3    3    0    0  0.29388863135E+01 -0.17463509935E+02 -0.25958412492E+02  0.31423723699E+02  0.00000000000E+00 0.  1.
</event>
<event>
 7    1  0.4519840E-010  0.4778726E+02  0.7816164E-02  0.1312668E+00
        -11   -1    0    0    0    0  0.00000000000E+00  0.00000000000E+00  0.45593999997E+02  0.45594000000E+02  0.51100000000E-03 0. -1.
         11   -1    0    0    0    0 -0.00000000000E+00 -0.00000000000E+00 -0.45593999997E+02  0.45594000000E+02  0.51100000000E-03 0.  1.
    9900012    2    1    2    0    0 -0.27517493616E+02  0.24816293444E+02  0.22595641796E+02  0.47787263792E+02  0.19999966935E+02 0.  0.
        -12    1    1    2    0    0  0.27517493616E+02 -0.24816293444E+02 -0.22595641796E+02  0.43400736208E+02  0.00000000000E+00 0.  1.
         11    1    3    3    0    0 -0.18435930154E+02  0.12145171612E+02  0.10055257794E+02  0.24258955536E+02  0.51100000000E-03 0. -1.
        -11    1    3    3    0    0 -0.59060981640E+01 -0.64332843974E+00  0.20568807368E+01  0.62870204096E+01  0.51100000000E-03 0.  1.
        -12    1    3    3    0    0 -0.31754652977E+01  0.13314450272E+02  0.10483503266E+02  0.17241287847E+02  0.00000000000E+00 0.  1.
</event>
<event>
 7    1  0.4519840E-010  0.4778727E+02  0.7816164E-02  0.1312668E+00
        -11   -1    0    0    0    0  0.00000000000E+00  0.00000000000E+00  0.45593999997E+02  0.45594000000E+02  0.51100000000E-03 0. -1.
         11   -1    0    0    0    0 -0.00000000000E+00 -0.00000000000E+00 -0.45593999997E+02  0.45594000000E+02  0.51100000000E-03 0.  1.
    9900012    2    1    2    0    0  0.43023678939E+02  0.21991411722E+00 -0.57042185279E+01  0.47787269353E+02  0.19999992287E+02 0.  0.
         12    1    1    2    0    0 -0.43023678939E+02 -0.21991411722E+00  0.57042185279E+01  0.43400730647E+02  0.00000000000E+00 0. -1.
         11    1    3    3    0    0  0.13505259094E+02  0.53485248841E+01  0.37138828594E+00  0.14530542700E+02  0.51100000000E-03 0. -1.
        -11    1    3    3    0    0 -0.12591988265E+01 -0.17822684464E-01  0.52954528557E+00  0.13661324253E+01  0.51100000000E-03 0.  1.
         12    1    3    3    0    0  0.30777618672E+02 -0.51107880824E+01 -0.66051520994E+01  0.31890594228E+02  0.00000000000E+00 0. -1.
</event>
<event>
 7    1  0.4519840E-010  0.4778728E+02  0.7816164E-02  0.1312668E+00
        -11   -1    0    0    0    0  0.00000000000E+00  0.00000000000E+00  0.45593999997E+02  0.45594000000E+02  0.51100000000E-03 0. -1.
         11   -1    0    0    0    0 -0.00000000000E+00 -0.00000000000E+00 -0.45593999997E+02  0.45594000000E+02  0.51100000000E-03 0.  1.
    9900012    2    1    2    0    0 -0.19264053447E+02  0.30214251681E+02  0.24487099694E+02  0.47787276374E+02  0.20000024299E+02 0.  0.
        -12    1    1    2    0    0  0.19264053447E+02 -0.30214251681E+02 -0.24487099694E+02  0.43400723626E+02  0.00000000000E+00 0.  1.
         11    1    3    3    0    0 -0.52072100878E+01  0.44143222361E+01  0.70959294093E+00  0.68632936776E+01  0.51100000000E-03 0. -1.
        -11    1    3    3    0    0 -0.33411448272E+01  0.44169308093E+01 -0.18787972131E+01  0.58482822914E+01  0.51100000000E-03 0.  1.
         12    1    3    3    0    0 -0.10715698532E+02  0.21382998635E+02  0.25656303966E+02  0.35075700405E+02  0.00000000000E+00 0. -1.
</event>
<event>
 7    1  0.4519840E-010  0.4778727E+02  0.7816164E-02  0.1312668E+00
        -11   -1    0    0    0    0  0.00000000000E+00  0.00000000000E+00  0.45593999997E+02  0.45594000000E+02  0.51100000000E-03 0. -1.
         11   -1    0    0    0    0 -0.00000000000E+00 -0.00000000000E+00 -0.45593999997E+02  0.45594000000E+02  0.51100000000E-03 0.  1.
    9900012    2    1    2    0    0 -0.22216126900E+01 -0.36675397111E+01  0.43188386033E+02  0.47787273064E+02  0.20000009208E+02 0.  0.
        -12    1    1    2    0    0  0.22216126900E+01  0.36675397111E+01 -0.43188386033E+02  0.43400726936E+02  0.00000000000E+00 0.  1.
         11    1    3    3    0    0 -0.62852870322E+01  0.19873402609E+01  0.17873628309E+02  0.19050484077E+02  0.51100000000E-03 0. -1.
        -11    1    3    3    0    0 -0.36367596570E+01  0.30799207185E+00  0.93335867040E+01  0.10021812258E+02  0.51100000000E-03 0.  1.
        -12    1    3    3    0    0  0.77004339992E+01 -0.59628720439E+01  0.15981171020E+02  0.18714976728E+02  0.00000000000E+00 0.  1.
</event>
<event>
 7    1  0.4519840E-010  0.4778726E+02  0.7816164E-02  0.1312668E+00
        -11   -1    0    0    0    0  0.00000000000E+00  0.00000000000E+00  0.45593999997E+02  0.45594000000E+02  0.51100000000E-03 0. -1.
         11   -1    0    0    0    0 -0.00000000000E+00 -0.00000000000E+00 -0.45593999997E+02  0.45594000000E+02  0.51100000000E-03 0.  1.
    9900012    2    1    2    0    0 -0.29053192453E+01 -0.81385377750E+01 -0.42531722997E+02  0.47787261087E+02  0.19999954602E+02 0.  0.
         12    1    1    2    0    0  0.29053192453E+01  0.81385377750E+01  0.42531722997E+02  0.43400738913E+02  0.00000000000E+00 0. -1.
         11    1    3    3    0    0  0.14030513752E+01  0.20562969626E+01 -0.11623974096E+02  0.11887543245E+02  0.51100000000E-03 0. -1.
        -11    1    3    3    0    0 -0.84491356162E+00  0.20325242293E+01  0.28309102325E+00  0.22192734077E+01  0.51100000000E-03 0.  1.
        -12    1    3    3    0    0 -0.34634570588E+01 -0.12227358967E+02 -0.31190839925E+02  0.33680444434E+02  0.00000000000E+00 0.  1.
</event>
<event>
 7    1  0.4519840E-010  0.4778727E+02  0.7816164E-02  0.1312668E+00
        -11   -1    0    0    0    0  0.00000000000E+00  0.00000000000E+00  0.45593999997E+02  0.45594000000E+02  0.51100000000E-03 0. -1.
         11   -1    0    0    0    0 -0.00000000000E+00 -0.00000000000E+00 -0.45593999997E+02  0.45594000000E+02  0.51100000000E-03 0.  1.
    9900012    2    1    2    0    0 -0.27598729016E+01 -0.38248753270E+02  0.20323362943E+02  0.47787272973E+02  0.20000008795E+02 0.  0.
        -12    1    1    2    0    0  0.27598729016E+01  0.38248753270E+02 -0.20323362943E+02  0.43400727027E+02  0.00000000000E+00 0.  1.
         11    1    3    3    0    0 -0.81874868972E+00  0.13359453229E+01  0.33917138557E+01  0.37361507548E+01  0.51100000000E-03 0. -1.
        -11    1    3    3    0    0 -0.48432675529E+01 -0.13281426544E+02  0.71116083369E+01  0.15824933018E+02  0.51100000000E-03 0.  1.
        -12    1    3    3    0    0  0.29021433411E+01 -0.26303272049E+02  0.98200407504E+01  0.28226189201E+02  0.00000000000E+00 0.  1.
</event>
<event>
 7    1  0.4519840E-010  0.4778728E+02  0.7816164E-02  0.1312668E+00
        -11   -1    0    0    0    0  0.00000000000E+00  0.00000000000E+00  0.45593999997E+02  0.45594000000E+02  0.51100000000E-03 0. -1.
         11   -1    0    0    0    0 -0.00000000000E+00 -0.00000000000E+00 -0.45593999997E+02  0.45594000000E+02  0.51100000000E-03 0.  1.
    9900012    2    1    2    0    0 -0.61412547722E+01  0.14962384652E+02  0.40274491943E+02  0.47787278049E+02  0.20000031935E+02 0.  0.
        -12    1    1    2    0    0  0.61412547722E+01 -0.14962384652E+02 -0.40274491943E+02  0.43400721951E+02  0.00000000000E+00 0.  1.
         11    1    3    3    0    0  0.15287167863E+01 -0.24948572073E+00  0.70751594013E+01  0.72427273145E+01  0.51100000000E-03 0. -1.
        -11    1    3    3    0    0 -0.24101354162E+01  0.16848819253E+02  0.28968757732E+02  0.33598815273E+02  0.51100000000E-03 0.  1.
        -12    1    3    3    0    0 -0.52598361422E+01 -0.16369488804E+01  0.42305748099E+01  0.69457354616E+01  0.00000000000E+00 0.  1.
</event>
<event>
 7    1  0.4519840E-010  0.4778727E+02  0.7816164E-02  0.1312668E+00
        -11   -1    0    0    0    0  0.00000000000E+00  0.00000000000E+00  0.45593999997E+02  0.45594000000E+02  0.51100000000E-03 0. -1.
         11   -1    0    0    0    0 -0.00000000000E+00 -0.00000000000E+00 -0.45593999997E+02  0.45594000000E+02  0.51100000000E-03 0.  1.
    9900012    2    1    2    0    0 -0.21251351821E+02 -0.41336954741E+01 -0.37615366718E+02  0.47787271829E+02  0.20000003576E+02 0.  0.
         12    1    1    2    0    0  0.21251351821E+02  0.41336954741E+01  0.37615366718E+02  0.43400728171E+02  0.00000000000E+00 0. -1.
         11    1    3    3    0    0 -0.47919321687E+01  0.59034796418E+01 -0.80650166511E+01  0.11084140907E+02  0.51100000000E-03 0. -1.
        -11    1    3    3    0    0 -0.29641982625E+01 -0.13514042506E+01 -0.13936361261E+02  0.14312055417E+02  0.51100000000E-03 0.  1.
         12    1    3    3    0    0 -0.13495221390E+02 -0.86857708654E+01 -0.15613988805E+02  0.22391075506E+02  0.00000000000E+00 0. -1.
</event>
<event>
 7    1  0.4519840E-010  0.4778726E+02  0.7816164E-02  0.1312668E+00
        -11   -1    0    0    0    0  0.00000000000E+00  0.00000000000E+00  0.45593999997E+02  0.45594000000E+02  0.51100000000E-03 0.  1.
         11   -1    0    0    0    0 -0.00000000000E+00 -0.00000000000E+00 -0.45593999997E+02  0.45594000000E+02  0.51100000000E-03 0. -1.
    9900012    2    1    2    0    0  0.33609647441E+02  0.34997358895E+01  0.27235406037E+02  0.47787263896E+02  0.19999967405E+02 0.  0.
        -12    1    1    2    0    0 -0.33609647441E+02 -0.34997358895E+01 -0.27235406037E+02  0.43400736104E+02  0.00000000000E+00 0.  1.
         11    1    3    3    0    0  0.71503280722E+01  0.46542073172E+01 -0.16763009806E-01  0.85316539165E+01  0.51100000000E-03 0. -1.
        -11    1    3    3    0    0  0.74806358238E+01  0.39543392165E+01  0.10039195169E+02  0.13129438330E+02  0.51100000000E-03 0.  1.
         12    1    3    3    0    0  0.18978683545E+02 -0.51088106442E+01  0.17212973879E+02  0.26126171649E+02  0.00000000000E+00 0. -1.
</event>
<event>
 7    1  0.4519840E-010  0.4778727E+02  0.7816164E-02  0.1312668E+00
        -11   -1    0    0    0    0  0.00000000000E+00  0.00000000000E+00  0.45593999997E+02  0.45594000000E+02  0.51100000000E-03 0. -1.
         11   -1    0    0    0    0 -0.00000000000E+00 -0.00000000000E+00 -0.45593999997E+02  0.45594000000E+02  0.51100000000E-03 0.  1.
    9900012    2    1    2    0    0  0.27915603371E+02 -0.21352419277E+02  0.25464023039E+02  0.47787272012E+02  0.20000004411E+02 0.  0.
        -12    1    1    2    0    0 -0.27915603371E+02  0.21352419277E+02 -0.25464023039E+02  0.43400727988E+02  0.00000000000E+00 0.  1.
         11    1    3    3    0    0  0.31023134696E+01 -0.49412917160E+01  0.21732342030E+01  0.62260468877E+01  0.51100000000E-03 0. -1.
        -11    1    3    3    0    0  0.20856137575E+01 -0.72187999424E+01  0.12910622399E+02  0.14938039642E+02  0.51100000000E-03 0.  1.
        -12    1    3    3    0    0  0.22727676144E+02 -0.91923276191E+01  0.10380166437E+02  0.26623185482E+02  0.00000000000E+00 0.  1.
</event>
<event>
 7    1  0.4519840E-010  0.4778727E+02  0.7816164E-02  0.1312668E+00
        -11   -1    0    0    0    0  0.00000000000E+00  0.00000000000E+00  0.45593999997E+02  0.45594000000E+02  0.51100000000E-03 0. -1.
         11   -1    0    0    0    0 -0.00000000000E+00 -0.00000000000E+00 -0.45593999997E+02  0.45594000000E+02  0.51100000000E-03 0.  1.
    9900012    2    1    2    0    0  0.32709169811E+02 -0.27942630289E+02  0.57396092330E+01  0.47787268539E+02  0.19999988578E+02 0.  0.
        -12    1    1    2    0    0 -0.32709169811E+02  0.27942630289E+02 -0.57396092330E+01  0.43400731461E+02  0.00000000000E+00 0.  1.
         11    1    3    3    0    0  0.15425548772E+00 -0.84428237347E+01  0.27962140122E+01  0.88951605063E+01  0.51100000000E-03 0. -1.
        -11    1    3    3    0    0  0.62984396988E+01 -0.88058187945E+00 -0.10892836978E+01  0.64523101538E+01  0.51100000000E-03 0.  1.
        -12    1    3    3    0    0  0.26256474624E+02 -0.18619224675E+02  0.40326789186E+01  0.32439797879E+02  0.00000000000E+00 0.  1.
</event>
<event>
 7    1  0.4519840E-010  0.4778726E+02  0.7816164E-02  0.1312668E+00
        -11   -1    0    0    0    0  0.00000000000E+00  0.00000000000E+00  0.45593999997E+02  0.45594000000E+02  0.51100000000E-03 0. -1.
         11   -1    0    0    0    0 -0.00000000000E+00 -0.00000000000E+00 -0.45593999997E+02  0.45594000000E+02  0.51100000000E-03 0.  1.
    9900012    2    1    2    0    0  0.21973716321E+02  0.37377208643E+02  0.19297709390E+01  0.47787263246E+02  0.19999964446E+02 0.  0.
         12    1    1    2    0    0 -0.21973716321E+02 -0.37377208643E+02 -0.19297709390E+01  0.43400736754E+02  0.00000000000E+00 0. -1.
         11    1    3    3    0    0  0.19899855153E+01 -0.19973385148E+01 -0.17075395984E+01  0.32962243909E+01  0.51100000000E-03 0. -1.
        -11    1    3    3    0    0  0.31087555714E+01  0.81873176256E+01 -0.60336908898E+00  0.87784158949E+01  0.51100000000E-03 0.  1.
        -12    1    3    3    0    0  0.16874975234E+02  0.31187229532E+02  0.42406796264E+01  0.35712622961E+02  0.00000000000E+00 0.  1.
</event>
<event>
 7    1  0.4519840E-010  0.4778727E+02  0.7816164E-02  0.1312668E+00
        -11   -1    0    0    0    0  0.00000000000E+00  0.00000000000E+00  0.45593999997E+02  0.45594000000E+02  0.51100000000E-03 0. -1.
         11   -1    0    0    0    0 -0.00000000000E+00 -0.00000000000E+00 -0.45593999997E+02  0.45594000000E+02  0.51100000000E-03 0.  1.
    9900012    2    1    2    0    0  0.85965375076E+01  0.19693525998E+02 -0.37707929474E+02  0.47787269954E+02  0.19999995027E+02 0.  0.
         12    1    1    2    0    0 -0.85965375076E+01 -0.19693525998E+02  0.37707929474E+02  0.43400730046E+02  0.00000000000E+00 0. -1.
         11    1    3    3    0    0 -0.82558856757E+00  0.16271745269E+02 -0.26876533454E+02  0.31429275228E+02  0.51100000000E-03 0. -1.
        -11    1    3    3    0    0  0.19452249511E+01 -0.26191881258E+00 -0.68408884511E+01  0.71168993696E+01  0.51100000000E-03 0.  1.
        -12    1    3    3    0    0  0.74769011241E+01  0.36836995411E+01 -0.39905075689E+01  0.92410953564E+01  0.00000000000E+00 0.  1.
</event>
<event>
 7    1  0.4519840E-010  0.4778727E+02  0.7816164E-02  0.1312668E+00
        -11   -1    0    0    0    0  0.00000000000E+00  0.00000000000E+00  0.45593999997E+02  0.45594000000E+02  0.51100000000E-03 0. -1.
         11   -1    0    0    0    0 -0.00000000000E+00 -0.00000000000E+00 -0.45593999997E+02  0.45594000000E+02  0.51100000000E-03 0.  1.
    9900012    2    1    2    0    0 -0.34516185132E+02 -0.93534990871E+01 -0.24592034607E+02  0.47787272502E+02  0.20000006646E+02 0.  0.
         12    1    1    2    0    0  0.34516185132E+02  0.93534990871E+01  0.24592034607E+02  0.43400727498E+02  0.00000000000E+00 0. -1.
         11    1    3    3    0    0 -0.25922515104E+02 -0.62538625228E+01 -0.18521092571E+02  0.32467190455E+02  0.51100000000E-03 0. -1.
        -11    1    3    3    0    0 -0.71649452737E+01  0.30134121776E+01 -0.37121595865E+01  0.86137809807E+01  0.51100000000E-03 0.  1.
         12    1    3    3    0    0 -0.14287247540E+01 -0.61130487418E+01 -0.23587824496E+01  0.67063010659E+01  0.00000000000E+00 0. -1.
</event>
<event>
 7    1  0.8218053E-010  0.4778727E+02  0.7816164E-02  0.1312668E+00
        -11   -1    0    0    0    0  0.00000000000E+00  0.00000000000E+00  0.45593999997E+02  0.45594000000E+02  0.51100000000E-03 0. -1.
         11   -1    0    0    0    0 -0.00000000000E+00 -0.00000000000E+00 -0.45593999997E+02  0.45594000000E+02  0.51100000000E-03 0.  1.
    9900012    2    1    2    0    0 -0.30958869193E+02  0.15842569661E+02 -0.25965063949E+02  0.47787272575E+02  0.20000006978E+02 0.  0.
         12    1    1    2    0    0  0.30958869193E+02 -0.15842569661E+02  0.25965063949E+02  0.43400727425E+02  0.00000000000E+00 0. -1.
         11    1    3    3    0    0 -0.75742033572E+01 -0.89081780101E+00 -0.10703711776E+01  0.77011562488E+01  0.51100000000E-03 0.  1.
        -11    1    3    3    0    0 -0.24738535952E+01 -0.65384972256E+00 -0.71997801034E+01  0.76409622999E+01  0.51100000000E-03 0. -1.
        -12    1    3    3    0    0 -0.20910812240E+02  0.17387237184E+02 -0.17694912668E+02  0.32445154026E+02  0.00000000000E+00 0.  1.
</event>
<event>
 7    1  0.4519840E-010  0.4778727E+02  0.7816164E-02  0.1312668E+00
        -11   -1    0    0    0    0  0.00000000000E+00  0.00000000000E+00  0.45593999997E+02  0.45594000000E+02  0.51100000000E-03 0.  1.
         11   -1    0    0    0    0 -0.00000000000E+00 -0.00000000000E+00 -0.45593999997E+02  0.45594000000E+02  0.51100000000E-03 0. -1.
    9900012    2    1    2    0    0  0.31627864930E+02  0.24634869679E+02 -0.16626014671E+02  0.47787274108E+02  0.20000013970E+02 0.  0.
        -12    1    1    2    0    0 -0.31627864930E+02 -0.24634869679E+02  0.16626014671E+02  0.43400725892E+02  0.00000000000E+00 0.  1.
         11    1    3    3    0    0  0.18472642521E+02  0.22841639724E+02 -0.75741467164E+01  0.30337216842E+02  0.51100000000E-03 0. -1.
        -11    1    3    3    0    0  0.43001332188E+00 -0.71208566934E+00  0.80686981915E+00  0.11588859407E+01  0.51100000000E-03 0.  1.
         12    1    3    3    0    0  0.12725209087E+02  0.25053156244E+01 -0.98587377734E+01  0.16291171326E+02  0.00000000000E+00 0. -1.
</event>
<event>
 7    1  0.4519840E-010  0.4778728E+02  0.7816164E-02  0.1312668E+00
        -11   -1    0    0    0    0  0.00000000000E+00  0.00000000000E+00  0.45593999997E+02  0.45594000000E+02  0.51100000000E-03 0. -1.
         11   -1    0    0    0    0 -0.00000000000E+00 -0.00000000000E+00 -0.45593999997E+02  0.45594000000E+02  0.51100000000E-03 0.  1.
    9900012    2    1    2    0    0  0.34443089351E+01 -0.31555560725E+02  0.29597401415E+02  0.47787275959E+02  0.20000022409E+02 0.  0.
        -12    1    1    2    0    0 -0.34443089351E+01  0.31555560725E+02 -0.29597401415E+02  0.43400724041E+02  0.00000000000E+00 0.  1.
         11    1    3    3    0    0 -0.36012595556E+00 -0.68025544205E+01  0.43190623283E+01  0.80658996402E+01  0.51100000000E-03 0. -1.
        -11    1    3    3    0    0 -0.42943705321E+01 -0.78936887892E+01  0.95285529703E+00  0.90365853311E+01  0.51100000000E-03 0.  1.
         12    1    3    3    0    0  0.80988054228E+01 -0.16859317515E+02  0.24325483790E+02  0.30684790988E+02  0.00000000000E+00 0. -1.
</event>
<event>
 7    1  0.4519840E-010  0.4778727E+02  0.7816164E-02  0.1312668E+00
        -11   -1    0    0    0    0  0.00000000000E+00  0.00000000000E+00  0.45593999997E+02  0.45594000000E+02  0.51100000000E-03 0. -1.
         11   -1    0    0    0    0 -0.00000000000E+00 -0.00000000000E+00 -0.45593999997E+02  0.45594000000E+02  0.51100000000E-03 0.  1.
    9900012    2    1    2    0    0  0.10948118419E+02  0.34501876927E+01 -0.41855207718E+02  0.47787268380E+02  0.19999987850E+02 0.  0.
         12    1    1    2    0    0 -0.10948118419E+02 -0.34501876927E+01  0.41855207718E+02  0.43400731620E+02  0.00000000000E+00 0. -1.
         11    1    3    3    0    0 -0.14821800904E+01  0.31427928846E+01 -0.14931426018E+02  0.15330410566E+02  0.51100000000E-03 0. -1.
        -11    1    3    3    0    0  0.68374143381E+01  0.63644326460E+01 -0.18179426408E+02  0.20438879190E+02  0.51100000000E-03 0.  1.
        -12    1    3    3    0    0  0.55928841717E+01 -0.60570378379E+01 -0.87443552926E+01  0.12017978624E+02  0.00000000000E+00 0.  1.
</event>
<event>
 7    1  0.4519840E-010  0.4778727E+02  0.7816164E-02  0.1312668E+00
        -11   -1    0    0    0    0  0.00000000000E+00  0.00000000000E+00  0.45593999997E+02  0.45594000000E+02  0.51100000000E-03 0. -1.
         11   -1    0    0    0    0 -0.00000000000E+00 -0.00000000000E+00 -0.45593999997E+02  0.45594000000E+02  0.51100000000E-03 0.  1.
    9900012    2    1    2    0    0 -0.28009208799E+02  0.12391875453E+02  0.30749778843E+02  0.47787271277E+02  0.20000001058E+02 0.  0.
        -12    1    1    2    0    0  0.28009208799E+02 -0.12391875453E+02 -0.30749778843E+02  0.43400728723E+02  0.00000000000E+00 0.  1.
         11    1    3    3    0    0 -0.11437906281E+00  0.11108239413E+00 -0.13353024196E+01  0.13447879688E+01  0.51100000000E-03 0.  1.
        -11    1    3    3    0    0 -0.16278594565E+02 -0.44810765001E+00  0.14201085663E+02  0.21607042272E+02  0.51100000000E-03 0. -1.
        -12    1    3    3    0    0 -0.11616235172E+02  0.12728900709E+02  0.17883995599E+02  0.24835441035E+02  0.00000000000E+00 0.  1.
</event>
<event>
 7    1  0.4519840E-010  0.4778727E+02  0.7816164E-02  0.1312668E+00
        -11   -1    0    0    0    0  0.00000000000E+00  0.00000000000E+00  0.45593999997E+02  0.45594000000E+02  0.51100000000E-03 0. -1.
         11   -1    0    0    0    0 -0.00000000000E+00 -0.00000000000E+00 -0.45593999997E+02  0.45594000000E+02  0.51100000000E-03 0.  1.
    9900012    2    1    2    0    0 -0.52554704257E+01  0.24442523478E+02  0.35476278392E+02  0.47787271297E+02  0.20000001153E+02 0.  0.
        -12    1    1    2    0    0  0.52554704257E+01 -0.24442523478E+02 -0.35476278392E+02  0.43400728703E+02  0.00000000000E+00 0.  1.
         11    1    3    3    0    0 -0.31754062279E+01  0.68493070034E+01  0.20407748142E+01  0.78205481421E+01  0.51100000000E-03 0. -1.
        -11    1    3    3    0    0  0.26230613055E+01  0.94941378089E+01  0.74647925235E+01  0.12358892791E+02  0.51100000000E-03 0.  1.
        -12    1    3    3    0    0 -0.47031255033E+01  0.80990786658E+01  0.25970711054E+02  0.27607830364E+02  0.00000000000E+00 0.  1.
</event>
<event>
 7    1  0.4519840E-010  0.4778727E+02  0.7816164E-02  0.1312668E+00
        -11   -1    0    0    0    0  0.00000000000E+00  0.00000000000E+00  0.45593999997E+02  0.45594000000E+02  0.51100000000E-03 0. -1.
         11   -1    0    0    0    0 -0.00000000000E+00 -0.00000000000E+00 -0.45593999997E+02  0.45594000000E+02  0.51100000000E-03 0.  1.
    9900012    2    1    2    0    0 -0.13738687463E+02  0.19943726207E+02 -0.36015544050E+02  0.47787272340E+02  0.20000005908E+02 0.  0.
         12    1    1    2    0    0  0.13738687463E+02 -0.19943726207E+02  0.36015544050E+02  0.43400727660E+02  0.00000000000E+00 0. -1.
         11    1    3    3    0    0 -0.58879543647E+01  0.13587558574E+02 -0.18922053746E+02  0.24027772948E+02  0.51100000000E-03 0.  1.
        -11    1    3    3    0    0 -0.22989568609E+01 -0.22202162987E+01 -0.11855048888E+02  0.12278303932E+02  0.51100000000E-03 0. -1.
         12    1    3    3    0    0 -0.55517762372E+01  0.85763839314E+01 -0.52384414161E+01  0.11481195460E+02  0.00000000000E+00 0. -1.
</event>
<event>
 7    1  0.4519840E-010  0.4778727E+02  0.7816164E-02  0.1312668E+00
        -11   -1    0    0    0    0  0.00000000000E+00  0.00000000000E+00  0.45593999997E+02  0.45594000000E+02  0.51100000000E-03 0. -1.
         11   -1    0    0    0    0 -0.00000000000E+00 -0.00000000000E+00 -0.45593999997E+02  0.45594000000E+02  0.51100000000E-03 0.  1.
    9900012    2    1    2    0    0  0.68834821238E+01  0.16264111674E+02 -0.39644920122E+02  0.47787270212E+02  0.19999996205E+02 0.  0.
         12    1    1    2    0    0 -0.68834821238E+01 -0.16264111674E+02  0.39644920122E+02  0.43400729788E+02  0.00000000000E+00 0. -1.
         11    1    3    3    0    0  0.65647623755E+01  0.98616670615E+00 -0.38091580748E+01  0.76536471906E+01  0.51100000000E-03 0. -1.
        -11    1    3    3    0    0  0.22497896083E+01  0.81077850930E+01 -0.91352149314E+01  0.12419737698E+02  0.51100000000E-03 0.  1.
        -12    1    3    3    0    0 -0.19310698599E+01  0.71701598744E+01 -0.26700547115E+02  0.27713885323E+02  0.00000000000E+00 0.  1.
</event>
<event>
 7    1  0.4519840E-010  0.4778727E+02  0.7816164E-02  0.1312668E+00
        -11   -1    0    0    0    0  0.00000000000E+00  0.00000000000E+00  0.45593999997E+02  0.45594000000E+02  0.51100000000E-03 0. -1.
         11   -1    0    0    0    0 -0.00000000000E+00 -0.00000000000E+00 -0.45593999997E+02  0.45594000000E+02  0.51100000000E-03 0.  1.
    9900012    2    1    2    0    0  0.36664242180E+02 -0.11595079066E+01  0.23195084702E+02  0.47787273422E+02  0.20000010838E+02 0.  0.
        -12    1    1    2    0    0 -0.36664242180E+02  0.11595079066E+01 -0.23195084702E+02  0.43400726578E+02  0.00000000000E+00 0.  1.
         11    1    3    3    0    0  0.34972222664E+01 -0.70845278158E+00  0.75043663344E+00  0.36463165422E+01  0.51100000000E-03 0. -1.
        -11    1    3    3    0    0  0.78112323121E+01 -0.74154500765E+01  0.22920096876E+01  0.11011700992E+02  0.51100000000E-03 0.  1.
         12    1    3    3    0    0  0.25355787601E+02  0.69643949515E+01  0.20152638381E+02  0.33129255887E+02  0.00000000000E+00 0. -1.
</event>
<event>
 7    1  0.5514365E-010  0.4778726E+02  0.7816164E-02  0.1312668E+00
        -11   -1    0    0    0    0  0.00000000000E+00  0.00000000000E+00  0.45593999997E+02  0.45594000000E+02  0.51100000000E-03 0. -1.
         11   -1    0    0    0    0 -0.00000000000E+00 -0.00000000000E+00 -0.45593999997E+02  0.45594000000E+02  0.51100000000E-03 0.  1.
    9900012    2    1    2    0    0  0.27722902099E+02 -0.13055876042E+02 -0.30734489656E+02  0.47787262052E+02  0.19999959000E+02 0.  0.
         12    1    1    2    0    0 -0.27722902099E+02  0.13055876042E+02  0.30734489656E+02  0.43400737948E+02  0.00000000000E+00 0. -1.
         11    1    3    3    0    0  0.23878144183E+01 -0.72592183969E+01 -0.43295795877E+01  0.87831184153E+01  0.51100000000E-03 0. -1.
        -11    1    3    3    0    0 -0.10720059783E+01 -0.73097281792E+00  0.29345034102E-01  0.12978364574E+01  0.51100000000E-03 0.  1.
        -12    1    3    3    0    0  0.26407093659E+02 -0.50656848273E+01 -0.26434255102E+02  0.37706307179E+02  0.00000000000E+00 0.  1.
</event>
<event>
 7    1  0.4519840E-010  0.4778727E+02  0.7816164E-02  0.1312668E+00
        -11   -1    0    0    0    0  0.00000000000E+00  0.00000000000E+00  0.45593999997E+02  0.45594000000E+02  0.51100000000E-03 0. -1.
         11   -1    0    0    0    0 -0.00000000000E+00 -0.00000000000E+00 -0.45593999997E+02  0.45594000000E+02  0.51100000000E-03 0.  1.
    9900012    2    1    2    0    0  0.13323172777E+02  0.28224379398E+02  0.30157934856E+02  0.47787267748E+02  0.19999984969E+02 0.  0.
        -12    1    1    2    0    0 -0.13323172777E+02 -0.28224379398E+02 -0.30157934856E+02  0.43400732252E+02  0.00000000000E+00 0.  1.
         11    1    3    3    0    0  0.66127741886E+01  0.58916086069E+01  0.11562966361E+02  0.14565096147E+02  0.51100000000E-03 0.  1.
        -11    1    3    3    0    0  0.45647187650E+01  0.15059846057E+02  0.20063319698E+02  0.25498478743E+02  0.51100000000E-03 0. -1.
        -12    1    3    3    0    0  0.21456798233E+01  0.72729247348E+01 -0.14683512032E+01  0.77236928576E+01  0.00000000000E+00 0.  1.
</event>
<event>
 7    1  0.4519840E-010  0.4778726E+02  0.7816164E-02  0.1312668E+00
        -11   -1    0    0    0    0  0.00000000000E+00  0.00000000000E+00  0.45593999997E+02  0.45594000000E+02  0.51100000000E-03 0. -1.
         11   -1    0    0    0    0 -0.00000000000E+00 -0.00000000000E+00 -0.45593999997E+02  0.45594000000E+02  0.51100000000E-03 0.  1.
    9900012    2    1    2    0    0 -0.33706687851E+01  0.24022798143E+02  0.35988438224E+02  0.47787263549E+02  0.19999965827E+02 0.  0.
        -12    1    1    2    0    0  0.33706687851E+01 -0.24022798143E+02 -0.35988438224E+02  0.43400736451E+02  0.00000000000E+00 0.  1.
         11    1    3    3    0    0  0.28865671124E+01  0.88534682334E+01  0.19606542260E+02  0.21705590734E+02  0.51100000000E-03 0. -1.
        -11    1    3    3    0    0  0.21230474569E+01  0.83517888151E+01  0.35821070582E+01  0.93322665068E+01  0.51100000000E-03 0.  1.
        -12    1    3    3    0    0 -0.83802833543E+01  0.68175410941E+01  0.12799788906E+02  0.16749406309E+02  0.00000000000E+00 0.  1.
</event>
<event>
 7    1  0.4519840E-010  0.4778727E+02  0.7816164E-02  0.1312668E+00
        -11   -1    0    0    0    0  0.00000000000E+00  0.00000000000E+00  0.45593999997E+02  0.45594000000E+02  0.51100000000E-03 0. -1.
         11   -1    0    0    0    0 -0.00000000000E+00 -0.00000000000E+00 -0.45593999997E+02  0.45594000000E+02  0.51100000000E-03 0.  1.
    9900012    2    1    2    0    0 -0.12757564018E+02 -0.18980458367E+02  0.36886452703E+02  0.47787266913E+02  0.19999981161E+02 0.  0.
        -12    1    1    2    0    0  0.12757564018E+02  0.18980458367E+02 -0.36886452703E+02  0.43400733087E+02  0.00000000000E+00 0.  1.
         11    1    3    3    0    0  0.39361078320E+01 -0.18559612257E+01  0.60006523057E+01  0.74125141006E+01  0.51100000000E-03 0. -1.
        -11    1    3    3    0    0  0.52779316267E+00 -0.12728281440E+01 -0.27222250601E+00  0.14045506258E+01  0.51100000000E-03 0.  1.
        -12    1    3    3    0    0 -0.17221465012E+02 -0.15851668998E+02  0.31158022903E+02  0.38970202186E+02  0.00000000000E+00 0.  1.
</event>
<event>
 7    1  0.4519840E-010  0.4778727E+02  0.7816164E-02  0.1312668E+00
        -11   -1    0    0    0    0  0.00000000000E+00  0.00000000000E+00  0.45593999997E+02  0.45594000000E+02  0.51100000000E-03 0. -1.
         11   -1    0    0    0    0 -0.00000000000E+00 -0.00000000000E+00 -0.45593999997E+02  0.45594000000E+02  0.51100000000E-03 0.  1.
    9900012    2    1    2    0    0  0.92224497363E+01 -0.23869478956E+02  0.35054494678E+02  0.47787271874E+02  0.20000003781E+02 0.  0.
        -12    1    1    2    0    0 -0.92224497363E+01  0.23869478956E+02 -0.35054494678E+02  0.43400728126E+02  0.00000000000E+00 0.  1.
         11    1    3    3    0    0  0.34667482832E+01 -0.19300681347E+02  0.22622908577E+02  0.29938781486E+02  0.51100000000E-03 0. -1.
        -11    1    3    3    0    0  0.18232703292E+01 -0.70858663385E+01  0.43415605004E+01  0.85078178342E+01  0.51100000000E-03 0.  1.
         12    1    3    3    0    0  0.39324311239E+01  0.25170687295E+01  0.80900256006E+01  0.93406725535E+01  0.00000000000E+00 0. -1.
</event>
<event>
 7    1  0.4519840E-010  0.4778727E+02  0.7816164E-02  0.1312668E+00
        -11   -1    0    0    0    0  0.00000000000E+00  0.00000000000E+00  0.45593999997E+02  0.45594000000E+02  0.51100000000E-03 0. -1.
         11   -1    0    0    0    0 -0.00000000000E+00 -0.00000000000E+00 -0.45593999997E+02  0.45594000000E+02  0.51100000000E-03 0.  1.
    9900012    2    1    2    0    0 -0.18294736230E+02 -0.21464896759E+02  0.32987630710E+02  0.47787274817E+02  0.20000017200E+02 0.  0.
        -12    1    1    2    0    0  0.18294736230E+02  0.21464896759E+02 -0.32987630710E+02  0.43400725183E+02  0.00000000000E+00 0.  1.
         11    1    3    3    0    0 -0.53697415275E+01 -0.15872867496E+02  0.19221038155E+02  0.25499614794E+02  0.51100000000E-03 0. -1.
        -11    1    3    3    0    0  0.14759892539E+01  0.66378334791E+00  0.24383410592E+01  0.29265440356E+01  0.51100000000E-03 0.  1.
         12    1    3    3    0    0 -0.14400983956E+02 -0.62558126107E+01  0.11328251495E+02  0.19361115987E+02  0.00000000000E+00 0. -1.
</event>
<event>
 7    1  0.4519840E-010  0.4778728E+02  0.7816164E-02  0.1312668E+00
        -11   -1    0    0    0    0  0.00000000000E+00  0.00000000000E+00  0.45593999997E+02  0.45594000000E+02  0.51100000000E-03 0. -1.
         11   -1    0    0    0    0 -0.00000000000E+00 -0.00000000000E+00 -0.45593999997E+02  0.45594000000E+02  0.51100000000E-03 0.  1.
    9900012    2    1    2    0    0  0.27406741140E+02  0.59178944759E+01  0.33128114710E+02  0.47787275130E+02  0.20000018630E+02 0.  0.
        -12    1    1    2    0    0 -0.27406741140E+02 -0.59178944759E+01 -0.33128114710E+02  0.43400724870E+02  0.00000000000E+00 0.  1.
         11    1    3    3    0    0  0.20198382821E+02  0.13948453980E+01  0.21668530879E+02  0.29655446261E+02  0.51100000000E-03 0. -1.
        -11    1    3    3    0    0  0.78759353236E+01  0.89127693480E+00  0.22957419053E+01  0.82519793355E+01  0.51100000000E-03 0.  1.
        -12    1    3    3    0    0 -0.66757700441E+00  0.36317721431E+01  0.91638419263E+01  0.98798495336E+01  0.00000000000E+00 0.  1.
</event>
<event>
 7    1  0.4519840E-010  0.4778725E+02  0.7816164E-02  0.1312668E+00
        -11   -1    0    0    0    0  0.00000000000E+00  0.00000000000E+00  0.45593999997E+02  0.45594000000E+02  0.51100000000E-03 0.  1.
         11   -1    0    0    0    0 -0.00000000000E+00 -0.00000000000E+00 -0.45593999997E+02  0.45594000000E+02  0.51100000000E-03 0. -1.
    9900012    2    1    2    0    0  0.41657457390E+02 -0.92528246959E+01 -0.79162460379E+01  0.47787245716E+02  0.19999884519E+02 0.  0.
        -12    1    1    2    0    0 -0.41657457390E+02  0.92528246959E+01  0.79162460379E+01  0.43400754284E+02  0.00000000000E+00 0.  1.
         11    1    3    3    0    0  0.22490011949E+02 -0.10003845455E+02 -0.56270322909E+01  0.25249575324E+02  0.51100000000E-03 0. -1.
        -11    1    3    3    0    0  0.87932359817E+01 -0.39711850815E+01  0.28120499614E+01  0.10049822647E+02  0.51100000000E-03 0.  1.
        -12    1    3    3    0    0  0.10374209459E+02  0.47222058411E+01 -0.51012637084E+01  0.12487847746E+02  0.00000000000E+00 0.  1.
</event>
<event>
 7    1  0.4519840E-010  0.4778727E+02  0.7816164E-02  0.1312668E+00
        -11   -1    0    0    0    0  0.00000000000E+00  0.00000000000E+00  0.45593999997E+02  0.45594000000E+02  0.51100000000E-03 0. -1.
         11   -1    0    0    0    0 -0.00000000000E+00 -0.00000000000E+00 -0.45593999997E+02  0.45594000000E+02  0.51100000000E-03 0.  1.
    9900012    2    1    2    0    0 -0.16147062937E+02 -0.60835029524E+01  0.39823190747E+02  0.47787272231E+02  0.20000005409E+02 0.  0.
        -12    1    1    2    0    0  0.16147062937E+02  0.60835029524E+01 -0.39823190747E+02  0.43400727769E+02  0.00000000000E+00 0.  1.
         11    1    3    3    0    0 -0.49941049562E+01 -0.25330018407E+01  0.30136971738E+01  0.63592101361E+01  0.51100000000E-03 0. -1.
        -11    1    3    3    0    0 -0.13344771402E+02 -0.22982421850E+01  0.18396591651E+02  0.22842929443E+02  0.51100000000E-03 0.  1.
         12    1    3    3    0    0  0.21918134211E+01 -0.12522589268E+01  0.18412901922E+02  0.18585132651E+02  0.00000000000E+00 0. -1.
</event>
<event>
 7    1  0.4519840E-010  0.4778728E+02  0.7816164E-02  0.1312668E+00
        -11   -1    0    0    0    0  0.00000000000E+00  0.00000000000E+00  0.45593999997E+02  0.45594000000E+02  0.51100000000E-03 0. -1.
         11   -1    0    0    0    0 -0.00000000000E+00 -0.00000000000E+00 -0.45593999997E+02  0.45594000000E+02  0.51100000000E-03 0.  1.
    9900012    2    1    2    0    0  0.23103952845E+02 -0.88857919670E+01 -0.35649305161E+02  0.47787275416E+02  0.20000019931E+02 0.  0.
         12    1    1    2    0    0 -0.23103952845E+02  0.88857919670E+01  0.35649305161E+02  0.43400724584E+02  0.00000000000E+00 0. -1.
         11    1    3    3    0    0  0.98976053134E+00  0.59530760561E-01 -0.87965082698E-01  0.99544358843E+00  0.51100000000E-03 0. -1.
        -11    1    3    3    0    0  0.25160140245E+01 -0.56617083889E+01 -0.16346557213E+00  0.61977406937E+01  0.51100000000E-03 0.  1.
        -12    1    3    3    0    0  0.19598178289E+02 -0.32836143387E+01 -0.35397874507E+02  0.40594091134E+02  0.00000000000E+00 0.  1.
</event>
<event>
 7    1  0.4519840E-010  0.4778727E+02  0.7816164E-02  0.1312668E+00
        -11   -1    0    0    0    0  0.00000000000E+00  0.00000000000E+00  0.45593999997E+02  0.45594000000E+02  0.51100000000E-03 0. -1.
         11   -1    0    0    0    0 -0.00000000000E+00 -0.00000000000E+00 -0.45593999997E+02  0.45594000000E+02  0.51100000000E-03 0.  1.
    9900012    2    1    2    0    0 -0.40431936070E+02 -0.15702169577E+02  0.15243046515E+01  0.47787273180E+02  0.20000009739E+02 0.  0.
         12    1    1    2    0    0  0.40431936070E+02  0.15702169577E+02 -0.15243046515E+01  0.43400726820E+02  0.00000000000E+00 0. -1.
         11    1    3    3    0    0 -0.19457146990E+00 -0.27373011893E+01  0.25041972685E+01  0.37150612483E+01  0.51100000000E-03 0. -1.
        -11    1    3    3    0    0 -0.15572309150E+02 -0.43203806429E+01  0.56302907458E+01  0.17113231001E+02  0.51100000000E-03 0.  1.
        -12    1    3    3    0    0 -0.24665055450E+02 -0.86444877451E+01 -0.66101833628E+01  0.26958980931E+02  0.00000000000E+00 0.  1.
</event>
<event>
 7    1  0.4519840E-010  0.4778727E+02  0.7816164E-02  0.1312668E+00
        -11   -1    0    0    0    0  0.00000000000E+00  0.00000000000E+00  0.45593999997E+02  0.45594000000E+02  0.51100000000E-03 0.  1.
         11   -1    0    0    0    0 -0.00000000000E+00 -0.00000000000E+00 -0.45593999997E+02  0.45594000000E+02  0.51100000000E-03 0. -1.
    9900012    2    1    2    0    0  0.32577503147E+02 -0.20734861128E+02  0.19808968988E+02  0.47787269250E+02  0.19999991818E+02 0.  0.
        -12    1    1    2    0    0 -0.32577503147E+02  0.20734861128E+02 -0.19808968988E+02  0.43400730750E+02  0.00000000000E+00 0.  1.
         11    1    3    3    0    0  0.17300836459E+01  0.29410260235E+00 -0.87564269331E+00  0.19612333237E+01  0.51100000000E-03 0. -1.
        -11    1    3    3    0    0  0.80981905508E+01 -0.14302737235E+02  0.12782915467E+02  0.20821909392E+02  0.51100000000E-03 0.  1.
        -12    1    3    3    0    0  0.22749228950E+02 -0.67262264948E+01  0.79016962141E+01  0.25004126534E+02  0.00000000000E+00 0.  1.
</event>
<event>
 7    1  0.4519840E-010  0.4778727E+02  0.7816164E-02  0.1312668E+00
        -11   -1    0    0    0    0  0.00000000000E+00  0.00000000000E+00  0.45593999997E+02  0.45594000000E+02  0.51100000000E-03 0. -1.
         11   -1    0    0    0    0 -0.00000000000E+00 -0.00000000000E+00 -0.45593999997E+02  0.45594000000E+02  0.51100000000E-03 0.  1.
    9900012    2    1    2    0    0  0.81556469897E+01  0.40730881943E+02 -0.12573937011E+02  0.47787271738E+02  0.20000003164E+02 0.  0.
         12    1    1    2    0    0 -0.81556469897E+01 -0.40730881943E+02  0.12573937011E+02  0.43400728262E+02  0.00000000000E+00 0. -1.
         11    1    3    3    0    0 -0.85741007075E+00  0.65817302100E+01 -0.80192167180E+01  0.10409714771E+02  0.51100000000E-03 0. -1.
        -11    1    3    3    0    0  0.76073331313E+01  0.23577946150E+02 -0.82170888887E+01  0.26101946519E+02  0.51100000000E-03 0.  1.
        -12    1    3    3    0    0  0.14057239291E+01  0.10571205583E+02  0.36623685956E+01  0.11275610448E+02  0.00000000000E+00 0.  1.
</event>
<event>
 7    1  0.4519840E-010  0.4778726E+02  0.7816164E-02  0.1312668E+00
        -11   -1    0    0    0    0  0.00000000000E+00  0.00000000000E+00  0.45593999997E+02  0.45594000000E+02  0.51100000000E-03 0.  1.
         11   -1    0    0    0    0 -0.00000000000E+00 -0.00000000000E+00 -0.45593999997E+02  0.45594000000E+02  0.51100000000E-03 0. -1.
    9900012    2    1    2    0    0 -0.40208643965E+02  0.39698097523E+01  0.15847063758E+02  0.47787264192E+02  0.19999968756E+02 0.  0.
        -12    1    1    2    0    0  0.40208643965E+02 -0.39698097523E+01 -0.15847063758E+02  0.43400735808E+02  0.00000000000E+00 0.  1.
         11    1    3    3    0    0 -0.11362686293E+02  0.56554802677E+01 -0.10852389302E+01  0.12738635745E+02  0.51100000000E-03 0. -1.
        -11    1    3    3    0    0 -0.67100516119E+01 -0.33814215116E+01  0.69968438080E+00  0.75464138879E+01  0.51100000000E-03 0.  1.
        -12    1    3    3    0    0 -0.22135906060E+02  0.16957509962E+01  0.16232618307E+02  0.27502214559E+02  0.00000000000E+00 0.  1.
</event>
<event>
 7    1  0.4519840E-010  0.4778728E+02  0.7816164E-02  0.1312668E+00
        -11   -1    0    0    0    0  0.00000000000E+00  0.00000000000E+00  0.45593999997E+02  0.45594000000E+02  0.51100000000E-03 0. -1.
         11   -1    0    0    0    0 -0.00000000000E+00 -0.00000000000E+00 -0.45593999997E+02  0.45594000000E+02  0.51100000000E-03 0.  1.
    9900012    2    1    2    0    0 -0.85671565749E+01  0.35994030357E+02  0.22686042419E+02  0.47787275193E+02  0.20000018915E+02 0.  0.
        -12    1    1    2    0    0  0.85671565749E+01 -0.35994030357E+02 -0.22686042419E+02  0.43400724807E+02  0.00000000000E+00 0.  1.
         11    1    3    3    0    0  0.30986380851E+01  0.30805686122E+01  0.17698584893E+01  0.47142189480E+01  0.51100000000E-03 0. -1.
        -11    1    3    3    0    0 -0.23722869685E+01 -0.92820839176E+00  0.16914628808E+01  0.30578363621E+01  0.51100000000E-03 0.  1.
        -12    1    3    3    0    0 -0.92935076915E+01  0.33841670137E+02  0.19224721049E+02  0.40015219883E+02  0.00000000000E+00 0.  1.
</event>
<event>
 7    1  0.4519840E-010  0.4778727E+02  0.7816164E-02  0.1312668E+00
        -11   -1    0    0    0    0  0.00000000000E+00  0.00000000000E+00  0.45593999997E+02  0.45594000000E+02  0.51100000000E-03 0. -1.
         11   -1    0    0    0    0 -0.00000000000E+00 -0.00000000000E+00 -0.45593999997E+02  0.45594000000E+02  0.51100000000E-03 0.  1.
    9900012    2    1    2    0    0  0.58191626910E+01  0.96349563555E+00  0.42998052209E+02  0.47787268762E+02  0.19999989593E+02 0.  0.
        -12    1    1    2    0    0 -0.58191626910E+01 -0.96349563555E+00 -0.42998052209E+02  0.43400731238E+02  0.00000000000E+00 0.  1.
         11    1    3    3    0    0  0.28023901424E+01  0.72427409982E+00  0.16334075502E+02  0.16588549854E+02  0.51100000000E-03 0. -1.
        -11    1    3    3    0    0 -0.20501139866E+00  0.78182145346E+01  0.10931571077E+02  0.13441196177E+02  0.51100000000E-03 0.  1.
         12    1    3    3    0    0  0.32217839473E+01 -0.75789929989E+01  0.15732405629E+02  0.17757522731E+02  0.00000000000E+00 0. -1.
</event>
<event>
 7    1  0.4519840E-010  0.4778728E+02  0.7816164E-02  0.1312668E+00
        -11   -1    0    0    0    0  0.00000000000E+00  0.00000000000E+00  0.45593999997E+02  0.45594000000E+02  0.51100000000E-03 0. -1.
         11   -1    0    0    0    0 -0.00000000000E+00 -0.00000000000E+00 -0.45593999997E+02  0.45594000000E+02  0.51100000000E-03 0.  1.
    9900012    2    1    2    0    0  0.97303361381E+01  0.72206939314E+01  0.41674990651E+02  0.47787277564E+02  0.20000029726E+02 0.  0.
        -12    1    1    2    0    0 -0.97303361381E+01 -0.72206939314E+01 -0.41674990651E+02  0.43400722436E+02  0.00000000000E+00 0.  1.
         11    1    3    3    0    0 -0.29227891132E+01  0.48509900763E+00  0.15484433115E+02  0.15765331789E+02  0.51100000000E-03 0. -1.
        -11    1    3    3    0    0 -0.96141021758E+00 -0.18779259278E+01  0.17091589364E+01  0.27151684898E+01  0.51100000000E-03 0.  1.
        -12    1    3    3    0    0  0.13614535469E+02  0.86135208516E+01  0.24481398599E+02  0.29306777286E+02  0.00000000000E+00 0.  1.
</event>
<event>
 7    1  0.4519840E-010  0.4778727E+02  0.7816164E-02  0.1312668E+00
        -11   -1    0    0    0    0  0.00000000000E+00  0.00000000000E+00  0.45593999997E+02  0.45594000000E+02  0.51100000000E-03 0. -1.
         11   -1    0    0    0    0 -0.00000000000E+00 -0.00000000000E+00 -0.45593999997E+02  0.45594000000E+02  0.51100000000E-03 0.  1.
    9900012    2    1    2    0    0 -0.38200090271E+02  0.97297443362E+01  0.18157871891E+02  0.47787272665E+02  0.20000007388E+02 0.  0.
        -12    1    1    2    0    0  0.38200090271E+02 -0.97297443362E+01 -0.18157871891E+02  0.43400727335E+02  0.00000000000E+00 0.  1.
         11    1    3    3    0    0 -0.16297865955E+02  0.10002301483E+02  0.64461528557E+01  0.20179676820E+02  0.51100000000E-03 0. -1.
        -11    1    3    3    0    0 -0.22293634333E+02  0.21664260842E+01  0.11352808143E+02  0.25111467236E+02  0.51100000000E-03 0.  1.
        -12    1    3    3    0    0  0.39141001667E+00 -0.24389832312E+01  0.35891089254E+00  0.24961286089E+01  0.00000000000E+00 0.  1.
</event>
<event>
 7    1  0.4519840E-010  0.4778727E+02  0.7816164E-02  0.1312668E+00
        -11   -1    0    0    0    0  0.00000000000E+00  0.00000000000E+00  0.45593999997E+02  0.45594000000E+02  0.51100000000E-03 0. -1.
         11   -1    0    0    0    0 -0.00000000000E+00 -0.00000000000E+00 -0.45593999997E+02  0.45594000000E+02  0.51100000000E-03 0.  1.
    9900012    2    1    2    0    0 -0.69989014125E+01  0.26805662697E+01 -0.42748724400E+02  0.47787268505E+02  0.19999988422E+02 0.  0.
         12    1    1    2    0    0  0.69989014125E+01 -0.26805662697E+01  0.42748724400E+02  0.43400731495E+02  0.00000000000E+00 0. -1.
         11    1    3    3    0    0  0.26204007517E+01  0.24190573491E+01 -0.11653677360E+02  0.12187146295E+02  0.51100000000E-03 0. -1.
        -11    1    3    3    0    0 -0.92942032529E+01  0.59977987167E+01 -0.24316641919E+02  0.26714319719E+02  0.51100000000E-03 0.  1.
         12    1    3    3    0    0 -0.32509891132E+00 -0.57362897961E+01 -0.67784051204E+01  0.88858024907E+01  0.00000000000E+00 0. -1.
</event>
<event>
 7    1  0.4519840E-010  0.4778729E+02  0.7816164E-02  0.1312668E+00
        -11   -1    0    0    0    0  0.00000000000E+00  0.00000000000E+00  0.45593999997E+02  0.45594000000E+02  0.51100000000E-03 0. -1.
         11   -1    0    0    0    0 -0.00000000000E+00 -0.00000000000E+00 -0.45593999997E+02  0.45594000000E+02  0.51100000000E-03 0.  1.
    9900012    2    1    2    0    0  0.69751979904E+01 -0.38702042391E+02  0.18360821364E+02  0.47787294552E+02  0.20000107179E+02 0.  0.
        -12    1    1    2    0    0 -0.69751979904E+01  0.38702042391E+02 -0.18360821364E+02  0.43400705448E+02  0.00000000000E+00 0.  1.
         11    1    3    3    0    0 -0.93653572501E+00 -0.14830776767E+02  0.63180242733E+01  0.16147645948E+02  0.51100000000E-03 0. -1.
        -11    1    3    3    0    0 -0.44954466933E+01 -0.63123067165E+01  0.35297774827E+01  0.85154909661E+01  0.51100000000E-03 0.  1.
         12    1    3    3    0    0  0.12407180409E+02 -0.17558958907E+02  0.85130196084E+01  0.23124157638E+02  0.00000000000E+00 0. -1.
</event>
<event>
 7    1  0.4519840E-010  0.4778727E+02  0.7816164E-02  0.1312668E+00
        -11   -1    0    0    0    0  0.00000000000E+00  0.00000000000E+00  0.45593999997E+02  0.45594000000E+02  0.51100000000E-03 0. -1.
         11   -1    0    0    0    0 -0.00000000000E+00 -0.00000000000E+00 -0.45593999997E+02  0.45594000000E+02  0.51100000000E-03 0.  1.
    9900012    2    1    2    0    0 -0.30123835898E+02 -0.14785961624E+02  0.27523678965E+02  0.47787273576E+02  0.20000011541E+02 0.  0.
        -12    1    1    2    0    0  0.30123835898E+02  0.14785961624E+02 -0.27523678965E+02  0.43400726424E+02  0.00000000000E+00 0.  1.
         11    1    3    3    0    0 -0.55567675362E+01 -0.14828117260E+01  0.11413035215E+02  0.12780210059E+02  0.51100000000E-03 0. -1.
        -11    1    3    3    0    0 -0.51522619245E+00 -0.58871466004E+01  0.31598158608E+01  0.67013722221E+01  0.51100000000E-03 0.  1.
        -12    1    3    3    0    0 -0.24051842170E+02 -0.74160032978E+01  0.12950827889E+02  0.28305691295E+02  0.00000000000E+00 0.  1.
</event>
<event>
 7    1  0.4519840E-010  0.4778728E+02  0.7816164E-02  0.1312668E+00
        -11   -1    0    0    0    0  0.00000000000E+00  0.00000000000E+00  0.45593999997E+02  0.45594000000E+02  0.51100000000E-03 0. -1.
         11   -1    0    0    0    0 -0.00000000000E+00 -0.00000000000E+00 -0.45593999997E+02  0.45594000000E+02  0.51100000000E-03 0.  1.
    9900012    2    1    2    0    0 -0.10209251457E+02  0.14349883545E+02  0.39667051202E+02  0.47787275073E+02  0.20000018369E+02 0.  0.
        -12    1    1    2    0    0  0.10209251457E+02 -0.14349883545E+02 -0.39667051202E+02  0.43400724927E+02  0.00000000000E+00 0.  1.
         11    1    3    3    0    0 -0.10074438144E+02  0.11880414559E+02  0.31710866210E+02  0.35330122984E+02  0.51100000000E-03 0. -1.
        -11    1    3    3    0    0 -0.57208891459E+00  0.32721645434E+01  0.98279332817E+01  0.10374132223E+02  0.51100000000E-03 0.  1.
        -12    1    3    3    0    0  0.43727560163E+00 -0.80269555659E+00 -0.18717482891E+01  0.20830198670E+01  0.00000000000E+00 0.  1.
</event>
<event>
 7    1  0.4519840E-010  0.4778727E+02  0.7816164E-02  0.1312668E+00
        -11   -1    0    0    0    0  0.00000000000E+00  0.00000000000E+00  0.45593999997E+02  0.45594000000E+02  0.51100000000E-03 0.  1.
         11   -1    0    0    0    0 -0.00000000000E+00 -0.00000000000E+00 -0.45593999997E+02  0.45594000000E+02  0.51100000000E-03 0. -1.
    9900012    2    1    2    0    0 -0.18155892922E+02 -0.33723521947E+02  0.20413497782E+02  0.47787271066E+02  0.20000000099E+02 0.  0.
        -12    1    1    2    0    0  0.18155892922E+02  0.33723521947E+02 -0.20413497782E+02  0.43400728934E+02  0.00000000000E+00 0.  1.
         11    1    3    3    0    0 -0.27526984652E+01 -0.94983591173E+01  0.60008071339E+00  0.99073847147E+01  0.51100000000E-03 0. -1.
        -11    1    3    3    0    0 -0.25941453792E+01 -0.12745810156E+01 -0.21707043142E+01  0.36147066955E+01  0.51100000000E-03 0.  1.
        -12    1    3    3    0    0 -0.12809049077E+02 -0.22950581814E+02  0.21984121383E+02  0.34265179656E+02  0.00000000000E+00 0.  1.
</event>
<event>
 7    1  0.4519840E-010  0.4778727E+02  0.7816164E-02  0.1312668E+00
        -11   -1    0    0    0    0  0.00000000000E+00  0.00000000000E+00  0.45593999997E+02  0.45594000000E+02  0.51100000000E-03 0. -1.
         11   -1    0    0    0    0 -0.00000000000E+00 -0.00000000000E+00 -0.45593999997E+02  0.45594000000E+02  0.51100000000E-03 0.  1.
    9900012    2    1    2    0    0  0.26996491640E+02  0.38547629445E+01 -0.33763195693E+02  0.47787272568E+02  0.20000006945E+02 0.  0.
         12    1    1    2    0    0 -0.26996491640E+02 -0.38547629445E+01  0.33763195693E+02  0.43400727432E+02  0.00000000000E+00 0. -1.
         11    1    3    3    0    0  0.19716711933E+02  0.49582471793E+01 -0.11859018884E+02  0.23536551865E+02  0.51100000000E-03 0. -1.
        -11    1    3    3    0    0  0.20812141899E+00  0.14659389944E+01 -0.50023232926E+00  0.15628577366E+01  0.51100000000E-03 0.  1.
        -12    1    3    3    0    0  0.70716582885E+01 -0.25694232292E+01 -0.21403944480E+02  0.22687862967E+02  0.00000000000E+00 0.  1.
</event>
<event>
 7    1  0.4519840E-010  0.4778727E+02  0.7816164E-02  0.1312668E+00
        -11   -1    0    0    0    0  0.00000000000E+00  0.00000000000E+00  0.45593999997E+02  0.45594000000E+02  0.51100000000E-03 0. -1.
         11   -1    0    0    0    0 -0.00000000000E+00 -0.00000000000E+00 -0.45593999997E+02  0.45594000000E+02  0.51100000000E-03 0.  1.
    9900012    2    1    2    0    0 -0.25526357473E+02 -0.12821893559E+02  0.32674570539E+02  0.47787269128E+02  0.19999991264E+02 0.  0.
        -12    1    1    2    0    0  0.25526357473E+02  0.12821893559E+02 -0.32674570539E+02  0.43400730872E+02  0.00000000000E+00 0.  1.
         11    1    3    3    0    0 -0.11749232675E+02  0.93387837170E+00  0.85429533534E+01  0.14556738973E+02  0.51100000000E-03 0. -1.
        -11    1    3    3    0    0  0.81154764460E+00  0.15185254494E+01  0.19426916767E+01  0.25958775649E+01  0.51100000000E-03 0.  1.
        -12    1    3    3    0    0 -0.14588672442E+02 -0.15274297381E+02  0.22188925509E+02  0.30634652590E+02  0.00000000000E+00 0.  1.
</event>
<event>
 7    1  0.4519840E-010  0.4778727E+02  0.7816164E-02  0.1312668E+00
        -11   -1    0    0    0    0  0.00000000000E+00  0.00000000000E+00  0.45593999997E+02  0.45594000000E+02  0.51100000000E-03 0. -1.
         11   -1    0    0    0    0 -0.00000000000E+00 -0.00000000000E+00 -0.45593999997E+02  0.45594000000E+02  0.51100000000E-03 0.  1.
    9900012    2    1    2    0    0 -0.30624833054E+02  0.13667942918E+02 -0.27548690016E+02  0.47787269767E+02  0.19999994174E+02 0.  0.
         12    1    1    2    0    0  0.30624833054E+02 -0.13667942918E+02  0.27548690016E+02  0.43400730233E+02  0.00000000000E+00 0. -1.
         11    1    3    3    0    0 -0.12670377463E+02  0.25599452136E+01 -0.12393641484E+01  0.12985677045E+02  0.51100000000E-03 0. -1.
        -11    1    3    3    0    0 -0.79986714993E+01  0.94224810374E+01 -0.11533569750E+02  0.16905180452E+02  0.51100000000E-03 0.  1.
        -12    1    3    3    0    0 -0.99557840913E+01  0.16855166669E+01 -0.14775756117E+02  0.17896412270E+02  0.00000000000E+00 0.  1.
</event>
<event>
 7    1  0.4519840E-010  0.4778727E+02  0.7816164E-02  0.1312668E+00
        -11   -1    0    0    0    0  0.00000000000E+00  0.00000000000E+00  0.45593999997E+02  0.45594000000E+02  0.51100000000E-03 0. -1.
         11   -1    0    0    0    0 -0.00000000000E+00 -0.00000000000E+00 -0.45593999997E+02  0.45594000000E+02  0.51100000000E-03 0.  1.
    9900012    2    1    2    0    0 -0.43990819296E+01 -0.54197959744E+01 -0.42835702863E+02  0.47787267864E+02  0.19999985498E+02 0.  0.
         12    1    1    2    0    0  0.43990819296E+01  0.54197959744E+01  0.42835702863E+02  0.43400732136E+02  0.00000000000E+00 0. -1.
         11    1    3    3    0    0  0.36850187952E+01  0.26235650377E+01 -0.25841781225E+01  0.52096481510E+01  0.51100000000E-03 0. -1.
        -11    1    3    3    0    0 -0.45371212726E+01  0.37218169829E+00 -0.10216176458E+02  0.11184554096E+02  0.51100000000E-03 0.  1.
        -12    1    3    3    0    0 -0.35469794522E+01 -0.84155427103E+01 -0.30035348282E+02  0.31393065616E+02  0.00000000000E+00 0.  1.
</event>
<event>
 7    1  0.4519840E-010  0.4778727E+02  0.7816164E-02  0.1312668E+00
        -11   -1    0    0    0    0  0.00000000000E+00  0.00000000000E+00  0.45593999997E+02  0.45594000000E+02  0.51100000000E-03 0. -1.
         11   -1    0    0    0    0 -0.00000000000E+00 -0.00000000000E+00 -0.45593999997E+02  0.45594000000E+02  0.51100000000E-03 0.  1.
    9900012    2    1    2    0    0 -0.25963895551E+02 -0.26320337826E+02  0.22731900410E+02  0.47787270148E+02  0.19999995912E+02 0.  0.
        -12    1    1    2    0    0  0.25963895551E+02  0.26320337826E+02 -0.22731900410E+02  0.43400729852E+02  0.00000000000E+00 0.  1.
         11    1    3    3    0    0 -0.67418566332E+01 -0.63720194237E+01  0.18486912824E+01  0.94590127454E+01  0.51100000000E-03 0.  1.
        -11    1    3    3    0    0 -0.19183680711E+02 -0.90001590522E+01  0.13608279333E+02  0.25183362271E+02  0.51100000000E-03 0. -1.
         12    1    3    3    0    0 -0.38358206432E-01 -0.10948159350E+02  0.72749297938E+01  0.13144895131E+02  0.00000000000E+00 0. -1.
</event>
<event>
 7    1  0.4519840E-010  0.4778727E+02  0.7816164E-02  0.1312668E+00
        -11   -1    0    0    0    0  0.00000000000E+00  0.00000000000E+00  0.45593999997E+02  0.45594000000E+02  0.51100000000E-03 0. -1.
         11   -1    0    0    0    0 -0.00000000000E+00 -0.00000000000E+00 -0.45593999997E+02  0.45594000000E+02  0.51100000000E-03 0.  1.
    9900012    2    1    2    0    0 -0.27044462216E+01  0.20266911303E+02  0.38282654369E+02  0.47787270182E+02  0.19999996070E+02 0.  0.
        -12    1    1    2    0    0  0.27044462216E+01 -0.20266911303E+02 -0.38282654369E+02  0.43400729818E+02  0.00000000000E+00 0.  1.
         11    1    3    3    0    0 -0.16798238134E+01  0.65500831036E+01  0.49175390233E+01  0.83610757092E+01  0.51100000000E-03 0.  1.
        -11    1    3    3    0    0 -0.23773751426E+00  0.15603720206E+01 -0.16913751103E+01  0.23134454809E+01  0.51100000000E-03 0. -1.
         12    1    3    3    0    0 -0.78688489403E+00  0.12156456179E+02  0.35056490456E+02  0.37112748992E+02  0.00000000000E+00 0. -1.
</event>
<event>
 7    1  0.5180414E-010  0.4778727E+02  0.7816164E-02  0.1312668E+00
        -11   -1    0    0    0    0  0.00000000000E+00  0.00000000000E+00  0.45593999997E+02  0.45594000000E+02  0.51100000000E-03 0. -1.
         11   -1    0    0    0    0 -0.00000000000E+00 -0.00000000000E+00 -0.45593999997E+02  0.45594000000E+02  0.51100000000E-03 0.  1.
    9900012    2    1    2    0    0 -0.25522670167E+02  0.11150899084E+02 -0.33284741548E+02  0.47787271173E+02  0.20000000585E+02 0.  0.
         12    1    1    2    0    0  0.25522670167E+02 -0.11150899084E+02  0.33284741548E+02  0.43400728827E+02  0.00000000000E+00 0. -1.
         11    1    3    3    0    0 -0.83122318625E+01  0.24624858517E+01 -0.31880773570E+01  0.92369298255E+01  0.51100000000E-03 0. -1.
        -11    1    3    3    0    0  0.10966834713E+01 -0.24244551338E+01 -0.29439585575E+01  0.39683232708E+01  0.51100000000E-03 0.  1.
        -12    1    3    3    0    0 -0.18307121776E+02  0.11112868366E+02 -0.27152705633E+02  0.34582018076E+02  0.00000000000E+00 0.  1.
</event>
<event>
 7    1  0.4519840E-010  0.4778727E+02  0.7816164E-02  0.1312668E+00
        -11   -1    0    0    0    0  0.00000000000E+00  0.00000000000E+00  0.45593999997E+02  0.45594000000E+02  0.51100000000E-03 0. -1.
         11   -1    0    0    0    0 -0.00000000000E+00 -0.00000000000E+00 -0.45593999997E+02  0.45594000000E+02  0.51100000000E-03 0.  1.
    9900012    2    1    2    0    0  0.26097665842E+02 -0.48652326633E+01 -0.34334597469E+02  0.47787271497E+02  0.20000002062E+02 0.  0.
         12    1    1    2    0    0 -0.26097665842E+02  0.48652326633E+01  0.34334597469E+02  0.43400728503E+02  0.00000000000E+00 0. -1.
         11    1    3    3    0    0 -0.10705617060E+01  0.14391779378E+01  0.17222649273E+00  0.18019427652E+01  0.51100000000E-03 0. -1.
        -11    1    3    3    0    0 -0.34091174997E+00  0.15991969333E+01 -0.30161797069E+01  0.34308879227E+01  0.51100000000E-03 0.  1.
        -12    1    3    3    0    0  0.27509139298E+02 -0.79036075344E+01 -0.31490644254E+02  0.42554440809E+02  0.00000000000E+00 0.  1.
</event>
<event>
 7    1  0.4519840E-010  0.4778727E+02  0.7816164E-02  0.1312668E+00
        -11   -1    0    0    0    0  0.00000000000E+00  0.00000000000E+00  0.45593999997E+02  0.45594000000E+02  0.51100000000E-03 0. -1.
         11   -1    0    0    0    0 -0.00000000000E+00 -0.00000000000E+00 -0.45593999997E+02  0.45594000000E+02  0.51100000000E-03 0.  1.
    9900012    2    1    2    0    0 -0.19244654335E+02  0.25592907087E+02 -0.29296239725E+02  0.47787271024E+02  0.19999999906E+02 0.  0.
         12    1    1    2    0    0  0.19244654335E+02 -0.25592907087E+02  0.29296239725E+02  0.43400728976E+02  0.00000000000E+00 0. -1.
         11    1    3    3    0    0 -0.18161716522E+02  0.18829159969E+02 -0.30955999739E+02  0.40529731460E+02  0.51100000000E-03 0. -1.
        -11    1    3    3    0    0  0.48648436638E-01  0.10269928000E+01 -0.33185516928E+00  0.10803744703E+01  0.51100000000E-03 0.  1.
         12    1    3    3    0    0 -0.11315862494E+01  0.57367543187E+01  0.19916151829E+01  0.61771650933E+01  0.00000000000E+00 0. -1.
</event>
<event>
 7    1  0.4519840E-010  0.4778727E+02  0.7816164E-02  0.1312668E+00
        -11   -1    0    0    0    0  0.00000000000E+00  0.00000000000E+00  0.45593999997E+02  0.45594000000E+02  0.51100000000E-03 0. -1.
         11   -1    0    0    0    0 -0.00000000000E+00 -0.00000000000E+00 -0.45593999997E+02  0.45594000000E+02  0.51100000000E-03 0.  1.
    9900012    2    1    2    0    0  0.13129516925E+02 -0.87254058588E+01 -0.40436450574E+02  0.47787268934E+02  0.19999990376E+02 0.  0.
         12    1    1    2    0    0 -0.13129516925E+02  0.87254058588E+01  0.40436450574E+02  0.43400731066E+02  0.00000000000E+00 0. -1.
         11    1    3    3    0    0 -0.20828785788E+01 -0.34175728050E+01 -0.81994192380E+01  0.91240705364E+01  0.51100000000E-03 0. -1.
        -11    1    3    3    0    0  0.13229781402E+01  0.39050846007E+01 -0.10435656837E+02  0.11220645738E+02  0.51100000000E-03 0.  1.
        -12    1    3    3    0    0  0.13889417364E+02 -0.92129176546E+01 -0.21801374499E+02  0.27442552660E+02  0.00000000000E+00 0.  1.
</event>
<event>
 7    1  0.4519840E-010  0.4778727E+02  0.7816164E-02  0.1312668E+00
        -11   -1    0    0    0    0  0.00000000000E+00  0.00000000000E+00  0.45593999997E+02  0.45594000000E+02  0.51100000000E-03 0. -1.
         11   -1    0    0    0    0 -0.00000000000E+00 -0.00000000000E+00 -0.45593999997E+02  0.45594000000E+02  0.51100000000E-03 0.  1.
    9900012    2    1    2    0    0  0.75806789227E+01  0.14707844280E+02  0.40122761873E+02  0.47787269630E+02  0.19999993552E+02 0.  0.
        -12    1    1    2    0    0 -0.75806789227E+01 -0.14707844280E+02 -0.40122761873E+02  0.43400730370E+02  0.00000000000E+00 0.  1.
         11    1    3    3    0    0 -0.48345942535E+00  0.29617862536E+00 -0.11065287998E+01  0.12433266023E+01  0.51100000000E-03 0. -1.
        -11    1    3    3    0    0  0.90279052376E+01  0.40316521850E+01  0.12223258557E+02  0.15721493005E+02  0.51100000000E-03 0.  1.
         12    1    3    3    0    0 -0.96376688951E+00  0.10380013470E+02  0.29006032116E+02  0.30822450023E+02  0.00000000000E+00 0. -1.
</event>
<event>
 7    1  0.4519840E-010  0.4778727E+02  0.7816164E-02  0.1312668E+00
        -11   -1    0    0    0    0  0.00000000000E+00  0.00000000000E+00  0.45593999997E+02  0.45594000000E+02  0.51100000000E-03 0. -1.
         11   -1    0    0    0    0 -0.00000000000E+00 -0.00000000000E+00 -0.45593999997E+02  0.45594000000E+02  0.51100000000E-03 0.  1.
    9900012    2    1    2    0    0 -0.10195922247E+02  0.14229695665E+02  0.39713752388E+02  0.47787271919E+02  0.20000003988E+02 0.  0.
        -12    1    1    2    0    0  0.10195922247E+02 -0.14229695665E+02 -0.39713752388E+02  0.43400728081E+02  0.00000000000E+00 0.  1.
         11    1    3    3    0    0 -0.65817104394E+01  0.32456179519E+01  0.67441091444E+01  0.99667425276E+01  0.51100000000E-03 0. -1.
        -11    1    3    3    0    0 -0.10760816371E+01 -0.16266245917E+01 -0.45784733574E+00  0.20033680880E+01  0.51100000000E-03 0.  1.
         12    1    3    3    0    0 -0.25381301700E+01  0.12610702305E+02  0.33427490580E+02  0.35817161304E+02  0.00000000000E+00 0. -1.
</event>
<event>
 7    1  0.4519840E-010  0.4778727E+02  0.7816164E-02  0.1312668E+00
        -11   -1    0    0    0    0  0.00000000000E+00  0.00000000000E+00  0.45593999997E+02  0.45594000000E+02  0.51100000000E-03 0. -1.
         11   -1    0    0    0    0 -0.00000000000E+00 -0.00000000000E+00 -0.45593999997E+02  0.45594000000E+02  0.51100000000E-03 0.  1.
    9900012    2    1    2    0    0 -0.15803087170E+02  0.35186455764E+02 -0.19894694270E+02  0.47787273123E+02  0.20000009477E+02 0.  0.
         12    1    1    2    0    0  0.15803087170E+02 -0.35186455764E+02  0.19894694270E+02  0.43400726877E+02  0.00000000000E+00 0. -1.
         11    1    3    3    0    0 -0.33483744467E+01 -0.17631690126E+01 -0.39310785504E-03  0.37842273740E+01  0.51100000000E-03 0. -1.
        -11    1    3    3    0    0 -0.55465699593E+01  0.10081047765E+02 -0.59229515645E+01  0.12941148243E+02  0.51100000000E-03 0.  1.
         12    1    3    3    0    0 -0.69081427639E+01  0.26868577012E+02 -0.13971349598E+02  0.31061897506E+02  0.00000000000E+00 0. -1.
</event>
<event>
 7    1  0.4519840E-010  0.4778727E+02  0.7816164E-02  0.1312668E+00
        -11   -1    0    0    0    0  0.00000000000E+00  0.00000000000E+00  0.45593999997E+02  0.45594000000E+02  0.51100000000E-03 0. -1.
         11   -1    0    0    0    0 -0.00000000000E+00 -0.00000000000E+00 -0.45593999997E+02  0.45594000000E+02  0.51100000000E-03 0.  1.
    9900012    2    1    2    0    0  0.11307043549E+02  0.35586023274E+02  0.22122585860E+02  0.47787273146E+02  0.20000009584E+02 0.  0.
        -12    1    1    2    0    0 -0.11307043549E+02 -0.35586023274E+02 -0.22122585860E+02  0.43400726854E+02  0.00000000000E+00 0.  1.
         11    1    3    3    0    0  0.81665341970E+01  0.11199627066E+02  0.44083487957E+01  0.14545015180E+02  0.51100000000E-03 0. -1.
        -11    1    3    3    0    0  0.73601480622E+01  0.13963663499E+02  0.56883793014E+01  0.16778359191E+02  0.51100000000E-03 0.  1.
         12    1    3    3    0    0 -0.42196387102E+01  0.10422732709E+02  0.12025857763E+02  0.16463898776E+02  0.00000000000E+00 0. -1.
</event>
<event>
 7    1  0.4519840E-010  0.4778727E+02  0.7816164E-02  0.1312668E+00
        -11   -1    0    0    0    0  0.00000000000E+00  0.00000000000E+00  0.45593999997E+02  0.45594000000E+02  0.51100000000E-03 0.  1.
         11   -1    0    0    0    0 -0.00000000000E+00 -0.00000000000E+00 -0.45593999997E+02  0.45594000000E+02  0.51100000000E-03 0. -1.
    9900012    2    1    2    0    0  0.30161558159E+02 -0.30440425724E+02 -0.68763501071E+01  0.47787270748E+02  0.19999998646E+02 0.  0.
         12    1    1    2    0    0 -0.30161558159E+02  0.30440425724E+02  0.68763501071E+01  0.43400729252E+02  0.00000000000E+00 0. -1.
         11    1    3    3    0    0  0.19655018954E+02 -0.12273708359E+02 -0.20460904367E+01  0.23262634703E+02  0.51100000000E-03 0. -1.
        -11    1    3    3    0    0  0.12386872265E+02 -0.14235635653E+02 -0.12974543436E+01  0.18914843774E+02  0.51100000000E-03 0.  1.
         12    1    3    3    0    0 -0.18803330604E+01 -0.39310817125E+01 -0.35328053268E+01  0.56097922712E+01  0.00000000000E+00 0. -1.
</event>
<event>
 7    1  0.4519840E-010  0.4778727E+02  0.7816164E-02  0.1312668E+00
        -11   -1    0    0    0    0  0.00000000000E+00  0.00000000000E+00  0.45593999997E+02  0.45594000000E+02  0.51100000000E-03 0. -1.
         11   -1    0    0    0    0 -0.00000000000E+00 -0.00000000000E+00 -0.45593999997E+02  0.45594000000E+02  0.51100000000E-03 0.  1.
    9900012    2    1    2    0    0  0.10341551067E+01  0.38261753917E+02 -0.20459531795E+02  0.47787265780E+02  0.19999975996E+02 0.  0.
         12    1    1    2    0    0 -0.10341551067E+01 -0.38261753917E+02  0.20459531795E+02  0.43400734220E+02  0.00000000000E+00 0. -1.
         11    1    3    3    0    0 -0.18832824357E+01  0.80176705143E+01  0.25465276701E+01  0.86205914324E+01  0.51100000000E-03 0. -1.
        -11    1    3    3    0    0  0.19247375983E+00  0.23119100750E+02 -0.12805855165E+02  0.26429525013E+02  0.51100000000E-03 0.  1.
        -12    1    3    3    0    0  0.27249637826E+01  0.71249826531E+01 -0.10200204299E+02  0.12737149335E+02  0.00000000000E+00 0.  1.
</event>
<event>
 7    1  0.4519840E-010  0.4778726E+02  0.7816164E-02  0.1312668E+00
        -11   -1    0    0    0    0  0.00000000000E+00  0.00000000000E+00  0.45593999997E+02  0.45594000000E+02  0.51100000000E-03 0.  1.
         11   -1    0    0    0    0 -0.00000000000E+00 -0.00000000000E+00 -0.45593999997E+02  0.45594000000E+02  0.51100000000E-03 0. -1.
    9900012    2    1    2    0    0 -0.41337012913E+02  0.95415200221E+01  0.91561389680E+01  0.47787261277E+02  0.19999955466E+02 0.  0.
        -12    1    1    2    0    0  0.41337012913E+02 -0.95415200221E+01 -0.91561389680E+01  0.43400738723E+02  0.00000000000E+00 0.  1.
         11    1    3    3    0    0 -0.16634491094E+02  0.13723872770E+01  0.36739088199E+01  0.17090563100E+02  0.51100000000E-03 0. -1.
        -11    1    3    3    0    0 -0.19158891921E+02  0.12021094990E+02  0.71905286582E+01  0.23733385073E+02  0.51100000000E-03 0.  1.
        -12    1    3    3    0    0 -0.55436298987E+01 -0.38519622445E+01 -0.17082985101E+01  0.69633131042E+01  0.00000000000E+00 0.  1.
</event>
<event>
 7    1  0.4519840E-010  0.4778727E+02  0.7816164E-02  0.1312668E+00
        -11   -1    0    0    0    0  0.00000000000E+00  0.00000000000E+00  0.45593999997E+02  0.45594000000E+02  0.51100000000E-03 0. -1.
         11   -1    0    0    0    0 -0.00000000000E+00 -0.00000000000E+00 -0.45593999997E+02  0.45594000000E+02  0.51100000000E-03 0.  1.
    9900012    2    1    2    0    0 -0.20219188561E+02  0.15131966155E+01  0.38373400034E+02  0.47787272123E+02  0.20000004919E+02 0.  0.
        -12    1    1    2    0    0  0.20219188561E+02 -0.15131966155E+01 -0.38373400034E+02  0.43400727877E+02  0.00000000000E+00 0.  1.
         11    1    3    3    0    0 -0.16562982840E+02 -0.17907095376E+01  0.34093317237E+02  0.37945926286E+02  0.51100000000E-03 0. -1.
        -11    1    3    3    0    0 -0.22212852462E+01 -0.21991218429E+01  0.10296857862E+01  0.32909722126E+01  0.51100000000E-03 0.  1.
         12    1    3    3    0    0 -0.14349204739E+01  0.55030279960E+01  0.32503970110E+01  0.65503736245E+01  0.00000000000E+00 0. -1.
</event>
<event>
 7    1  0.4519840E-010  0.4778728E+02  0.7816164E-02  0.1312668E+00
        -11   -1    0    0    0    0  0.00000000000E+00  0.00000000000E+00  0.45593999997E+02  0.45594000000E+02  0.51100000000E-03 0. -1.
         11   -1    0    0    0    0 -0.00000000000E+00 -0.00000000000E+00 -0.45593999997E+02  0.45594000000E+02  0.51100000000E-03 0.  1.
    9900012    2    1    2    0    0 -0.36603324435E+02  0.95229769619E+01  0.21286904305E+02  0.47787277140E+02  0.20000027791E+02 0.  0.
        -12    1    1    2    0    0  0.36603324435E+02 -0.95229769619E+01 -0.21286904305E+02  0.43400722860E+02  0.00000000000E+00 0.  1.
         11    1    3    3    0    0 -0.56415015006E+01  0.21383288959E+01  0.92093414188E+01  0.11009584882E+02  0.51100000000E-03 0. -1.
        -11    1    3    3    0    0  0.21314336523E+00  0.17803655054E+01 -0.14785255667E+01  0.23240416389E+01  0.51100000000E-03 0.  1.
         12    1    3    3    0    0 -0.31174966300E+02  0.56042825606E+01  0.13556088452E+02  0.34453650619E+02  0.00000000000E+00 0. -1.
</event>
<event>
 7    1  0.4519840E-010  0.4778727E+02  0.7816164E-02  0.1312668E+00
        -11   -1    0    0    0    0  0.00000000000E+00  0.00000000000E+00  0.45593999997E+02  0.45594000000E+02  0.51100000000E-03 0. -1.
         11   -1    0    0    0    0 -0.00000000000E+00 -0.00000000000E+00 -0.45593999997E+02  0.45594000000E+02  0.51100000000E-03 0.  1.
    9900012    2    1    2    0    0  0.12497862887E+02 -0.13524588689E+02  0.39300284713E+02  0.47787268964E+02  0.19999990516E+02 0.  0.
        -12    1    1    2    0    0 -0.12497862887E+02  0.13524588689E+02 -0.39300284713E+02  0.43400731036E+02  0.00000000000E+00 0.  1.
         11    1    3    3    0    0  0.78988884274E+01 -0.11028864534E+02  0.22785393817E+02  0.26517964910E+02  0.51100000000E-03 0. -1.
        -11    1    3    3    0    0  0.30994757435E+01 -0.29024378413E+00  0.17965603684E+02  0.18233318604E+02  0.51100000000E-03 0.  1.
        -12    1    3    3    0    0  0.14994987158E+01 -0.22054803706E+01 -0.14507127877E+01  0.30359854506E+01  0.00000000000E+00 0.  1.
</event>
<event>
 7    1  0.4519840E-010  0.4778728E+02  0.7816164E-02  0.1312668E+00
        -11   -1    0    0    0    0  0.00000000000E+00  0.00000000000E+00  0.45593999997E+02  0.45594000000E+02  0.51100000000E-03 0. -1.
         11   -1    0    0    0    0 -0.00000000000E+00 -0.00000000000E+00 -0.45593999997E+02  0.45594000000E+02  0.51100000000E-03 0.  1.
    9900012    2    1    2    0    0  0.59631499955E+01 -0.31527005331E+02 -0.29225178308E+02  0.47787282608E+02  0.20000052723E+02 0.  0.
         12    1    1    2    0    0 -0.59631499955E+01  0.31527005331E+02  0.29225178308E+02  0.43400717392E+02  0.00000000000E+00 0. -1.
         11    1    3    3    0    0 -0.49716289662E+01 -0.14235509335E+02 -0.16314439814E+02  0.22215484854E+02  0.51100000000E-03 0. -1.
        -11    1    3    3    0    0  0.95688993360E+00  0.57534604213E+00 -0.22163519045E+01  0.24817085725E+01  0.51100000000E-03 0.  1.
        -12    1    3    3    0    0  0.99778890281E+01 -0.17866842039E+02 -0.10694386589E+02  0.23090089182E+02  0.00000000000E+00 0.  1.
</event>
<event>
 7    1  0.4519840E-010  0.4778727E+02  0.7816164E-02  0.1312668E+00
        -11   -1    0    0    0    0  0.00000000000E+00  0.00000000000E+00  0.45593999997E+02  0.45594000000E+02  0.51100000000E-03 0. -1.
         11   -1    0    0    0    0 -0.00000000000E+00 -0.00000000000E+00 -0.45593999997E+02  0.45594000000E+02  0.51100000000E-03 0.  1.
    9900012    2    1    2    0    0  0.23795444492E+02  0.23465880484E+02  0.27690298999E+02  0.47787269774E+02  0.19999994209E+02 0.  0.
        -12    1    1    2    0    0 -0.23795444492E+02 -0.23465880484E+02 -0.27690298999E+02  0.43400730226E+02  0.00000000000E+00 0.  1.
         11    1    3    3    0    0  0.23193704906E+02  0.19689664578E+02  0.19919148642E+02  0.36364863829E+02  0.51100000000E-03 0. -1.
        -11    1    3    3    0    0  0.28573828955E+01 -0.10191351329E+01  0.23130825448E+01  0.38149213034E+01  0.51100000000E-03 0.  1.
         12    1    3    3    0    0 -0.22556433092E+01  0.47953510393E+01  0.54580678126E+01  0.76074846418E+01  0.00000000000E+00 0. -1.
</event>
<event>
 7    1  0.4519840E-010  0.4778727E+02  0.7816164E-02  0.1312668E+00
        -11   -1    0    0    0    0  0.00000000000E+00  0.00000000000E+00  0.45593999997E+02  0.45594000000E+02  0.51100000000E-03 0. -1.
         11   -1    0    0    0    0 -0.00000000000E+00 -0.00000000000E+00 -0.45593999997E+02  0.45594000000E+02  0.51100000000E-03 0.  1.
    9900012    2    1    2    0    0  0.38610863863E+02 -0.16411450633E+02  0.11112553465E+02  0.47787269999E+02  0.19999995234E+02 0.  0.
        -12    1    1    2    0    0 -0.38610863863E+02  0.16411450633E+02 -0.11112553465E+02  0.43400730001E+02  0.00000000000E+00 0.  1.
         11    1    3    3    0    0  0.12679746869E+02 -0.50784905209E+01 -0.31046592969E+01  0.14007353648E+02  0.51100000000E-03 0. -1.
        -11    1    3    3    0    0 -0.74000051510E+00  0.55106208701E+00  0.18550861116E+01  0.20718626713E+01  0.51100000000E-03 0.  1.
         12    1    3    3    0    0  0.26671117509E+02 -0.11884022199E+02  0.12362126651E+02  0.31708053679E+02  0.00000000000E+00 0. -1.
</event>
<event>
 7    1  0.4519840E-010  0.4778727E+02  0.7816164E-02  0.1312668E+00
        -11   -1    0    0    0    0  0.00000000000E+00  0.00000000000E+00  0.45593999997E+02  0.45594000000E+02  0.51100000000E-03 0. -1.
         11   -1    0    0    0    0 -0.00000000000E+00 -0.00000000000E+00 -0.45593999997E+02  0.45594000000E+02  0.51100000000E-03 0.  1.
    9900012    2    1    2    0    0 -0.12814417125E+02  0.38515725199E+01  0.41286558357E+02  0.47787265005E+02  0.19999972465E+02 0.  0.
        -12    1    1    2    0    0  0.12814417125E+02 -0.38515725199E+01 -0.41286558357E+02  0.43400734995E+02  0.00000000000E+00 0.  1.
         11    1    3    3    0    0 -0.92681715461E+01  0.49443001659E+01  0.22362443688E+02  0.24706760126E+02  0.51100000000E-03 0. -1.
        -11    1    3    3    0    0  0.47057927632E+01 -0.70677134864E+00  0.88881353857E+01  0.10081813436E+02  0.51100000000E-03 0.  1.
         12    1    3    3    0    0 -0.82520383424E+01 -0.38595629741E+00  0.10035979283E+02  0.12998691443E+02  0.00000000000E+00 0. -1.
</event>
<event>
 7    1  0.4519840E-010  0.4778728E+02  0.7816164E-02  0.1312668E+00
        -11   -1    0    0    0    0  0.00000000000E+00  0.00000000000E+00  0.45593999997E+02  0.45594000000E+02  0.51100000000E-03 0. -1.
         11   -1    0    0    0    0 -0.00000000000E+00 -0.00000000000E+00 -0.45593999997E+02  0.45594000000E+02  0.51100000000E-03 0.  1.
    9900012    2    1    2    0    0  0.14527296484E+02 -0.23859618683E+02 -0.33215944526E+02  0.47787277454E+02  0.20000029222E+02 0.  0.
         12    1    1    2    0    0 -0.14527296484E+02  0.23859618683E+02  0.33215944526E+02  0.43400722546E+02  0.00000000000E+00 0. -1.
         11    1    3    3    0    0  0.21735373257E+01  0.38312831323E+00  0.11579456254E+00  0.22100815488E+01  0.51100000000E-03 0. -1.
        -11    1    3    3    0    0  0.26998693592E+01 -0.11647384947E+02 -0.47102132448E+01  0.12850563402E+02  0.51100000000E-03 0.  1.
         12    1    3    3    0    0  0.96538897994E+01 -0.12595362048E+02 -0.28621525843E+02  0.32726632503E+02  0.00000000000E+00 0. -1.
</event>
<event>
 7    1  0.4519840E-010  0.4778727E+02  0.7816164E-02  0.1312668E+00
        -11   -1    0    0    0    0  0.00000000000E+00  0.00000000000E+00  0.45593999997E+02  0.45594000000E+02  0.51100000000E-03 0. -1.
         11   -1    0    0    0    0 -0.00000000000E+00 -0.00000000000E+00 -0.45593999997E+02  0.45594000000E+02  0.51100000000E-03 0.  1.
    9900012    2    1    2    0    0 -0.35774409546E+02 -0.21974221291E+02  0.10997670225E+02  0.47787268093E+02  0.19999986543E+02 0.  0.
        -12    1    1    2    0    0  0.35774409546E+02  0.21974221291E+02 -0.10997670225E+02  0.43400731907E+02  0.00000000000E+00 0.  1.
         11    1    3    3    0    0 -0.14795220582E+02 -0.46349775283E+01  0.67701542951E+01  0.16917935991E+02  0.51100000000E-03 0. -1.
        -11    1    3    3    0    0 -0.19620609391E+02 -0.15379276818E+02  0.81934309879E+01  0.26241623044E+02  0.51100000000E-03 0.  1.
        -12    1    3    3    0    0 -0.13585795727E+01 -0.19599669445E+01 -0.39659150585E+01  0.46277090585E+01  0.00000000000E+00 0.  1.
</event>
<event>
 7    1  0.4519840E-010  0.4778727E+02  0.7816164E-02  0.1312668E+00
        -11   -1    0    0    0    0  0.00000000000E+00  0.00000000000E+00  0.45593999997E+02  0.45594000000E+02  0.51100000000E-03 0. -1.
         11   -1    0    0    0    0 -0.00000000000E+00 -0.00000000000E+00 -0.45593999997E+02  0.45594000000E+02  0.51100000000E-03 0.  1.
    9900012    2    1    2    0    0  0.91497011184E+00  0.27071485637E+02 -0.33910483818E+02  0.47787269388E+02  0.19999992448E+02 0.  0.
         12    1    1    2    0    0 -0.91497011184E+00 -0.27071485637E+02  0.33910483818E+02  0.43400730612E+02  0.00000000000E+00 0. -1.
         11    1    3    3    0    0 -0.12338690144E+01  0.49191431300E+00 -0.53409076914E+01  0.55036086039E+01  0.51100000000E-03 0. -1.
        -11    1    3    3    0    0 -0.19104290480E+01  0.24715677856E+02 -0.28558783562E+02  0.37816908782E+02  0.51100000000E-03 0.  1.
         12    1    3    3    0    0  0.40592681742E+01  0.18638934682E+01 -0.10792564657E-01  0.44667520023E+01  0.00000000000E+00 0. -1.
</event>
<event>
 7    1  0.4519840E-010  0.4778726E+02  0.7816164E-02  0.1312668E+00
        -11   -1    0    0    0    0  0.00000000000E+00  0.00000000000E+00  0.45593999997E+02  0.45594000000E+02  0.51100000000E-03 0.  1.
         11   -1    0    0    0    0 -0.00000000000E+00 -0.00000000000E+00 -0.45593999997E+02  0.45594000000E+02  0.51100000000E-03 0. -1.
    9900012    2    1    2    0    0 -0.35143953072E+02  0.15521386695E+02  0.20189434971E+02  0.47787260756E+02  0.19999953090E+02 0.  0.
        -12    1    1    2    0    0  0.35143953072E+02 -0.15521386695E+02 -0.20189434971E+02  0.43400739244E+02  0.00000000000E+00 0.  1.
         11    1    3    3    0    0 -0.18330902002E+02  0.43163781673E+01  0.92285239712E+01  0.20971855989E+02  0.51100000000E-03 0. -1.
        -11    1    3    3    0    0 -0.16169976502E+02  0.12798297898E+02  0.58681376993E+01  0.21440606556E+02  0.51100000000E-03 0.  1.
        -12    1    3    3    0    0 -0.64307456856E+00 -0.15932893703E+01  0.50927733004E+01  0.53747982109E+01  0.00000000000E+00 0.  1.
</event>
<event>
 7    1  0.4519840E-010  0.4778727E+02  0.7816164E-02  0.1312668E+00
        -11   -1    0    0    0    0  0.00000000000E+00  0.00000000000E+00  0.45593999997E+02  0.45594000000E+02  0.51100000000E-03 0.  1.
         11   -1    0    0    0    0 -0.00000000000E+00 -0.00000000000E+00 -0.45593999997E+02  0.45594000000E+02  0.51100000000E-03 0. -1.
    9900012    2    1    2    0    0 -0.30551796448E+02 -0.29741028619E+02 -0.81044588533E+01  0.47787270711E+02  0.19999998481E+02 0.  0.
         12    1    1    2    0    0  0.30551796448E+02  0.29741028619E+02  0.81044588533E+01  0.43400729289E+02  0.00000000000E+00 0. -1.
         11    1    3    3    0    0 -0.12621344615E+02 -0.16223408664E+02 -0.46329839213E+01  0.21070402675E+02  0.51100000000E-03 0. -1.
        -11    1    3    3    0    0 -0.19622306178E+02 -0.11796939248E+02 -0.55199994511E+01  0.23551498244E+02  0.51100000000E-03 0.  1.
        -12    1    3    3    0    0  0.16918543451E+01 -0.17206807059E+01  0.20485245191E+01  0.31653697923E+01  0.00000000000E+00 0.  1.
</event>
<event>
 7    1  0.4519840E-010  0.4778730E+02  0.7816164E-02  0.1312668E+00
        -11   -1    0    0    0    0  0.00000000000E+00  0.00000000000E+00  0.45593999997E+02  0.45594000000E+02  0.51100000000E-03 0. -1.
         11   -1    0    0    0    0 -0.00000000000E+00 -0.00000000000E+00 -0.45593999997E+02  0.45594000000E+02  0.51100000000E-03 0.  1.
    9900012    2    1    2    0    0  0.31684647872E+02  0.13142769783E+02  0.26588928006E+02  0.47787304143E+02  0.20000150910E+02 0.  0.
        -12    1    1    2    0    0 -0.31684647872E+02 -0.13142769783E+02 -0.26588928006E+02  0.43400695857E+02  0.00000000000E+00 0.  1.
         11    1    3    3    0    0  0.50522308404E-01 -0.45520132385E+00  0.13433061499E+01  0.14192365632E+01  0.51100000000E-03 0. -1.
        -11    1    3    3    0    0  0.14312335199E+02  0.61619141215E+01  0.22425573352E+02  0.27307846215E+02  0.51100000000E-03 0.  1.
         12    1    3    3    0    0  0.17321790364E+02  0.74360569857E+01  0.28200485049E+01  0.19060221365E+02  0.00000000000E+00 0. -1.
</event>
<event>
 7    1  0.4519840E-010  0.4778727E+02  0.7816164E-02  0.1312668E+00
        -11   -1    0    0    0    0  0.00000000000E+00  0.00000000000E+00  0.45593999997E+02  0.45594000000E+02  0.51100000000E-03 0. -1.
         11   -1    0    0    0    0 -0.00000000000E+00 -0.00000000000E+00 -0.45593999997E+02  0.45594000000E+02  0.51100000000E-03 0.  1.
    9900012    2    1    2    0    0  0.14316850640E+02 -0.56031769698E+01 -0.40586394395E+02  0.47787271730E+02  0.20000003126E+02 0.  0.
         12    1    1    2    0    0 -0.14316850640E+02  0.56031769698E+01  0.40586394395E+02  0.43400728270E+02  0.00000000000E+00 0. -1.
         11    1    3    3    0    0  0.18274142378E+01 -0.61392733169E+00 -0.16268441710E+02  0.16382263137E+02  0.51100000000E-03 0. -1.
        -11    1    3    3    0    0  0.80627631154E+01  0.33879324210E+01 -0.18013739866E+02  0.20024511464E+02  0.51100000000E-03 0.  1.
        -12    1    3    3    0    0  0.44266732869E+01 -0.83771820591E+01 -0.63042128180E+01  0.11380497129E+02  0.00000000000E+00 0.  1.
</event>
<event>
 7    1  0.4519840E-010  0.4778727E+02  0.7816164E-02  0.1312668E+00
        -11   -1    0    0    0    0  0.00000000000E+00  0.00000000000E+00  0.45593999997E+02  0.45594000000E+02  0.51100000000E-03 0. -1.
         11   -1    0    0    0    0 -0.00000000000E+00 -0.00000000000E+00 -0.45593999997E+02  0.45594000000E+02  0.51100000000E-03 0.  1.
    9900012    2    1    2    0    0 -0.19515804176E+02  0.36076273557E+02  0.14186587113E+02  0.47787269818E+02  0.19999994410E+02 0.  0.
        -12    1    1    2    0    0  0.19515804176E+02 -0.36076273557E+02 -0.14186587113E+02  0.43400730182E+02  0.00000000000E+00 0.  1.
         11    1    3    3    0    0 -0.91824216200E+00  0.12329549957E+02  0.22577785130E+01  0.12568155588E+02  0.51100000000E-03 0. -1.
        -11    1    3    3    0    0 -0.38110465705E+01  0.92260030765E+01  0.10435763957E+02  0.14441204187E+02  0.51100000000E-03 0.  1.
         12    1    3    3    0    0 -0.14786515443E+02  0.14520720524E+02  0.14930446430E+01  0.20777910044E+02  0.00000000000E+00 0. -1.
</event>
<event>
 7    1  0.4519840E-010  0.4778727E+02  0.7816164E-02  0.1312668E+00
        -11   -1    0    0    0    0  0.00000000000E+00  0.00000000000E+00  0.45593999997E+02  0.45594000000E+02  0.51100000000E-03 0. -1.
         11   -1    0    0    0    0 -0.00000000000E+00 -0.00000000000E+00 -0.45593999997E+02  0.45594000000E+02  0.51100000000E-03 0.  1.
    9900012    2    1    2    0    0  0.21271332479E+01  0.38757037687E+01 -0.43174962757E+02  0.47787272073E+02  0.20000004687E+02 0.  0.
         12    1    1    2    0    0 -0.21271332479E+01 -0.38757037687E+01  0.43174962757E+02  0.43400727927E+02  0.00000000000E+00 0. -1.
         11    1    3    3    0    0 -0.11760676077E+01  0.38524723963E+00 -0.16465289333E+02  0.16511732299E+02  0.51100000000E-03 0. -1.
        -11    1    3    3    0    0 -0.36107400336E+00  0.93287399700E+01 -0.16472183634E+02  0.18933795124E+02  0.51100000000E-03 0.  1.
         12    1    3    3    0    0  0.36642748590E+01 -0.58382834409E+01 -0.10237489791E+02  0.12341744650E+02  0.00000000000E+00 0. -1.
</event>
<event>
 7    1  0.4519840E-010  0.4778728E+02  0.7816164E-02  0.1312668E+00
        -11   -1    0    0    0    0  0.00000000000E+00  0.00000000000E+00  0.45593999997E+02  0.45594000000E+02  0.51100000000E-03 0. -1.
         11   -1    0    0    0    0 -0.00000000000E+00 -0.00000000000E+00 -0.45593999997E+02  0.45594000000E+02  0.51100000000E-03 0.  1.
    9900012    2    1    2    0    0  0.18950125919E+02 -0.14578609503E+02 -0.36221259997E+02  0.47787276468E+02  0.20000024726E+02 0.  0.
         12    1    1    2    0    0 -0.18950125919E+02  0.14578609503E+02  0.36221259997E+02  0.43400723532E+02  0.00000000000E+00 0. -1.
         11    1    3    3    0    0  0.16726288461E+01 -0.41064650060E+00  0.14153573196E+00  0.17281060239E+01  0.51100000000E-03 0. -1.
        -11    1    3    3    0    0  0.11866628477E+02 -0.15291108678E+02 -0.35544394198E+02  0.40472692463E+02  0.51100000000E-03 0.  1.
        -12    1    3    3    0    0  0.54108685953E+01  0.11231456758E+01 -0.81840153070E+00  0.55864779808E+01  0.00000000000E+00 0.  1.
</event>
<event>
 7    1  0.4519840E-010  0.4778727E+02  0.7816164E-02  0.1312668E+00
        -11   -1    0    0    0    0  0.00000000000E+00  0.00000000000E+00  0.45593999997E+02  0.45594000000E+02  0.51100000000E-03 0. -1.
         11   -1    0    0    0    0 -0.00000000000E+00 -0.00000000000E+00 -0.45593999997E+02  0.45594000000E+02  0.51100000000E-03 0.  1.
    9900012    2    1    2    0    0  0.17219381295E+02 -0.35760955737E+02  0.17557626986E+02  0.47787270596E+02  0.19999997956E+02 0.  0.
        -12    1    1    2    0    0 -0.17219381295E+02  0.35760955737E+02 -0.17557626986E+02  0.43400729404E+02  0.00000000000E+00 0.  1.
         11    1    3    3    0    0 -0.11382688083E+00 -0.89854317210E+01  0.81551378139E+01  0.12134958294E+02  0.51100000000E-03 0. -1.
        -11    1    3    3    0    0 -0.12489870339E+01 -0.59165597118E+01 -0.36619028805E+00  0.60580312827E+01  0.51100000000E-03 0.  1.
         12    1    3    3    0    0  0.18582195210E+02 -0.20858964304E+02  0.97686794603E+01  0.29594281019E+02  0.00000000000E+00 0. -1.
</event>
<event>
 7    1  0.4519840E-010  0.4778726E+02  0.7816164E-02  0.1312668E+00
        -11   -1    0    0    0    0  0.00000000000E+00  0.00000000000E+00  0.45593999997E+02  0.45594000000E+02  0.51100000000E-03 0. -1.
         11   -1    0    0    0    0 -0.00000000000E+00 -0.00000000000E+00 -0.45593999997E+02  0.45594000000E+02  0.51100000000E-03 0.  1.
    9900012    2    1    2    0    0 -0.21446607893E+02  0.42466009452E+01  0.37491779140E+02  0.47787261380E+02  0.19999955934E+02 0.  0.
        -12    1    1    2    0    0  0.21446607893E+02 -0.42466009452E+01 -0.37491779140E+02  0.43400738620E+02  0.00000000000E+00 0.  1.
         11    1    3    3    0    0 -0.12262560006E+02  0.10673061229E+01  0.25254859886E+02  0.28094794329E+02  0.51100000000E-03 0. -1.
        -11    1    3    3    0    0 -0.59807462226E+01  0.66107206221E+00  0.14010962478E+02  0.15248390455E+02  0.51100000000E-03 0.  1.
        -12    1    3    3    0    0 -0.32033016639E+01  0.25182227601E+01 -0.17740432244E+01  0.44440765949E+01  0.00000000000E+00 0.  1.
</event>
<event>
 7    1  0.4519840E-010  0.4778727E+02  0.7816164E-02  0.1312668E+00
        -11   -1    0    0    0    0  0.00000000000E+00  0.00000000000E+00  0.45593999997E+02  0.45594000000E+02  0.51100000000E-03 0. -1.
         11   -1    0    0    0    0 -0.00000000000E+00 -0.00000000000E+00 -0.45593999997E+02  0.45594000000E+02  0.51100000000E-03 0.  1.
    9900012    2    1    2    0    0 -0.16219493511E+02  0.33191839208E+02 -0.22778352961E+02  0.47787268170E+02  0.19999986894E+02 0.  0.
         12    1    1    2    0    0  0.16219493511E+02 -0.33191839208E+02  0.22778352961E+02  0.43400731830E+02  0.00000000000E+00 0. -1.
         11    1    3    3    0    0 -0.22301783333E+01  0.13362107704E+02 -0.12317983203E+02  0.18309897000E+02  0.51100000000E-03 0. -1.
        -11    1    3    3    0    0 -0.12718636414E+01  0.98226499482E+01  0.52473892661E+00  0.99185402318E+01  0.51100000000E-03 0.  1.
        -12    1    3    3    0    0 -0.12717451537E+02  0.10007081555E+02 -0.10985108685E+02  0.19558830938E+02  0.00000000000E+00 0.  1.
</event>
<event>
 7    1  0.4519840E-010  0.4778728E+02  0.7816164E-02  0.1312668E+00
        -11   -1    0    0    0    0  0.00000000000E+00  0.00000000000E+00  0.45593999997E+02  0.45594000000E+02  0.51100000000E-03 0. -1.
         11   -1    0    0    0    0 -0.00000000000E+00 -0.00000000000E+00 -0.45593999997E+02  0.45594000000E+02  0.51100000000E-03 0.  1.
    9900012    2    1    2    0    0  0.18404052199E+02  0.19195791046E+02  0.34299203932E+02  0.47787275103E+02  0.20000018505E+02 0.  0.
        -12    1    1    2    0    0 -0.18404052199E+02 -0.19195791046E+02 -0.34299203932E+02  0.43400724897E+02  0.00000000000E+00 0.  1.
         11    1    3    3    0    0 -0.16789458797E+01  0.31661799489E+01  0.52403857224E+01  0.63486374535E+01  0.51100000000E-03 0. -1.
        -11    1    3    3    0    0  0.88664764834E+01  0.14444975499E+02  0.23064751190E+02  0.28622621650E+02  0.51100000000E-03 0.  1.
        -12    1    3    3    0    0  0.11216521595E+02  0.15846355979E+01  0.59940670192E+01  0.12816015999E+02  0.00000000000E+00 0.  1.
</event>
<event>
 7    1  0.4519840E-010  0.4778727E+02  0.7816164E-02  0.1312668E+00
        -11   -1    0    0    0    0  0.00000000000E+00  0.00000000000E+00  0.45593999997E+02  0.45594000000E+02  0.51100000000E-03 0.  1.
         11   -1    0    0    0    0 -0.00000000000E+00 -0.00000000000E+00 -0.45593999997E+02  0.45594000000E+02  0.51100000000E-03 0. -1.
    9900012    2    1    2    0    0  0.39089674651E+02  0.12229864098E+02 -0.14354473912E+02  0.47787272339E+02  0.20000005905E+02 0.  0.
        -12    1    1    2    0    0 -0.39089674651E+02 -0.12229864098E+02  0.14354473912E+02  0.43400727661E+02  0.00000000000E+00 0.  1.
         11    1    3    3    0    0  0.76884928371E+01  0.27553756821E+01 -0.35500982210E+00  0.81750259627E+01  0.51100000000E-03 0. -1.
        -11    1    3    3    0    0  0.22889248312E+01 -0.41264999276E+01 -0.45195944456E+00  0.47404056932E+01  0.51100000000E-03 0.  1.
         12    1    3    3    0    0  0.29112256983E+02  0.13600988343E+02 -0.13547504645E+02  0.34871840684E+02  0.00000000000E+00 0. -1.
</event>
<event>
 7    1  0.4519840E-010  0.4778727E+02  0.7816164E-02  0.1312668E+00
        -11   -1    0    0    0    0  0.00000000000E+00  0.00000000000E+00  0.45593999997E+02  0.45594000000E+02  0.51100000000E-03 0. -1.
         11   -1    0    0    0    0 -0.00000000000E+00 -0.00000000000E+00 -0.45593999997E+02  0.45594000000E+02  0.51100000000E-03 0.  1.
    9900012    2    1    2    0    0  0.14205438185E+02  0.39620882175E+02  0.10583703739E+02  0.47787267712E+02  0.19999984804E+02 0.  0.
        -12    1    1    2    0    0 -0.14205438185E+02 -0.39620882175E+02 -0.10583703739E+02  0.43400732288E+02  0.00000000000E+00 0.  1.
         11    1    3    3    0    0  0.56835444452E+01  0.85679674485E+01 -0.12099078148E+01  0.10352614203E+02  0.51100000000E-03 0. -1.
        -11    1    3    3    0    0  0.12720678552E+02  0.25541291703E+02  0.10380415769E+02  0.30363238899E+02  0.51100000000E-03 0.  1.
        -12    1    3    3    0    0 -0.41987848116E+01  0.55116230234E+01  0.14131957846E+01  0.70714146089E+01  0.00000000000E+00 0.  1.
</event>
<event>
 7    1  0.4519840E-010  0.4778727E+02  0.7816164E-02  0.1312668E+00
        -11   -1    0    0    0    0  0.00000000000E+00  0.00000000000E+00  0.45593999997E+02  0.45594000000E+02  0.51100000000E-03 0. -1.
         11   -1    0    0    0    0 -0.00000000000E+00 -0.00000000000E+00 -0.45593999997E+02  0.45594000000E+02  0.51100000000E-03 0.  1.
    9900012    2    1    2    0    0  0.29839797679E+02 -0.48833429350E+01  0.31134594497E+02  0.47787267999E+02  0.19999986115E+02 0.  0.
        -12    1    1    2    0    0 -0.29839797679E+02  0.48833429350E+01 -0.31134594497E+02  0.43400732001E+02  0.00000000000E+00 0.  1.
         11    1    3    3    0    0  0.51887956468E+01  0.66240612232E+01  0.71110647214E+01  0.11016761279E+02  0.51100000000E-03 0. -1.
        -11    1    3    3    0    0  0.31843163689E+01  0.28716521568E+00  0.40864707645E+01  0.51886007910E+01  0.51100000000E-03 0.  1.
         12    1    3    3    0    0  0.21466685663E+02 -0.11794569374E+02  0.19937059011E+02  0.31581905929E+02  0.00000000000E+00 0. -1.
</event>
<event>
 7    1  0.4519840E-010  0.4778727E+02  0.7816164E-02  0.1312668E+00
        -11   -1    0    0    0    0  0.00000000000E+00  0.00000000000E+00  0.45593999997E+02  0.45594000000E+02  0.51100000000E-03 0. -1.
         11   -1    0    0    0    0 -0.00000000000E+00 -0.00000000000E+00 -0.45593999997E+02  0.45594000000E+02  0.51100000000E-03 0.  1.
    9900012    2    1    2    0    0  0.23795194784E+02  0.22533681541E+02  0.28454262378E+02  0.47787272517E+02  0.20000006715E+02 0.  0.
        -12    1    1    2    0    0 -0.23795194784E+02 -0.22533681541E+02 -0.28454262378E+02  0.43400727483E+02  0.00000000000E+00 0.  1.
         11    1    3    3    0    0  0.23119673886E+02  0.18452440074E+02  0.19840013354E+02  0.35617944851E+02  0.51100000000E-03 0. -1.
        -11    1    3    3    0    0  0.20470839126E+01  0.55779094268E+01  0.40981426133E+01  0.72179220873E+01  0.51100000000E-03 0.  1.
        -12    1    3    3    0    0 -0.13715630149E+01 -0.14966679605E+01  0.45161064111E+01  0.49514055786E+01  0.00000000000E+00 0.  1.
</event>
<event>
 7    1  0.4519840E-010  0.4778727E+02  0.7816164E-02  0.1312668E+00
        -11   -1    0    0    0    0  0.00000000000E+00  0.00000000000E+00  0.45593999997E+02  0.45594000000E+02  0.51100000000E-03 0. -1.
         11   -1    0    0    0    0 -0.00000000000E+00 -0.00000000000E+00 -0.45593999997E+02  0.45594000000E+02  0.51100000000E-03 0.  1.
    9900012    2    1    2    0    0 -0.11162876341E+02  0.31390109342E+02  0.27815006522E+02  0.47787270046E+02  0.19999995448E+02 0.  0.
        -12    1    1    2    0    0  0.11162876341E+02 -0.31390109342E+02 -0.27815006522E+02  0.43400729954E+02  0.00000000000E+00 0.  1.
         11    1    3    3    0    0  0.38402073922E+00  0.20252775654E+00  0.29527072655E+01  0.29844547035E+01  0.51100000000E-03 0. -1.
        -11    1    3    3    0    0 -0.12485612140E+02  0.15211157186E+02  0.71664904712E+01  0.20943457197E+02  0.51100000000E-03 0.  1.
        -12    1    3    3    0    0  0.93871505897E+00  0.15976424400E+02  0.17695808785E+02  0.23859358146E+02  0.00000000000E+00 0.  1.
</event>
<event>
 7    1  0.4519840E-010  0.4778727E+02  0.7816164E-02  0.1312668E+00
        -11   -1    0    0    0    0  0.00000000000E+00  0.00000000000E+00  0.45593999997E+02  0.45594000000E+02  0.51100000000E-03 0. -1.
         11   -1    0    0    0    0 -0.00000000000E+00 -0.00000000000E+00 -0.45593999997E+02  0.45594000000E+02  0.51100000000E-03 0.  1.
    9900012    2    1    2    0    0 -0.30780187963E+02 -0.21759441844E+02  0.21511171282E+02  0.47787265325E+02  0.19999973923E+02 0.  0.
        -12    1    1    2    0    0  0.30780187963E+02  0.21759441844E+02 -0.21511171282E+02  0.43400734675E+02  0.00000000000E+00 0.  1.
         11    1    3    3    0    0 -0.27152119402E+02 -0.10110840498E+02  0.10023419161E+02  0.30658369421E+02  0.51100000000E-03 0. -1.
        -11    1    3    3    0    0 -0.20167269409E+01 -0.41064701335E+01  0.64840771678E+01  0.79355870287E+01  0.51100000000E-03 0.  1.
         12    1    3    3    0    0 -0.16113416201E+01 -0.75421312125E+01  0.50036749528E+01  0.91933088753E+01  0.00000000000E+00 0. -1.
</event>
<event>
 7    1  0.4519840E-010  0.4778727E+02  0.7816164E-02  0.1312668E+00
        -11   -1    0    0    0    0  0.00000000000E+00  0.00000000000E+00  0.45593999997E+02  0.45594000000E+02  0.51100000000E-03 0.  1.
         11   -1    0    0    0    0 -0.00000000000E+00 -0.00000000000E+00 -0.45593999997E+02  0.45594000000E+02  0.51100000000E-03 0. -1.
    9900012    2    1    2    0    0 -0.40428523932E+02  0.11975324754E+02 -0.10283465228E+02  0.47787267202E+02  0.19999982480E+02 0.  0.
         12    1    1    2    0    0  0.40428523932E+02 -0.11975324754E+02  0.10283465228E+02  0.43400732798E+02  0.00000000000E+00 0. -1.
         11    1    3    3    0    0 -0.75740496853E+01 -0.47956114647E+01 -0.55883145908E+00  0.89820048328E+01  0.51100000000E-03 0. -1.
        -11    1    3    3    0    0 -0.10273385773E+01 -0.71125791513E+00 -0.43874824817E+00  0.13243159217E+01  0.51100000000E-03 0.  1.
        -12    1    3    3    0    0 -0.31827135670E+02  0.17482194134E+02 -0.92858855208E+01  0.37480946447E+02  0.00000000000E+00 0.  1.
</event>
<event>
 7    1  0.4519840E-010  0.4778726E+02  0.7816164E-02  0.1312668E+00
        -11   -1    0    0    0    0  0.00000000000E+00  0.00000000000E+00  0.45593999997E+02  0.45594000000E+02  0.51100000000E-03 0. -1.
         11   -1    0    0    0    0 -0.00000000000E+00 -0.00000000000E+00 -0.45593999997E+02  0.45594000000E+02  0.51100000000E-03 0.  1.
    9900012    2    1    2    0    0  0.14156171356E+02  0.21010300168E+02  0.35239096666E+02  0.47787264586E+02  0.19999970553E+02 0.  0.
        -12    1    1    2    0    0 -0.14156171356E+02 -0.21010300168E+02 -0.35239096666E+02  0.43400735414E+02  0.00000000000E+00 0.  1.
         11    1    3    3    0    0  0.91953734273E+01  0.59186826148E+01  0.16164895717E+02  0.19516391833E+02  0.51100000000E-03 0. -1.
        -11    1    3    3    0    0  0.71291007452E+01  0.73176966877E+01  0.36245005655E+01  0.10840192197E+02  0.51100000000E-03 0.  1.
        -12    1    3    3    0    0 -0.21683028160E+01  0.77739208651E+01  0.15449700384E+02  0.17430680557E+02  0.00000000000E+00 0.  1.
</event>
<event>
 7    1  0.4519840E-010  0.4778727E+02  0.7816164E-02  0.1312668E+00
        -11   -1    0    0    0    0  0.00000000000E+00  0.00000000000E+00  0.45593999997E+02  0.45594000000E+02  0.51100000000E-03 0. -1.
         11   -1    0    0    0    0 -0.00000000000E+00 -0.00000000000E+00 -0.45593999997E+02  0.45594000000E+02  0.51100000000E-03 0.  1.
    9900012    2    1    2    0    0  0.10806345936E+02 -0.21979861213E+02 -0.35829210148E+02  0.47787266006E+02  0.19999977027E+02 0.  0.
         12    1    1    2    0    0 -0.10806345936E+02  0.21979861213E+02  0.35829210148E+02  0.43400733994E+02  0.00000000000E+00 0. -1.
         11    1    3    3    0    0  0.19778545209E+01 -0.68707693679E-01 -0.91024799098E+01  0.93151366078E+01  0.51100000000E-03 0.  1.
        -11    1    3    3    0    0  0.12140818440E+02 -0.12132974619E+02 -0.18794509473E+02  0.25452743115E+02  0.51100000000E-03 0. -1.
         12    1    3    3    0    0 -0.33123270243E+01 -0.97781789005E+01 -0.79322207649E+01  0.13019386283E+02  0.00000000000E+00 0. -1.
</event>
<event>
 7    1  0.4519840E-010  0.4778727E+02  0.7816164E-02  0.1312668E+00
        -11   -1    0    0    0    0  0.00000000000E+00  0.00000000000E+00  0.45593999997E+02  0.45594000000E+02  0.51100000000E-03 0. -1.
         11   -1    0    0    0    0 -0.00000000000E+00 -0.00000000000E+00 -0.45593999997E+02  0.45594000000E+02  0.51100000000E-03 0.  1.
    9900012    2    1    2    0    0  0.75035335978E+01  0.36553217389E+02  0.22162641686E+02  0.47787269540E+02  0.19999993142E+02 0.  0.
        -12    1    1    2    0    0 -0.75035335978E+01 -0.36553217389E+02 -0.22162641686E+02  0.43400730460E+02  0.00000000000E+00 0.  1.
         11    1    3    3    0    0  0.83087069095E+00  0.34156777386E+01  0.36510336196E+01  0.50682588008E+01  0.51100000000E-03 0. -1.
        -11    1    3    3    0    0  0.63787872761E+01  0.74986839027E+01  0.13311577809E+02  0.16556487895E+02  0.51100000000E-03 0.  1.
         12    1    3    3    0    0  0.29387563073E+00  0.25638855748E+02  0.52000302574E+01  0.26162522845E+02  0.00000000000E+00 0. -1.
</event>
<event>
 7    1  0.4519840E-010  0.4778727E+02  0.7816164E-02  0.1312668E+00
        -11   -1    0    0    0    0  0.00000000000E+00  0.00000000000E+00  0.45593999997E+02  0.45594000000E+02  0.51100000000E-03 0. -1.
         11   -1    0    0    0    0 -0.00000000000E+00 -0.00000000000E+00 -0.45593999997E+02  0.45594000000E+02  0.51100000000E-03 0.  1.
    9900012    2    1    2    0    0 -0.95055163566E+01  0.73106180111E+01 -0.41711190444E+02  0.47787269762E+02  0.19999994153E+02 0.  0.
         12    1    1    2    0    0  0.95055163566E+01 -0.73106180111E+01  0.41711190444E+02  0.43400730238E+02  0.00000000000E+00 0. -1.
         11    1    3    3    0    0 -0.49810989601E+01 -0.55625964167E+01 -0.90703533431E+01  0.11748409925E+02  0.51100000000E-03 0. -1.
        -11    1    3    3    0    0 -0.14054581642E+01  0.67849966390E+00 -0.10115473325E+02  0.10235158782E+02  0.51100000000E-03 0.  1.
        -12    1    3    3    0    0 -0.31189592323E+01  0.12194714764E+02 -0.22525363776E+02  0.25803701055E+02  0.00000000000E+00 0.  1.
</event>
<event>
 7    1  0.4519840E-010  0.4778727E+02  0.7816164E-02  0.1312668E+00
        -11   -1    0    0    0    0  0.00000000000E+00  0.00000000000E+00  0.45593999997E+02  0.45594000000E+02  0.51100000000E-03 0. -1.
         11   -1    0    0    0    0 -0.00000000000E+00 -0.00000000000E+00 -0.45593999997E+02  0.45594000000E+02  0.51100000000E-03 0.  1.
    9900012    2    1    2    0    0 -0.23416024895E+02  0.10670570101E+02  0.34949279785E+02  0.47787269065E+02  0.19999990977E+02 0.  0.
        -12    1    1    2    0    0  0.23416024895E+02 -0.10670570101E+02 -0.34949279785E+02  0.43400730935E+02  0.00000000000E+00 0.  1.
         11    1    3    3    0    0 -0.53771427632E+01  0.98856048746E+01  0.10585980197E+02  0.15449978156E+02  0.51100000000E-03 0. -1.
        -11    1    3    3    0    0 -0.25114247970E+01  0.43796878541E+01  0.82568331670E+01  0.96780274033E+01  0.51100000000E-03 0.  1.
         12    1    3    3    0    0 -0.15527457335E+02 -0.35947226278E+01  0.16106466421E+02  0.22659263506E+02  0.00000000000E+00 0. -1.
</event>
<event>
 7    1  0.4519840E-010  0.4778727E+02  0.7816164E-02  0.1312668E+00
        -11   -1    0    0    0    0  0.00000000000E+00  0.00000000000E+00  0.45593999997E+02  0.45594000000E+02  0.51100000000E-03 0. -1.
         11   -1    0    0    0    0 -0.00000000000E+00 -0.00000000000E+00 -0.45593999997E+02  0.45594000000E+02  0.51100000000E-03 0.  1.
    9900012    2    1    2    0    0  0.95565518604E+01 -0.13858088333E+02  0.40003109558E+02  0.47787273393E+02  0.20000010707E+02 0.  0.
        -12    1    1    2    0    0 -0.95565518604E+01  0.13858088333E+02 -0.40003109558E+02  0.43400726607E+02  0.00000000000E+00 0.  1.
         11    1    3    3    0    0  0.29593459440E+01 -0.14936037690E+02  0.15341870550E+02  0.21615178522E+02  0.51100000000E-03 0. -1.
        -11    1    3    3    0    0 -0.66540569264E+00 -0.46418556915E+00  0.65210395996E+01  0.65713157510E+01  0.51100000000E-03 0.  1.
        -12    1    3    3    0    0  0.72626116091E+01  0.15421349268E+01  0.18140199409E+02  0.19600779120E+02  0.00000000000E+00 0.  1.
</event>
<event>
 7    1  0.4519840E-010  0.4778727E+02  0.7816164E-02  0.1312668E+00
        -11   -1    0    0    0    0  0.00000000000E+00  0.00000000000E+00  0.45593999997E+02  0.45594000000E+02  0.51100000000E-03 0. -1.
         11   -1    0    0    0    0 -0.00000000000E+00 -0.00000000000E+00 -0.45593999997E+02  0.45594000000E+02  0.51100000000E-03 0.  1.
    9900012    2    1    2    0    0  0.73773539561E+01  0.27208449311E+02  0.32998454060E+02  0.47787273789E+02  0.20000012515E+02 0.  0.
        -12    1    1    2    0    0 -0.73773539561E+01 -0.27208449311E+02 -0.32998454060E+02  0.43400726211E+02  0.00000000000E+00 0.  1.
         11    1    3    3    0    0 -0.22643052879E+01  0.21257999160E+01  0.10076796231E+02  0.10544568567E+02  0.51100000000E-03 0. -1.
        -11    1    3    3    0    0  0.30967096568E+01 -0.31842744324E+00  0.21450250157E+01  0.37804945860E+01  0.51100000000E-03 0.  1.
         12    1    3    3    0    0  0.65449495872E+01  0.25401076838E+02  0.20776632813E+02  0.33462210636E+02  0.00000000000E+00 0. -1.
</event>
<event>
 7    1  0.4519840E-010  0.4778727E+02  0.7816164E-02  0.1312668E+00
        -11   -1    0    0    0    0  0.00000000000E+00  0.00000000000E+00  0.45593999997E+02  0.45594000000E+02  0.51100000000E-03 0.  1.
         11   -1    0    0    0    0 -0.00000000000E+00 -0.00000000000E+00 -0.45593999997E+02  0.45594000000E+02  0.51100000000E-03 0. -1.
    9900012    2    1    2    0    0  0.21741896113E+02  0.35879790632E+02 -0.11115488919E+02  0.47787268251E+02  0.19999987264E+02 0.  0.
         12    1    1    2    0    0 -0.21741896113E+02 -0.35879790632E+02  0.11115488919E+02  0.43400731749E+02  0.00000000000E+00 0. -1.
         11    1    3    3    0    0  0.79128195788E+01  0.26621246483E+01 -0.47742279531E+01  0.96173215679E+01  0.51100000000E-03 0. -1.
        -11    1    3    3    0    0  0.27763931444E+01  0.11318686200E+02 -0.70662295936E+01  0.13629109182E+02  0.51100000000E-03 0.  1.
        -12    1    3    3    0    0  0.11052683390E+02  0.21898979785E+02  0.72496862817E+00  0.24540837501E+02  0.00000000000E+00 0.  1.
</event>
<event>
 7    1  0.4519840E-010  0.4778728E+02  0.7816164E-02  0.1312668E+00
        -11   -1    0    0    0    0  0.00000000000E+00  0.00000000000E+00  0.45593999997E+02  0.45594000000E+02  0.51100000000E-03 0. -1.
         11   -1    0    0    0    0 -0.00000000000E+00 -0.00000000000E+00 -0.45593999997E+02  0.45594000000E+02  0.51100000000E-03 0.  1.
    9900012    2    1    2    0    0  0.23966375082E+02 -0.23824264652E+02  0.27233069943E+02  0.47787276281E+02  0.20000023878E+02 0.  0.
        -12    1    1    2    0    0 -0.23966375082E+02  0.23824264652E+02 -0.27233069943E+02  0.43400723719E+02  0.00000000000E+00 0.  1.
         11    1    3    3    0    0  0.97801994140E+01 -0.14884242025E+01  0.38444018297E+01  0.10613535362E+02  0.51100000000E-03 0. -1.
        -11    1    3    3    0    0 -0.16362435677E+01 -0.14929153868E+01  0.41166483568E+01  0.46747067629E+01  0.51100000000E-03 0.  1.
         12    1    3    3    0    0  0.15822419236E+02 -0.20842925062E+02  0.19272019756E+02  0.32499034157E+02  0.00000000000E+00 0. -1.
</event>
<event>
 7    1  0.4519840E-010  0.4778727E+02  0.7816164E-02  0.1312668E+00
        -11   -1    0    0    0    0  0.00000000000E+00  0.00000000000E+00  0.45593999997E+02  0.45594000000E+02  0.51100000000E-03 0. -1.
         11   -1    0    0    0    0 -0.00000000000E+00 -0.00000000000E+00 -0.45593999997E+02  0.45594000000E+02  0.51100000000E-03 0.  1.
    9900012    2    1    2    0    0  0.22585701486E+02 -0.86124485448E+01 -0.36046290846E+02  0.47787271143E+02  0.20000000450E+02 0.  0.
         12    1    1    2    0    0 -0.22585701486E+02  0.86124485448E+01  0.36046290846E+02  0.43400728857E+02  0.00000000000E+00 0. -1.
         11    1    3    3    0    0  0.17551465871E+01 -0.32965436646E+01 -0.93552109767E+00  0.38500570983E+01  0.51100000000E-03 0. -1.
        -11    1    3    3    0    0  0.18017705254E+02 -0.85219192844E+01 -0.19998977148E+02  0.28235082754E+02  0.51100000000E-03 0.  1.
        -12    1    3    3    0    0  0.28128496456E+01  0.32060144041E+01 -0.15111792600E+02  0.15702131291E+02  0.00000000000E+00 0.  1.
</event>
<event>
 7    1  0.4519840E-010  0.4778727E+02  0.7816164E-02  0.1312668E+00
        -11   -1    0    0    0    0  0.00000000000E+00  0.00000000000E+00  0.45593999997E+02  0.45594000000E+02  0.51100000000E-03 0. -1.
         11   -1    0    0    0    0 -0.00000000000E+00 -0.00000000000E+00 -0.45593999997E+02  0.45594000000E+02  0.51100000000E-03 0.  1.
    9900012    2    1    2    0    0 -0.13929179079E+02  0.18612859529E+02  0.36649188702E+02  0.47787267262E+02  0.19999982754E+02 0.  0.
        -12    1    1    2    0    0  0.13929179079E+02 -0.18612859529E+02 -0.36649188702E+02  0.43400732738E+02  0.00000000000E+00 0.  1.
         11    1    3    3    0    0 -0.74421686630E+01  0.63416120102E+01  0.10772738634E+02  0.14548326888E+02  0.51100000000E-03 0. -1.
        -11    1    3    3    0    0 -0.77150716615E+01  0.88479403179E+00  0.17197080710E+02  0.18869148800E+02  0.51100000000E-03 0.  1.
         12    1    3    3    0    0  0.12280612453E+01  0.11386453487E+02  0.86793693582E+01  0.14369791574E+02  0.00000000000E+00 0. -1.
</event>
<event>
 7    1  0.4519840E-010  0.4778727E+02  0.7816164E-02  0.1312668E+00
        -11   -1    0    0    0    0  0.00000000000E+00  0.00000000000E+00  0.45593999997E+02  0.45594000000E+02  0.51100000000E-03 0. -1.
         11   -1    0    0    0    0 -0.00000000000E+00 -0.00000000000E+00 -0.45593999997E+02  0.45594000000E+02  0.51100000000E-03 0.  1.
    9900012    2    1    2    0    0 -0.23019971398E+01 -0.33613682830E+02 -0.27357711711E+02  0.47787271270E+02  0.20000001027E+02 0.  0.
         12    1    1    2    0    0  0.23019971398E+01  0.33613682830E+02  0.27357711711E+02  0.43400728730E+02  0.00000000000E+00 0. -1.
         11    1    3    3    0    0  0.20494515200E+01 -0.43795935185E+01 -0.10880154002E+02  0.11906252235E+02  0.51100000000E-03 0.  1.
        -11    1    3    3    0    0  0.27933085985E+01 -0.19003508306E+02 -0.11867708831E+02  0.22578273052E+02  0.51100000000E-03 0. -1.
         12    1    3    3    0    0 -0.71447572582E+01 -0.10230581006E+02 -0.46098488790E+01  0.13302745983E+02  0.00000000000E+00 0. -1.
</event>
<event>
 7    1  0.4519840E-010  0.4778728E+02  0.7816164E-02  0.1312668E+00
        -11   -1    0    0    0    0  0.00000000000E+00  0.00000000000E+00  0.45593999997E+02  0.45594000000E+02  0.51100000000E-03 0. -1.
         11   -1    0    0    0    0 -0.00000000000E+00 -0.00000000000E+00 -0.45593999997E+02  0.45594000000E+02  0.51100000000E-03 0.  1.
    9900012    2    1    2    0    0  0.21844435421E+02 -0.53513693511E+01  0.37118811238E+02  0.47787278111E+02  0.20000032219E+02 0.  0.
        -12    1    1    2    0    0 -0.21844435421E+02  0.53513693511E+01 -0.37118811238E+02  0.43400721889E+02  0.00000000000E+00 0.  1.
         11    1    3    3    0    0  0.33803973850E+01 -0.35332687758E+01  0.59046520228E+01  0.76665501038E+01  0.51100000000E-03 0. -1.
        -11    1    3    3    0    0  0.96165896028E+01  0.41310967932E+01  0.45661438544E+01  0.11419037887E+02  0.51100000000E-03 0.  1.
        -12    1    3    3    0    0  0.88474484333E+01 -0.59491973685E+01  0.26648015360E+02  0.28701690120E+02  0.00000000000E+00 0.  1.
</event>
<event>
 7    1  0.4519840E-010  0.4778727E+02  0.7816164E-02  0.1312668E+00
        -11   -1    0    0    0    0  0.00000000000E+00  0.00000000000E+00  0.45593999997E+02  0.45594000000E+02  0.51100000000E-03 0. -1.
         11   -1    0    0    0    0 -0.00000000000E+00 -0.00000000000E+00 -0.45593999997E+02  0.45594000000E+02  0.51100000000E-03 0.  1.
    9900012    2    1    2    0    0 -0.79398713680E+01  0.13805497919E+01 -0.42645934572E+02  0.47787271774E+02  0.20000003325E+02 0.  0.
         12    1    1    2    0    0  0.79398713680E+01 -0.13805497919E+01  0.42645934572E+02  0.43400728226E+02  0.00000000000E+00 0. -1.
         11    1    3    3    0    0 -0.91295889439E+01 -0.58092712259E+01 -0.12392707589E+02  0.16452240823E+02  0.51100000000E-03 0.  1.
        -11    1    3    3    0    0 -0.26139775915E+00  0.36855545870E+00 -0.21965514675E+00  0.50240477629E+00  0.51100000000E-03 0. -1.
         12    1    3    3    0    0  0.14511153351E+01  0.68212655590E+01 -0.30033571837E+02  0.30832626174E+02  0.00000000000E+00 0. -1.
</event>
<event>
 7    1  0.4519840E-010  0.4778727E+02  0.7816164E-02  0.1312668E+00
        -11   -1    0    0    0    0  0.00000000000E+00  0.00000000000E+00  0.45593999997E+02  0.45594000000E+02  0.51100000000E-03 0.  1.
         11   -1    0    0    0    0 -0.00000000000E+00 -0.00000000000E+00 -0.45593999997E+02  0.45594000000E+02  0.51100000000E-03 0. -1.
    9900012    2    1    2    0    0  0.14338124556E+02  0.38812806015E+02 -0.13099897312E+02  0.47787273784E+02  0.20000012491E+02 0.  0.
         12    1    1    2    0    0 -0.14338124556E+02 -0.38812806015E+02  0.13099897312E+02  0.43400726216E+02  0.00000000000E+00 0. -1.
         11    1    3    3    0    0  0.92334538423E+01  0.20446594703E+02 -0.16782562485E+02  0.28017392966E+02  0.51100000000E-03 0. -1.
        -11    1    3    3    0    0 -0.54355182934E+00  0.29723390948E+01  0.41339433118E+00  0.30497776017E+01  0.51100000000E-03 0.  1.
         12    1    3    3    0    0  0.56482225429E+01  0.15393872217E+02  0.32692708419E+01  0.16720103216E+02  0.00000000000E+00 0. -1.
</event>
<event>
 7    1  0.4519840E-010  0.4778727E+02  0.7816164E-02  0.1312668E+00
        -11   -1    0    0    0    0  0.00000000000E+00  0.00000000000E+00  0.45593999997E+02  0.45594000000E+02  0.51100000000E-03 0.  1.
         11   -1    0    0    0    0 -0.00000000000E+00 -0.00000000000E+00 -0.45593999997E+02  0.45594000000E+02  0.51100000000E-03 0. -1.
    9900012    2    1    2    0    0  0.41471591897E+02  0.48249915935E+01  0.11851161963E+02  0.47787268229E+02  0.19999987164E+02 0.  0.
         12    1    1    2    0    0 -0.41471591897E+02 -0.48249915935E+01 -0.11851161963E+02  0.43400731771E+02  0.00000000000E+00 0. -1.
         11    1    3    3    0    0  0.91070945766E+01 -0.27706921570E+01 -0.15837561300E+01  0.96500875849E+01  0.51100000000E-03 0. -1.
        -11    1    3    3    0    0  0.14980427661E+01  0.12334060073E+01  0.52196538897E+01  0.55686811273E+01  0.51100000000E-03 0.  1.
        -12    1    3    3    0    0  0.30866454555E+02  0.63622777432E+01  0.82152642034E+01  0.32568499517E+02  0.00000000000E+00 0.  1.
</event>
<event>
 7    1  0.4519840E-010  0.4778729E+02  0.7816164E-02  0.1312668E+00
        -11   -1    0    0    0    0  0.00000000000E+00  0.00000000000E+00  0.45593999997E+02  0.45594000000E+02  0.51100000000E-03 0. -1.
         11   -1    0    0    0    0 -0.00000000000E+00 -0.00000000000E+00 -0.45593999997E+02  0.45594000000E+02  0.51100000000E-03 0.  1.
    9900012    2    1    2    0    0  0.18591589809E+02  0.10445889177E+02 -0.37800240757E+02  0.47787285564E+02  0.20000066200E+02 0.  0.
         12    1    1    2    0    0 -0.18591589809E+02 -0.10445889177E+02  0.37800240757E+02  0.43400714436E+02  0.00000000000E+00 0. -1.
         11    1    3    3    0    0  0.34198226017E+01  0.63485304385E+01 -0.10478752365E+02  0.12720191694E+02  0.51100000000E-03 0. -1.
        -11    1    3    3    0    0  0.63420221248E+01 -0.45739067425E+01 -0.42839925064E+01  0.89159665532E+01  0.51100000000E-03 0.  1.
        -12    1    3    3    0    0  0.88297450823E+01  0.86712654806E+01 -0.23037495886E+02  0.26151127317E+02  0.00000000000E+00 0.  1.
</event>
<event>
 7    1  0.4519840E-010  0.4778727E+02  0.7816164E-02  0.1312668E+00
        -11   -1    0    0    0    0  0.00000000000E+00  0.00000000000E+00  0.45593999997E+02  0.45594000000E+02  0.51100000000E-03 0. -1.
         11   -1    0    0    0    0 -0.00000000000E+00 -0.00000000000E+00 -0.45593999997E+02  0.45594000000E+02  0.51100000000E-03 0.  1.
    9900012    2    1    2    0    0 -0.17236219450E+02  0.22748258028E+01  0.39766333190E+02  0.47787270182E+02  0.19999996070E+02 0.  0.
        -12    1    1    2    0    0  0.17236219450E+02 -0.22748258028E+01 -0.39766333190E+02  0.43400729818E+02  0.00000000000E+00 0.  1.
         11    1    3    3    0    0 -0.48289213713E+01  0.47434659003E+01  0.16704898902E+02  0.18024222534E+02  0.51100000000E-03 0. -1.
        -11    1    3    3    0    0 -0.11893751120E+02 -0.26952453462E+01  0.24961756132E+02  0.27781557419E+02  0.51100000000E-03 0.  1.
        -12    1    3    3    0    0 -0.51354695878E+00  0.22660524863E+00 -0.19003218445E+01  0.19814902296E+01  0.00000000000E+00 0.  1.
</event>
<event>
 7    1  0.4519840E-010  0.4778727E+02  0.7816164E-02  0.1312668E+00
        -11   -1    0    0    0    0  0.00000000000E+00  0.00000000000E+00  0.45593999997E+02  0.45594000000E+02  0.51100000000E-03 0. -1.
         11   -1    0    0    0    0 -0.00000000000E+00 -0.00000000000E+00 -0.45593999997E+02  0.45594000000E+02  0.51100000000E-03 0.  1.
    9900012    2    1    2    0    0 -0.12100464863E+02 -0.33135942075E+01  0.41547829087E+02  0.47787271224E+02  0.20000000817E+02 0.  0.
        -12    1    1    2    0    0  0.12100464863E+02  0.33135942075E+01 -0.41547829087E+02  0.43400728776E+02  0.00000000000E+00 0.  1.
         11    1    3    3    0    0 -0.43992008696E+01  0.41497331816E+01  0.17975357819E+02  0.18965409112E+02  0.51100000000E-03 0. -1.
        -11    1    3    3    0    0 -0.64159448693E+01 -0.44757261669E+01  0.24266515325E+02  0.25496278935E+02  0.51100000000E-03 0.  1.
        -12    1    3    3    0    0 -0.12853191236E+01 -0.29876012221E+01 -0.69404405702E+00  0.33255831767E+01  0.00000000000E+00 0.  1.
</event>
<event>
 7    1  0.4519840E-010  0.4778727E+02  0.7816164E-02  0.1312668E+00
        -11   -1    0    0    0    0  0.00000000000E+00  0.00000000000E+00  0.45593999997E+02  0.45594000000E+02  0.51100000000E-03 0. -1.
         11   -1    0    0    0    0 -0.00000000000E+00 -0.00000000000E+00 -0.45593999997E+02  0.45594000000E+02  0.51100000000E-03 0.  1.
    9900012    2    1    2    0    0  0.31748733886E+01 -0.11843823149E+02  0.41632524998E+02  0.47787272984E+02  0.20000008844E+02 0.  0.
        -12    1    1    2    0    0 -0.31748733886E+01  0.11843823149E+02 -0.41632524998E+02  0.43400727016E+02  0.00000000000E+00 0.  1.
         11    1    3    3    0    0  0.42115079538E+01 -0.48644886760E+01  0.31520542359E+01  0.71648793075E+01  0.51100000000E-03 0. -1.
        -11    1    3    3    0    0 -0.36066118979E+01  0.99929879466E+00  0.59485245970E+01  0.70278867809E+01  0.51100000000E-03 0.  1.
         12    1    3    3    0    0  0.25699773327E+01 -0.79786332677E+01  0.32531946165E+02  0.33594506896E+02  0.00000000000E+00 0. -1.
</event>
<event>
 7    1  0.4519840E-010  0.4778727E+02  0.7816164E-02  0.1312668E+00
        -11   -1    0    0    0    0  0.00000000000E+00  0.00000000000E+00  0.45593999997E+02  0.45594000000E+02  0.51100000000E-03 0. -1.
         11   -1    0    0    0    0 -0.00000000000E+00 -0.00000000000E+00 -0.45593999997E+02  0.45594000000E+02  0.51100000000E-03 0.  1.
    9900012    2    1    2    0    0  0.13408892120E+02  0.85736533695E+01 -0.40377187609E+02  0.47787271905E+02  0.20000003923E+02 0.  0.
         12    1    1    2    0    0 -0.13408892120E+02 -0.85736533695E+01  0.40377187609E+02  0.43400728095E+02  0.00000000000E+00 0. -1.
         11    1    3    3    0    0  0.61568952077E+00  0.65899253914E+01 -0.16031900428E+01  0.68100226743E+01  0.51100000000E-03 0. -1.
        -11    1    3    3    0    0  0.14113202703E+01 -0.26734942080E+00 -0.71307963130E+01  0.72740330585E+01  0.51100000000E-03 0.  1.
         12    1    3    3    0    0  0.11381882329E+02  0.22510773988E+01 -0.31643201253E+02  0.33703216172E+02  0.00000000000E+00 0. -1.
</event>
<event>
 7    1  0.4519840E-010  0.4778727E+02  0.7816164E-02  0.1312668E+00
        -11   -1    0    0    0    0  0.00000000000E+00  0.00000000000E+00  0.45593999997E+02  0.45594000000E+02  0.51100000000E-03 0. -1.
         11   -1    0    0    0    0 -0.00000000000E+00 -0.00000000000E+00 -0.45593999997E+02  0.45594000000E+02  0.51100000000E-03 0.  1.
    9900012    2    1    2    0    0 -0.20814565995E+02 -0.23682984795E+02  0.29824375459E+02  0.47787270768E+02  0.19999998738E+02 0.  0.
        -12    1    1    2    0    0  0.20814565995E+02  0.23682984795E+02 -0.29824375459E+02  0.43400729232E+02  0.00000000000E+00 0.  1.
         11    1    3    3    0    0 -0.20065111803E+02 -0.20466688927E+02  0.16915028713E+02  0.33280809244E+02  0.51100000000E-03 0. -1.
        -11    1    3    3    0    0 -0.24263274943E+01  0.31900161858E+00  0.31282092643E+01  0.39717150709E+01  0.51100000000E-03 0.  1.
         12    1    3    3    0    0  0.16768733020E+01 -0.35352974861E+01  0.97811374818E+01  0.10534746453E+02  0.00000000000E+00 0. -1.
</event>
<event>
 7    1  0.4519840E-010  0.4778727E+02  0.7816164E-02  0.1312668E+00
        -11   -1    0    0    0    0  0.00000000000E+00  0.00000000000E+00  0.45593999997E+02  0.45594000000E+02  0.51100000000E-03 0. -1.
         11   -1    0    0    0    0 -0.00000000000E+00 -0.00000000000E+00 -0.45593999997E+02  0.45594000000E+02  0.51100000000E-03 0.  1.
    9900012    2    1    2    0    0  0.89463566115E+01 -0.19465887062E+02  0.37744736435E+02  0.47787272076E+02  0.20000004704E+02 0.  0.
        -12    1    1    2    0    0 -0.89463566115E+01  0.19465887062E+02 -0.37744736435E+02  0.43400727924E+02  0.00000000000E+00 0.  1.
         11    1    3    3    0    0  0.76213244822E+01 -0.10331637073E+02  0.16885849443E+02  0.21212242294E+02  0.51100000000E-03 0. -1.
        -11    1    3    3    0    0  0.41620984354E+01  0.58981074469E-01  0.14393761873E+02  0.14983555095E+02  0.51100000000E-03 0.  1.
        -12    1    3    3    0    0 -0.28370663062E+01 -0.91932310636E+01  0.64651251189E+01  0.11591474687E+02  0.00000000000E+00 0.  1.
</event>
<event>
 7    1  0.4519840E-010  0.4778727E+02  0.7816164E-02  0.1312668E+00
        -11   -1    0    0    0    0  0.00000000000E+00  0.00000000000E+00  0.45593999997E+02  0.45594000000E+02  0.51100000000E-03 0. -1.
         11   -1    0    0    0    0 -0.00000000000E+00 -0.00000000000E+00 -0.45593999997E+02  0.45594000000E+02  0.51100000000E-03 0.  1.
    9900012    2    1    2    0    0 -0.98866216725E+01 -0.14590736023E+02  0.39660917748E+02  0.47787271177E+02  0.20000000603E+02 0.  0.
        -12    1    1    2    0    0  0.98866216725E+01  0.14590736023E+02 -0.39660917748E+02  0.43400728823E+02  0.00000000000E+00 0.  1.
         11    1    3    3    0    0 -0.22838104941E+01 -0.16980124942E+02  0.25335978037E+02  0.30585163344E+02  0.51100000000E-03 0. -1.
        -11    1    3    3    0    0  0.78574950032E-02  0.76276689411E+00  0.49925846364E+01  0.50505224173E+01  0.51100000000E-03 0.  1.
         12    1    3    3    0    0 -0.76106686734E+01  0.16266220252E+01  0.93323550742E+01  0.12151585415E+02  0.00000000000E+00 0. -1.
</event>
<event>
 7    1  0.4519840E-010  0.4778727E+02  0.7816164E-02  0.1312668E+00
        -11   -1    0    0    0    0  0.00000000000E+00  0.00000000000E+00  0.45593999997E+02  0.45594000000E+02  0.51100000000E-03 0.  1.
         11   -1    0    0    0    0 -0.00000000000E+00 -0.00000000000E+00 -0.45593999997E+02  0.45594000000E+02  0.51100000000E-03 0. -1.
    9900012    2    1    2    0    0 -0.43195463061E+02 -0.36092514982E+01 -0.21790931483E+01  0.47787272213E+02  0.20000005330E+02 0.  0.
        -12    1    1    2    0    0  0.43195463061E+02  0.36092514982E+01  0.21790931483E+01  0.43400727787E+02  0.00000000000E+00 0.  1.
         11    1    3    3    0    0 -0.20520392017E+02 -0.10712557189E+02 -0.67450477609E+00  0.23158158972E+02  0.51100000000E-03 0. -1.
        -11    1    3    3    0    0 -0.25281117820E+01  0.15578482741E+01  0.18010511690E+01  0.34730427584E+01  0.51100000000E-03 0.  1.
        -12    1    3    3    0    0 -0.20146959263E+02  0.55454574163E+01 -0.33056395412E+01  0.21156070483E+02  0.00000000000E+00 0.  1.
</event>
<event>
 7    1  0.4519840E-010  0.4778727E+02  0.7816164E-02  0.1312668E+00
        -11   -1    0    0    0    0  0.00000000000E+00  0.00000000000E+00  0.45593999997E+02  0.45594000000E+02  0.51100000000E-03 0. -1.
         11   -1    0    0    0    0 -0.00000000000E+00 -0.00000000000E+00 -0.45593999997E+02  0.45594000000E+02  0.51100000000E-03 0.  1.
    9900012    2    1    2    0    0 -0.16265570645E+02 -0.38024223368E+02 -0.13161054783E+02  0.47787265973E+02  0.19999976875E+02 0.  0.
         12    1    1    2    0    0  0.16265570645E+02  0.38024223368E+02  0.13161054783E+02  0.43400734027E+02  0.00000000000E+00 0. -1.
         11    1    3    3    0    0 -0.10971227798E+02 -0.29779447460E+02 -0.75078985544E+01  0.32612143004E+02  0.51100000000E-03 0.  1.
        -11    1    3    3    0    0 -0.32691844681E+01 -0.10445988375E+02 -0.53062528570E+01  0.12163986183E+02  0.51100000000E-03 0. -1.
        -12    1    3    3    0    0 -0.20251583798E+01  0.22012124671E+01 -0.34690337112E+00  0.30111367849E+01  0.00000000000E+00 0.  1.
</event>
<event>
 7    1  0.4519840E-010  0.4778727E+02  0.7816164E-02  0.1312668E+00
        -11   -1    0    0    0    0  0.00000000000E+00  0.00000000000E+00  0.45593999997E+02  0.45594000000E+02  0.51100000000E-03 0. -1.
         11   -1    0    0    0    0 -0.00000000000E+00 -0.00000000000E+00 -0.45593999997E+02  0.45594000000E+02  0.51100000000E-03 0.  1.
    9900012    2    1    2    0    0 -0.74615298869E+01 -0.44084898248E+01  0.42526626828E+02  0.47787271894E+02  0.20000003874E+02 0.  0.
        -12    1    1    2    0    0  0.74615298869E+01  0.44084898248E+01 -0.42526626828E+02  0.43400728106E+02  0.00000000000E+00 0.  1.
         11    1    3    3    0    0 -0.15788810111E+01  0.29474406845E+00  0.15915892272E+02  0.15996729865E+02  0.51100000000E-03 0. -1.
        -11    1    3    3    0    0  0.30375825312E+01  0.26412113600E+01  0.17765619259E+01  0.43998951828E+01  0.51100000000E-03 0.  1.
        -12    1    3    3    0    0 -0.89202314070E+01 -0.73444452532E+01  0.24834172630E+02  0.27390646846E+02  0.00000000000E+00 0.  1.
</event>
<event>
 7    1  0.4519840E-010  0.4778727E+02  0.7816164E-02  0.1312668E+00
        -11   -1    0    0    0    0  0.00000000000E+00  0.00000000000E+00  0.45593999997E+02  0.45594000000E+02  0.51100000000E-03 0. -1.
         11   -1    0    0    0    0 -0.00000000000E+00 -0.00000000000E+00 -0.45593999997E+02  0.45594000000E+02  0.51100000000E-03 0.  1.
    9900012    2    1    2    0    0  0.33597783473E+02  0.12485934146E+02  0.24472709368E+02  0.47787272937E+02  0.20000008627E+02 0.  0.
        -12    1    1    2    0    0 -0.33597783473E+02 -0.12485934146E+02 -0.24472709368E+02  0.43400727063E+02  0.00000000000E+00 0.  1.
         11    1    3    3    0    0  0.14349253631E+01  0.25886605620E+01  0.55724452920E+00  0.30117596234E+01  0.51100000000E-03 0. -1.
        -11    1    3    3    0    0 -0.20079004074E+01  0.97423069317E+00  0.29694396618E+01  0.37146146040E+01  0.51100000000E-03 0.  1.
         12    1    3    3    0    0  0.34170758518E+02  0.89230428905E+01  0.20946025177E+02  0.41060898709E+02  0.00000000000E+00 0. -1.
</event>
<event>
 7    1  0.4519840E-010  0.4778727E+02  0.7816164E-02  0.1312668E+00
        -11   -1    0    0    0    0  0.00000000000E+00  0.00000000000E+00  0.45593999997E+02  0.45594000000E+02  0.51100000000E-03 0. -1.
         11   -1    0    0    0    0 -0.00000000000E+00 -0.00000000000E+00 -0.45593999997E+02  0.45594000000E+02  0.51100000000E-03 0.  1.
    9900012    2    1    2    0    0 -0.20049075124E+02  0.18377200234E+02  0.33822132112E+02  0.47787268181E+02  0.19999986946E+02 0.  0.
        -12    1    1    2    0    0  0.20049075124E+02 -0.18377200234E+02 -0.33822132112E+02  0.43400731819E+02  0.00000000000E+00 0.  1.
         11    1    3    3    0    0  0.15836754914E+00  0.58069687765E+01  0.30304507632E+01  0.65520682796E+01  0.51100000000E-03 0. -1.
        -11    1    3    3    0    0  0.14913873371E+01 -0.10346777875E+01  0.20751742801E+01  0.27570170233E+01  0.51100000000E-03 0.  1.
         12    1    3    3    0    0 -0.21698830010E+02  0.13604909245E+02  0.28716507069E+02  0.38478182878E+02  0.00000000000E+00 0. -1.
</event>
<event>
 7    1  0.4519840E-010  0.4778727E+02  0.7816164E-02  0.1312668E+00
        -11   -1    0    0    0    0  0.00000000000E+00  0.00000000000E+00  0.45593999997E+02  0.45594000000E+02  0.51100000000E-03 0.  1.
         11   -1    0    0    0    0 -0.00000000000E+00 -0.00000000000E+00 -0.45593999997E+02  0.45594000000E+02  0.51100000000E-03 0. -1.
    9900012    2    1    2    0    0  0.23978296325E+02 -0.34941001491E+02 -0.93696951800E+01  0.47787268812E+02  0.19999989822E+02 0.  0.
         12    1    1    2    0    0 -0.23978296325E+02  0.34941001491E+02  0.93696951800E+01  0.43400731188E+02  0.00000000000E+00 0. -1.
         11    1    3    3    0    0  0.12313738442E+02 -0.17084674197E+02  0.19451719319E+01  0.21149419400E+02  0.51100000000E-03 0. -1.
        -11    1    3    3    0    0  0.72533129578E+01 -0.16927519321E+02 -0.53815266408E+01  0.19186252591E+02  0.51100000000E-03 0.  1.
         12    1    3    3    0    0  0.44112449252E+01 -0.92880797248E+00 -0.59333404711E+01  0.74515968212E+01  0.00000000000E+00 0. -1.
</event>
<event>
 7    1  0.4519840E-010  0.4778727E+02  0.7816164E-02  0.1312668E+00
        -11   -1    0    0    0    0  0.00000000000E+00  0.00000000000E+00  0.45593999997E+02  0.45594000000E+02  0.51100000000E-03 0. -1.
         11   -1    0    0    0    0 -0.00000000000E+00 -0.00000000000E+00 -0.45593999997E+02  0.45594000000E+02  0.51100000000E-03 0.  1.
    9900012    2    1    2    0    0 -0.25410272022E+02  0.26612828373E+00 -0.35183385562E+02  0.47787269959E+02  0.19999995050E+02 0.  0.
         12    1    1    2    0    0  0.25410272022E+02 -0.26612828373E+00  0.35183385562E+02  0.43400730041E+02  0.00000000000E+00 0. -1.
         11    1    3    3    0    0 -0.93688206323E+01 -0.76290329378E+01 -0.10974711839E+02  0.16322415379E+02  0.51100000000E-03 0. -1.
        -11    1    3    3    0    0 -0.92223119636E+01  0.11568709069E+01 -0.65464911500E+01  0.11368638216E+02  0.51100000000E-03 0.  1.
        -12    1    3    3    0    0 -0.68191394261E+01  0.67382903146E+01 -0.17662182574E+02  0.20096216364E+02  0.00000000000E+00 0.  1.
</event>
<event>
 7    1  0.4519840E-010  0.4778727E+02  0.7816164E-02  0.1312668E+00
        -11   -1    0    0    0    0  0.00000000000E+00  0.00000000000E+00  0.45593999997E+02  0.45594000000E+02  0.51100000000E-03 0. -1.
         11   -1    0    0    0    0 -0.00000000000E+00 -0.00000000000E+00 -0.45593999997E+02  0.45594000000E+02  0.51100000000E-03 0.  1.
    9900012    2    1    2    0    0  0.27151061200E+02  0.40656613659E+01 -0.33614192440E+02  0.47787266596E+02  0.19999979717E+02 0.  0.
         12    1    1    2    0    0 -0.27151061200E+02 -0.40656613659E+01  0.33614192440E+02  0.43400733404E+02  0.00000000000E+00 0. -1.
         11    1    3    3    0    0  0.40344274392E+01 -0.27991119362E+01 -0.30972264964E+01  0.58055529129E+01  0.51100000000E-03 0. -1.
        -11    1    3    3    0    0  0.24041315554E+02  0.33888504854E+01 -0.22110674935E+02  0.32838256767E+02  0.51100000000E-03 0.  1.
         12    1    3    3    0    0 -0.92468179319E+00  0.34759228167E+01 -0.84062910090E+01  0.91434569159E+01  0.00000000000E+00 0. -1.
</event>
<event>
 7    1  0.4519840E-010  0.4778727E+02  0.7816164E-02  0.1312668E+00
        -11   -1    0    0    0    0  0.00000000000E+00  0.00000000000E+00  0.45593999997E+02  0.45594000000E+02  0.51100000000E-03 0.  1.
         11   -1    0    0    0    0 -0.00000000000E+00 -0.00000000000E+00 -0.45593999997E+02  0.45594000000E+02  0.51100000000E-03 0. -1.
    9900012    2    1    2    0    0 -0.26201367183E+02 -0.31945907226E+02 -0.13287997067E+02  0.47787268476E+02  0.19999988291E+02 0.  0.
         12    1    1    2    0    0  0.26201367183E+02  0.31945907226E+02  0.13287997067E+02  0.43400731524E+02  0.00000000000E+00 0. -1.
         11    1    3    3    0    0  0.10710653850E+01 -0.19673799167E+01 -0.35743008868E+01  0.42182214127E+01  0.51100000000E-03 0. -1.
        -11    1    3    3    0    0 -0.15094034174E+02 -0.18891829900E+02 -0.11908434214E+02  0.26954441384E+02  0.51100000000E-03 0.  1.
         12    1    3    3    0    0 -0.12178398393E+02 -0.11086697409E+02  0.21947380332E+01  0.16614605680E+02  0.00000000000E+00 0. -1.
</event>
<event>
 7    1  0.4519840E-010  0.4778727E+02  0.7816164E-02  0.1312668E+00
        -11   -1    0    0    0    0  0.00000000000E+00  0.00000000000E+00  0.45593999997E+02  0.45594000000E+02  0.51100000000E-03 0.  1.
         11   -1    0    0    0    0 -0.00000000000E+00 -0.00000000000E+00 -0.45593999997E+02  0.45594000000E+02  0.51100000000E-03 0. -1.
    9900012    2    1    2    0    0  0.33290801078E+02 -0.22283444811E+02  0.16697116995E+02  0.47787273451E+02  0.20000010971E+02 0.  0.
         12    1    1    2    0    0 -0.33290801078E+02  0.22283444811E+02 -0.16697116995E+02  0.43400726549E+02  0.00000000000E+00 0. -1.
         11    1    3    3    0    0  0.54846236496E+01 -0.79296935064E+01  0.87821397306E+01  0.13041745059E+02  0.51100000000E-03 0. -1.
        -11    1    3    3    0    0  0.78979863972E+01 -0.11095486311E+02  0.40156599942E+01  0.14199067964E+02  0.51100000000E-03 0.  1.
        -12    1    3    3    0    0  0.19908191031E+02 -0.32582649933E+01  0.38993172705E+01  0.20546460427E+02  0.00000000000E+00 0.  1.
</event>
<event>
 7    1  0.4519840E-010  0.4778727E+02  0.7816164E-02  0.1312668E+00
        -11   -1    0    0    0    0  0.00000000000E+00  0.00000000000E+00  0.45593999997E+02  0.45594000000E+02  0.51100000000E-03 0. -1.
         11   -1    0    0    0    0 -0.00000000000E+00 -0.00000000000E+00 -0.45593999997E+02  0.45594000000E+02  0.51100000000E-03 0.  1.
    9900012    2    1    2    0    0  0.45112807519E+01 -0.20497807791E+02 -0.37988306651E+02  0.47787271660E+02  0.20000002806E+02 0.  0.
         12    1    1    2    0    0 -0.45112807519E+01  0.20497807791E+02  0.37988306651E+02  0.43400728340E+02  0.00000000000E+00 0. -1.
         11    1    3    3    0    0 -0.19220305992E+01 -0.32858254769E+01 -0.67277098322E+01  0.77300019751E+01  0.51100000000E-03 0. -1.
        -11    1    3    3    0    0  0.52478922564E+01  0.36386941277E+00 -0.15683200055E+02  0.16541932726E+02  0.51100000000E-03 0.  1.
        -12    1    3    3    0    0  0.11854190947E+01 -0.17575851727E+02 -0.15577396764E+02  0.23515336959E+02  0.00000000000E+00 0.  1.
</event>
<event>
 7    1  0.4519840E-010  0.4778727E+02  0.7816164E-02  0.1312668E+00
        -11   -1    0    0    0    0  0.00000000000E+00  0.00000000000E+00  0.45593999997E+02  0.45594000000E+02  0.51100000000E-03 0. -1.
         11   -1    0    0    0    0 -0.00000000000E+00 -0.00000000000E+00 -0.45593999997E+02  0.45594000000E+02  0.51100000000E-03 0.  1.
    9900012    2    1    2    0    0  0.17936069663E+02 -0.21639697909E+02 -0.33070289682E+02  0.47787272123E+02  0.20000004919E+02 0.  0.
         12    1    1    2    0    0 -0.17936069663E+02  0.21639697909E+02  0.33070289682E+02  0.43400727877E+02  0.00000000000E+00 0. -1.
         11    1    3    3    0    0  0.19834364340E+01 -0.11721652964E+02 -0.94137296832E+01  0.15164085040E+02  0.51100000000E-03 0. -1.
        -11    1    3    3    0    0  0.31054214576E+01 -0.41535016829E+00  0.95819765505E+00  0.32763243427E+01  0.51100000000E-03 0.  1.
        -12    1    3    3    0    0  0.12847211772E+02 -0.95026947769E+01 -0.24614757654E+02  0.29346862740E+02  0.00000000000E+00 0.  1.
</event>
<event>
 7    1  0.4519840E-010  0.4778728E+02  0.7816164E-02  0.1312668E+00
        -11   -1    0    0    0    0  0.00000000000E+00  0.00000000000E+00  0.45593999997E+02  0.45594000000E+02  0.51100000000E-03 0.  1.
         11   -1    0    0    0    0 -0.00000000000E+00 -0.00000000000E+00 -0.45593999997E+02  0.45594000000E+02  0.51100000000E-03 0. -1.
    9900012    2    1    2    0    0  0.38458623221E+02 -0.20076574438E+02 -0.12198655729E+01  0.47787278655E+02  0.20000034701E+02 0.  0.
        -12    1    1    2    0    0 -0.38458623221E+02  0.20076574438E+02  0.12198655729E+01  0.43400721345E+02  0.00000000000E+00 0.  1.
         11    1    3    3    0    0  0.38021194834E+01 -0.28420797980E+01  0.18401729549E+01  0.50911459328E+01  0.51100000000E-03 0. -1.
        -11    1    3    3    0    0  0.16107977053E+02 -0.17229260540E+02 -0.47876608779E+01  0.24067323084E+02  0.51100000000E-03 0.  1.
         12    1    3    3    0    0  0.18548526685E+02 -0.52341001058E-02  0.17276223501E+01  0.18628809639E+02  0.00000000000E+00 0. -1.
</event>
<event>
 7    1  0.4519840E-010  0.4778727E+02  0.7816164E-02  0.1312668E+00
        -11   -1    0    0    0    0  0.00000000000E+00  0.00000000000E+00  0.45593999997E+02  0.45594000000E+02  0.51100000000E-03 0.  1.
         11   -1    0    0    0    0 -0.00000000000E+00 -0.00000000000E+00 -0.45593999997E+02  0.45594000000E+02  0.51100000000E-03 0. -1.
    9900012    2    1    2    0    0  0.31087559909E+02  0.74873598406E+01  0.29344957510E+02  0.47787268788E+02  0.19999989713E+02 0.  0.
        -12    1    1    2    0    0 -0.31087559909E+02 -0.74873598406E+01 -0.29344957510E+02  0.43400731212E+02  0.00000000000E+00 0.  1.
         11    1    3    3    0    0 -0.12581038642E+01 -0.79999068444E+00  0.53430873508E+00  0.15837602450E+01  0.51100000000E-03 0.  1.
        -11    1    3    3    0    0  0.10572467632E+02 -0.30532852734E+01  0.53095905868E+01  0.12218484982E+02  0.51100000000E-03 0. -1.
        -12    1    3    3    0    0  0.21773196141E+02  0.11340635799E+02  0.23501058188E+02  0.33985023561E+02  0.00000000000E+00 0.  1.
</event>
<event>
 7    1  0.4519840E-010  0.4778727E+02  0.7816164E-02  0.1312668E+00
        -11   -1    0    0    0    0  0.00000000000E+00  0.00000000000E+00  0.45593999997E+02  0.45594000000E+02  0.51100000000E-03 0. -1.
         11   -1    0    0    0    0 -0.00000000000E+00 -0.00000000000E+00 -0.45593999997E+02  0.45594000000E+02  0.51100000000E-03 0.  1.
    9900012    2    1    2    0    0 -0.91111263962E+01 -0.33331208533E+01 -0.42302492487E+02  0.47787272017E+02  0.20000004437E+02 0.  0.
         12    1    1    2    0    0  0.91111263962E+01  0.33331208533E+01  0.42302492487E+02  0.43400727983E+02  0.00000000000E+00 0. -1.
         11    1    3    3    0    0 -0.21625280704E+01  0.17881374419E+01 -0.36081899905E+02  0.36190847796E+02  0.51100000000E-03 0. -1.
        -11    1    3    3    0    0 -0.14684904877E+01 -0.26481737084E+01 -0.43493914109E+01  0.52996692546E+01  0.51100000000E-03 0.  1.
        -12    1    3    3    0    0 -0.54801078381E+01 -0.24730845868E+01 -0.18712011704E+01  0.62967549667E+01  0.00000000000E+00 0.  1.
</event>
<event>
 7    1  0.4519840E-010  0.4778727E+02  0.7816164E-02  0.1312668E+00
        -11   -1    0    0    0    0  0.00000000000E+00  0.00000000000E+00  0.45593999997E+02  0.45594000000E+02  0.51100000000E-03 0.  1.
         11   -1    0    0    0    0 -0.00000000000E+00 -0.00000000000E+00 -0.45593999997E+02  0.45594000000E+02  0.51100000000E-03 0. -1.
    9900012    2    1    2    0    0  0.44350480025E+01 -0.43134805591E+02 -0.18281815808E+01  0.47787270144E+02  0.19999995895E+02 0.  0.
         12    1    1    2    0    0 -0.44350480025E+01  0.43134805591E+02  0.18281815808E+01  0.43400729856E+02  0.00000000000E+00 0. -1.
         11    1    3    3    0    0 -0.29541387612E+01 -0.30995890528E+02  0.40393383076E+01  0.31397267710E+02  0.51100000000E-03 0. -1.
        -11    1    3    3    0    0  0.37846789115E+01 -0.96109597041E+01 -0.19814113829E+01  0.10517620084E+02  0.51100000000E-03 0.  1.
         12    1    3    3    0    0  0.36045078522E+01 -0.25279553587E+01 -0.38861085054E+01  0.58723823503E+01  0.00000000000E+00 0. -1.
</event>
<event>
 7    1  0.4519840E-010  0.4778727E+02  0.7816164E-02  0.1312668E+00
        -11   -1    0    0    0    0  0.00000000000E+00  0.00000000000E+00  0.45593999997E+02  0.45594000000E+02  0.51100000000E-03 0. -1.
         11   -1    0    0    0    0 -0.00000000000E+00 -0.00000000000E+00 -0.45593999997E+02  0.45594000000E+02  0.51100000000E-03 0.  1.
    9900012    2    1    2    0    0 -0.30060492051E+01  0.77692461187E+01  0.42593732354E+02  0.47787267829E+02  0.19999985341E+02 0.  0.
        -12    1    1    2    0    0  0.30060492051E+01 -0.77692461187E+01 -0.42593732354E+02  0.43400732171E+02  0.00000000000E+00 0.  1.
         11    1    3    3    0    0 -0.18322218340E+01  0.95820242604E+01  0.20680087100E+02  0.22865656091E+02  0.51100000000E-03 0. -1.
        -11    1    3    3    0    0  0.62372144769E+00  0.14775177760E+01 -0.87476729774E+00  0.18268293049E+01  0.51100000000E-03 0.  1.
        -12    1    3    3    0    0 -0.17975488188E+01 -0.32902959177E+01  0.22788412552E+02  0.23094782433E+02  0.00000000000E+00 0.  1.
</event>
<event>
 7    1  0.4519840E-010  0.4778732E+02  0.7816164E-02  0.1312668E+00
        -11   -1    0    0    0    0  0.00000000000E+00  0.00000000000E+00  0.45593999997E+02  0.45594000000E+02  0.51100000000E-03 0. -1.
         11   -1    0    0    0    0 -0.00000000000E+00 -0.00000000000E+00 -0.45593999997E+02  0.45594000000E+02  0.51100000000E-03 0.  1.
    9900012    2    1    2    0    0  0.15221984735E+02  0.77141784193E+01 -0.39904903840E+02  0.47787323526E+02  0.20000239282E+02 0.  0.
         12    1    1    2    0    0 -0.15221984735E+02 -0.77141784193E+01  0.39904903840E+02  0.43400676474E+02  0.00000000000E+00 0. -1.
         11    1    3    3    0    0  0.13752940650E+02  0.31193672487E+01 -0.12621729668E+02  0.18925693874E+02  0.51100000000E-03 0. -1.
        -11    1    3    3    0    0  0.16417208389E+01  0.50100319936E+01 -0.80475198057E+01  0.96207194728E+01  0.51100000000E-03 0.  1.
         12    1    3    3    0    0 -0.17267675468E+00 -0.41522082301E+00 -0.19235654367E+02  0.19240910179E+02  0.00000000000E+00 0. -1.
</event>
<event>
 7    1  0.4519840E-010  0.4778725E+02  0.7816164E-02  0.1312668E+00
        -11   -1    0    0    0    0  0.00000000000E+00  0.00000000000E+00  0.45593999997E+02  0.45594000000E+02  0.51100000000E-03 0. -1.
         11   -1    0    0    0    0 -0.00000000000E+00 -0.00000000000E+00 -0.45593999997E+02  0.45594000000E+02  0.51100000000E-03 0.  1.
    9900012    2    1    2    0    0 -0.56158715742E+01 -0.15244012999E+02 -0.40245586244E+02  0.47787249339E+02  0.19999901034E+02 0.  0.
         12    1    1    2    0    0  0.56158715742E+01  0.15244012999E+02  0.40245586244E+02  0.43400750661E+02  0.00000000000E+00 0. -1.
         11    1    3    3    0    0 -0.98876691445E-01  0.19316816126E+01 -0.12494471786E+01  0.23026699646E+01  0.51100000000E-03 0. -1.
        -11    1    3    3    0    0  0.50552781373E+01 -0.36273651294E+01 -0.99399364551E+01  0.11726719568E+02  0.51100000000E-03 0.  1.
         12    1    3    3    0    0 -0.10572273020E+02 -0.13548329482E+02 -0.29056202610E+02  0.33757859806E+02  0.00000000000E+00 0. -1.
</event>
<event>
 7    1  0.4519840E-010  0.4778727E+02  0.7816164E-02  0.1312668E+00
        -11   -1    0    0    0    0  0.00000000000E+00  0.00000000000E+00  0.45593999997E+02  0.45594000000E+02  0.51100000000E-03 0. -1.
         11   -1    0    0    0    0 -0.00000000000E+00 -0.00000000000E+00 -0.45593999997E+02  0.45594000000E+02  0.51100000000E-03 0.  1.
    9900012    2    1    2    0    0  0.21410389636E+02 -0.17163630265E+02 -0.33624814759E+02  0.47787272404E+02  0.20000006200E+02 0.  0.
         12    1    1    2    0    0 -0.21410389636E+02  0.17163630265E+02  0.33624814759E+02  0.43400727596E+02  0.00000000000E+00 0. -1.
         11    1    3    3    0    0  0.48584816336E+00  0.25361016505E+01 -0.59279117633E+01  0.64659104660E+01  0.51100000000E-03 0.  1.
        -11    1    3    3    0    0  0.20812879557E+01  0.76702559824E+00 -0.23543273319E+00  0.22305866170E+01  0.51100000000E-03 0. -1.
         12    1    3    3    0    0  0.18843253517E+02 -0.20466757514E+02 -0.27461470263E+02  0.39090775321E+02  0.00000000000E+00 0. -1.
</event>
<event>
 7    1  0.4519840E-010  0.4778727E+02  0.7816164E-02  0.1312668E+00
        -11   -1    0    0    0    0  0.00000000000E+00  0.00000000000E+00  0.45593999997E+02  0.45594000000E+02  0.51100000000E-03 0. -1.
         11   -1    0    0    0    0 -0.00000000000E+00 -0.00000000000E+00 -0.45593999997E+02  0.45594000000E+02  0.51100000000E-03 0.  1.
    9900012    2    1    2    0    0  0.13609728826E+02  0.38155146470E+00 -0.41209865570E+02  0.47787270507E+02  0.19999997551E+02 0.  0.
         12    1    1    2    0    0 -0.13609728826E+02 -0.38155146470E+00  0.41209865570E+02  0.43400729493E+02  0.00000000000E+00 0. -1.
         11    1    3    3    0    0  0.36009365507E+01  0.16951474093E+01 -0.36983122399E+01  0.54330270077E+01  0.51100000000E-03 0. -1.
        -11    1    3    3    0    0  0.14180907199E+02 -0.39292311776E+01 -0.27120008821E+02  0.30855013618E+02  0.51100000000E-03 0.  1.
         12    1    3    3    0    0 -0.41721149234E+01  0.26156352329E+01 -0.10391544508E+02  0.11499229882E+02  0.00000000000E+00 0. -1.
</event>
<event>
 7    1  0.4519840E-010  0.4778727E+02  0.7816164E-02  0.1312668E+00
        -11   -1    0    0    0    0  0.00000000000E+00  0.00000000000E+00  0.45593999997E+02  0.45594000000E+02  0.51100000000E-03 0. -1.
         11   -1    0    0    0    0 -0.00000000000E+00 -0.00000000000E+00 -0.45593999997E+02  0.45594000000E+02  0.51100000000E-03 0.  1.
    9900012    2    1    2    0    0 -0.12542655973E+02 -0.15781399171E+02  0.38435045046E+02  0.47787268827E+02  0.19999989889E+02 0.  0.
        -12    1    1    2    0    0  0.12542655973E+02  0.15781399171E+02 -0.38435045046E+02  0.43400731173E+02  0.00000000000E+00 0.  1.
         11    1    3    3    0    0  0.19048510532E+01  0.19524241489E+01  0.30992736749E+01  0.41286699027E+01  0.51100000000E-03 0. -1.
        -11    1    3    3    0    0 -0.75442499347E+01 -0.18758620978E+01  0.15509117832E+02  0.17348409203E+02  0.51100000000E-03 0.  1.
         12    1    3    3    0    0 -0.69032570917E+01 -0.15857961223E+02  0.19826653539E+02  0.26310189721E+02  0.00000000000E+00 0. -1.
</event>
<event>
 7    1  0.4519840E-010  0.4778728E+02  0.7816164E-02  0.1312668E+00
        -11   -1    0    0    0    0  0.00000000000E+00  0.00000000000E+00  0.45593999997E+02  0.45594000000E+02  0.51100000000E-03 0. -1.
         11   -1    0    0    0    0 -0.00000000000E+00 -0.00000000000E+00 -0.45593999997E+02  0.45594000000E+02  0.51100000000E-03 0.  1.
    9900012    2    1    2    0    0 -0.28440516374E+02  0.13098875390E+02  0.30052934740E+02  0.47787281174E+02  0.20000046187E+02 0.  0.
        -12    1    1    2    0    0  0.28440516374E+02 -0.13098875390E+02 -0.30052934740E+02  0.43400718826E+02  0.00000000000E+00 0.  1.
         11    1    3    3    0    0 -0.91366035558E+00  0.27524857319E+01  0.44843459124E+00  0.29346289022E+01  0.51100000000E-03 0. -1.
        -11    1    3    3    0    0 -0.11220301497E+02 -0.81455380668E+00  0.28737780654E+01  0.11611083680E+02  0.51100000000E-03 0.  1.
         12    1    3    3    0    0 -0.16306554521E+02  0.11160943465E+02  0.26730722083E+02  0.33241568592E+02  0.00000000000E+00 0. -1.
</event>
<event>
 7    1  0.4519840E-010  0.4778727E+02  0.7816164E-02  0.1312668E+00
        -11   -1    0    0    0    0  0.00000000000E+00  0.00000000000E+00  0.45593999997E+02  0.45594000000E+02  0.51100000000E-03 0.  1.
         11   -1    0    0    0    0 -0.00000000000E+00 -0.00000000000E+00 -0.45593999997E+02  0.45594000000E+02  0.51100000000E-03 0. -1.
    9900012    2    1    2    0    0 -0.38656109700E+02 -0.15862661762E+02 -0.11734765416E+02  0.47787267579E+02  0.19999984200E+02 0.  0.
         12    1    1    2    0    0  0.38656109700E+02  0.15862661762E+02  0.11734765416E+02  0.43400732421E+02  0.00000000000E+00 0. -1.
         11    1    3    3    0    0 -0.11023671119E+02  0.15349784397E+01  0.89860904814E-01  0.11130388986E+02  0.51100000000E-03 0. -1.
        -11    1    3    3    0    0 -0.82040235505E+01  0.73568599652E-01 -0.62190744866E+00  0.82278906102E+01  0.51100000000E-03 0.  1.
         12    1    3    3    0    0 -0.19428415031E+02 -0.17471208801E+02 -0.11202718872E+02  0.28428987983E+02  0.00000000000E+00 0. -1.
</event>
<event>
 7    1  0.4519840E-010  0.4778727E+02  0.7816164E-02  0.1312668E+00
        -11   -1    0    0    0    0  0.00000000000E+00  0.00000000000E+00  0.45593999997E+02  0.45594000000E+02  0.51100000000E-03 0. -1.
         11   -1    0    0    0    0 -0.00000000000E+00 -0.00000000000E+00 -0.45593999997E+02  0.45594000000E+02  0.51100000000E-03 0.  1.
    9900012    2    1    2    0    0  0.27028885744E+02  0.63747011064E+01 -0.33353050625E+02  0.47787268845E+02  0.19999989973E+02 0.  0.
         12    1    1    2    0    0 -0.27028885744E+02 -0.63747011064E+01  0.33353050625E+02  0.43400731155E+02  0.00000000000E+00 0. -1.
         11    1    3    3    0    0  0.13486634287E+02  0.31300859546E+01 -0.54658862159E+01  0.14884980848E+02  0.51100000000E-03 0.  1.
        -11    1    3    3    0    0  0.73485988605E+00 -0.26509348616E+01 -0.19210633462E+01  0.33552882639E+01  0.51100000000E-03 0. -1.
         12    1    3    3    0    0  0.12807391571E+02  0.58955500134E+01 -0.25966101063E+02  0.29546999733E+02  0.00000000000E+00 0. -1.
</event>
<event>
 7    1  0.4519840E-010  0.4778728E+02  0.7816164E-02  0.1312668E+00
        -11   -1    0    0    0    0  0.00000000000E+00  0.00000000000E+00  0.45593999997E+02  0.45594000000E+02  0.51100000000E-03 0. -1.
         11   -1    0    0    0    0 -0.00000000000E+00 -0.00000000000E+00 -0.45593999997E+02  0.45594000000E+02  0.51100000000E-03 0.  1.
    9900012    2    1    2    0    0  0.18142571471E+02  0.36365352284E+02 -0.15232563241E+02  0.47787277319E+02  0.20000028609E+02 0.  0.
         12    1    1    2    0    0 -0.18142571471E+02 -0.36365352284E+02  0.15232563241E+02  0.43400722681E+02  0.00000000000E+00 0. -1.
         11    1    3    3    0    0  0.60933506460E+01  0.11903695958E+02  0.25880157472E+01  0.13620746137E+02  0.51100000000E-03 0. -1.
        -11    1    3    3    0    0  0.37944758952E+01  0.13846114505E+01 -0.32224508340E+00  0.40520412564E+01  0.51100000000E-03 0.  1.
        -12    1    3    3    0    0  0.82547449296E+01  0.23077044876E+02 -0.17498333905E+02  0.30114489926E+02  0.00000000000E+00 0.  1.
</event>
<event>
 7    1  0.4519840E-010  0.4778727E+02  0.7816164E-02  0.1312668E+00
        -11   -1    0    0    0    0  0.00000000000E+00  0.00000000000E+00  0.45593999997E+02  0.45594000000E+02  0.51100000000E-03 0. -1.
         11   -1    0    0    0    0 -0.00000000000E+00 -0.00000000000E+00 -0.45593999997E+02  0.45594000000E+02  0.51100000000E-03 0.  1.
    9900012    2    1    2    0    0  0.11149376921E+01 -0.15974713876E+02 -0.40338426898E+02  0.47787271272E+02  0.20000001038E+02 0.  0.
         12    1    1    2    0    0 -0.11149376921E+01  0.15974713876E+02  0.40338426898E+02  0.43400728728E+02  0.00000000000E+00 0. -1.
         11    1    3    3    0    0 -0.40475552558E+01 -0.46713216857E+01 -0.79232717816E+01  0.10048989294E+02  0.51100000000E-03 0. -1.
        -11    1    3    3    0    0  0.34414694931E+01 -0.14371594057E+02 -0.30085230854E+02  0.33518764055E+02  0.51100000000E-03 0.  1.
         12    1    3    3    0    0  0.17210234548E+01  0.30682018673E+01 -0.23299242631E+01  0.42195179229E+01  0.00000000000E+00 0. -1.
</event>
<event>
 7    1  0.4519840E-010  0.4778727E+02  0.7816164E-02  0.1312668E+00
        -11   -1    0    0    0    0  0.00000000000E+00  0.00000000000E+00  0.45593999997E+02  0.45594000000E+02  0.51100000000E-03 0. -1.
         11   -1    0    0    0    0 -0.00000000000E+00 -0.00000000000E+00 -0.45593999997E+02  0.45594000000E+02  0.51100000000E-03 0.  1.
    9900012    2    1    2    0    0  0.24060323808E+02 -0.32946407032E+02 -0.14807377419E+02  0.47787270235E+02  0.19999996312E+02 0.  0.
         12    1    1    2    0    0 -0.24060323808E+02  0.32946407032E+02  0.14807377419E+02  0.43400729765E+02  0.00000000000E+00 0. -1.
         11    1    3    3    0    0  0.76948084844E-01 -0.11613312864E+01 -0.54184090159E+01  0.55420003509E+01  0.51100000000E-03 0. -1.
        -11    1    3    3    0    0  0.37150733996E+01 -0.12954345594E+02 -0.21389897663E+01  0.13645223253E+02  0.51100000000E-03 0.  1.
         12    1    3    3    0    0  0.20268302323E+02 -0.18830730152E+02 -0.72499786371E+01  0.28600046632E+02  0.00000000000E+00 0. -1.
</event>
<event>
 7    1  0.4519840E-010  0.4778727E+02  0.7816164E-02  0.1312668E+00
        -11   -1    0    0    0    0  0.00000000000E+00  0.00000000000E+00  0.45593999997E+02  0.45594000000E+02  0.51100000000E-03 0. -1.
         11   -1    0    0    0    0 -0.00000000000E+00 -0.00000000000E+00 -0.45593999997E+02  0.45594000000E+02  0.51100000000E-03 0.  1.
    9900012    2    1    2    0    0 -0.34550058549E+02 -0.56019830408E+01  0.25661928211E+02  0.47787270522E+02  0.19999997617E+02 0.  0.
        -12    1    1    2    0    0  0.34550058549E+02  0.56019830408E+01 -0.25661928211E+02  0.43400729478E+02  0.00000000000E+00 0.  1.
         11    1    3    3    0    0 -0.86964689450E+01 -0.37547844123E+01  0.28543003978E+01  0.98931293894E+01  0.51100000000E-03 0. -1.
        -11    1    3    3    0    0  0.12797033820E+00 -0.18483602548E+01  0.75280338733E+01  0.77526838126E+01  0.51100000000E-03 0.  1.
         12    1    3    3    0    0 -0.25981559942E+02  0.11616263041E-02  0.15279593940E+02  0.30141457320E+02  0.00000000000E+00 0. -1.
</event>
<event>
 7    1  0.4519840E-010  0.4778727E+02  0.7816164E-02  0.1312668E+00
        -11   -1    0    0    0    0  0.00000000000E+00  0.00000000000E+00  0.45593999997E+02  0.45594000000E+02  0.51100000000E-03 0. -1.
         11   -1    0    0    0    0 -0.00000000000E+00 -0.00000000000E+00 -0.45593999997E+02  0.45594000000E+02  0.51100000000E-03 0.  1.
    9900012    2    1    2    0    0  0.11334390505E+02 -0.43915215427E+01  0.41663765608E+02  0.47787271501E+02  0.20000002082E+02 0.  0.
        -12    1    1    2    0    0 -0.11334390505E+02  0.43915215427E+01 -0.41663765608E+02  0.43400728499E+02  0.00000000000E+00 0.  1.
         11    1    3    3    0    0  0.55180751906E+01 -0.75838434574E+01  0.26544832120E+02  0.28153009572E+02  0.51100000000E-03 0. -1.
        -11    1    3    3    0    0 -0.24073580906E+01  0.43445363410E+00  0.81454078326E+01  0.85048099307E+01  0.51100000000E-03 0.  1.
         12    1    3    3    0    0  0.82236734046E+01  0.27578682806E+01  0.69735256557E+01  0.11129451999E+02  0.00000000000E+00 0. -1.
</event>
<event>
 7    1  0.4519840E-010  0.4778727E+02  0.7816164E-02  0.1312668E+00
        -11   -1    0    0    0    0  0.00000000000E+00  0.00000000000E+00  0.45593999997E+02  0.45594000000E+02  0.51100000000E-03 0.  1.
         11   -1    0    0    0    0 -0.00000000000E+00 -0.00000000000E+00 -0.45593999997E+02  0.45594000000E+02  0.51100000000E-03 0. -1.
    9900012    2    1    2    0    0 -0.24418914743E+02  0.33458819632E+02  0.12955584423E+02  0.47787272170E+02  0.20000005132E+02 0.  0.
         12    1    1    2    0    0  0.24418914743E+02 -0.33458819632E+02 -0.12955584423E+02  0.43400727830E+02  0.00000000000E+00 0. -1.
         11    1    3    3    0    0 -0.13183094759E+02  0.43806100009E+01  0.43059022746E+01  0.14543882771E+02  0.51100000000E-03 0. -1.
        -11    1    3    3    0    0  0.69789214067E+00  0.34391777318E+01  0.24822309207E+01  0.42984261673E+01  0.51100000000E-03 0.  1.
        -12    1    3    3    0    0 -0.11933712125E+02  0.25639031900E+02  0.61674512280E+01  0.28944963231E+02  0.00000000000E+00 0.  1.
</event>
<event>
 7    1  0.4519840E-010  0.4778727E+02  0.7816164E-02  0.1312668E+00
        -11   -1    0    0    0    0  0.00000000000E+00  0.00000000000E+00  0.45593999997E+02  0.45594000000E+02  0.51100000000E-03 0. -1.
         11   -1    0    0    0    0 -0.00000000000E+00 -0.00000000000E+00 -0.45593999997E+02  0.45594000000E+02  0.51100000000E-03 0.  1.
    9900012    2    1    2    0    0 -0.18479812141E+02  0.38461831130E+02  0.79251003021E+01  0.47787272754E+02  0.20000007795E+02 0.  0.
         12    1    1    2    0    0  0.18479812141E+02 -0.38461831130E+02 -0.79251003021E+01  0.43400727246E+02  0.00000000000E+00 0. -1.
         11    1    3    3    0    0 -0.47051350530E+01  0.67607935157E+01  0.40229272531E+01  0.91668189016E+01  0.51100000000E-03 0. -1.
        -11    1    3    3    0    0 -0.11239840906E+02  0.17711888232E+02 -0.53617050900E+01  0.21651625576E+02  0.51100000000E-03 0.  1.
         12    1    3    3    0    0 -0.25348361821E+01  0.13989149382E+02  0.92638781390E+01  0.16968828277E+02  0.00000000000E+00 0. -1.
</event>
<event>
 7    1  0.4519840E-010  0.4778727E+02  0.7816164E-02  0.1312668E+00
        -11   -1    0    0    0    0  0.00000000000E+00  0.00000000000E+00  0.45593999997E+02  0.45594000000E+02  0.51100000000E-03 0. -1.
         11   -1    0    0    0    0 -0.00000000000E+00 -0.00000000000E+00 -0.45593999997E+02  0.45594000000E+02  0.51100000000E-03 0.  1.
    9900012    2    1    2    0    0  0.38527636019E-01 -0.10549156761E+01 -0.43387886719E+02  0.47787273676E+02  0.20000012000E+02 0.  0.
         12    1    1    2    0    0 -0.38527636019E-01  0.10549156761E+01  0.43387886719E+02  0.43400726324E+02  0.00000000000E+00 0. -1.
         11    1    3    3    0    0 -0.58545293114E+01  0.86109370376E+00 -0.60721215889E+01  0.84786588961E+01  0.51100000000E-03 0. -1.
        -11    1    3    3    0    0 -0.84580706782E+00  0.34733946813E+01 -0.83042386890E+01  0.90410309519E+01  0.51100000000E-03 0.  1.
         12    1    3    3    0    0  0.67388640152E+01 -0.53894040612E+01 -0.29011526441E+02  0.30267583828E+02  0.00000000000E+00 0. -1.
</event>
<event>
 7    1  0.4519840E-010  0.4778727E+02  0.7816164E-02  0.1312668E+00
        -11   -1    0    0    0    0  0.00000000000E+00  0.00000000000E+00  0.45593999997E+02  0.45594000000E+02  0.51100000000E-03 0.  1.
         11   -1    0    0    0    0 -0.00000000000E+00 -0.00000000000E+00 -0.45593999997E+02  0.45594000000E+02  0.51100000000E-03 0. -1.
    9900012    2    1    2    0    0  0.25908763671E+02 -0.23889507756E+02 -0.25330822823E+02  0.47787271888E+02  0.20000003845E+02 0.  0.
         12    1    1    2    0    0 -0.25908763671E+02  0.23889507756E+02  0.25330822823E+02  0.43400728112E+02  0.00000000000E+00 0. -1.
         11    1    3    3    0    0  0.85708959521E+01 -0.79308384999E+01  0.87409360918E+00  0.11709931538E+02  0.51100000000E-03 0. -1.
        -11    1    3    3    0    0  0.95213785409E+01 -0.69589038035E+01 -0.77653880132E+01  0.14120348534E+02  0.51100000000E-03 0.  1.
         12    1    3    3    0    0  0.78164891778E+01 -0.89997654526E+01 -0.18439528419E+02  0.21956991815E+02  0.00000000000E+00 0. -1.
</event>
<event>
 7    1  0.4519840E-010  0.4778727E+02  0.7816164E-02  0.1312668E+00
        -11   -1    0    0    0    0  0.00000000000E+00  0.00000000000E+00  0.45593999997E+02  0.45594000000E+02  0.51100000000E-03 0.  1.
         11   -1    0    0    0    0 -0.00000000000E+00 -0.00000000000E+00 -0.45593999997E+02  0.45594000000E+02  0.51100000000E-03 0. -1.
    9900012    2    1    2    0    0 -0.40423293803E+01  0.42826442263E+02  0.57600988220E+01  0.47787270488E+02  0.19999997465E+02 0.  0.
        -12    1    1    2    0    0  0.40423293803E+01 -0.42826442263E+02 -0.57600988220E+01  0.43400729512E+02  0.00000000000E+00 0.  1.
         11    1    3    3    0    0  0.31404728576E+01  0.15184511875E+02 -0.18631073759E-02  0.15505869031E+02  0.51100000000E-03 0. -1.
        -11    1    3    3    0    0  0.91105999657E-03 -0.10288954364E+01 -0.15246836522E+01  0.18393714006E+01  0.51100000000E-03 0.  1.
        -12    1    3    3    0    0 -0.71837132979E+01  0.28670825824E+02  0.72866455816E+01  0.30442030057E+02  0.00000000000E+00 0.  1.
</event>
<event>
 7    1  0.4519840E-010  0.4778727E+02  0.7816164E-02  0.1312668E+00
        -11   -1    0    0    0    0  0.00000000000E+00  0.00000000000E+00  0.45593999997E+02  0.45594000000E+02  0.51100000000E-03 0. -1.
         11   -1    0    0    0    0 -0.00000000000E+00 -0.00000000000E+00 -0.45593999997E+02  0.45594000000E+02  0.51100000000E-03 0.  1.
    9900012    2    1    2    0    0  0.88219686096E+01  0.37456362052E+02 -0.20070295524E+02  0.47787274767E+02  0.20000016973E+02 0.  0.
         12    1    1    2    0    0 -0.88219686096E+01 -0.37456362052E+02  0.20070295524E+02  0.43400725233E+02  0.00000000000E+00 0. -1.
         11    1    3    3    0    0  0.56422656283E+01  0.15160497298E+02 -0.13505674154E+02  0.21073183774E+02  0.51100000000E-03 0. -1.
        -11    1    3    3    0    0  0.71983501564E+01  0.16276343178E+02 -0.14589336699E+01  0.17856765663E+02  0.51100000000E-03 0.  1.
         12    1    3    3    0    0 -0.40186471750E+01  0.60195215763E+01 -0.51056876999E+01  0.88573253307E+01  0.00000000000E+00 0. -1.
</event>
<event>
 7    1  0.4519840E-010  0.4778727E+02  0.7816164E-02  0.1312668E+00
        -11   -1    0    0    0    0  0.00000000000E+00  0.00000000000E+00  0.45593999997E+02  0.45594000000E+02  0.51100000000E-03 0. -1.
         11   -1    0    0    0    0 -0.00000000000E+00 -0.00000000000E+00 -0.45593999997E+02  0.45594000000E+02  0.51100000000E-03 0.  1.
    9900012    2    1    2    0    0  0.39383760922E+02  0.93697888019E+01  0.15644490085E+02  0.47787266866E+02  0.19999980950E+02 0.  0.
        -12    1    1    2    0    0 -0.39383760922E+02 -0.93697888019E+01 -0.15644490085E+02  0.43400733134E+02  0.00000000000E+00 0.  1.
         11    1    3    3    0    0  0.60501981734E+01 -0.23654142701E+00 -0.69106611474E+00  0.60941301610E+01  0.51100000000E-03 0. -1.
        -11    1    3    3    0    0  0.41824656300E+01  0.61484913605E+01 -0.11500384997E+01  0.75245965717E+01  0.51100000000E-03 0.  1.
         12    1    3    3    0    0  0.29151097118E+02  0.34578388684E+01  0.17485594700E+02  0.34168540133E+02  0.00000000000E+00 0. -1.
</event>
<event>
 7    1  0.4519840E-010  0.4778727E+02  0.7816164E-02  0.1312668E+00
        -11   -1    0    0    0    0  0.00000000000E+00  0.00000000000E+00  0.45593999997E+02  0.45594000000E+02  0.51100000000E-03 0. -1.
         11   -1    0    0    0    0 -0.00000000000E+00 -0.00000000000E+00 -0.45593999997E+02  0.45594000000E+02  0.51100000000E-03 0.  1.
    9900012    2    1    2    0    0 -0.11540851179E+00  0.15262001293E+02 -0.40628577025E+02  0.47787271047E+02  0.20000000011E+02 0.  0.
         12    1    1    2    0    0  0.11540851179E+00 -0.15262001293E+02  0.40628577025E+02  0.43400728953E+02  0.00000000000E+00 0. -1.
         11    1    3    3    0    0  0.56263629984E+01  0.16768407308E+02 -0.28005633994E+02  0.33123269463E+02  0.51100000000E-03 0. -1.
        -11    1    3    3    0    0 -0.15350266924E+01  0.15944888977E+01 -0.32401971302E+01  0.39239749610E+01  0.51100000000E-03 0.  1.
         12    1    3    3    0    0 -0.42067448178E+01 -0.31008949130E+01 -0.93827459006E+01  0.10740026623E+02  0.00000000000E+00 0. -1.
</event>
<event>
 7    1  0.4519840E-010  0.4778727E+02  0.7816164E-02  0.1312668E+00
        -11   -1    0    0    0    0  0.00000000000E+00  0.00000000000E+00  0.45593999997E+02  0.45594000000E+02  0.51100000000E-03 0. -1.
         11   -1    0    0    0    0 -0.00000000000E+00 -0.00000000000E+00 -0.45593999997E+02  0.45594000000E+02  0.51100000000E-03 0.  1.
    9900012    2    1    2    0    0  0.21096489651E+00  0.21996847299E+02 -0.37412799601E+02  0.47787269922E+02  0.19999994884E+02 0.  0.
         12    1    1    2    0    0 -0.21096489651E+00 -0.21996847299E+02  0.37412799601E+02  0.43400730078E+02  0.00000000000E+00 0. -1.
         11    1    3    3    0    0  0.53592786119E+01  0.12433839457E+02 -0.15086990220E+02  0.20271642879E+02  0.51100000000E-03 0. -1.
        -11    1    3    3    0    0 -0.59479283010E+00  0.98519538965E+01 -0.20199386212E+02  0.22481769897E+02  0.51100000000E-03 0.  1.
        -12    1    3    3    0    0 -0.45535208853E+01 -0.28894605418E+00 -0.21264231693E+01  0.50338571464E+01  0.00000000000E+00 0.  1.
</event>
<event>
 7    1  0.4519840E-010  0.4778727E+02  0.7816164E-02  0.1312668E+00
        -11   -1    0    0    0    0  0.00000000000E+00  0.00000000000E+00  0.45593999997E+02  0.45594000000E+02  0.51100000000E-03 0. -1.
         11   -1    0    0    0    0 -0.00000000000E+00 -0.00000000000E+00 -0.45593999997E+02  0.45594000000E+02  0.51100000000E-03 0.  1.
    9900012    2    1    2    0    0 -0.14193153855E+01 -0.76359944192E+01  0.42700121066E+02  0.47787271827E+02  0.20000003566E+02 0.  0.
        -12    1    1    2    0    0  0.14193153855E+01  0.76359944192E+01 -0.42700121066E+02  0.43400728173E+02  0.00000000000E+00 0.  1.
         11    1    3    3    0    0 -0.83325945273E+00 -0.59391151150E+01  0.39151614188E+02  0.39608285793E+02  0.51100000000E-03 0. -1.
        -11    1    3    3    0    0 -0.71467156838E+00 -0.41406389918E+01  0.38679261698E+01  0.57110856960E+01  0.51100000000E-03 0.  1.
         12    1    3    3    0    0  0.12861563560E+00  0.24437596876E+01 -0.31941929197E+00  0.24679003376E+01  0.00000000000E+00 0. -1.
</event>
<event>
 7    1  0.4519840E-010  0.4778727E+02  0.7816164E-02  0.1312668E+00
        -11   -1    0    0    0    0  0.00000000000E+00  0.00000000000E+00  0.45593999997E+02  0.45594000000E+02  0.51100000000E-03 0.  1.
         11   -1    0    0    0    0 -0.00000000000E+00 -0.00000000000E+00 -0.45593999997E+02  0.45594000000E+02  0.51100000000E-03 0. -1.
    9900012    2    1    2    0    0  0.13500700264E+02  0.39344937512E+02  0.12382660588E+02  0.47787270759E+02  0.19999998698E+02 0.  0.
        -12    1    1    2    0    0 -0.13500700264E+02 -0.39344937512E+02 -0.12382660588E+02  0.43400729241E+02  0.00000000000E+00 0.  1.
         11    1    3    3    0    0  0.10338290580E+02  0.28680170627E+02  0.79483193200E+01  0.31505685512E+02  0.51100000000E-03 0. -1.
        -11    1    3    3    0    0  0.12217999349E+01  0.12480137384E+02  0.20399908602E+01  0.12704652186E+02  0.51100000000E-03 0.  1.
        -12    1    3    3    0    0  0.19406097489E+01 -0.18153704988E+01  0.23943504076E+01  0.35769330606E+01  0.00000000000E+00 0.  1.
</event>
<event>
 7    1  0.4519840E-010  0.4778727E+02  0.7816164E-02  0.1312668E+00
        -11   -1    0    0    0    0  0.00000000000E+00  0.00000000000E+00  0.45593999997E+02  0.45594000000E+02  0.51100000000E-03 0. -1.
         11   -1    0    0    0    0 -0.00000000000E+00 -0.00000000000E+00 -0.45593999997E+02  0.45594000000E+02  0.51100000000E-03 0.  1.
    9900012    2    1    2    0    0 -0.76074955358E+01 -0.25265662424E+02  0.34458605363E+02  0.47787272245E+02  0.20000005474E+02 0.  0.
        -12    1    1    2    0    0  0.76074955358E+01  0.25265662424E+02 -0.34458605363E+02  0.43400727755E+02  0.00000000000E+00 0.  1.
         11    1    3    3    0    0 -0.59011618976E+01 -0.11904607518E+02  0.15243637874E+02  0.20221569864E+02  0.51100000000E-03 0. -1.
        -11    1    3    3    0    0 -0.65432435095E+01 -0.27373987124E+01  0.32845422157E+01  0.78163677730E+01  0.51100000000E-03 0.  1.
         12    1    3    3    0    0  0.48369098714E+01 -0.10623656194E+02  0.15930425274E+02  0.19749334608E+02  0.00000000000E+00 0. -1.
</event>
<event>
 7    1  0.4519840E-010  0.4778727E+02  0.7816164E-02  0.1312668E+00
        -11   -1    0    0    0    0  0.00000000000E+00  0.00000000000E+00  0.45593999997E+02  0.45594000000E+02  0.51100000000E-03 0. -1.
         11   -1    0    0    0    0 -0.00000000000E+00 -0.00000000000E+00 -0.45593999997E+02  0.45594000000E+02  0.51100000000E-03 0.  1.
    9900012    2    1    2    0    0  0.18417926183E+02 -0.26618343372E+02 -0.28911364886E+02  0.47787271569E+02  0.20000002394E+02 0.  0.
         12    1    1    2    0    0 -0.18417926183E+02  0.26618343372E+02  0.28911364886E+02  0.43400728431E+02  0.00000000000E+00 0. -1.
         11    1    3    3    0    0  0.77707965021E+01 -0.70279528343E+01 -0.44976294782E+01  0.11402020457E+02  0.51100000000E-03 0. -1.
        -11    1    3    3    0    0 -0.23828744659E+01 -0.62703125572E+01 -0.12737266672E+02  0.14395585185E+02  0.51100000000E-03 0.  1.
        -12    1    3    3    0    0  0.13030004146E+02 -0.13320077980E+02 -0.11676468736E+02  0.21989665927E+02  0.00000000000E+00 0.  1.
</event>
<event>
 7    1  0.4519840E-010  0.4778727E+02  0.7816164E-02  0.1312668E+00
        -11   -1    0    0    0    0  0.00000000000E+00  0.00000000000E+00  0.45593999997E+02  0.45594000000E+02  0.51100000000E-03 0. -1.
         11   -1    0    0    0    0 -0.00000000000E+00 -0.00000000000E+00 -0.45593999997E+02  0.45594000000E+02  0.51100000000E-03 0.  1.
    9900012    2    1    2    0    0  0.89913211372E+01  0.37534660337E+02 -0.19847638945E+02  0.47787270121E+02  0.19999995788E+02 0.  0.
         12    1    1    2    0    0 -0.89913211372E+01 -0.37534660337E+02  0.19847638945E+02  0.43400729879E+02  0.00000000000E+00 0. -1.
         11    1    3    3    0    0  0.49249071943E+01 -0.96467541991E-01 -0.13547399324E+01  0.51087510611E+01  0.51100000000E-03 0. -1.
        -11    1    3    3    0    0 -0.86321063510E+00  0.10467954110E+02 -0.25872903203E+01  0.10817451979E+02  0.51100000000E-03 0.  1.
         12    1    3    3    0    0  0.49296245780E+01  0.27163173768E+02 -0.15905608692E+02  0.31861067081E+02  0.00000000000E+00 0. -1.
</event>
<event>
 7    1  0.4601174E-010  0.4778727E+02  0.7816164E-02  0.1312668E+00
        -11   -1    0    0    0    0  0.00000000000E+00  0.00000000000E+00  0.45593999997E+02  0.45594000000E+02  0.51100000000E-03 0. -1.
         11   -1    0    0    0    0 -0.00000000000E+00 -0.00000000000E+00 -0.45593999997E+02  0.45594000000E+02  0.51100000000E-03 0.  1.
    9900012    2    1    2    0    0 -0.98676456143E+01 -0.23175797222E+02 -0.35343109601E+02  0.47787269556E+02  0.19999993212E+02 0.  0.
         12    1    1    2    0    0  0.98676456143E+01  0.23175797222E+02  0.35343109601E+02  0.43400730444E+02  0.00000000000E+00 0. -1.
         11    1    3    3    0    0 -0.30147655716E+01 -0.67913946179E+01 -0.15782993299E+01  0.75962412642E+01  0.51100000000E-03 0. -1.
        -11    1    3    3    0    0 -0.53450781611E+01 -0.10793723056E+02 -0.97744179935E+01  0.15511723481E+02  0.51100000000E-03 0.  1.
        -12    1    3    3    0    0 -0.15078018816E+01 -0.55906795473E+01 -0.23990392278E+02  0.24679304811E+02  0.00000000000E+00 0.  1.
</event>
<event>
 7    1  0.4519840E-010  0.4778727E+02  0.7816164E-02  0.1312668E+00
        -11   -1    0    0    0    0  0.00000000000E+00  0.00000000000E+00  0.45593999997E+02  0.45594000000E+02  0.51100000000E-03 0. -1.
         11   -1    0    0    0    0 -0.00000000000E+00 -0.00000000000E+00 -0.45593999997E+02  0.45594000000E+02  0.51100000000E-03 0.  1.
    9900012    2    1    2    0    0  0.22142105057E+01 -0.67816268071E+01 -0.42810398158E+02  0.47787269813E+02  0.19999994384E+02 0.  0.
         12    1    1    2    0    0 -0.22142105057E+01  0.67816268071E+01  0.42810398158E+02  0.43400730187E+02  0.00000000000E+00 0. -1.
         11    1    3    3    0    0  0.45122312260E+01  0.93651337075E+00 -0.45325277349E+01  0.64638298136E+01  0.51100000000E-03 0.  1.
        -11    1    3    3    0    0  0.31725425813E+01  0.74236810060E+00 -0.23703214883E+01  0.40292134525E+01  0.51100000000E-03 0. -1.
        -12    1    3    3    0    0 -0.54705633017E+01 -0.84605082784E+01 -0.35907548935E+02  0.37294226547E+02  0.00000000000E+00 0.  1.
</event>
<event>
 7    1  0.4519840E-010  0.4778729E+02  0.7816164E-02  0.1312668E+00
        -11   -1    0    0    0    0  0.00000000000E+00  0.00000000000E+00  0.45593999997E+02  0.45594000000E+02  0.51100000000E-03 0. -1.
         11   -1    0    0    0    0 -0.00000000000E+00 -0.00000000000E+00 -0.45593999997E+02  0.45594000000E+02  0.51100000000E-03 0.  1.
    9900012    2    1    2    0    0 -0.23214694113E+02 -0.22611726670E+02  0.28868826311E+02  0.47787293343E+02  0.20000101666E+02 0.  0.
        -12    1    1    2    0    0  0.23214694113E+02  0.22611726670E+02 -0.28868826311E+02  0.43400706657E+02  0.00000000000E+00 0.  1.
         11    1    3    3    0    0 -0.87954021819E+01 -0.17754413966E+02  0.99715168717E+01  0.22181286343E+02  0.51100000000E-03 0. -1.
        -11    1    3    3    0    0 -0.99251315518E+00  0.34803131710E+00 -0.71706792858E+00  0.12729473030E+01  0.51100000000E-03 0.  1.
        -12    1    3    3    0    0 -0.13426778776E+02 -0.52053440204E+01  0.19614377368E+02  0.24333059697E+02  0.00000000000E+00 0.  1.
</event>
<event>
 7    1  0.4519840E-010  0.4778727E+02  0.7816164E-02  0.1312668E+00
        -11   -1    0    0    0    0  0.00000000000E+00  0.00000000000E+00  0.45593999997E+02  0.45594000000E+02  0.51100000000E-03 0. -1.
         11   -1    0    0    0    0 -0.00000000000E+00 -0.00000000000E+00 -0.45593999997E+02  0.45594000000E+02  0.51100000000E-03 0.  1.
    9900012    2    1    2    0    0  0.27853736183E+01 -0.27931688894E+01 -0.43221097802E+02  0.47787269662E+02  0.19999993699E+02 0.  0.
         12    1    1    2    0    0 -0.27853736183E+01  0.27931688894E+01  0.43221097802E+02  0.43400730338E+02  0.00000000000E+00 0. -1.
         11    1    3    3    0    0  0.24719345011E+01 -0.77399991446E+01 -0.12933449677E+02  0.15273904797E+02  0.51100000000E-03 0.  1.
        -11    1    3    3    0    0  0.30731100796E+01 -0.16364257636E+01 -0.41426910790E+01  0.54114493879E+01  0.51100000000E-03 0. -1.
         12    1    3    3    0    0 -0.27596709624E+01  0.65832560187E+01 -0.26144957046E+02  0.27101915478E+02  0.00000000000E+00 0. -1.
</event>
<event>
 7    1  0.4519840E-010  0.4778727E+02  0.7816164E-02  0.1312668E+00
        -11   -1    0    0    0    0  0.00000000000E+00  0.00000000000E+00  0.45593999997E+02  0.45594000000E+02  0.51100000000E-03 0.  1.
         11   -1    0    0    0    0 -0.00000000000E+00 -0.00000000000E+00 -0.45593999997E+02  0.45594000000E+02  0.51100000000E-03 0. -1.
    9900012    2    1    2    0    0  0.43261709839E+02 -0.49235109341E+00  0.34358797860E+01  0.47787271691E+02  0.20000002949E+02 0.  0.
        -12    1    1    2    0    0 -0.43261709839E+02  0.49235109341E+00 -0.34358797860E+01  0.43400728309E+02  0.00000000000E+00 0.  1.
         11    1    3    3    0    0  0.21541776940E+02  0.28832063838E+01  0.83804278753E+01  0.23293617246E+02  0.51100000000E-03 0. -1.
        -11    1    3    3    0    0  0.58279005487E+01 -0.44081498254E+01  0.12355956688E+01  0.74109990289E+01  0.51100000000E-03 0.  1.
        -12    1    3    3    0    0  0.15892032351E+02  0.10325923482E+01 -0.61801437580E+01  0.17082655416E+02  0.00000000000E+00 0.  1.
</event>
<event>
 7    1  0.4519840E-010  0.4778727E+02  0.7816164E-02  0.1312668E+00
        -11   -1    0    0    0    0  0.00000000000E+00  0.00000000000E+00  0.45593999997E+02  0.45594000000E+02  0.51100000000E-03 0.  1.
         11   -1    0    0    0    0 -0.00000000000E+00 -0.00000000000E+00 -0.45593999997E+02  0.45594000000E+02  0.51100000000E-03 0. -1.
    9900012    2    1    2    0    0  0.31702941066E+02 -0.28539331112E+02 -0.80033378313E+01  0.47787270639E+02  0.19999998154E+02 0.  0.
        -12    1    1    2    0    0 -0.31702941066E+02  0.28539331112E+02  0.80033378313E+01  0.43400729361E+02  0.00000000000E+00 0.  1.
         11    1    3    3    0    0  0.50862063861E+01 -0.71576098341E+00 -0.25726347991E+01  0.57445852120E+01  0.51100000000E-03 0. -1.
        -11    1    3    3    0    0  0.30424248410E+01 -0.41790749292E+01 -0.69000645102E+01  0.86215953676E+01  0.51100000000E-03 0.  1.
        -12    1    3    3    0    0  0.23574309839E+02 -0.23644495200E+02  0.14693614780E+01  0.33421090060E+02  0.00000000000E+00 0.  1.
</event>
<event>
 7    1  0.4519840E-010  0.4778727E+02  0.7816164E-02  0.1312668E+00
        -11   -1    0    0    0    0  0.00000000000E+00  0.00000000000E+00  0.45593999997E+02  0.45594000000E+02  0.51100000000E-03 0. -1.
         11   -1    0    0    0    0 -0.00000000000E+00 -0.00000000000E+00 -0.45593999997E+02  0.45594000000E+02  0.51100000000E-03 0.  1.
    9900012    2    1    2    0    0  0.79748146189E+01 -0.13236093253E+02  0.40556521264E+02  0.47787271321E+02  0.20000001260E+02 0.  0.
        -12    1    1    2    0    0 -0.79748146189E+01  0.13236093253E+02 -0.40556521264E+02  0.43400728679E+02  0.00000000000E+00 0.  1.
         11    1    3    3    0    0 -0.20628837059E+01  0.12545548752E+01  0.81195071753E+01  0.84708791840E+01  0.51100000000E-03 0.  1.
        -11    1    3    3    0    0  0.71641802432E+01 -0.44035065976E+01  0.25219415105E+02  0.26584492611E+02  0.51100000000E-03 0. -1.
        -12    1    3    3    0    0  0.28735180816E+01 -0.10087141531E+02  0.72175989841E+01  0.12731899525E+02  0.00000000000E+00 0.  1.
</event>
<event>
 7    1  0.4519840E-010  0.4778727E+02  0.7816164E-02  0.1312668E+00
        -11   -1    0    0    0    0  0.00000000000E+00  0.00000000000E+00  0.45593999997E+02  0.45594000000E+02  0.51100000000E-03 0. -1.
         11   -1    0    0    0    0 -0.00000000000E+00 -0.00000000000E+00 -0.45593999997E+02  0.45594000000E+02  0.51100000000E-03 0.  1.
    9900012    2    1    2    0    0  0.18209135915E+01 -0.17564465407E+02 -0.39645893816E+02  0.47787273418E+02  0.20000010823E+02 0.  0.
         12    1    1    2    0    0 -0.18209135915E+01  0.17564465407E+02  0.39645893816E+02  0.43400726582E+02  0.00000000000E+00 0. -1.
         11    1    3    3    0    0  0.10585814378E+01  0.21510141980E+01  0.18191417776E+00  0.24042773903E+01  0.51100000000E-03 0. -1.
        -11    1    3    3    0    0  0.46856082514E+01 -0.71908739914E+01 -0.14271071595E+02  0.16653140190E+02  0.51100000000E-03 0.  1.
        -12    1    3    3    0    0 -0.39232760977E+01 -0.12524605614E+02 -0.25556736399E+02  0.28729855838E+02  0.00000000000E+00 0.  1.
</event>
<event>
 7    1  0.4519840E-010  0.4778727E+02  0.7816164E-02  0.1312668E+00
        -11   -1    0    0    0    0  0.00000000000E+00  0.00000000000E+00  0.45593999997E+02  0.45594000000E+02  0.51100000000E-03 0. -1.
         11   -1    0    0    0    0 -0.00000000000E+00 -0.00000000000E+00 -0.45593999997E+02  0.45594000000E+02  0.51100000000E-03 0.  1.
    9900012    2    1    2    0    0  0.22680824761E+01  0.26634866673E+02  0.34191562721E+02  0.47787270950E+02  0.19999999567E+02 0.  0.
        -12    1    1    2    0    0 -0.22680824761E+01 -0.26634866673E+02 -0.34191562721E+02  0.43400729050E+02  0.00000000000E+00 0.  1.
         11    1    3    3    0    0 -0.29235962931E+01  0.77349174526E+01  0.15284111313E+02  0.17377583900E+02  0.51100000000E-03 0. -1.
        -11    1    3    3    0    0 -0.36606002211E+01  0.11653657243E+01  0.44337596238E+01  0.58665403700E+01  0.51100000000E-03 0.  1.
         12    1    3    3    0    0  0.88522789903E+01  0.17734583496E+02  0.14473691784E+02  0.24543146680E+02  0.00000000000E+00 0. -1.
</event>
<event>
 7    1  0.4519840E-010  0.4778728E+02  0.7816164E-02  0.1312668E+00
        -11   -1    0    0    0    0  0.00000000000E+00  0.00000000000E+00  0.45593999997E+02  0.45594000000E+02  0.51100000000E-03 0. -1.
         11   -1    0    0    0    0 -0.00000000000E+00 -0.00000000000E+00 -0.45593999997E+02  0.45594000000E+02  0.51100000000E-03 0.  1.
    9900012    2    1    2    0    0  0.16280366631E+02 -0.50961443499E+01  0.39907412945E+02  0.47787278430E+02  0.20000033672E+02 0.  0.
        -12    1    1    2    0    0 -0.16280366631E+02  0.50961443499E+01 -0.39907412945E+02  0.43400721570E+02  0.00000000000E+00 0.  1.
         11    1    3    3    0    0  0.10418327380E+02 -0.82011518875E+01  0.17466627788E+02  0.21929056620E+02  0.51100000000E-03 0. -1.
        -11    1    3    3    0    0  0.81488505302E+01  0.29795795106E+01  0.10137370733E+02  0.13343460745E+02  0.51100000000E-03 0.  1.
         12    1    3    3    0    0 -0.22868112792E+01  0.12542802698E+00  0.12303414424E+02  0.12514761065E+02  0.00000000000E+00 0. -1.
</event>
<event>
 7    1  0.4519840E-010  0.4778727E+02  0.7816164E-02  0.1312668E+00
        -11   -1    0    0    0    0  0.00000000000E+00  0.00000000000E+00  0.45593999997E+02  0.45594000000E+02  0.51100000000E-03 0. -1.
         11   -1    0    0    0    0 -0.00000000000E+00 -0.00000000000E+00 -0.45593999997E+02  0.45594000000E+02  0.51100000000E-03 0.  1.
    9900012    2    1    2    0    0 -0.88986378487E+01 -0.40375004120E+02 -0.13202138495E+02  0.47787272194E+02  0.20000005240E+02 0.  0.
         12    1    1    2    0    0  0.88986378487E+01  0.40375004120E+02  0.13202138495E+02  0.43400727806E+02  0.00000000000E+00 0. -1.
         11    1    3    3    0    0 -0.76951905653E+01 -0.15131742042E+02 -0.19737121928E+00  0.16977176760E+02  0.51100000000E-03 0. -1.
        -11    1    3    3    0    0 -0.52750158119E+01 -0.21121116769E+02 -0.81306453665E+01  0.23238647975E+02  0.51100000000E-03 0.  1.
         12    1    3    3    0    0  0.40715685285E+01 -0.41221453092E+01 -0.48741219095E+01  0.75714474588E+01  0.00000000000E+00 0. -1.
</event>
<event>
 7    1  0.4519840E-010  0.4778727E+02  0.7816164E-02  0.1312668E+00
        -11   -1    0    0    0    0  0.00000000000E+00  0.00000000000E+00  0.45593999997E+02  0.45594000000E+02  0.51100000000E-03 0. -1.
         11   -1    0    0    0    0 -0.00000000000E+00 -0.00000000000E+00 -0.45593999997E+02  0.45594000000E+02  0.51100000000E-03 0.  1.
    9900012    2    1    2    0    0  0.19513832799E+02  0.16005186240E+02  0.35308184901E+02  0.47787267539E+02  0.19999984020E+02 0.  0.
        -12    1    1    2    0    0 -0.19513832799E+02 -0.16005186240E+02 -0.35308184901E+02  0.43400732461E+02  0.00000000000E+00 0.  1.
         11    1    3    3    0    0  0.15600020424E+02  0.57888198599E+01  0.28401791819E+02  0.32917060188E+02  0.51100000000E-03 0. -1.
        -11    1    3    3    0    0  0.52051837575E+01  0.43873854127E+01  0.54613334669E+01  0.87274997684E+01  0.51100000000E-03 0.  1.
        -12    1    3    3    0    0 -0.12913713824E+01  0.58289809673E+01  0.14450596153E+01  0.61427075834E+01  0.00000000000E+00 0.  1.
</event>
<event>
 7    1  0.4519840E-010  0.4778727E+02  0.7816164E-02  0.1312668E+00
        -11   -1    0    0    0    0  0.00000000000E+00  0.00000000000E+00  0.45593999997E+02  0.45594000000E+02  0.51100000000E-03 0. -1.
         11   -1    0    0    0    0 -0.00000000000E+00 -0.00000000000E+00 -0.45593999997E+02  0.45594000000E+02  0.51100000000E-03 0.  1.
    9900012    2    1    2    0    0 -0.28325159936E+02 -0.17279464361E+02 -0.27977288224E+02  0.47787271546E+02  0.20000002285E+02 0.  0.
         12    1    1    2    0    0  0.28325159936E+02  0.17279464361E+02  0.27977288224E+02  0.43400728454E+02  0.00000000000E+00 0. -1.
         11    1    3    3    0    0 -0.62962605658E+01  0.15051618388E+01 -0.45137628456E+01  0.78919240088E+01  0.51100000000E-03 0. -1.
        -11    1    3    3    0    0 -0.10290949527E+02 -0.92562873424E+00 -0.11272955340E+02  0.15291826349E+02  0.51100000000E-03 0.  1.
        -12    1    3    3    0    0 -0.11737949844E+02 -0.17858997466E+02 -0.12190570038E+02  0.24603521188E+02  0.00000000000E+00 0.  1.
</event>
<event>
 7    1  0.4519840E-010  0.4778727E+02  0.7816164E-02  0.1312668E+00
        -11   -1    0    0    0    0  0.00000000000E+00  0.00000000000E+00  0.45593999997E+02  0.45594000000E+02  0.51100000000E-03 0. -1.
         11   -1    0    0    0    0 -0.00000000000E+00 -0.00000000000E+00 -0.45593999997E+02  0.45594000000E+02  0.51100000000E-03 0.  1.
    9900012    2    1    2    0    0  0.22713639335E+02 -0.96709813417E+01 -0.35695742041E+02  0.47787270838E+02  0.19999999057E+02 0.  0.
         12    1    1    2    0    0 -0.22713639335E+02  0.96709813417E+01  0.35695742041E+02  0.43400729162E+02  0.00000000000E+00 0. -1.
         11    1    3    3    0    0  0.66601810925E+00 -0.36914491958E+01 -0.44769042252E+01  0.58406377211E+01  0.51100000000E-03 0. -1.
        -11    1    3    3    0    0  0.11067146865E+02 -0.25624820518E+01 -0.27670760147E+02  0.29911854195E+02  0.51100000000E-03 0.  1.
         12    1    3    3    0    0  0.10980474361E+02 -0.34170500942E+01 -0.35480776687E+01  0.12034778922E+02  0.00000000000E+00 0. -1.
</event>
<event>
 7    1  0.4519840E-010  0.4778731E+02  0.7816164E-02  0.1312668E+00
        -11   -1    0    0    0    0  0.00000000000E+00  0.00000000000E+00  0.45593999997E+02  0.45594000000E+02  0.51100000000E-03 0. -1.
         11   -1    0    0    0    0 -0.00000000000E+00 -0.00000000000E+00 -0.45593999997E+02  0.45594000000E+02  0.51100000000E-03 0.  1.
    9900012    2    1    2    0    0  0.21439849264E+02  0.11959903800E+02 -0.35789855978E+02  0.47787306154E+02  0.20000160080E+02 0.  0.
         12    1    1    2    0    0 -0.21439849264E+02 -0.11959903800E+02  0.35789855978E+02  0.43400693846E+02  0.00000000000E+00 0. -1.
         11    1    3    3    0    0  0.11016221090E+02  0.14790489713E+02 -0.18774061883E+02  0.26316935857E+02  0.51100000000E-03 0. -1.
        -11    1    3    3    0    0  0.77315488168E+01 -0.20590184525E+01 -0.57271502999E+01  0.98395454627E+01  0.51100000000E-03 0.  1.
        -12    1    3    3    0    0  0.26920793574E+01 -0.77156746041E+00 -0.11288643794E+02  0.11630824834E+02  0.00000000000E+00 0.  1.
</event>
<event>
 7    1  0.4519840E-010  0.4778727E+02  0.7816164E-02  0.1312668E+00
        -11   -1    0    0    0    0  0.00000000000E+00  0.00000000000E+00  0.45593999997E+02  0.45594000000E+02  0.51100000000E-03 0. -1.
         11   -1    0    0    0    0 -0.00000000000E+00 -0.00000000000E+00 -0.45593999997E+02  0.45594000000E+02  0.51100000000E-03 0.  1.
    9900012    2    1    2    0    0 -0.15692114244E+02 -0.10329629380E+02  0.39123899320E+02  0.47787272004E+02  0.20000004373E+02 0.  0.
        -12    1    1    2    0    0  0.15692114244E+02  0.10329629380E+02 -0.39123899320E+02  0.43400727996E+02  0.00000000000E+00 0.  1.
         11    1    3    3    0    0  0.12337089482E+01 -0.17575364091E+01 -0.39213728075E+00  0.21828293351E+01  0.51100000000E-03 0. -1.
        -11    1    3    3    0    0  0.70389137877E+00  0.20051784618E+01  0.49404027442E+01  0.53780836059E+01  0.51100000000E-03 0.  1.
         12    1    3    3    0    0 -0.17629714571E+02 -0.10577271433E+02  0.34575633857E+02  0.40226359063E+02  0.00000000000E+00 0. -1.
</event>
<event>
 7    1  0.4519840E-010  0.4778727E+02  0.7816164E-02  0.1312668E+00
        -11   -1    0    0    0    0  0.00000000000E+00  0.00000000000E+00  0.45593999997E+02  0.45594000000E+02  0.51100000000E-03 0. -1.
         11   -1    0    0    0    0 -0.00000000000E+00 -0.00000000000E+00 -0.45593999997E+02  0.45594000000E+02  0.51100000000E-03 0.  1.
    9900012    2    1    2    0    0 -0.17553764912E+02  0.28290913887E+02  0.27840843488E+02  0.47787273770E+02  0.20000012428E+02 0.  0.
        -12    1    1    2    0    0  0.17553764912E+02 -0.28290913887E+02 -0.27840843488E+02  0.43400726230E+02  0.00000000000E+00 0.  1.
         11    1    3    3    0    0 -0.10670460650E+02  0.20964442080E+02  0.10521722961E+02  0.25769618091E+02  0.51100000000E-03 0. -1.
        -11    1    3    3    0    0  0.15419907263E+01  0.18915933120E+01  0.58458997088E+00  0.25095032084E+01  0.51100000000E-03 0.  1.
        -12    1    3    3    0    0 -0.84252949887E+01  0.54348784950E+01  0.16734530556E+02  0.19508152471E+02  0.00000000000E+00 0.  1.
</event>
<event>
 7    1  0.4519840E-010  0.4778727E+02  0.7816164E-02  0.1312668E+00
        -11   -1    0    0    0    0  0.00000000000E+00  0.00000000000E+00  0.45593999997E+02  0.45594000000E+02  0.51100000000E-03 0. -1.
         11   -1    0    0    0    0 -0.00000000000E+00 -0.00000000000E+00 -0.45593999997E+02  0.45594000000E+02  0.51100000000E-03 0.  1.
    9900012    2    1    2    0    0  0.68051554253E+01  0.23705716935E+02  0.35712073467E+02  0.47787270201E+02  0.19999996155E+02 0.  0.
        -12    1    1    2    0    0 -0.68051554253E+01 -0.23705716935E+02 -0.35712073467E+02  0.43400729799E+02  0.00000000000E+00 0.  1.
         11    1    3    3    0    0 -0.14723413903E+01  0.65618805336E+01  0.55564560497E+01  0.87235468360E+01  0.51100000000E-03 0. -1.
        -11    1    3    3    0    0 -0.32141747867E+01  0.10453864734E+02  0.94387497702E+01  0.14446598386E+02  0.51100000000E-03 0.  1.
         12    1    3    3    0    0  0.11491671602E+02  0.66899716675E+01  0.20716867647E+02  0.24617124979E+02  0.00000000000E+00 0. -1.
</event>
<event>
 7    1  0.4519840E-010  0.4778727E+02  0.7816164E-02  0.1312668E+00
        -11   -1    0    0    0    0  0.00000000000E+00  0.00000000000E+00  0.45593999997E+02  0.45594000000E+02  0.51100000000E-03 0.  1.
         11   -1    0    0    0    0 -0.00000000000E+00 -0.00000000000E+00 -0.45593999997E+02  0.45594000000E+02  0.51100000000E-03 0. -1.
    9900012    2    1    2    0    0 -0.35136524712E+02 -0.24628127536E+02  0.65194549643E+01  0.47787270423E+02  0.19999997167E+02 0.  0.
         12    1    1    2    0    0  0.35136524712E+02  0.24628127536E+02 -0.65194549643E+01  0.43400729577E+02  0.00000000000E+00 0. -1.
         11    1    3    3    0    0 -0.83981625685E+01  0.12269753620E+01 -0.15817668371E+01  0.86334575724E+01  0.51100000000E-03 0. -1.
        -11    1    3    3    0    0 -0.67406236265E+01 -0.47528975702E+01  0.56096975288E+01  0.99747054499E+01  0.51100000000E-03 0.  1.
         12    1    3    3    0    0 -0.19997738517E+02 -0.21102205328E+02  0.24915242727E+01  0.29179107401E+02  0.00000000000E+00 0. -1.
</event>
<event>
 7    1  0.4519840E-010  0.4778727E+02  0.7816164E-02  0.1312668E+00
        -11   -1    0    0    0    0  0.00000000000E+00  0.00000000000E+00  0.45593999997E+02  0.45594000000E+02  0.51100000000E-03 0. -1.
         11   -1    0    0    0    0 -0.00000000000E+00 -0.00000000000E+00 -0.45593999997E+02  0.45594000000E+02  0.51100000000E-03 0.  1.
    9900012    2    1    2    0    0 -0.29271919375E+02 -0.10022186993E+02  0.30435732971E+02  0.47787270311E+02  0.19999996658E+02 0.  0.
        -12    1    1    2    0    0  0.29271919375E+02  0.10022186993E+02 -0.30435732971E+02  0.43400729689E+02  0.00000000000E+00 0.  1.
         11    1    3    3    0    0 -0.21484945888E+02 -0.10711410902E+02  0.30106404264E+02  0.38506269636E+02  0.51100000000E-03 0. -1.
        -11    1    3    3    0    0 -0.45670350742E+00  0.14741047074E+00  0.17327263678E+01  0.17979568591E+01  0.51100000000E-03 0.  1.
         12    1    3    3    0    0 -0.73302699789E+01  0.54181343823E+00 -0.14033976601E+01  0.74830438164E+01  0.00000000000E+00 0. -1.
</event>
<event>
 7    1  0.4519840E-010  0.4778728E+02  0.7816164E-02  0.1312668E+00
        -11   -1    0    0    0    0  0.00000000000E+00  0.00000000000E+00  0.45593999997E+02  0.45594000000E+02  0.51100000000E-03 0. -1.
         11   -1    0    0    0    0 -0.00000000000E+00 -0.00000000000E+00 -0.45593999997E+02  0.45594000000E+02  0.51100000000E-03 0.  1.
    9900012    2    1    2    0    0  0.10279689132E+02 -0.41858482329E+02 -0.50811749430E+01  0.47787275463E+02  0.20000020146E+02 0.  0.
         12    1    1    2    0    0 -0.10279689132E+02  0.41858482329E+02  0.50811749430E+01  0.43400724537E+02  0.00000000000E+00 0. -1.
         11    1    3    3    0    0  0.33193841678E+01 -0.21707303168E+02 -0.43561143452E+01  0.22387520063E+02  0.51100000000E-03 0. -1.
        -11    1    3    3    0    0  0.11573224779E+01 -0.95773877023E+01 -0.68892119247E+01  0.11854408114E+02  0.51100000000E-03 0.  1.
         12    1    3    3    0    0  0.58029824867E+01 -0.10573791458E+02  0.61641513270E+01  0.13545347287E+02  0.00000000000E+00 0. -1.
</event>
<event>
 7    1  0.4519840E-010  0.4778727E+02  0.7816164E-02  0.1312668E+00
        -11   -1    0    0    0    0  0.00000000000E+00  0.00000000000E+00  0.45593999997E+02  0.45594000000E+02  0.51100000000E-03 0. -1.
         11   -1    0    0    0    0 -0.00000000000E+00 -0.00000000000E+00 -0.45593999997E+02  0.45594000000E+02  0.51100000000E-03 0.  1.
    9900012    2    1    2    0    0 -0.29993113504E+02 -0.20518009972E+01 -0.31302181074E+02  0.47787270916E+02  0.19999999416E+02 0.  0.
         12    1    1    2    0    0  0.29993113504E+02  0.20518009972E+01  0.31302181074E+02  0.43400729084E+02  0.00000000000E+00 0. -1.
         11    1    3    3    0    0  0.42881467364E+00  0.22082097371E+01 -0.43576536223E+01  0.49040001652E+01  0.51100000000E-03 0. -1.
        -11    1    3    3    0    0 -0.11459860398E+02 -0.62778601078E+01 -0.16801048648E+02  0.21284152880E+02  0.51100000000E-03 0.  1.
        -12    1    3    3    0    0 -0.18962067779E+02  0.20178493734E+01 -0.10143478803E+02  0.21599117871E+02  0.00000000000E+00 0.  1.
</event>
<event>
 7    1  0.4519840E-010  0.4778727E+02  0.7816164E-02  0.1312668E+00
        -11   -1    0    0    0    0  0.00000000000E+00  0.00000000000E+00  0.45593999997E+02  0.45594000000E+02  0.51100000000E-03 0. -1.
         11   -1    0    0    0    0 -0.00000000000E+00 -0.00000000000E+00 -0.45593999997E+02  0.45594000000E+02  0.51100000000E-03 0.  1.
    9900012    2    1    2    0    0  0.25434130865E+02 -0.13950738481E+02  0.32281655844E+02  0.47787269349E+02  0.19999992268E+02 0.  0.
        -12    1    1    2    0    0 -0.25434130865E+02  0.13950738481E+02 -0.32281655844E+02  0.43400730651E+02  0.00000000000E+00 0.  1.
         11    1    3    3    0    0  0.32150635097E+01 -0.51023220415E+01  0.44229113749E+01  0.74788012996E+01  0.51100000000E-03 0. -1.
        -11    1    3    3    0    0  0.62853942457E+01  0.24713032897E+01  0.61906900602E+00  0.67820916736E+01  0.51100000000E-03 0.  1.
         12    1    3    3    0    0  0.15933673110E+02 -0.11319719730E+02  0.27239675463E+02  0.33526376375E+02  0.00000000000E+00 0. -1.
</event>
<event>
 7    1  0.4519840E-010  0.4778727E+02  0.7816164E-02  0.1312668E+00
        -11   -1    0    0    0    0  0.00000000000E+00  0.00000000000E+00  0.45593999997E+02  0.45594000000E+02  0.51100000000E-03 0. -1.
         11   -1    0    0    0    0 -0.00000000000E+00 -0.00000000000E+00 -0.45593999997E+02  0.45594000000E+02  0.51100000000E-03 0.  1.
    9900012    2    1    2    0    0  0.15488718949E+01  0.84394800300E+01  0.42544088624E+02  0.47787270696E+02  0.19999998411E+02 0.  0.
        -12    1    1    2    0    0 -0.15488718949E+01 -0.84394800300E+01 -0.42544088624E+02  0.43400729304E+02  0.00000000000E+00 0.  1.
         11    1    3    3    0    0 -0.29542597272E+01 -0.18926781306E+01  0.57042414079E+01  0.66968837038E+01  0.51100000000E-03 0. -1.
        -11    1    3    3    0    0 -0.99646271747E+00  0.74432530667E+01  0.32872604395E+02  0.33719476184E+02  0.51100000000E-03 0.  1.
        -12    1    3    3    0    0  0.54995943395E+01  0.28889050938E+01  0.39672428208E+01  0.73709108081E+01  0.00000000000E+00 0.  1.
</event>
<event>
 7    1  0.4519840E-010  0.4778727E+02  0.7816164E-02  0.1312668E+00
        -11   -1    0    0    0    0  0.00000000000E+00  0.00000000000E+00  0.45593999997E+02  0.45594000000E+02  0.51100000000E-03 0. -1.
         11   -1    0    0    0    0 -0.00000000000E+00 -0.00000000000E+00 -0.45593999997E+02  0.45594000000E+02  0.51100000000E-03 0.  1.
    9900012    2    1    2    0    0 -0.22108355839E+02  0.30686200363E+02  0.21288520217E+02  0.47787269780E+02  0.19999994233E+02 0.  0.
        -12    1    1    2    0    0  0.22108355839E+02 -0.30686200363E+02 -0.21288520217E+02  0.43400730220E+02  0.00000000000E+00 0.  1.
         11    1    3    3    0    0 -0.15827992916E+02  0.95971818323E+01  0.31975189686E+01  0.18784445339E+02  0.51100000000E-03 0.  1.
        -11    1    3    3    0    0  0.14217723143E+00  0.76209481734E+01  0.47061096158E+01  0.89580429450E+01  0.51100000000E-03 0. -1.
        -12    1    3    3    0    0 -0.64225401544E+01  0.13468070358E+02  0.13384891632E+02  0.20044781495E+02  0.00000000000E+00 0.  1.
</event>
<event>
 7    1  0.4519840E-010  0.4778728E+02  0.7816164E-02  0.1312668E+00
        -11   -1    0    0    0    0  0.00000000000E+00  0.00000000000E+00  0.45593999997E+02  0.45594000000E+02  0.51100000000E-03 0. -1.
         11   -1    0    0    0    0 -0.00000000000E+00 -0.00000000000E+00 -0.45593999997E+02  0.45594000000E+02  0.51100000000E-03 0.  1.
    9900012    2    1    2    0    0 -0.27673420851E+02 -0.10147479834E+02  0.31856441916E+02  0.47787280420E+02  0.20000042746E+02 0.  0.
        -12    1    1    2    0    0  0.27673420851E+02  0.10147479834E+02 -0.31856441916E+02  0.43400719580E+02  0.00000000000E+00 0.  1.
         11    1    3    3    0    0 -0.46701378170E+01 -0.40597287743E+01  0.54052952241E+01  0.82163739978E+01  0.51100000000E-03 0. -1.
        -11    1    3    3    0    0 -0.16548940844E+02  0.39972243844E+01  0.18792589061E+02  0.25357575786E+02  0.51100000000E-03 0.  1.
        -12    1    3    3    0    0 -0.64543421893E+01 -0.10084975444E+02  0.76585576307E+01  0.14213330636E+02  0.00000000000E+00 0.  1.
</event>
<event>
 7    1  0.4519840E-010  0.4778727E+02  0.7816164E-02  0.1312668E+00
        -11   -1    0    0    0    0  0.00000000000E+00  0.00000000000E+00  0.45593999997E+02  0.45594000000E+02  0.51100000000E-03 0.  1.
         11   -1    0    0    0    0 -0.00000000000E+00 -0.00000000000E+00 -0.45593999997E+02  0.45594000000E+02  0.51100000000E-03 0. -1.
    9900012    2    1    2    0    0 -0.36484139169E+02  0.29368331664E+01  0.23321797673E+02  0.47787266750E+02  0.19999980419E+02 0.  0.
        -12    1    1    2    0    0  0.36484139169E+02 -0.29368331664E+01 -0.23321797673E+02  0.43400733250E+02  0.00000000000E+00 0.  1.
         11    1    3    3    0    0 -0.98022196698E+01 -0.42789896301E+00  0.13836850341E+02  0.16962459597E+02  0.51100000000E-03 0. -1.
        -11    1    3    3    0    0 -0.11257732989E+02 -0.43563079141E+01  0.35241241024E+01  0.12575111198E+02  0.51100000000E-03 0.  1.
         12    1    3    3    0    0 -0.15424186510E+02  0.77210400436E+01  0.59608232304E+01  0.18249695954E+02  0.00000000000E+00 0. -1.
</event>
<event>
 7    1  0.4519840E-010  0.4778727E+02  0.7816164E-02  0.1312668E+00
        -11   -1    0    0    0    0  0.00000000000E+00  0.00000000000E+00  0.45593999997E+02  0.45594000000E+02  0.51100000000E-03 0. -1.
         11   -1    0    0    0    0 -0.00000000000E+00 -0.00000000000E+00 -0.45593999997E+02  0.45594000000E+02  0.51100000000E-03 0.  1.
    9900012    2    1    2    0    0  0.14244850339E+01 -0.41733971725E+01 -0.43176116052E+02  0.47787269604E+02  0.19999993430E+02 0.  0.
         12    1    1    2    0    0 -0.14244850339E+01  0.41733971725E+01  0.43176116052E+02  0.43400730396E+02  0.00000000000E+00 0. -1.
         11    1    3    3    0    0  0.14950396594E+01 -0.40955473492E+01 -0.35095610268E+01  0.55969340299E+01  0.51100000000E-03 0. -1.
        -11    1    3    3    0    0 -0.61759532409E+01 -0.35413901648E+01 -0.23764049882E+02  0.24807537359E+02  0.51100000000E-03 0.  1.
         12    1    3    3    0    0  0.61053986154E+01  0.34635403415E+01 -0.15902505143E+02  0.17382798215E+02  0.00000000000E+00 0. -1.
</event>
<event>
 7    1  0.4519840E-010  0.4778727E+02  0.7816164E-02  0.1312668E+00
        -11   -1    0    0    0    0  0.00000000000E+00  0.00000000000E+00  0.45593999997E+02  0.45594000000E+02  0.51100000000E-03 0. -1.
         11   -1    0    0    0    0 -0.00000000000E+00 -0.00000000000E+00 -0.45593999997E+02  0.45594000000E+02  0.51100000000E-03 0.  1.
    9900012    2    1    2    0    0 -0.11832738018E+01  0.10764175508E+02 -0.42028032980E+02  0.47787272271E+02  0.20000005593E+02 0.  0.
         12    1    1    2    0    0  0.11832738018E+01 -0.10764175508E+02  0.42028032980E+02  0.43400727729E+02  0.00000000000E+00 0. -1.
         11    1    3    3    0    0  0.56606825799E+01 -0.11812863834E+01 -0.11639302362E+02  0.12996619735E+02  0.51100000000E-03 0. -1.
        -11    1    3    3    0    0  0.20667369593E+01  0.80277306402E+00 -0.18633877554E+01  0.28962148469E+01  0.51100000000E-03 0.  1.
        -12    1    3    3    0    0 -0.89106933411E+01  0.11142688828E+02 -0.28525342862E+02  0.31894437689E+02  0.00000000000E+00 0.  1.
</event>
<event>
 7    1  0.4519840E-010  0.4778726E+02  0.7816164E-02  0.1312668E+00
        -11   -1    0    0    0    0  0.00000000000E+00  0.00000000000E+00  0.45593999997E+02  0.45594000000E+02  0.51100000000E-03 0. -1.
         11   -1    0    0    0    0 -0.00000000000E+00 -0.00000000000E+00 -0.45593999997E+02  0.45594000000E+02  0.51100000000E-03 0.  1.
    9900012    2    1    2    0    0  0.32192017789E+02  0.28973593540E+02 -0.27980429981E+01  0.47787260645E+02  0.19999952583E+02 0.  0.
        -12    1    1    2    0    0 -0.32192017789E+02 -0.28973593540E+02  0.27980429981E+01  0.43400739355E+02  0.00000000000E+00 0.  1.
         11    1    3    3    0    0  0.20088391676E+02  0.25935588249E+02 -0.87578691348E+01  0.33954358925E+02  0.51100000000E-03 0. -1.
        -11    1    3    3    0    0  0.28464706736E+01  0.84406510304E+00  0.13594993665E+01  0.32654371809E+01  0.51100000000E-03 0.  1.
         12    1    3    3    0    0  0.92571554393E+01  0.21939401877E+01  0.46003267703E+01  0.10567464538E+02  0.00000000000E+00 0. -1.
</event>
<event>
 7    1  0.4519840E-010  0.4778726E+02  0.7816164E-02  0.1312668E+00
        -11   -1    0    0    0    0  0.00000000000E+00  0.00000000000E+00  0.45593999997E+02  0.45594000000E+02  0.51100000000E-03 0.  1.
         11   -1    0    0    0    0 -0.00000000000E+00 -0.00000000000E+00 -0.45593999997E+02  0.45594000000E+02  0.51100000000E-03 0. -1.
    9900012    2    1    2    0    0 -0.39954520998E+02 -0.55474619219E+01 -0.16015192494E+02  0.47787257235E+02  0.19999937036E+02 0.  0.
         12    1    1    2    0    0  0.39954520998E+02  0.55474619219E+01  0.16015192494E+02  0.43400742765E+02  0.00000000000E+00 0. -1.
         11    1    3    3    0    0 -0.13873765123E+02 -0.63286772744E+01  0.49527584302E+00  0.15257090586E+02  0.51100000000E-03 0. -1.
        -11    1    3    3    0    0 -0.16859318825E+02 -0.43915944705E+01 -0.94964263243E+01  0.19841997037E+02  0.51100000000E-03 0.  1.
         12    1    3    3    0    0 -0.92214370500E+01  0.51728098230E+01 -0.70140420127E+01  0.12688169611E+02  0.00000000000E+00 0. -1.
</event>
<event>
 7    1  0.4519840E-010  0.4778728E+02  0.7816164E-02  0.1312668E+00
        -11   -1    0    0    0    0  0.00000000000E+00  0.00000000000E+00  0.45593999997E+02  0.45594000000E+02  0.51100000000E-03 0. -1.
         11   -1    0    0    0    0 -0.00000000000E+00 -0.00000000000E+00 -0.45593999997E+02  0.45594000000E+02  0.51100000000E-03 0.  1.
    9900012    2    1    2    0    0  0.12161951484E+02  0.21159512190E+02  0.35888505408E+02  0.47787276038E+02  0.20000022767E+02 0.  0.
        -12    1    1    2    0    0 -0.12161951484E+02 -0.21159512190E+02 -0.35888505408E+02  0.43400723962E+02  0.00000000000E+00 0.  1.
         11    1    3    3    0    0  0.24877637721E+01  0.17050028997E+02  0.23931011760E+02  0.29488739911E+02  0.51100000000E-03 0. -1.
        -11    1    3    3    0    0 -0.10344134624E+01  0.28846130967E+01  0.23885851233E+01  0.38854012768E+01  0.51100000000E-03 0.  1.
        -12    1    3    3    0    0  0.10708601174E+02  0.12248700953E+01  0.95689085252E+01  0.14413134851E+02  0.00000000000E+00 0.  1.
</event>
<event>
 7    1  0.4519840E-010  0.4778728E+02  0.7816164E-02  0.1312668E+00
        -11   -1    0    0    0    0  0.00000000000E+00  0.00000000000E+00  0.45593999997E+02  0.45594000000E+02  0.51100000000E-03 0. -1.
         11   -1    0    0    0    0 -0.00000000000E+00 -0.00000000000E+00 -0.45593999997E+02  0.45594000000E+02  0.51100000000E-03 0.  1.
    9900012    2    1    2    0    0  0.42321394024E+02  0.80222441601E+01 -0.53071775207E+01  0.47787275044E+02  0.20000018234E+02 0.  0.
        -12    1    1    2    0    0 -0.42321394024E+02 -0.80222441601E+01  0.53071775207E+01  0.43400724956E+02  0.00000000000E+00 0.  1.
         11    1    3    3    0    0  0.13144548422E+01  0.27319104849E+01  0.48315844566E+00  0.30699460540E+01  0.51100000000E-03 0. -1.
        -11    1    3    3    0    0  0.15768931493E+02  0.75711609252E+01  0.32893826522E+01  0.17798924594E+02  0.51100000000E-03 0.  1.
        -12    1    3    3    0    0  0.25238007689E+02 -0.22808272500E+01 -0.90797186185E+01  0.26918404396E+02  0.00000000000E+00 0.  1.
</event>
<event>
 7    1  0.4519840E-010  0.4778727E+02  0.7816164E-02  0.1312668E+00
        -11   -1    0    0    0    0  0.00000000000E+00  0.00000000000E+00  0.45593999997E+02  0.45594000000E+02  0.51100000000E-03 0. -1.
         11   -1    0    0    0    0 -0.00000000000E+00 -0.00000000000E+00 -0.45593999997E+02  0.45594000000E+02  0.51100000000E-03 0.  1.
    9900012    2    1    2    0    0  0.87644333135E+01 -0.32022220498E+01 -0.42385773157E+02  0.47787270933E+02  0.19999999494E+02 0.  0.
         12    1    1    2    0    0 -0.87644333135E+01  0.32022220498E+01  0.42385773157E+02  0.43400729067E+02  0.00000000000E+00 0. -1.
         11    1    3    3    0    0 -0.27361658058E+01 -0.61739743948E+00  0.36430914690E+00  0.28285162773E+01  0.51100000000E-03 0. -1.
        -11    1    3    3    0    0  0.32655699882E+01  0.21236953286E+01 -0.74579261271E+01  0.84139581396E+01  0.51100000000E-03 0.  1.
         12    1    3    3    0    0  0.82350291311E+01 -0.47085199389E+01 -0.35292156177E+02  0.36544796517E+02  0.00000000000E+00 0. -1.
</event>
<event>
 7    1  0.4519840E-010  0.4778727E+02  0.7816164E-02  0.1312668E+00
        -11   -1    0    0    0    0  0.00000000000E+00  0.00000000000E+00  0.45593999997E+02  0.45594000000E+02  0.51100000000E-03 0. -1.
         11   -1    0    0    0    0 -0.00000000000E+00 -0.00000000000E+00 -0.45593999997E+02  0.45594000000E+02  0.51100000000E-03 0.  1.
    9900012    2    1    2    0    0  0.22613681729E+02 -0.13322637142E+02 -0.34565186008E+02  0.47787270219E+02  0.19999996236E+02 0.  0.
         12    1    1    2    0    0 -0.22613681729E+02  0.13322637142E+02  0.34565186008E+02  0.43400729781E+02  0.00000000000E+00 0. -1.
         11    1    3    3    0    0 -0.72371788545E+00  0.18765436451E+01 -0.39210281672E+01  0.44067727169E+01  0.51100000000E-03 0. -1.
        -11    1    3    3    0    0  0.14732208692E+02 -0.29510132151E+01 -0.19991237175E+02  0.25007919065E+02  0.51100000000E-03 0.  1.
         12    1    3    3    0    0  0.86051909224E+01 -0.12248167572E+02 -0.10652920666E+02  0.18372578437E+02  0.00000000000E+00 0. -1.
</event>
<event>
 7    1  0.4519840E-010  0.4778728E+02  0.7816164E-02  0.1312668E+00
        -11   -1    0    0    0    0  0.00000000000E+00  0.00000000000E+00  0.45593999997E+02  0.45594000000E+02  0.51100000000E-03 0. -1.
         11   -1    0    0    0    0 -0.00000000000E+00 -0.00000000000E+00 -0.45593999997E+02  0.45594000000E+02  0.51100000000E-03 0.  1.
    9900012    2    1    2    0    0 -0.14462271987E+02 -0.10612769140E+02  0.39520050265E+02  0.47787279351E+02  0.20000037875E+02 0.  0.
        -12    1    1    2    0    0  0.14462271987E+02  0.10612769140E+02 -0.39520050265E+02  0.43400720649E+02  0.00000000000E+00 0.  1.
         11    1    3    3    0    0  0.31326687034E-01 -0.76814932094E-01  0.67539771411E+01  0.67544866111E+01  0.51100000000E-03 0. -1.
        -11    1    3    3    0    0 -0.78358299362E+01 -0.22039274455E+01  0.18758539091E+01  0.83532242352E+01  0.51100000000E-03 0.  1.
         12    1    3    3    0    0 -0.66577687375E+01 -0.83320267624E+01  0.30890219215E+02  0.32679568505E+02  0.00000000000E+00 0. -1.
</event>
<event>
 7    1  0.4519840E-010  0.4778727E+02  0.7816164E-02  0.1312668E+00
        -11   -1    0    0    0    0  0.00000000000E+00  0.00000000000E+00  0.45593999997E+02  0.45594000000E+02  0.51100000000E-03 0. -1.
         11   -1    0    0    0    0 -0.00000000000E+00 -0.00000000000E+00 -0.45593999997E+02  0.45594000000E+02  0.51100000000E-03 0.  1.
    9900012    2    1    2    0    0  0.19098959489E+02 -0.16603113687E+02 -0.35258893497E+02  0.47787271800E+02  0.20000003443E+02 0.  0.
         12    1    1    2    0    0 -0.19098959489E+02  0.16603113687E+02  0.35258893497E+02  0.43400728200E+02  0.00000000000E+00 0. -1.
         11    1    3    3    0    0  0.10154181842E+02  0.15283351472E+01 -0.16448684569E+02  0.19390782386E+02  0.51100000000E-03 0. -1.
        -11    1    3    3    0    0  0.57200790939E+01 -0.55261165134E+01 -0.48623215055E+01  0.93219868721E+01  0.51100000000E-03 0.  1.
         12    1    3    3    0    0  0.32246985533E+01 -0.12605332320E+02 -0.13947887423E+02  0.19074502542E+02  0.00000000000E+00 0. -1.
</event>
<event>
 7    1  0.4519840E-010  0.4778727E+02  0.7816164E-02  0.1312668E+00
        -11   -1    0    0    0    0  0.00000000000E+00  0.00000000000E+00  0.45593999997E+02  0.45594000000E+02  0.51100000000E-03 0. -1.
         11   -1    0    0    0    0 -0.00000000000E+00 -0.00000000000E+00 -0.45593999997E+02  0.45594000000E+02  0.51100000000E-03 0.  1.
    9900012    2    1    2    0    0  0.33220401299E+01 -0.99297398680E+01  0.42118734382E+02  0.47787268780E+02  0.19999989676E+02 0.  0.
        -12    1    1    2    0    0 -0.33220401299E+01  0.99297398680E+01 -0.42118734382E+02  0.43400731220E+02  0.00000000000E+00 0.  1.
         11    1    3    3    0    0 -0.98040478631E+00 -0.21970793528E+01  0.26688306794E+02  0.26796530951E+02  0.51100000000E-03 0. -1.
        -11    1    3    3    0    0 -0.22938538548E+01  0.15209833402E+01  0.41411085946E+01  0.49723170134E+01  0.51100000000E-03 0.  1.
         12    1    3    3    0    0  0.65962987710E+01 -0.92536438555E+01  0.11289318994E+02  0.16018420815E+02  0.00000000000E+00 0. -1.
</event>
<event>
 7    1  0.4519840E-010  0.4778727E+02  0.7816164E-02  0.1312668E+00
        -11   -1    0    0    0    0  0.00000000000E+00  0.00000000000E+00  0.45593999997E+02  0.45594000000E+02  0.51100000000E-03 0. -1.
         11   -1    0    0    0    0 -0.00000000000E+00 -0.00000000000E+00 -0.45593999997E+02  0.45594000000E+02  0.51100000000E-03 0.  1.
    9900012    2    1    2    0    0 -0.12241115146E+02 -0.38693006468E+02 -0.15382774649E+02  0.47787269528E+02  0.19999993087E+02 0.  0.
         12    1    1    2    0    0  0.12241115146E+02  0.38693006468E+02  0.15382774649E+02  0.43400730472E+02  0.00000000000E+00 0. -1.
         11    1    3    3    0    0 -0.63299239271E+00  0.32594213849E+00 -0.41716661679E+01  0.42319873020E+01  0.51100000000E-03 0. -1.
        -11    1    3    3    0    0  0.17441336147E+01 -0.83731910695E+01 -0.35501653789E+01  0.92604538350E+01  0.51100000000E-03 0.  1.
         12    1    3    3    0    0 -0.13352256368E+02 -0.30645757537E+02 -0.76609431020E+01  0.34294828391E+02  0.00000000000E+00 0. -1.
</event>
<event>
 7    1  0.4519840E-010  0.4778727E+02  0.7816164E-02  0.1312668E+00
        -11   -1    0    0    0    0  0.00000000000E+00  0.00000000000E+00  0.45593999997E+02  0.45594000000E+02  0.51100000000E-03 0.  1.
         11   -1    0    0    0    0 -0.00000000000E+00 -0.00000000000E+00 -0.45593999997E+02  0.45594000000E+02  0.51100000000E-03 0. -1.
    9900012    2    1    2    0    0 -0.21949056952E+01  0.39801461864E+02 -0.17165350444E+02  0.47787271511E+02  0.20000002126E+02 0.  0.
         12    1    1    2    0    0  0.21949056952E+01 -0.39801461864E+02  0.17165350444E+02  0.43400728489E+02  0.00000000000E+00 0. -1.
         11    1    3    3    0    0 -0.53702362494E+01  0.18592071928E+02 -0.65298655165E+01  0.20424096550E+02  0.51100000000E-03 0. -1.
        -11    1    3    3    0    0 -0.30597270617E+01  0.16976872616E+02 -0.50227770612E+01  0.17966758839E+02  0.51100000000E-03 0.  1.
         12    1    3    3    0    0  0.62350576159E+01  0.42325173199E+01 -0.56127078666E+01  0.93964161217E+01  0.00000000000E+00 0. -1.
</event>
<event>
 7    1  0.4519840E-010  0.4778726E+02  0.7816164E-02  0.1312668E+00
        -11   -1    0    0    0    0  0.00000000000E+00  0.00000000000E+00  0.45593999997E+02  0.45594000000E+02  0.51100000000E-03 0. -1.
         11   -1    0    0    0    0 -0.00000000000E+00 -0.00000000000E+00 -0.45593999997E+02  0.45594000000E+02  0.51100000000E-03 0.  1.
    9900012    2    1    2    0    0  0.21487214950E+02  0.23400500831E+02 -0.29569245808E+02  0.47787261030E+02  0.19999954342E+02 0.  0.
         12    1    1    2    0    0 -0.21487214950E+02 -0.23400500831E+02  0.29569245808E+02  0.43400738970E+02  0.00000000000E+00 0. -1.
         11    1    3    3    0    0 -0.15356451263E+01  0.34051388068E+01 -0.44692400334E+01  0.58247131247E+01  0.51100000000E-03 0. -1.
        -11    1    3    3    0    0  0.87634219087E+01  0.20848930617E+01 -0.13678055912E+02  0.16377837355E+02  0.51100000000E-03 0.  1.
        -12    1    3    3    0    0  0.14259438168E+02  0.17910468962E+02 -0.11421949863E+02  0.25584710551E+02  0.00000000000E+00 0.  1.
</event>
<event>
 7    1  0.4519840E-010  0.4778728E+02  0.7816164E-02  0.1312668E+00
        -11   -1    0    0    0    0  0.00000000000E+00  0.00000000000E+00  0.45593999997E+02  0.45594000000E+02  0.51100000000E-03 0. -1.
         11   -1    0    0    0    0 -0.00000000000E+00 -0.00000000000E+00 -0.45593999997E+02  0.45594000000E+02  0.51100000000E-03 0.  1.
    9900012    2    1    2    0    0  0.36777341379E+02 -0.14709574862E+02 -0.17739177613E+02  0.47787275883E+02  0.20000022061E+02 0.  0.
         12    1    1    2    0    0 -0.36777341379E+02  0.14709574862E+02  0.17739177613E+02  0.43400724117E+02  0.00000000000E+00 0. -1.
         11    1    3    3    0    0  0.12298157429E+02 -0.56278424890E+01 -0.44507066650E+01  0.14238190802E+02  0.51100000000E-03 0. -1.
        -11    1    3    3    0    0  0.22822682732E+02 -0.69743267816E+01 -0.44019905348E+01  0.24267130075E+02  0.51100000000E-03 0.  1.
         12    1    3    3    0    0  0.16565012179E+01 -0.21074055917E+01 -0.88864804129E+01  0.92819550065E+01  0.00000000000E+00 0. -1.
</event>
<event>
 7    1  0.4519840E-010  0.4778728E+02  0.7816164E-02  0.1312668E+00
        -11   -1    0    0    0    0  0.00000000000E+00  0.00000000000E+00  0.45593999997E+02  0.45594000000E+02  0.51100000000E-03 0. -1.
         11   -1    0    0    0    0 -0.00000000000E+00 -0.00000000000E+00 -0.45593999997E+02  0.45594000000E+02  0.51100000000E-03 0.  1.
    9900012    2    1    2    0    0 -0.45297741192E+01 -0.24252142070E+02  0.35706268402E+02  0.47787275907E+02  0.20000022171E+02 0.  0.
        -12    1    1    2    0    0  0.45297741192E+01  0.24252142070E+02 -0.35706268402E+02  0.43400724093E+02  0.00000000000E+00 0.  1.
         11    1    3    3    0    0 -0.55946171153E+01 -0.11310653602E+02  0.19418372621E+02  0.23158234412E+02  0.51100000000E-03 0. -1.
        -11    1    3    3    0    0 -0.49508142174E+01 -0.10344530964E+02  0.76433396489E+01  0.13781891145E+02  0.51100000000E-03 0.  1.
        -12    1    3    3    0    0  0.60156572135E+01 -0.25969575041E+01  0.86445561323E+01  0.10847150350E+02  0.00000000000E+00 0.  1.
</event>
<event>
 7    1  0.4519840E-010  0.4778727E+02  0.7816164E-02  0.1312668E+00
        -11   -1    0    0    0    0  0.00000000000E+00  0.00000000000E+00  0.45593999997E+02  0.45594000000E+02  0.51100000000E-03 0. -1.
         11   -1    0    0    0    0 -0.00000000000E+00 -0.00000000000E+00 -0.45593999997E+02  0.45594000000E+02  0.51100000000E-03 0.  1.
    9900012    2    1    2    0    0 -0.22121834726E+02  0.33156577184E+02  0.17172337731E+02  0.47787269990E+02  0.19999995194E+02 0.  0.
        -12    1    1    2    0    0  0.22121834726E+02 -0.33156577184E+02 -0.17172337731E+02  0.43400730010E+02  0.00000000000E+00 0.  1.
         11    1    3    3    0    0 -0.14256553905E+02  0.16306544481E+02  0.12037357567E+02  0.24780046400E+02  0.51100000000E-03 0. -1.
        -11    1    3    3    0    0 -0.11210851898E+02  0.14226760055E+02  0.48240110502E+01  0.18744465445E+02  0.51100000000E-03 0.  1.
         12    1    3    3    0    0  0.33455710764E+01  0.26232726486E+01  0.31096911365E+00  0.42627581453E+01  0.00000000000E+00 0. -1.
</event>
<event>
 7    1  0.4519840E-010  0.4778727E+02  0.7816164E-02  0.1312668E+00
        -11   -1    0    0    0    0  0.00000000000E+00  0.00000000000E+00  0.45593999997E+02  0.45594000000E+02  0.51100000000E-03 0. -1.
         11   -1    0    0    0    0 -0.00000000000E+00 -0.00000000000E+00 -0.45593999997E+02  0.45594000000E+02  0.51100000000E-03 0.  1.
    9900012    2    1    2    0    0 -0.59638833842E+01  0.40922160404E+01 -0.42793796820E+02  0.47787272087E+02  0.20000004752E+02 0.  0.
         12    1    1    2    0    0  0.59638833842E+01 -0.40922160404E+01  0.42793796820E+02  0.43400727913E+02  0.00000000000E+00 0. -1.
         11    1    3    3    0    0  0.25486261741E+01  0.11531354072E+01 -0.46404675707E+00  0.28355874694E+01  0.51100000000E-03 0. -1.
        -11    1    3    3    0    0 -0.67923120235E+01 -0.40144047193E+01 -0.24404031296E+02  0.25647761922E+02  0.51100000000E-03 0.  1.
         12    1    3    3    0    0 -0.17201975348E+01  0.69534853525E+01 -0.17925718767E+02  0.19303922695E+02  0.00000000000E+00 0. -1.
</event>
<event>
 7    1  0.4519840E-010  0.4778727E+02  0.7816164E-02  0.1312668E+00
        -11   -1    0    0    0    0  0.00000000000E+00  0.00000000000E+00  0.45593999997E+02  0.45594000000E+02  0.51100000000E-03 0. -1.
         11   -1    0    0    0    0 -0.00000000000E+00 -0.00000000000E+00 -0.45593999997E+02  0.45594000000E+02  0.51100000000E-03 0.  1.
    9900012    2    1    2    0    0  0.37490785349E+02  0.19083856977E+02  0.10671034007E+02  0.47787267863E+02  0.19999985496E+02 0.  0.
        -12    1    1    2    0    0 -0.37490785349E+02 -0.19083856977E+02 -0.10671034007E+02  0.43400732137E+02  0.00000000000E+00 0.  1.
         11    1    3    3    0    0  0.10154275814E+02  0.81636961224E+00  0.11547661089E+00  0.10187694134E+02  0.51100000000E-03 0. -1.
        -11    1    3    3    0    0  0.22088382980E+02  0.68138206221E+01  0.42200714238E+01  0.23497527896E+02  0.51100000000E-03 0.  1.
        -12    1    3    3    0    0  0.52481265554E+01  0.11453666742E+02  0.63354859727E+01  0.14102045834E+02  0.00000000000E+00 0.  1.
</event>
<event>
 7    1  0.4519840E-010  0.4778727E+02  0.7816164E-02  0.1312668E+00
        -11   -1    0    0    0    0  0.00000000000E+00  0.00000000000E+00  0.45593999997E+02  0.45594000000E+02  0.51100000000E-03 0. -1.
         11   -1    0    0    0    0 -0.00000000000E+00 -0.00000000000E+00 -0.45593999997E+02  0.45594000000E+02  0.51100000000E-03 0.  1.
    9900012    2    1    2    0    0  0.58100002328E+01  0.25895459346E+02  0.34340824825E+02  0.47787272274E+02  0.20000005608E+02 0.  0.
        -12    1    1    2    0    0 -0.58100002328E+01 -0.25895459346E+02 -0.34340824825E+02  0.43400727726E+02  0.00000000000E+00 0.  1.
         11    1    3    3    0    0 -0.17278666542E+01  0.10701722442E+02  0.62028052951E+01  0.12489482783E+02  0.51100000000E-03 0. -1.
        -11    1    3    3    0    0  0.53839984488E+01  0.92438819728E+01  0.59832299303E+01  0.12257072811E+02  0.51100000000E-03 0.  1.
         12    1    3    3    0    0  0.21538684382E+01  0.59498549311E+01  0.22154789600E+02  0.23040716681E+02  0.00000000000E+00 0. -1.
</event>
<event>
 7    1  0.4519840E-010  0.4778727E+02  0.7816164E-02  0.1312668E+00
        -11   -1    0    0    0    0  0.00000000000E+00  0.00000000000E+00  0.45593999997E+02  0.45594000000E+02  0.51100000000E-03 0.  1.
         11   -1    0    0    0    0 -0.00000000000E+00 -0.00000000000E+00 -0.45593999997E+02  0.45594000000E+02  0.51100000000E-03 0. -1.
    9900012    2    1    2    0    0  0.36882237243E+02  0.19917350795E+02 -0.11252704554E+02  0.47787266752E+02  0.19999980427E+02 0.  0.
        -12    1    1    2    0    0 -0.36882237243E+02 -0.19917350795E+02  0.11252704554E+02  0.43400733248E+02  0.00000000000E+00 0.  1.
         11    1    3    3    0    0  0.92546771637E+00 -0.37815602691E+00  0.83190665484E+00  0.13006004068E+01  0.51100000000E-03 0. -1.
        -11    1    3    3    0    0  0.30952928649E+02  0.85365125236E+01 -0.87497531508E+01  0.33279333204E+02  0.51100000000E-03 0.  1.
         12    1    3    3    0    0  0.50038408772E+01  0.11758994298E+02 -0.33348580581E+01  0.13207333141E+02  0.00000000000E+00 0. -1.
</event>
<event>
 7    1  0.4519840E-010  0.4778725E+02  0.7816164E-02  0.1312668E+00
        -11   -1    0    0    0    0  0.00000000000E+00  0.00000000000E+00  0.45593999997E+02  0.45594000000E+02  0.51100000000E-03 0. -1.
         11   -1    0    0    0    0 -0.00000000000E+00 -0.00000000000E+00 -0.45593999997E+02  0.45594000000E+02  0.51100000000E-03 0.  1.
    9900012    2    1    2    0    0  0.36466027653E+02 -0.21792429466E+02  0.88850185788E+01  0.47787254500E+02  0.19999924566E+02 0.  0.
        -12    1    1    2    0    0 -0.36466027653E+02  0.21792429466E+02 -0.88850185788E+01  0.43400745500E+02  0.00000000000E+00 0.  1.
         11    1    3    3    0    0  0.34024529915E+02 -0.11773274443E+02  0.48943151577E+01  0.36335009951E+02  0.51100000000E-03 0. -1.
        -11    1    3    3    0    0 -0.12219592506E+00 -0.56684054298E+01  0.18102071987E+01  0.59516890312E+01  0.51100000000E-03 0.  1.
        -12    1    3    3    0    0  0.25636936637E+01 -0.43507495932E+01  0.21804962224E+01  0.55005555174E+01  0.00000000000E+00 0.  1.
</event>
<event>
 7    1  0.4519840E-010  0.4778727E+02  0.7816164E-02  0.1312668E+00
        -11   -1    0    0    0    0  0.00000000000E+00  0.00000000000E+00  0.45593999997E+02  0.45594000000E+02  0.51100000000E-03 0. -1.
         11   -1    0    0    0    0 -0.00000000000E+00 -0.00000000000E+00 -0.45593999997E+02  0.45594000000E+02  0.51100000000E-03 0.  1.
    9900012    2    1    2    0    0 -0.37499956725E+02 -0.71450379997E+01  0.20647635976E+02  0.47787271967E+02  0.20000004206E+02 0.  0.
        -12    1    1    2    0    0  0.37499956725E+02  0.71450379997E+01 -0.20647635976E+02  0.43400728033E+02  0.00000000000E+00 0.  1.
         11    1    3    3    0    0 -0.22998542349E+01  0.18814670078E+01  0.55745537022E+01  0.63170322813E+01  0.51100000000E-03 0. -1.
        -11    1    3    3    0    0 -0.72612526415E+01  0.34202595288E+01  0.37002289702E+01  0.88383063910E+01  0.51100000000E-03 0.  1.
        -12    1    3    3    0    0 -0.27938849848E+02 -0.12446764536E+02  0.11372853304E+02  0.32631933295E+02  0.00000000000E+00 0.  1.
</event>
<event>
 7    1  0.4519840E-010  0.4778727E+02  0.7816164E-02  0.1312668E+00
        -11   -1    0    0    0    0  0.00000000000E+00  0.00000000000E+00  0.45593999997E+02  0.45594000000E+02  0.51100000000E-03 0. -1.
         11   -1    0    0    0    0 -0.00000000000E+00 -0.00000000000E+00 -0.45593999997E+02  0.45594000000E+02  0.51100000000E-03 0.  1.
    9900012    2    1    2    0    0  0.70583690735E+01  0.99805784116E+01  0.41643615856E+02  0.47787271193E+02  0.20000000679E+02 0.  0.
        -12    1    1    2    0    0 -0.70583690735E+01 -0.99805784116E+01 -0.41643615856E+02  0.43400728807E+02  0.00000000000E+00 0.  1.
         11    1    3    3    0    0  0.48471906323E+01  0.58828276812E+01  0.95837884741E+01  0.12245485712E+02  0.51100000000E-03 0. -1.
        -11    1    3    3    0    0  0.58453944380E+01  0.14713022318E+01  0.30013801571E+02  0.30613096077E+02  0.51100000000E-03 0.  1.
        -12    1    3    3    0    0 -0.36342159969E+01  0.26264484986E+01  0.20460258105E+01  0.49286894044E+01  0.00000000000E+00 0.  1.
</event>
<event>
 7    1  0.4519840E-010  0.4778727E+02  0.7816164E-02  0.1312668E+00
        -11   -1    0    0    0    0  0.00000000000E+00  0.00000000000E+00  0.45593999997E+02  0.45594000000E+02  0.51100000000E-03 0. -1.
         11   -1    0    0    0    0 -0.00000000000E+00 -0.00000000000E+00 -0.45593999997E+02  0.45594000000E+02  0.51100000000E-03 0.  1.
    9900012    2    1    2    0    0 -0.35142792655E+02 -0.22342087029E+01  0.25369591707E+02  0.47787265588E+02  0.19999975121E+02 0.  0.
        -12    1    1    2    0    0  0.35142792655E+02  0.22342087029E+01 -0.25369591707E+02  0.43400734412E+02  0.00000000000E+00 0.  1.
         11    1    3    3    0    0 -0.20674412423E+02 -0.76995882542E+01  0.16261831620E+02  0.27407337635E+02  0.51100000000E-03 0. -1.
        -11    1    3    3    0    0 -0.11430096233E+02  0.37088096875E+00  0.88183159332E+01  0.14441168538E+02  0.51100000000E-03 0.  1.
        -12    1    3    3    0    0 -0.30382839985E+01  0.50944985826E+01  0.28944415362E+00  0.59387594143E+01  0.00000000000E+00 0.  1.
</event>
<event>
 7    1  0.4519840E-010  0.4778727E+02  0.7816164E-02  0.1312668E+00
        -11   -1    0    0    0    0  0.00000000000E+00  0.00000000000E+00  0.45593999997E+02  0.45594000000E+02  0.51100000000E-03 0. -1.
         11   -1    0    0    0    0 -0.00000000000E+00 -0.00000000000E+00 -0.45593999997E+02  0.45594000000E+02  0.51100000000E-03 0.  1.
    9900012    2    1    2    0    0 -0.13883162462E+01  0.10211173515E+02  0.42159554768E+02  0.47787267923E+02  0.19999985768E+02 0.  0.
        -12    1    1    2    0    0  0.13883162462E+01 -0.10211173515E+02 -0.42159554768E+02  0.43400732077E+02  0.00000000000E+00 0.  1.
         11    1    3    3    0    0 -0.36831729336E+01  0.42156321223E+01  0.10545230145E+02  0.11938978019E+02  0.51100000000E-03 0.  1.
        -11    1    3    3    0    0 -0.44876563928E+01 -0.31018115296E+01  0.85218436035E+01  0.10118404683E+02  0.51100000000E-03 0. -1.
         12    1    3    3    0    0  0.67825130801E+01  0.90973529219E+01  0.23092481020E+02  0.25729885221E+02  0.00000000000E+00 0. -1.
</event>
<event>
 7    1  0.4519840E-010  0.4778726E+02  0.7816164E-02  0.1312668E+00
        -11   -1    0    0    0    0  0.00000000000E+00  0.00000000000E+00  0.45593999997E+02  0.45594000000E+02  0.51100000000E-03 0. -1.
         11   -1    0    0    0    0 -0.00000000000E+00 -0.00000000000E+00 -0.45593999997E+02  0.45594000000E+02  0.51100000000E-03 0.  1.
    9900012    2    1    2    0    0 -0.20609226023E+02 -0.51796001011E+01  0.37842514160E+02  0.47787258849E+02  0.19999944395E+02 0.  0.
        -12    1    1    2    0    0  0.20609226023E+02  0.51796001011E+01 -0.37842514160E+02  0.43400741151E+02  0.00000000000E+00 0.  1.
         11    1    3    3    0    0 -0.11342976493E+02 -0.33277032544E+01  0.13141884370E+02  0.17676137862E+02  0.51100000000E-03 0. -1.
        -11    1    3    3    0    0 -0.37150887375E+01 -0.16759943422E+01 -0.67819858625E+00  0.41316818544E+01  0.51100000000E-03 0.  1.
        -12    1    3    3    0    0 -0.55511607927E+01 -0.17590250443E+00  0.25378828377E+02  0.25979439132E+02  0.00000000000E+00 0.  1.
</event>
<event>
 7    1  0.4519840E-010  0.4778727E+02  0.7816164E-02  0.1312668E+00
        -11   -1    0    0    0    0  0.00000000000E+00  0.00000000000E+00  0.45593999997E+02  0.45594000000E+02  0.51100000000E-03 0. -1.
         11   -1    0    0    0    0 -0.00000000000E+00 -0.00000000000E+00 -0.45593999997E+02  0.45594000000E+02  0.51100000000E-03 0.  1.
    9900012    2    1    2    0    0 -0.32336852395E+02 -0.14921205506E+02  0.24805421410E+02  0.47787270422E+02  0.19999997162E+02 0.  0.
        -12    1    1    2    0    0  0.32336852395E+02  0.14921205506E+02 -0.24805421410E+02  0.43400729578E+02  0.00000000000E+00 0.  1.
         11    1    3    3    0    0 -0.69697810472E+01  0.23095018539E+00  0.20525625594E+01  0.72694015679E+01  0.51100000000E-03 0. -1.
        -11    1    3    3    0    0  0.13640981615E+01 -0.45385191868E+01  0.37870832239E+01  0.60663761677E+01  0.51100000000E-03 0.  1.
        -12    1    3    3    0    0 -0.26731169510E+02 -0.10613636505E+02  0.18965775626E+02  0.34451492686E+02  0.00000000000E+00 0.  1.
</event>
<event>
 7    1  0.4519840E-010  0.4778727E+02  0.7816164E-02  0.1312668E+00
        -11   -1    0    0    0    0  0.00000000000E+00  0.00000000000E+00  0.45593999997E+02  0.45594000000E+02  0.51100000000E-03 0. -1.
         11   -1    0    0    0    0 -0.00000000000E+00 -0.00000000000E+00 -0.45593999997E+02  0.45594000000E+02  0.51100000000E-03 0.  1.
    9900012    2    1    2    0    0  0.18630902233E+02  0.14849850155E+02 -0.36276642230E+02  0.47787270293E+02  0.19999996575E+02 0.  0.
         12    1    1    2    0    0 -0.18630902233E+02 -0.14849850155E+02  0.36276642230E+02  0.43400729707E+02  0.00000000000E+00 0. -1.
         11    1    3    3    0    0  0.55254332314E+01 -0.93661274132E+00 -0.69083605509E+01  0.88956788152E+01  0.51100000000E-03 0.  1.
        -11    1    3    3    0    0  0.30234358709E+01 -0.28831333875E+01 -0.61923722731E+01  0.74698793314E+01  0.51100000000E-03 0. -1.
        -12    1    3    3    0    0  0.10082033130E+02  0.18669596284E+02 -0.23175909406E+02  0.31421712147E+02  0.00000000000E+00 0.  1.
</event>
<event>
 7    1  0.4519840E-010  0.4778727E+02  0.7816164E-02  0.1312668E+00
        -11   -1    0    0    0    0  0.00000000000E+00  0.00000000000E+00  0.45593999997E+02  0.45594000000E+02  0.51100000000E-03 0. -1.
         11   -1    0    0    0    0 -0.00000000000E+00 -0.00000000000E+00 -0.45593999997E+02  0.45594000000E+02  0.51100000000E-03 0.  1.
    9900012    2    1    2    0    0 -0.71732850745E+01 -0.37654772111E+01 -0.42637876955E+02  0.47787269722E+02  0.19999993973E+02 0.  0.
         12    1    1    2    0    0  0.71732850745E+01  0.37654772111E+01  0.42637876955E+02  0.43400730278E+02  0.00000000000E+00 0. -1.
         11    1    3    3    0    0 -0.81044311070E+00 -0.33559960305E+01 -0.17251595390E+01  0.38594951857E+01  0.51100000000E-03 0. -1.
        -11    1    3    3    0    0 -0.38637035410E+01  0.58540296363E+01 -0.95548838512E+01  0.11853002730E+02  0.51100000000E-03 0.  1.
        -12    1    3    3    0    0 -0.24991384229E+01 -0.62635108169E+01 -0.31357833565E+02  0.32074771807E+02  0.00000000000E+00 0.  1.
</event>
<event>
 7    1  0.4519840E-010  0.4778727E+02  0.7816164E-02  0.1312668E+00
        -11   -1    0    0    0    0  0.00000000000E+00  0.00000000000E+00  0.45593999997E+02  0.45594000000E+02  0.51100000000E-03 0. -1.
         11   -1    0    0    0    0 -0.00000000000E+00 -0.00000000000E+00 -0.45593999997E+02  0.45594000000E+02  0.51100000000E-03 0.  1.
    9900012    2    1    2    0    0 -0.15647466278E+02 -0.19773331742E+02  0.35324149063E+02  0.47787270097E+02  0.19999995678E+02 0.  0.
        -12    1    1    2    0    0  0.15647466278E+02  0.19773331742E+02 -0.35324149063E+02  0.43400729903E+02  0.00000000000E+00 0.  1.
         11    1    3    3    0    0 -0.42214434699E+01 -0.54513187098E+01  0.21495959857E+01  0.72220650654E+01  0.51100000000E-03 0. -1.
        -11    1    3    3    0    0 -0.11559536236E+01 -0.44625965975E+01  0.16090296423E+00  0.46126876327E+01  0.51100000000E-03 0.  1.
         12    1    3    3    0    0 -0.10270069185E+02 -0.98594164352E+01  0.33013650113E+02  0.35952517398E+02  0.00000000000E+00 0. -1.
</event>
<event>
 7    1  0.4519840E-010  0.4778727E+02  0.7816164E-02  0.1312668E+00
        -11   -1    0    0    0    0  0.00000000000E+00  0.00000000000E+00  0.45593999997E+02  0.45594000000E+02  0.51100000000E-03 0. -1.
         11   -1    0    0    0    0 -0.00000000000E+00 -0.00000000000E+00 -0.45593999997E+02  0.45594000000E+02  0.51100000000E-03 0.  1.
    9900012    2    1    2    0    0 -0.32728852112E+02 -0.19778545874E+02  0.20524490591E+02  0.47787270150E+02  0.19999995922E+02 0.  0.
        -12    1    1    2    0    0  0.32728852112E+02  0.19778545874E+02 -0.20524490591E+02  0.43400729850E+02  0.00000000000E+00 0.  1.
         11    1    3    3    0    0  0.12383949242E+01  0.22876823853E+01  0.15593489156E+01  0.30329329017E+01  0.51100000000E-03 0. -1.
        -11    1    3    3    0    0 -0.35717381271E+01 -0.25312235949E+01  0.15441824743E+01  0.46420799122E+01  0.51100000000E-03 0.  1.
         12    1    3    3    0    0 -0.30395508909E+02 -0.19535004665E+02  0.17420959201E+02  0.40112257336E+02  0.00000000000E+00 0. -1.
</event>
<event>
 7    1  0.4519840E-010  0.4778727E+02  0.7816164E-02  0.1312668E+00
        -11   -1    0    0    0    0  0.00000000000E+00  0.00000000000E+00  0.45593999997E+02  0.45594000000E+02  0.51100000000E-03 0. -1.
         11   -1    0    0    0    0 -0.00000000000E+00 -0.00000000000E+00 -0.45593999997E+02  0.45594000000E+02  0.51100000000E-03 0.  1.
    9900012    2    1    2    0    0 -0.30764966236E+01 -0.15117019002E+02  0.40566416566E+02  0.47787271343E+02  0.20000001359E+02 0.  0.
        -12    1    1    2    0    0  0.30764966236E+01  0.15117019002E+02 -0.40566416566E+02  0.43400728657E+02  0.00000000000E+00 0.  1.
         11    1    3    3    0    0 -0.62757169774E+01 -0.86716183008E+01  0.96532336243E+01  0.14414107923E+02  0.51100000000E-03 0. -1.
        -11    1    3    3    0    0  0.10396990507E+01  0.26853796844E+01  0.10830356945E+02  0.11206644011E+02  0.51100000000E-03 0.  1.
         12    1    3    3    0    0  0.21595213032E+01 -0.91307803860E+01  0.20082825997E+02  0.22166519409E+02  0.00000000000E+00 0. -1.
</event>
<event>
 7    1  0.4519840E-010  0.4778727E+02  0.7816164E-02  0.1312668E+00
        -11   -1    0    0    0    0  0.00000000000E+00  0.00000000000E+00  0.45593999997E+02  0.45594000000E+02  0.51100000000E-03 0. -1.
         11   -1    0    0    0    0 -0.00000000000E+00 -0.00000000000E+00 -0.45593999997E+02  0.45594000000E+02  0.51100000000E-03 0.  1.
    9900012    2    1    2    0    0  0.16972027352E+02 -0.13462675377E+02 -0.37607576450E+02  0.47787272504E+02  0.20000006655E+02 0.  0.
         12    1    1    2    0    0 -0.16972027352E+02  0.13462675377E+02  0.37607576450E+02  0.43400727496E+02  0.00000000000E+00 0. -1.
         11    1    3    3    0    0  0.42920995389E+01 -0.98577621928E+01 -0.10572597434E+02  0.15079038784E+02  0.51100000000E-03 0. -1.
        -11    1    3    3    0    0  0.56459657300E+01 -0.15353166878E+01 -0.13601804595E+01  0.60070140253E+01  0.51100000000E-03 0.  1.
        -12    1    3    3    0    0  0.70339620830E+01 -0.20695964959E+01 -0.25674798557E+02  0.26701219694E+02  0.00000000000E+00 0.  1.
</event>
<event>
 7    1  0.4519840E-010  0.4778727E+02  0.7816164E-02  0.1312668E+00
        -11   -1    0    0    0    0  0.00000000000E+00  0.00000000000E+00  0.45593999997E+02  0.45594000000E+02  0.51100000000E-03 0. -1.
         11   -1    0    0    0    0 -0.00000000000E+00 -0.00000000000E+00 -0.45593999997E+02  0.45594000000E+02  0.51100000000E-03 0.  1.
    9900012    2    1    2    0    0  0.35922475512E+02  0.97276591159E+01  0.22328716025E+02  0.47787272378E+02  0.20000006081E+02 0.  0.
        -12    1    1    2    0    0 -0.35922475512E+02 -0.97276591159E+01 -0.22328716025E+02  0.43400727622E+02  0.00000000000E+00 0.  1.
         11    1    3    3    0    0  0.19723280634E+02  0.80749971459E+01  0.86257696838E+01  0.22991678511E+02  0.51100000000E-03 0. -1.
        -11    1    3    3    0    0  0.23796796536E+01  0.12067588789E+01 -0.23875653454E+01  0.35804484056E+01  0.51100000000E-03 0.  1.
        -12    1    3    3    0    0  0.13819515225E+02  0.44590309109E+00  0.16090511686E+02  0.21215145462E+02  0.00000000000E+00 0.  1.
</event>
<event>
 7    1  0.4519840E-010  0.4778727E+02  0.7816164E-02  0.1312668E+00
        -11   -1    0    0    0    0  0.00000000000E+00  0.00000000000E+00  0.45593999997E+02  0.45594000000E+02  0.51100000000E-03 0. -1.
         11   -1    0    0    0    0 -0.00000000000E+00 -0.00000000000E+00 -0.45593999997E+02  0.45594000000E+02  0.51100000000E-03 0.  1.
    9900012    2    1    2    0    0 -0.66449936706E+01 -0.39521250160E+02 -0.16659472452E+02  0.47787272155E+02  0.20000005063E+02 0.  0.
         12    1    1    2    0    0  0.66449936706E+01  0.39521250160E+02  0.16659472452E+02  0.43400727845E+02  0.00000000000E+00 0. -1.
         11    1    3    3    0    0 -0.29831811130E+01 -0.14375738573E+01 -0.29029016194E+01  0.44037286725E+01  0.51100000000E-03 0. -1.
        -11    1    3    3    0    0  0.59714852548E+00 -0.22896582600E+02 -0.15285785089E+02  0.27536617569E+02  0.51100000000E-03 0.  1.
         12    1    3    3    0    0 -0.42589610831E+01 -0.15187093703E+02  0.15292142562E+01  0.15846925913E+02  0.00000000000E+00 0. -1.
</event>
<event>
 7    1  0.4519840E-010  0.4778727E+02  0.7816164E-02  0.1312668E+00
        -11   -1    0    0    0    0  0.00000000000E+00  0.00000000000E+00  0.45593999997E+02  0.45594000000E+02  0.51100000000E-03 0. -1.
         11   -1    0    0    0    0 -0.00000000000E+00 -0.00000000000E+00 -0.45593999997E+02  0.45594000000E+02  0.51100000000E-03 0.  1.
    9900012    2    1    2    0    0  0.12422981541E+02  0.18828455777E+02 -0.37078054749E+02  0.47787270038E+02  0.19999995410E+02 0.  0.
         12    1    1    2    0    0 -0.12422981541E+02 -0.18828455777E+02  0.37078054749E+02  0.43400729962E+02  0.00000000000E+00 0. -1.
         11    1    3    3    0    0  0.76235860921E+01  0.18446898961E+02 -0.20714592255E+02  0.28766325429E+02  0.51100000000E-03 0. -1.
        -11    1    3    3    0    0 -0.19691942410E+00  0.26606797621E+01 -0.11093340408E+02  0.11409653620E+02  0.51100000000E-03 0.  1.
        -12    1    3    3    0    0  0.49963148728E+01 -0.22791229457E+01 -0.52701220859E+01  0.76112909884E+01  0.00000000000E+00 0.  1.
</event>
<event>
 7    1  0.4519840E-010  0.4778727E+02  0.7816164E-02  0.1312668E+00
        -11   -1    0    0    0    0  0.00000000000E+00  0.00000000000E+00  0.45593999997E+02  0.45594000000E+02  0.51100000000E-03 0. -1.
         11   -1    0    0    0    0 -0.00000000000E+00 -0.00000000000E+00 -0.45593999997E+02  0.45594000000E+02  0.51100000000E-03 0.  1.
    9900012    2    1    2    0    0 -0.30911994181E+02 -0.18365858412E+02 -0.24305697519E+02  0.47787273378E+02  0.20000010637E+02 0.  0.
         12    1    1    2    0    0  0.30911994181E+02  0.18365858412E+02  0.24305697519E+02  0.43400726622E+02  0.00000000000E+00 0. -1.
         11    1    3    3    0    0 -0.80002738037E+01 -0.12116400625E+02 -0.14857161271E+02  0.20773704203E+02  0.51100000000E-03 0. -1.
        -11    1    3    3    0    0 -0.31291285193E+01 -0.41914534735E+01 -0.33450424363E+01  0.62087870532E+01  0.51100000000E-03 0.  1.
        -12    1    3    3    0    0 -0.19782591858E+02 -0.20580043131E+01 -0.61034938123E+01  0.20804782121E+02  0.00000000000E+00 0.  1.
</event>
<event>
 7    1  0.4519840E-010  0.4778726E+02  0.7816164E-02  0.1312668E+00
        -11   -1    0    0    0    0  0.00000000000E+00  0.00000000000E+00  0.45593999997E+02  0.45594000000E+02  0.51100000000E-03 0. -1.
         11   -1    0    0    0    0 -0.00000000000E+00 -0.00000000000E+00 -0.45593999997E+02  0.45594000000E+02  0.51100000000E-03 0.  1.
    9900012    2    1    2    0    0 -0.50115207507E+01 -0.21719540455E+02  0.37239369624E+02  0.47787257751E+02  0.19999939388E+02 0.  0.
        -12    1    1    2    0    0  0.50115207507E+01  0.21719540455E+02 -0.37239369624E+02  0.43400742249E+02  0.00000000000E+00 0.  1.
         11    1    3    3    0    0 -0.40615085622E+01 -0.18561332643E+02  0.14611311516E+02  0.23968924586E+02  0.51100000000E-03 0. -1.
        -11    1    3    3    0    0 -0.24882798230E+01 -0.14401691977E+01  0.34004980829E+01  0.44529777979E+01  0.51100000000E-03 0.  1.
        -12    1    3    3    0    0  0.15382676344E+01 -0.17180386136E+01  0.19227560025E+02  0.19365355367E+02  0.00000000000E+00 0.  1.
</event>
<event>
 7    1  0.4519840E-010  0.4778730E+02  0.7816164E-02  0.1312668E+00
        -11   -1    0    0    0    0  0.00000000000E+00  0.00000000000E+00  0.45593999997E+02  0.45594000000E+02  0.51100000000E-03 0. -1.
         11   -1    0    0    0    0 -0.00000000000E+00 -0.00000000000E+00 -0.45593999997E+02  0.45594000000E+02  0.51100000000E-03 0.  1.
    9900012    2    1    2    0    0  0.16941903959E+02 -0.39165969897E+01  0.39764970375E+02  0.47787300574E+02  0.20000134639E+02 0.  0.
        -12    1    1    2    0    0 -0.16941903959E+02  0.39165969897E+01 -0.39764970375E+02  0.43400699426E+02  0.00000000000E+00 0.  1.
         11    1    3    3    0    0  0.73031663489E+01  0.40256873396E+01  0.11942470381E+02  0.14565884674E+02  0.51100000000E-03 0. -1.
        -11    1    3    3    0    0  0.10843855883E+02 -0.58847197597E+01  0.11968402441E+02  0.17189002133E+02  0.51100000000E-03 0.  1.
         12    1    3    3    0    0 -0.12051182731E+01 -0.20575645696E+01  0.15854097553E+02  0.16032413768E+02  0.00000000000E+00 0. -1.
</event>
<event>
 7    1  0.4519840E-010  0.4778727E+02  0.7816164E-02  0.1312668E+00
        -11   -1    0    0    0    0  0.00000000000E+00  0.00000000000E+00  0.45593999997E+02  0.45594000000E+02  0.51100000000E-03 0. -1.
         11   -1    0    0    0    0 -0.00000000000E+00 -0.00000000000E+00 -0.45593999997E+02  0.45594000000E+02  0.51100000000E-03 0.  1.
    9900012    2    1    2    0    0  0.26018553644E+01  0.41755306293E+01 -0.43120976924E+02  0.47787270073E+02  0.19999995570E+02 0.  0.
         12    1    1    2    0    0 -0.26018553644E+01 -0.41755306293E+01  0.43120976924E+02  0.43400729927E+02  0.00000000000E+00 0. -1.
         11    1    3    3    0    0  0.13308075218E+01  0.38033768966E+01 -0.41007075052E+01  0.57491326983E+01  0.51100000000E-03 0. -1.
        -11    1    3    3    0    0  0.62091936020E+01  0.55198107472E+01 -0.17622314436E+02  0.19482514268E+02  0.51100000000E-03 0.  1.
         12    1    3    3    0    0 -0.49381457595E+01 -0.51476570146E+01 -0.21397954982E+02  0.22555623106E+02  0.00000000000E+00 0. -1.
</event>
<event>
 7    1  0.4519840E-010  0.4778727E+02  0.7816164E-02  0.1312668E+00
        -11   -1    0    0    0    0  0.00000000000E+00  0.00000000000E+00  0.45593999997E+02  0.45594000000E+02  0.51100000000E-03 0. -1.
         11   -1    0    0    0    0 -0.00000000000E+00 -0.00000000000E+00 -0.45593999997E+02  0.45594000000E+02  0.51100000000E-03 0.  1.
    9900012    2    1    2    0    0  0.10205585378E+02  0.88202369781E+01 -0.41251333075E+02  0.47787273811E+02  0.20000012616E+02 0.  0.
         12    1    1    2    0    0 -0.10205585378E+02 -0.88202369781E+01  0.41251333075E+02  0.43400726189E+02  0.00000000000E+00 0. -1.
         11    1    3    3    0    0  0.76105985746E+01  0.12723473635E+01 -0.26562459959E+02  0.27660519840E+02  0.51100000000E-03 0. -1.
        -11    1    3    3    0    0  0.50646027947E+01  0.16105537402E+01 -0.12061137597E+02  0.13180103384E+02  0.51100000000E-03 0.  1.
         12    1    3    3    0    0 -0.24696159910E+01  0.59373358744E+01 -0.26277355185E+01  0.69466505875E+01  0.00000000000E+00 0. -1.
</event>
<event>
 7    1  0.4519840E-010  0.4778727E+02  0.7816164E-02  0.1312668E+00
        -11   -1    0    0    0    0  0.00000000000E+00  0.00000000000E+00  0.45593999997E+02  0.45594000000E+02  0.51100000000E-03 0. -1.
         11   -1    0    0    0    0 -0.00000000000E+00 -0.00000000000E+00 -0.45593999997E+02  0.45594000000E+02  0.51100000000E-03 0.  1.
    9900012    2    1    2    0    0 -0.40382503176E+01 -0.21497477287E+02  0.37485651293E+02  0.47787273644E+02  0.20000011855E+02 0.  0.
        -12    1    1    2    0    0  0.40382503176E+01  0.21497477287E+02 -0.37485651293E+02  0.43400726356E+02  0.00000000000E+00 0.  1.
         11    1    3    3    0    0 -0.17759871823E+01  0.12685973338E+01  0.48341439883E+00  0.22354327119E+01  0.51100000000E-03 0. -1.
        -11    1    3    3    0    0  0.44137531138E+00 -0.42143743814E+01  0.19124121851E+00  0.42417375044E+01  0.51100000000E-03 0.  1.
         12    1    3    3    0    0 -0.27036384467E+01 -0.18551700239E+02  0.36810995676E+02  0.41310103428E+02  0.00000000000E+00 0. -1.
</event>
<event>
 7    1  0.4519840E-010  0.4778725E+02  0.7816164E-02  0.1312668E+00
        -11   -1    0    0    0    0  0.00000000000E+00  0.00000000000E+00  0.45593999997E+02  0.45594000000E+02  0.51100000000E-03 0. -1.
         11   -1    0    0    0    0 -0.00000000000E+00 -0.00000000000E+00 -0.45593999997E+02  0.45594000000E+02  0.51100000000E-03 0.  1.
    9900012    2    1    2    0    0 -0.12221961256E+02  0.13117685066E+02  0.39524358237E+02  0.47787252397E+02  0.19999914981E+02 0.  0.
        -12    1    1    2    0    0  0.12221961256E+02 -0.13117685066E+02 -0.39524358237E+02  0.43400747603E+02  0.00000000000E+00 0.  1.
         11    1    3    3    0    0 -0.21138280566E+01  0.68354765061E+01  0.27747738615E+02  0.28655348657E+02  0.51100000000E-03 0. -1.
        -11    1    3    3    0    0 -0.97100918367E+00  0.58198359578E+01  0.40456882686E+01  0.71540857724E+01  0.51100000000E-03 0.  1.
         12    1    3    3    0    0 -0.91371240156E+01  0.46237260179E+00  0.77309313531E+01  0.11977817968E+02  0.00000000000E+00 0. -1.
</event>
<event>
 7    1  0.4519840E-010  0.4778727E+02  0.7816164E-02  0.1312668E+00
        -11   -1    0    0    0    0  0.00000000000E+00  0.00000000000E+00  0.45593999997E+02  0.45594000000E+02  0.51100000000E-03 0. -1.
         11   -1    0    0    0    0 -0.00000000000E+00 -0.00000000000E+00 -0.45593999997E+02  0.45594000000E+02  0.51100000000E-03 0.  1.
    9900012    2    1    2    0    0 -0.35508869774E+02 -0.36538773075E+01  0.24685885240E+02  0.47787267494E+02  0.19999983810E+02 0.  0.
        -12    1    1    2    0    0  0.35508869774E+02  0.36538773075E+01 -0.24685885240E+02  0.43400732506E+02  0.00000000000E+00 0.  1.
         11    1    3    3    0    0 -0.45785897627E+01 -0.27856948355E+01  0.70496520696E+01  0.88555730755E+01  0.51100000000E-03 0.  1.
        -11    1    3    3    0    0 -0.72405914830E+01 -0.34936899780E+01  0.11992536612E+02  0.14437900447E+02  0.51100000000E-03 0. -1.
         12    1    3    3    0    0 -0.23689688528E+02  0.26255075061E+01  0.56436965587E+01  0.24493793971E+02  0.00000000000E+00 0. -1.
</event>
<event>
 7    1  0.4519840E-010  0.4778727E+02  0.7816164E-02  0.1312668E+00
        -11   -1    0    0    0    0  0.00000000000E+00  0.00000000000E+00  0.45593999997E+02  0.45594000000E+02  0.51100000000E-03 0. -1.
         11   -1    0    0    0    0 -0.00000000000E+00 -0.00000000000E+00 -0.45593999997E+02  0.45594000000E+02  0.51100000000E-03 0.  1.
    9900012    2    1    2    0    0 -0.79691080996E+01  0.26923382754E+00 -0.42661977856E+02  0.47787268147E+02  0.19999986790E+02 0.  0.
         12    1    1    2    0    0  0.79691080996E+01 -0.26923382754E+00  0.42661977856E+02  0.43400731853E+02  0.00000000000E+00 0. -1.
         11    1    3    3    0    0  0.38161469255E+00 -0.30986346037E+01 -0.42749874607E+01  0.52936456465E+01  0.51100000000E-03 0. -1.
        -11    1    3    3    0    0 -0.11905362205E+02 -0.11605930784E+01 -0.30222137381E+02  0.32503264662E+02  0.51100000000E-03 0.  1.
        -12    1    3    3    0    0  0.35546394129E+01  0.45284615096E+01 -0.81648530142E+01  0.99903578386E+01  0.00000000000E+00 0.  1.
</event>
<event>
 7    1  0.4519840E-010  0.4778727E+02  0.7816164E-02  0.1312668E+00
        -11   -1    0    0    0    0  0.00000000000E+00  0.00000000000E+00  0.45593999997E+02  0.45594000000E+02  0.51100000000E-03 0. -1.
         11   -1    0    0    0    0 -0.00000000000E+00 -0.00000000000E+00 -0.45593999997E+02  0.45594000000E+02  0.51100000000E-03 0.  1.
    9900012    2    1    2    0    0 -0.20372305866E+02  0.23462998149E+02  0.30299835798E+02  0.47787272151E+02  0.20000005046E+02 0.  0.
        -12    1    1    2    0    0  0.20372305866E+02 -0.23462998149E+02 -0.30299835798E+02  0.43400727849E+02  0.00000000000E+00 0.  1.
         11    1    3    3    0    0 -0.10613771169E+02  0.31092995347E+01  0.14029459825E+02  0.17864647359E+02  0.51100000000E-03 0. -1.
        -11    1    3    3    0    0  0.15788172152E+01  0.35179756990E+00 -0.21484277404E+00  0.16317423227E+01  0.51100000000E-03 0.  1.
        -12    1    3    3    0    0 -0.11337351912E+02  0.20001901044E+02  0.16485218748E+02  0.28290882470E+02  0.00000000000E+00 0.  1.
</event>
<event>
 7    1  0.4519840E-010  0.4778727E+02  0.7816164E-02  0.1312668E+00
        -11   -1    0    0    0    0  0.00000000000E+00  0.00000000000E+00  0.45593999997E+02  0.45594000000E+02  0.51100000000E-03 0.  1.
         11   -1    0    0    0    0 -0.00000000000E+00 -0.00000000000E+00 -0.45593999997E+02  0.45594000000E+02  0.51100000000E-03 0. -1.
    9900012    2    1    2    0    0 -0.28904992289E+02  0.21175493147E+02  0.24489242869E+02  0.47787272984E+02  0.20000008842E+02 0.  0.
        -12    1    1    2    0    0  0.28904992289E+02 -0.21175493147E+02 -0.24489242869E+02  0.43400727016E+02  0.00000000000E+00 0.  1.
         11    1    3    3    0    0 -0.41320618298E+01  0.54449168731E+00 -0.35894592718E+00  0.41832103226E+01  0.51100000000E-03 0. -1.
        -11    1    3    3    0    0 -0.75970612370E+01  0.80550750933E+00  0.24970985118E+00  0.76437253390E+01  0.51100000000E-03 0.  1.
         12    1    3    3    0    0 -0.17175869222E+02  0.19825493950E+02  0.24598478945E+02  0.35960337322E+02  0.00000000000E+00 0. -1.
</event>
<event>
 7    1  0.4519840E-010  0.4778727E+02  0.7816164E-02  0.1312668E+00
        -11   -1    0    0    0    0  0.00000000000E+00  0.00000000000E+00  0.45593999997E+02  0.45594000000E+02  0.51100000000E-03 0. -1.
         11   -1    0    0    0    0 -0.00000000000E+00 -0.00000000000E+00 -0.45593999997E+02  0.45594000000E+02  0.51100000000E-03 0.  1.
    9900012    2    1    2    0    0  0.32727249334E+02 -0.21764202400E+01 -0.28422062237E+02  0.47787271022E+02  0.19999999897E+02 0.  0.
         12    1    1    2    0    0 -0.32727249334E+02  0.21764202400E+01  0.28422062237E+02  0.43400728978E+02  0.00000000000E+00 0. -1.
         11    1    3    3    0    0  0.19286208464E+01  0.19768691159E+01 -0.89135800053E+01  0.93316396546E+01  0.51100000000E-03 0. -1.
        -11    1    3    3    0    0  0.36217214835E+01 -0.41812657414E+01 -0.11248627367E+01  0.56449239270E+01  0.51100000000E-03 0.  1.
        -12    1    3    3    0    0  0.27176907004E+02  0.27976385377E-01 -0.18383619495E+02  0.32810707440E+02  0.00000000000E+00 0.  1.
</event>
<event>
 7    1  0.4519840E-010  0.4778727E+02  0.7816164E-02  0.1312668E+00
        -11   -1    0    0    0    0  0.00000000000E+00  0.00000000000E+00  0.45593999997E+02  0.45594000000E+02  0.51100000000E-03 0.  1.
         11   -1    0    0    0    0 -0.00000000000E+00 -0.00000000000E+00 -0.45593999997E+02  0.45594000000E+02  0.51100000000E-03 0. -1.
    9900012    2    1    2    0    0 -0.29376407463E+02  0.16679669768E+02 -0.27247725870E+02  0.47787271157E+02  0.20000000513E+02 0.  0.
         12    1    1    2    0    0  0.29376407463E+02 -0.16679669768E+02  0.27247725870E+02  0.43400728843E+02  0.00000000000E+00 0. -1.
         11    1    3    3    0    0 -0.11576520426E+02 -0.14883639847E+01 -0.93655904198E+01  0.14964803263E+02  0.51100000000E-03 0. -1.
        -11    1    3    3    0    0 -0.12643986448E+02  0.62505424627E+01 -0.12199278444E+02  0.18648379800E+02  0.51100000000E-03 0.  1.
         12    1    3    3    0    0 -0.51559005893E+01  0.11917491290E+02 -0.56828570069E+01  0.14174088094E+02  0.00000000000E+00 0. -1.
</event>
<event>
 7    1  0.4519840E-010  0.4778727E+02  0.7816164E-02  0.1312668E+00
        -11   -1    0    0    0    0  0.00000000000E+00  0.00000000000E+00  0.45593999997E+02  0.45594000000E+02  0.51100000000E-03 0.  1.
         11   -1    0    0    0    0 -0.00000000000E+00 -0.00000000000E+00 -0.45593999997E+02  0.45594000000E+02  0.51100000000E-03 0. -1.
    9900012    2    1    2    0    0 -0.34325631875E+02 -0.55552008802E+01 -0.25971403480E+02  0.47787273518E+02  0.20000011278E+02 0.  0.
         12    1    1    2    0    0  0.34325631875E+02  0.55552008802E+01  0.25971403480E+02  0.43400726482E+02  0.00000000000E+00 0. -1.
         11    1    3    3    0    0 -0.35155314605E+01 -0.35445822226E+01 -0.68143227929E+01  0.84473676355E+01  0.51100000000E-03 0. -1.
        -11    1    3    3    0    0 -0.10435408746E+02 -0.78368657443E+01 -0.89031187754E+01  0.15798093068E+02  0.51100000000E-03 0.  1.
        -12    1    3    3    0    0 -0.20374691669E+02  0.58262470868E+01 -0.10253961912E+02  0.23541812815E+02  0.00000000000E+00 0.  1.
</event>
<event>
 7    1  0.4519840E-010  0.4778728E+02  0.7816164E-02  0.1312668E+00
        -11   -1    0    0    0    0  0.00000000000E+00  0.00000000000E+00  0.45593999997E+02  0.45594000000E+02  0.51100000000E-03 0. -1.
         11   -1    0    0    0    0 -0.00000000000E+00 -0.00000000000E+00 -0.45593999997E+02  0.45594000000E+02  0.51100000000E-03 0.  1.
    9900012    2    1    2    0    0 -0.24729381047E+02 -0.15071761036E+02 -0.32325259088E+02  0.47787278315E+02  0.20000033149E+02 0.  0.
         12    1    1    2    0    0  0.24729381047E+02  0.15071761036E+02  0.32325259088E+02  0.43400721685E+02  0.00000000000E+00 0. -1.
         11    1    3    3    0    0 -0.59405072095E+01 -0.13010053544E+01 -0.45933585686E+01  0.76211012353E+01  0.51100000000E-03 0. -1.
        -11    1    3    3    0    0  0.44590866502E+00 -0.65681509278E+01 -0.13968177399E+02  0.15441807578E+02  0.51100000000E-03 0.  1.
        -12    1    3    3    0    0 -0.19234782502E+02 -0.72026047537E+01 -0.13763723120E+02  0.24724369502E+02  0.00000000000E+00 0.  1.
</event>
<event>
 7    1  0.4519840E-010  0.4778727E+02  0.7816164E-02  0.1312668E+00
        -11   -1    0    0    0    0  0.00000000000E+00  0.00000000000E+00  0.45593999997E+02  0.45594000000E+02  0.51100000000E-03 0. -1.
         11   -1    0    0    0    0 -0.00000000000E+00 -0.00000000000E+00 -0.45593999997E+02  0.45594000000E+02  0.51100000000E-03 0.  1.
    9900012    2    1    2    0    0  0.31115304618E+02  0.12262022578E+02 -0.27660517948E+02  0.47787266915E+02  0.19999981172E+02 0.  0.
         12    1    1    2    0    0 -0.31115304618E+02 -0.12262022578E+02  0.27660517948E+02  0.43400733085E+02  0.00000000000E+00 0. -1.
         11    1    3    3    0    0  0.11447588777E+02  0.12267017637E+01 -0.19684426216E+02  0.22804138259E+02  0.51100000000E-03 0. -1.
        -11    1    3    3    0    0  0.68870467407E+01  0.36399557345E+01 -0.64962722090E+01  0.10143088456E+02  0.51100000000E-03 0.  1.
         12    1    3    3    0    0  0.12780669100E+02  0.73953650798E+01 -0.14798195236E+01  0.14840040200E+02  0.00000000000E+00 0. -1.
</event>
<event>
 7    1  0.4519840E-010  0.4778727E+02  0.7816164E-02  0.1312668E+00
        -11   -1    0    0    0    0  0.00000000000E+00  0.00000000000E+00  0.45593999997E+02  0.45594000000E+02  0.51100000000E-03 0. -1.
         11   -1    0    0    0    0 -0.00000000000E+00 -0.00000000000E+00 -0.45593999997E+02  0.45594000000E+02  0.51100000000E-03 0.  1.
    9900012    2    1    2    0    0  0.10420310658E+02 -0.22255943448E+02 -0.35773080169E+02  0.47787272382E+02  0.20000006097E+02 0.  0.
         12    1    1    2    0    0 -0.10420310658E+02  0.22255943448E+02  0.35773080169E+02  0.43400727618E+02  0.00000000000E+00 0. -1.
         11    1    3    3    0    0 -0.28084093159E+01 -0.28117740429E+01 -0.68676165082E+01  0.79345694854E+01  0.51100000000E-03 0.  1.
        -11    1    3    3    0    0  0.47063970716E+01  0.14045555149E+01 -0.50600366924E+01  0.70517317858E+01  0.51100000000E-03 0. -1.
         12    1    3    3    0    0  0.85223229024E+01 -0.20848724920E+02 -0.23845426969E+02  0.32800971110E+02  0.00000000000E+00 0. -1.
</event>
<event>
 7    1  0.4519840E-010  0.4778727E+02  0.7816164E-02  0.1312668E+00
        -11   -1    0    0    0    0  0.00000000000E+00  0.00000000000E+00  0.45593999997E+02  0.45594000000E+02  0.51100000000E-03 0. -1.
         11   -1    0    0    0    0 -0.00000000000E+00 -0.00000000000E+00 -0.45593999997E+02  0.45594000000E+02  0.51100000000E-03 0.  1.
    9900012    2    1    2    0    0  0.25987330264E+02 -0.13104521555E+02  0.32195548795E+02  0.47787272107E+02  0.20000004845E+02 0.  0.
        -12    1    1    2    0    0 -0.25987330264E+02  0.13104521555E+02 -0.32195548795E+02  0.43400727893E+02  0.00000000000E+00 0.  1.
         11    1    3    3    0    0  0.96533041275E+00 -0.14948108807E+01  0.44576266478E-01  0.17799746289E+01  0.51100000000E-03 0. -1.
        -11    1    3    3    0    0  0.16753602252E+02 -0.75445482511E+01  0.77807863038E+01  0.19953546865E+02  0.51100000000E-03 0.  1.
         12    1    3    3    0    0  0.82683975990E+01 -0.40651624227E+01  0.24370186225E+02  0.26053750613E+02  0.00000000000E+00 0. -1.
</event>
<event>
 7    1  0.4519840E-010  0.4778729E+02  0.7816164E-02  0.1312668E+00
        -11   -1    0    0    0    0  0.00000000000E+00  0.00000000000E+00  0.45593999997E+02  0.45594000000E+02  0.51100000000E-03 0. -1.
         11   -1    0    0    0    0 -0.00000000000E+00 -0.00000000000E+00 -0.45593999997E+02  0.45594000000E+02  0.51100000000E-03 0.  1.
    9900012    2    1    2    0    0  0.10094222127E+02 -0.14181355386E+02  0.39756978529E+02  0.47787291450E+02  0.20000093036E+02 0.  0.
        -12    1    1    2    0    0 -0.10094222127E+02  0.14181355386E+02 -0.39756978529E+02  0.43400708550E+02  0.00000000000E+00 0.  1.
         11    1    3    3    0    0  0.19999429385E+01  0.81124204115E+00 -0.16183254526E+01  0.26975661138E+01  0.51100000000E-03 0. -1.
        -11    1    3    3    0    0 -0.68597651828E+00 -0.65507799312E+00  0.39377873631E+01  0.40504148601E+01  0.51100000000E-03 0.  1.
         12    1    3    3    0    0  0.87802557065E+01 -0.14337519434E+02  0.37437516618E+02  0.41039310476E+02  0.00000000000E+00 0. -1.
</event>
<event>
 7    1  0.4519840E-010  0.4778728E+02  0.7816164E-02  0.1312668E+00
        -11   -1    0    0    0    0  0.00000000000E+00  0.00000000000E+00  0.45593999997E+02  0.45594000000E+02  0.51100000000E-03 0. -1.
         11   -1    0    0    0    0 -0.00000000000E+00 -0.00000000000E+00 -0.45593999997E+02  0.45594000000E+02  0.51100000000E-03 0.  1.
    9900012    2    1    2    0    0 -0.34288271228E+01  0.37077459568E+02  0.22296360479E+02  0.47787279337E+02  0.20000037810E+02 0.  0.
        -12    1    1    2    0    0  0.34288271228E+01 -0.37077459568E+02 -0.22296360479E+02  0.43400720663E+02  0.00000000000E+00 0.  1.
         11    1    3    3    0    0  0.14046918509E+01  0.16950554259E+02  0.15271712264E+02  0.22858688603E+02  0.51100000000E-03 0. -1.
        -11    1    3    3    0    0 -0.19529973419E+01  0.20785152363E+02  0.68375231432E+01  0.21967896585E+02  0.51100000000E-03 0.  1.
         12    1    3    3    0    0 -0.28805216318E+01 -0.65824705417E+00  0.18712507169E+00  0.29606941497E+01  0.00000000000E+00 0. -1.
</event>
<event>
 7    1  0.4519840E-010  0.4778727E+02  0.7816164E-02  0.1312668E+00
        -11   -1    0    0    0    0  0.00000000000E+00  0.00000000000E+00  0.45593999997E+02  0.45594000000E+02  0.51100000000E-03 0.  1.
         11   -1    0    0    0    0 -0.00000000000E+00 -0.00000000000E+00 -0.45593999997E+02  0.45594000000E+02  0.51100000000E-03 0. -1.
    9900012    2    1    2    0    0 -0.20737141681E+02  0.15111865847E+02 -0.35003223597E+02  0.47787271934E+02  0.20000004056E+02 0.  0.
         12    1    1    2    0    0  0.20737141681E+02 -0.15111865847E+02  0.35003223597E+02  0.43400728066E+02  0.00000000000E+00 0. -1.
         11    1    3    3    0    0 -0.10321718349E+01 -0.79879122646E+00 -0.34927702481E+01  0.37286579874E+01  0.51100000000E-03 0. -1.
        -11    1    3    3    0    0 -0.15605762475E+01  0.93802706922E+01 -0.36720604646E+01  0.10193571739E+02  0.51100000000E-03 0.  1.
        -12    1    3    3    0    0 -0.18144393598E+02  0.65303863812E+01 -0.27838392885E+02  0.33865042208E+02  0.00000000000E+00 0.  1.
</event>
<event>
 7    1  0.4519840E-010  0.4778727E+02  0.7816164E-02  0.1312668E+00
        -11   -1    0    0    0    0  0.00000000000E+00  0.00000000000E+00  0.45593999997E+02  0.45594000000E+02  0.51100000000E-03 0. -1.
         11   -1    0    0    0    0 -0.00000000000E+00 -0.00000000000E+00 -0.45593999997E+02  0.45594000000E+02  0.51100000000E-03 0.  1.
    9900012    2    1    2    0    0 -0.20057198924E+01 -0.37172909311E+02 -0.22310873357E+02  0.47787272254E+02  0.20000005513E+02 0.  0.
         12    1    1    2    0    0  0.20057198924E+01  0.37172909311E+02  0.22310873357E+02  0.43400727746E+02  0.00000000000E+00 0. -1.
         11    1    3    3    0    0 -0.64151465352E+01 -0.92365572128E+01 -0.86252592283E+01  0.14172621184E+02  0.51100000000E-03 0.  1.
        -11    1    3    3    0    0 -0.29206950650E+01 -0.17445457375E+02 -0.59589282458E+01  0.18665027961E+02  0.51100000000E-03 0. -1.
         12    1    3    3    0    0  0.73301217077E+01 -0.10490894723E+02 -0.77266858832E+01  0.14949623108E+02  0.00000000000E+00 0. -1.
</event>
<event>
 7    1  0.4519840E-010  0.4778724E+02  0.7816164E-02  0.1312668E+00
        -11   -1    0    0    0    0  0.00000000000E+00  0.00000000000E+00  0.45593999997E+02  0.45594000000E+02  0.51100000000E-03 0. -1.
         11   -1    0    0    0    0 -0.00000000000E+00 -0.00000000000E+00 -0.45593999997E+02  0.45594000000E+02  0.51100000000E-03 0.  1.
    9900012    2    1    2    0    0 -0.12045048395E+02 -0.33949376057E+02  0.24207077920E+02  0.47787240249E+02  0.19999859592E+02 0.  0.
        -12    1    1    2    0    0  0.12045048395E+02  0.33949376057E+02 -0.24207077920E+02  0.43400759751E+02  0.00000000000E+00 0.  1.
         11    1    3    3    0    0 -0.12236384295E+02 -0.36013894822E+02  0.22376715878E+02  0.44129889356E+02  0.51100000000E-03 0. -1.
        -11    1    3    3    0    0 -0.34536604754E+00 -0.37385860555E+00  0.81747829396E+00  0.96297403182E+00  0.51100000000E-03 0.  1.
        -12    1    3    3    0    0  0.53670194681E+00  0.24383773707E+01  0.10128837483E+01  0.26943768610E+01  0.00000000000E+00 0.  1.
</event>
<event>
 7    1  0.4519840E-010  0.4778727E+02  0.7816164E-02  0.1312668E+00
        -11   -1    0    0    0    0  0.00000000000E+00  0.00000000000E+00  0.45593999997E+02  0.45594000000E+02  0.51100000000E-03 0. -1.
         11   -1    0    0    0    0 -0.00000000000E+00 -0.00000000000E+00 -0.45593999997E+02  0.45594000000E+02  0.51100000000E-03 0.  1.
    9900012    2    1    2    0    0  0.27108848227E+02  0.92482091133E+01 -0.32606814734E+02  0.47787269694E+02  0.19999993843E+02 0.  0.
         12    1    1    2    0    0 -0.27108848227E+02 -0.92482091133E+01  0.32606814734E+02  0.43400730306E+02  0.00000000000E+00 0. -1.
         11    1    3    3    0    0 -0.28447764575E-01  0.70741101730E+01 -0.83513846275E+01  0.10944837572E+02  0.51100000000E-03 0. -1.
        -11    1    3    3    0    0  0.55990147494E+01 -0.82132190502E+00 -0.28779326073E+01  0.63487031895E+01  0.51100000000E-03 0.  1.
         12    1    3    3    0    0  0.21538281242E+02  0.29954208452E+01 -0.21377497499E+02  0.30493728933E+02  0.00000000000E+00 0. -1.
</event>
<event>
 7    1  0.4519840E-010  0.4778727E+02  0.7816164E-02  0.1312668E+00
        -11   -1    0    0    0    0  0.00000000000E+00  0.00000000000E+00  0.45593999997E+02  0.45594000000E+02  0.51100000000E-03 0. -1.
         11   -1    0    0    0    0 -0.00000000000E+00 -0.00000000000E+00 -0.45593999997E+02  0.45594000000E+02  0.51100000000E-03 0.  1.
    9900012    2    1    2    0    0  0.20321356135E+02  0.12457899492E+02  0.36269359793E+02  0.47787271496E+02  0.20000002058E+02 0.  0.
        -12    1    1    2    0    0 -0.20321356135E+02 -0.12457899492E+02 -0.36269359793E+02  0.43400728504E+02  0.00000000000E+00 0.  1.
         11    1    3    3    0    0  0.35916965473E+00  0.63696386860E+01  0.10039716508E+02  0.11895259881E+02  0.51100000000E-03 0.  1.
        -11    1    3    3    0    0  0.14670198425E+02  0.94651206604E+01  0.22869138136E+02  0.28771526034E+02  0.51100000000E-03 0. -1.
        -12    1    3    3    0    0  0.52919880550E+01 -0.33768598546E+01  0.33605051491E+01  0.71204855810E+01  0.00000000000E+00 0.  1.
</event>
<event>
 7    1  0.4519840E-010  0.4778727E+02  0.7816164E-02  0.1312668E+00
        -11   -1    0    0    0    0  0.00000000000E+00  0.00000000000E+00  0.45593999997E+02  0.45594000000E+02  0.51100000000E-03 0. -1.
         11   -1    0    0    0    0 -0.00000000000E+00 -0.00000000000E+00 -0.45593999997E+02  0.45594000000E+02  0.51100000000E-03 0.  1.
    9900012    2    1    2    0    0  0.14682044753E+02  0.24449270048E+02 -0.32715349588E+02  0.47787270252E+02  0.19999996386E+02 0.  0.
         12    1    1    2    0    0 -0.14682044753E+02 -0.24449270048E+02  0.32715349588E+02  0.43400729748E+02  0.00000000000E+00 0. -1.
         11    1    3    3    0    0  0.91308182962E+00  0.41271959573E+01  0.14735564985E+01  0.44764756129E+01  0.51100000000E-03 0. -1.
        -11    1    3    3    0    0  0.17931428050E+01 -0.81278890897E+00 -0.47600760816E+01  0.51511466193E+01  0.51100000000E-03 0.  1.
        -12    1    3    3    0    0  0.11975820119E+02  0.21134863000E+02 -0.29428830005E+02  0.38159648020E+02  0.00000000000E+00 0.  1.
</event>
<event>
 7    1  0.4519840E-010  0.4778726E+02  0.7816164E-02  0.1312668E+00
        -11   -1    0    0    0    0  0.00000000000E+00  0.00000000000E+00  0.45593999997E+02  0.45594000000E+02  0.51100000000E-03 0. -1.
         11   -1    0    0    0    0 -0.00000000000E+00 -0.00000000000E+00 -0.45593999997E+02  0.45594000000E+02  0.51100000000E-03 0.  1.
    9900012    2    1    2    0    0 -0.29323406690E+02 -0.15555539029E+02  0.27960456237E+02  0.47787261673E+02  0.19999957270E+02 0.  0.
        -12    1    1    2    0    0  0.29323406690E+02  0.15555539029E+02 -0.27960456237E+02  0.43400738327E+02  0.00000000000E+00 0.  1.
         11    1    3    3    0    0 -0.13369043505E+02 -0.66972897113E+01  0.81425706680E+01  0.17026052715E+02  0.51100000000E-03 0. -1.
        -11    1    3    3    0    0 -0.16789527052E+02 -0.11610756735E+02  0.15768829195E+02  0.25794454152E+02  0.51100000000E-03 0.  1.
        -12    1    3    3    0    0  0.83516386695E+00  0.27525074177E+01  0.40490563745E+01  0.49667548050E+01  0.00000000000E+00 0.  1.
</event>
<event>
 7    1  0.4519840E-010  0.4778727E+02  0.7816164E-02  0.1312668E+00
        -11   -1    0    0    0    0  0.00000000000E+00  0.00000000000E+00  0.45593999997E+02  0.45594000000E+02  0.51100000000E-03 0. -1.
         11   -1    0    0    0    0 -0.00000000000E+00 -0.00000000000E+00 -0.45593999997E+02  0.45594000000E+02  0.51100000000E-03 0.  1.
    9900012    2    1    2    0    0  0.36652495458E+02  0.15512803277E+02  0.17308110780E+02  0.47787272039E+02  0.20000004534E+02 0.  0.
        -12    1    1    2    0    0 -0.36652495458E+02 -0.15512803277E+02 -0.17308110780E+02  0.43400727961E+02  0.00000000000E+00 0.  1.
         11    1    3    3    0    0  0.10881673878E+01  0.16739876231E+01  0.15089788522E+01  0.25026706263E+01  0.51100000000E-03 0. -1.
        -11    1    3    3    0    0  0.27587783903E+02  0.13582808318E+01  0.99152949321E+01  0.29346955913E+02  0.51100000000E-03 0.  1.
        -12    1    3    3    0    0  0.79765441668E+01  0.12480534822E+02  0.58838369958E+01  0.15937645500E+02  0.00000000000E+00 0.  1.
</event>
<event>
 7    1  0.4519840E-010  0.4778728E+02  0.7816164E-02  0.1312668E+00
        -11   -1    0    0    0    0  0.00000000000E+00  0.00000000000E+00  0.45593999997E+02  0.45594000000E+02  0.51100000000E-03 0. -1.
         11   -1    0    0    0    0 -0.00000000000E+00 -0.00000000000E+00 -0.45593999997E+02  0.45594000000E+02  0.51100000000E-03 0.  1.
    9900012    2    1    2    0    0  0.26706249919E+02 -0.27726988912E+02 -0.20040289273E+02  0.47787275432E+02  0.20000020006E+02 0.  0.
         12    1    1    2    0    0 -0.26706249919E+02  0.27726988912E+02  0.20040289273E+02  0.43400724568E+02  0.00000000000E+00 0. -1.
         11    1    3    3    0    0  0.19503744287E+02 -0.13068053649E+02 -0.14150812528E+02  0.27411960215E+02  0.51100000000E-03 0. -1.
        -11    1    3    3    0    0  0.51337992500E+01 -0.91768517010E+01 -0.89105661006E+01  0.13782912986E+02  0.51100000000E-03 0.  1.
        -12    1    3    3    0    0  0.20687063815E+01 -0.54820835625E+01  0.30210893557E+01  0.65924022309E+01  0.00000000000E+00 0.  1.
</event>
<event>
 7    1  0.4519840E-010  0.4778727E+02  0.7816164E-02  0.1312668E+00
        -11   -1    0    0    0    0  0.00000000000E+00  0.00000000000E+00  0.45593999997E+02  0.45594000000E+02  0.51100000000E-03 0. -1.
         11   -1    0    0    0    0 -0.00000000000E+00 -0.00000000000E+00 -0.45593999997E+02  0.45594000000E+02  0.51100000000E-03 0.  1.
    9900012    2    1    2    0    0  0.22017281137E+02  0.13929187564E+02  0.34710807497E+02  0.47787273141E+02  0.20000009558E+02 0.  0.
        -12    1    1    2    0    0 -0.22017281137E+02 -0.13929187564E+02 -0.34710807497E+02  0.43400726859E+02  0.00000000000E+00 0.  1.
         11    1    3    3    0    0  0.94295538179E+01  0.19241508194E+01  0.11047959905E+02  0.14651834694E+02  0.51100000000E-03 0. -1.
        -11    1    3    3    0    0  0.41164721616E+01  0.12944761575E+02  0.19186706383E+02  0.23508336763E+02  0.51100000000E-03 0.  1.
        -12    1    3    3    0    0  0.84712551574E+01 -0.93972483041E+00  0.44761412085E+01  0.96271016832E+01  0.00000000000E+00 0.  1.
</event>
<event>
 7    1  0.4519840E-010  0.4778732E+02  0.7816164E-02  0.1312668E+00
        -11   -1    0    0    0    0  0.00000000000E+00  0.00000000000E+00  0.45593999997E+02  0.45594000000E+02  0.51100000000E-03 0. -1.
         11   -1    0    0    0    0 -0.00000000000E+00 -0.00000000000E+00 -0.45593999997E+02  0.45594000000E+02  0.51100000000E-03 0.  1.
    9900012    2    1    2    0    0  0.66370582340E+01  0.17803348959E+02 -0.39020630411E+02  0.47787315975E+02  0.20000204857E+02 0.  0.
         12    1    1    2    0    0 -0.66370582340E+01 -0.17803348959E+02  0.39020630411E+02  0.43400684025E+02  0.00000000000E+00 0. -1.
         11    1    3    3    0    0 -0.15019224901E+01 -0.79551982726E+00 -0.11896388784E+01  0.20745755912E+01  0.51100000000E-03 0. -1.
        -11    1    3    3    0    0  0.73703882620E+01  0.36002605444E+00 -0.11846954435E+02  0.13957169181E+02  0.51100000000E-03 0.  1.
        -12    1    3    3    0    0  0.76859246214E+00  0.18238842732E+02 -0.25984037097E+02  0.31755571203E+02  0.00000000000E+00 0.  1.
</event>
<event>
 7    1  0.4519840E-010  0.4778726E+02  0.7816164E-02  0.1312668E+00
        -11   -1    0    0    0    0  0.00000000000E+00  0.00000000000E+00  0.45593999997E+02  0.45594000000E+02  0.51100000000E-03 0. -1.
         11   -1    0    0    0    0 -0.00000000000E+00 -0.00000000000E+00 -0.45593999997E+02  0.45594000000E+02  0.51100000000E-03 0.  1.
    9900012    2    1    2    0    0  0.49174079198E+00 -0.99210275091E+01  0.42248737343E+02  0.47787258037E+02  0.19999940695E+02 0.  0.
        -12    1    1    2    0    0 -0.49174079198E+00  0.99210275091E+01 -0.42248737343E+02  0.43400741963E+02  0.00000000000E+00 0.  1.
         11    1    3    3    0    0 -0.24385967535E+01  0.19972584734E+00  0.28427713334E+01  0.37507324159E+01  0.51100000000E-03 0. -1.
        -11    1    3    3    0    0  0.25131698060E+01 -0.14763754606E+02  0.29211027412E+02  0.32826339961E+02  0.51100000000E-03 0.  1.
        -12    1    3    3    0    0  0.41716773942E+00  0.46430012492E+01  0.10194938598E+02  0.11210185660E+02  0.00000000000E+00 0.  1.
</event>
<event>
 7    1  0.4519840E-010  0.4778728E+02  0.7816164E-02  0.1312668E+00
        -11   -1    0    0    0    0  0.00000000000E+00  0.00000000000E+00  0.45593999997E+02  0.45594000000E+02  0.51100000000E-03 0. -1.
         11   -1    0    0    0    0 -0.00000000000E+00 -0.00000000000E+00 -0.45593999997E+02  0.45594000000E+02  0.51100000000E-03 0.  1.
    9900012    2    1    2    0    0 -0.90312705303E+01  0.12508594434E+02  0.40565921091E+02  0.47787277240E+02  0.20000028248E+02 0.  0.
        -12    1    1    2    0    0  0.90312705303E+01 -0.12508594434E+02 -0.40565921091E+02  0.43400722760E+02  0.00000000000E+00 0.  1.
         11    1    3    3    0    0  0.93790139275E+00  0.29523245954E+01 -0.15834102700E+00  0.31017658972E+01  0.51100000000E-03 0. -1.
        -11    1    3    3    0    0  0.83136309060E+00 -0.15678143078E+01  0.98716226337E+00  0.20306885255E+01  0.51100000000E-03 0.  1.
         12    1    3    3    0    0 -0.10800535014E+02  0.11124084147E+02  0.39737099855E+02  0.42654822817E+02  0.00000000000E+00 0. -1.
</event>
<event>
 7    1  0.4519840E-010  0.4778727E+02  0.7816164E-02  0.1312668E+00
        -11   -1    0    0    0    0  0.00000000000E+00  0.00000000000E+00  0.45593999997E+02  0.45594000000E+02  0.51100000000E-03 0. -1.
         11   -1    0    0    0    0 -0.00000000000E+00 -0.00000000000E+00 -0.45593999997E+02  0.45594000000E+02  0.51100000000E-03 0.  1.
    9900012    2    1    2    0    0  0.13883784610E+02  0.83266318327E+01  0.40268235907E+02  0.47787273095E+02  0.20000009350E+02 0.  0.
        -12    1    1    2    0    0 -0.13883784610E+02 -0.83266318327E+01 -0.40268235907E+02  0.43400726905E+02  0.00000000000E+00 0.  1.
         11    1    3    3    0    0  0.80764440094E+01  0.76875270585E+01  0.15182994659E+02  0.18837471890E+02  0.51100000000E-03 0. -1.
        -11    1    3    3    0    0  0.54310365031E+01  0.30038129424E+01  0.32919852458E+01  0.70253979824E+01  0.51100000000E-03 0.  1.
        -12    1    3    3    0    0  0.37630409754E+00 -0.23647081682E+01  0.21793256003E+02  0.21924403223E+02  0.00000000000E+00 0.  1.
</event>
<event>
 7    1  0.4519840E-010  0.4778727E+02  0.7816164E-02  0.1312668E+00
        -11   -1    0    0    0    0  0.00000000000E+00  0.00000000000E+00  0.45593999997E+02  0.45594000000E+02  0.51100000000E-03 0. -1.
         11   -1    0    0    0    0 -0.00000000000E+00 -0.00000000000E+00 -0.45593999997E+02  0.45594000000E+02  0.51100000000E-03 0.  1.
    9900012    2    1    2    0    0 -0.12943876874E+01 -0.58026686436E+01  0.42991592043E+02  0.47787269715E+02  0.19999993940E+02 0.  0.
        -12    1    1    2    0    0  0.12943876874E+01  0.58026686436E+01 -0.42991592043E+02  0.43400730285E+02  0.00000000000E+00 0.  1.
         11    1    3    3    0    0  0.40596066355E+01  0.32434610101E+01  0.50426399692E+01  0.72407640121E+01  0.51100000000E-03 0. -1.
        -11    1    3    3    0    0 -0.35738784493E+01 -0.84430391624E+00  0.34406125210E+01  0.50322232715E+01  0.51100000000E-03 0.  1.
         12    1    3    3    0    0 -0.17801158735E+01 -0.82018257375E+01  0.34508339553E+02  0.35514282432E+02  0.00000000000E+00 0. -1.
</event>
<event>
 7    1  0.4519840E-010  0.4778727E+02  0.7816164E-02  0.1312668E+00
        -11   -1    0    0    0    0  0.00000000000E+00  0.00000000000E+00  0.45593999997E+02  0.45594000000E+02  0.51100000000E-03 0. -1.
         11   -1    0    0    0    0 -0.00000000000E+00 -0.00000000000E+00 -0.45593999997E+02  0.45594000000E+02  0.51100000000E-03 0.  1.
    9900012    2    1    2    0    0  0.59507733063E+01 -0.27875750183E+02  0.32728489782E+02  0.47787271958E+02  0.20000004166E+02 0.  0.
        -12    1    1    2    0    0 -0.59507733063E+01  0.27875750183E+02 -0.32728489782E+02  0.43400728042E+02  0.00000000000E+00 0.  1.
         11    1    3    3    0    0 -0.79218593159E+00 -0.74403837793E+01  0.17933991884E+02  0.19432316756E+02  0.51100000000E-03 0. -1.
        -11    1    3    3    0    0 -0.74331534022E+00 -0.89603624956E+01  0.10862381564E+02  0.14100778250E+02  0.51100000000E-03 0.  1.
        -12    1    3    3    0    0  0.74862745781E+01 -0.11475003908E+02  0.39321163337E+01  0.14254176953E+02  0.00000000000E+00 0.  1.
</event>
<event>
 7    1  0.4519840E-010  0.4778727E+02  0.7816164E-02  0.1312668E+00
        -11   -1    0    0    0    0  0.00000000000E+00  0.00000000000E+00  0.45593999997E+02  0.45594000000E+02  0.51100000000E-03 0. -1.
         11   -1    0    0    0    0 -0.00000000000E+00 -0.00000000000E+00 -0.45593999997E+02  0.45594000000E+02  0.51100000000E-03 0.  1.
    9900012    2    1    2    0    0  0.20682087879E+02  0.23753791917E+02  0.29860213237E+02  0.47787265859E+02  0.19999976357E+02 0.  0.
        -12    1    1    2    0    0 -0.20682087879E+02 -0.23753791917E+02 -0.29860213237E+02  0.43400734141E+02  0.00000000000E+00 0.  1.
         11    1    3    3    0    0  0.79505925294E+01  0.28435010781E+01  0.31341250795E+01  0.90066730942E+01  0.51100000000E-03 0. -1.
        -11    1    3    3    0    0  0.43542839370E+01 -0.11493501799E+01  0.41924279419E+01  0.61528242904E+01  0.51100000000E-03 0.  1.
         12    1    3    3    0    0  0.83772114121E+01  0.22059641018E+02  0.22533660215E+02  0.32627768474E+02  0.00000000000E+00 0. -1.
</event>
<event>
 7    1  0.4519840E-010  0.4778727E+02  0.7816164E-02  0.1312668E+00
        -11   -1    0    0    0    0  0.00000000000E+00  0.00000000000E+00  0.45593999997E+02  0.45594000000E+02  0.51100000000E-03 0. -1.
         11   -1    0    0    0    0 -0.00000000000E+00 -0.00000000000E+00 -0.45593999997E+02  0.45594000000E+02  0.51100000000E-03 0.  1.
    9900012    2    1    2    0    0 -0.16584786936E+02 -0.26406707302E+02 -0.30186981198E+02  0.47787272102E+02  0.20000004823E+02 0.  0.
         12    1    1    2    0    0  0.16584786936E+02  0.26406707302E+02  0.30186981198E+02  0.43400727898E+02  0.00000000000E+00 0. -1.
         11    1    3    3    0    0 -0.95194157211E+01 -0.66809243792E+00 -0.93912567815E+01  0.13388850861E+02  0.51100000000E-03 0.  1.
        -11    1    3    3    0    0 -0.17882627144E+01 -0.98911481358E+01 -0.43315794762E+01  0.10945102832E+02  0.51100000000E-03 0. -1.
        -12    1    3    3    0    0 -0.52771085003E+01 -0.15847466728E+02 -0.16464144940E+02  0.23453318410E+02  0.00000000000E+00 0.  1.
</event>
<event>
 7    1  0.4519840E-010  0.4778725E+02  0.7816164E-02  0.1312668E+00
        -11   -1    0    0    0    0  0.00000000000E+00  0.00000000000E+00  0.45593999997E+02  0.45594000000E+02  0.51100000000E-03 0. -1.
         11   -1    0    0    0    0 -0.00000000000E+00 -0.00000000000E+00 -0.45593999997E+02  0.45594000000E+02  0.51100000000E-03 0.  1.
    9900012    2    1    2    0    0  0.28222588708E+02 -0.22557423713E+02 -0.24047303974E+02  0.47787254541E+02  0.19999924754E+02 0.  0.
         12    1    1    2    0    0 -0.28222588708E+02  0.22557423713E+02  0.24047303974E+02  0.43400745459E+02  0.00000000000E+00 0. -1.
         11    1    3    3    0    0 -0.17423456105E+00 -0.16390126363E+01 -0.50333125034E+01  0.52963152401E+01  0.51100000000E-03 0. -1.
        -11    1    3    3    0    0  0.17790752275E+02 -0.14852006458E+02 -0.19463589971E+02  0.30264241228E+02  0.51100000000E-03 0.  1.
         12    1    3    3    0    0  0.10606070995E+02 -0.60664046188E+01  0.44959849985E+00  0.12226698073E+02  0.00000000000E+00 0. -1.
</event>
<event>
 7    1  0.4519840E-010  0.4778728E+02  0.7816164E-02  0.1312668E+00
        -11   -1    0    0    0    0  0.00000000000E+00  0.00000000000E+00  0.45593999997E+02  0.45594000000E+02  0.51100000000E-03 0. -1.
         11   -1    0    0    0    0 -0.00000000000E+00 -0.00000000000E+00 -0.45593999997E+02  0.45594000000E+02  0.51100000000E-03 0.  1.
    9900012    2    1    2    0    0  0.11019635417E+02  0.19061013129E+00  0.41978012458E+02  0.47787283107E+02  0.20000054996E+02 0.  0.
        -12    1    1    2    0    0 -0.11019635417E+02 -0.19061013129E+00 -0.41978012458E+02  0.43400716893E+02  0.00000000000E+00 0.  1.
         11    1    3    3    0    0  0.11692062489E+01 -0.88345583787E+00  0.15596479959E+01  0.21401027083E+01  0.51100000000E-03 0. -1.
        -11    1    3    3    0    0  0.12611956372E+02 -0.30004680065E+01  0.15312365880E+02  0.20063220102E+02  0.51100000000E-03 0.  1.
         12    1    3    3    0    0 -0.27615272033E+01  0.40745339757E+01  0.25105998582E+02  0.25583960296E+02  0.00000000000E+00 0. -1.
</event>
<event>
 7    1  0.4519840E-010  0.4778726E+02  0.7816164E-02  0.1312668E+00
        -11   -1    0    0    0    0  0.00000000000E+00  0.00000000000E+00  0.45593999997E+02  0.45594000000E+02  0.51100000000E-03 0. -1.
         11   -1    0    0    0    0 -0.00000000000E+00 -0.00000000000E+00 -0.45593999997E+02  0.45594000000E+02  0.51100000000E-03 0.  1.
    9900012    2    1    2    0    0  0.66817231895E+01  0.25565523923E+00  0.42882550502E+02  0.47787263578E+02  0.19999965959E+02 0.  0.
        -12    1    1    2    0    0 -0.66817231895E+01 -0.25565523923E+00 -0.42882550502E+02  0.43400736422E+02  0.00000000000E+00 0.  1.
         11    1    3    3    0    0  0.45730921771E+01  0.39616301574E+01  0.66333202621E+01  0.89782305342E+01  0.51100000000E-03 0. -1.
        -11    1    3    3    0    0  0.25895983545E+01  0.43233542190E+01  0.20673914495E+02  0.21279289277E+02  0.51100000000E-03 0.  1.
        -12    1    3    3    0    0 -0.48096734215E+00 -0.80293291372E+01  0.15575315745E+02  0.17529743767E+02  0.00000000000E+00 0.  1.
</event>
<event>
 7    1  0.4519840E-010  0.4778725E+02  0.7816164E-02  0.1312668E+00
        -11   -1    0    0    0    0  0.00000000000E+00  0.00000000000E+00  0.45593999997E+02  0.45594000000E+02  0.51100000000E-03 0. -1.
         11   -1    0    0    0    0 -0.00000000000E+00 -0.00000000000E+00 -0.45593999997E+02  0.45594000000E+02  0.51100000000E-03 0.  1.
    9900012    2    1    2    0    0 -0.16396249863E+02  0.11673963337E+02 -0.38451350378E+02  0.47787253745E+02  0.19999921126E+02 0.  0.
         12    1    1    2    0    0  0.16396249863E+02 -0.11673963337E+02  0.38451350378E+02  0.43400746255E+02  0.00000000000E+00 0. -1.
         11    1    3    3    0    0  0.18240083015E+01 -0.17819080409E+01 -0.84867776177E+01  0.88615798334E+01  0.51100000000E-03 0. -1.
        -11    1    3    3    0    0 -0.58684390569E+01  0.58382730526E+01 -0.19039186629E+02  0.20760892008E+02  0.51100000000E-03 0.  1.
        -12    1    3    3    0    0 -0.12351819107E+02  0.76175983255E+01 -0.10925386132E+02  0.18164781904E+02  0.00000000000E+00 0.  1.
</event>
<event>
 7    1  0.4519840E-010  0.4778727E+02  0.7816164E-02  0.1312668E+00
        -11   -1    0    0    0    0  0.00000000000E+00  0.00000000000E+00  0.45593999997E+02  0.45594000000E+02  0.51100000000E-03 0. -1.
         11   -1    0    0    0    0 -0.00000000000E+00 -0.00000000000E+00 -0.45593999997E+02  0.45594000000E+02  0.51100000000E-03 0.  1.
    9900012    2    1    2    0    0 -0.12554588510E+02 -0.51880715768E+01 -0.41220012120E+02  0.47787272143E+02  0.20000005010E+02 0.  0.
         12    1    1    2    0    0  0.12554588510E+02  0.51880715768E+01  0.41220012120E+02  0.43400727857E+02  0.00000000000E+00 0. -1.
         11    1    3    3    0    0 -0.52405467449E+01  0.57259900130E+01 -0.75702402185E+01  0.10842454936E+02  0.51100000000E-03 0. -1.
        -11    1    3    3    0    0 -0.68037297877E+01 -0.32423930581E+01 -0.17739539902E+02  0.19274208880E+02  0.51100000000E-03 0.  1.
         12    1    3    3    0    0 -0.51031197703E+00 -0.76716685317E+01 -0.15910232000E+02  0.17670608327E+02  0.00000000000E+00 0. -1.
</event>
<event>
 7    1  0.8806651E-010  0.4778727E+02  0.7816164E-02  0.1312668E+00
        -11   -1    0    0    0    0  0.00000000000E+00  0.00000000000E+00  0.45593999997E+02  0.45594000000E+02  0.51100000000E-03 0. -1.
         11   -1    0    0    0    0 -0.00000000000E+00 -0.00000000000E+00 -0.45593999997E+02  0.45594000000E+02  0.51100000000E-03 0.  1.
    9900012    2    1    2    0    0 -0.15678045447E+02 -0.27621855756E+01 -0.40375641362E+02  0.47787271970E+02  0.20000004219E+02 0.  0.
         12    1    1    2    0    0  0.15678045447E+02  0.27621855756E+01  0.40375641362E+02  0.43400728030E+02  0.00000000000E+00 0. -1.
         11    1    3    3    0    0  0.14993534896E+01 -0.30864940900E+01 -0.19936898054E+01  0.39685395243E+01  0.51100000000E-03 0. -1.
        -11    1    3    3    0    0 -0.35337096819E+01  0.46140387214E+00 -0.55558227702E+00  0.36067533291E+01  0.51100000000E-03 0.  1.
        -12    1    3    3    0    0 -0.13643689254E+02 -0.13709535776E+00 -0.37826369279E+02  0.40211979116E+02  0.00000000000E+00 0.  1.
</event>
<event>
 7    1  0.4519840E-010  0.4778727E+02  0.7816164E-02  0.1312668E+00
        -11   -1    0    0    0    0  0.00000000000E+00  0.00000000000E+00  0.45593999997E+02  0.45594000000E+02  0.51100000000E-03 0. -1.
         11   -1    0    0    0    0 -0.00000000000E+00 -0.00000000000E+00 -0.45593999997E+02  0.45594000000E+02  0.51100000000E-03 0.  1.
    9900012    2    1    2    0    0 -0.16116096344E+02 -0.37673023336E+02  0.14305175461E+02  0.47787270817E+02  0.19999998963E+02 0.  0.
        -12    1    1    2    0    0  0.16116096344E+02  0.37673023336E+02 -0.14305175461E+02  0.43400729183E+02  0.00000000000E+00 0.  1.
         11    1    3    3    0    0  0.73186041271E+00 -0.62865154260E+01  0.79809316398E+01  0.10185831629E+02  0.51100000000E-03 0. -1.
        -11    1    3    3    0    0 -0.43518692778E+01 -0.95460615839E+01 -0.27617143110E+01  0.10848646191E+02  0.51100000000E-03 0.  1.
         12    1    3    3    0    0 -0.12496087479E+02 -0.21840446326E+02  0.90859581318E+01  0.26752792998E+02  0.00000000000E+00 0. -1.
</event>
<event>
 7    1  0.4519840E-010  0.4778727E+02  0.7816164E-02  0.1312668E+00
        -11   -1    0    0    0    0  0.00000000000E+00  0.00000000000E+00  0.45593999997E+02  0.45594000000E+02  0.51100000000E-03 0.  1.
         11   -1    0    0    0    0 -0.00000000000E+00 -0.00000000000E+00 -0.45593999997E+02  0.45594000000E+02  0.51100000000E-03 0. -1.
    9900012    2    1    2    0    0  0.18279433713E+02 -0.33063619572E+02 -0.21360770453E+02  0.47787272467E+02  0.20000006484E+02 0.  0.
         12    1    1    2    0    0 -0.18279433713E+02  0.33063619572E+02  0.21360770453E+02  0.43400727533E+02  0.00000000000E+00 0. -1.
         11    1    3    3    0    0  0.31359362334E+01  0.15933812542E+01  0.41349265823E+00  0.35417419896E+01  0.51100000000E-03 0.  1.
        -11    1    3    3    0    0 -0.17427098576E+00 -0.31255451856E+00 -0.14614401500E+01  0.15046156574E+01  0.51100000000E-03 0. -1.
        -12    1    3    3    0    0  0.15317768466E+02 -0.34344446308E+02 -0.20312822961E+02  0.42740914820E+02  0.00000000000E+00 0.  1.
</event>
<event>
 7    1  0.4519840E-010  0.4778726E+02  0.7816164E-02  0.1312668E+00
        -11   -1    0    0    0    0  0.00000000000E+00  0.00000000000E+00  0.45593999997E+02  0.45594000000E+02  0.51100000000E-03 0. -1.
         11   -1    0    0    0    0 -0.00000000000E+00 -0.00000000000E+00 -0.45593999997E+02  0.45594000000E+02  0.51100000000E-03 0.  1.
    9900012    2    1    2    0    0  0.15937435883E+02  0.19241609973E+00 -0.40368128157E+02  0.47787255106E+02  0.19999927331E+02 0.  0.
         12    1    1    2    0    0 -0.15937435883E+02 -0.19241609973E+00  0.40368128157E+02  0.43400744894E+02  0.00000000000E+00 0. -1.
         11    1    3    3    0    0  0.50064805532E+01 -0.13765256573E+01 -0.13316242854E+01  0.53603072592E+01  0.51100000000E-03 0. -1.
        -11    1    3    3    0    0 -0.26147095197E+00 -0.31779497331E+01 -0.29367105898E+01  0.43349741538E+01  0.51100000000E-03 0.  1.
         12    1    3    3    0    0  0.11192426282E+02  0.47468914901E+01 -0.36099793281E+02  0.38091973693E+02  0.00000000000E+00 0. -1.
</event>
<event>
 7    1  0.4519840E-010  0.4778727E+02  0.7816164E-02  0.1312668E+00
        -11   -1    0    0    0    0  0.00000000000E+00  0.00000000000E+00  0.45593999997E+02  0.45594000000E+02  0.51100000000E-03 0. -1.
         11   -1    0    0    0    0 -0.00000000000E+00 -0.00000000000E+00 -0.45593999997E+02  0.45594000000E+02  0.51100000000E-03 0.  1.
    9900012    2    1    2    0    0  0.31868710943E+02 -0.17267415306E+01 -0.29411346067E+02  0.47787266700E+02  0.19999980193E+02 0.  0.
         12    1    1    2    0    0 -0.31868710943E+02  0.17267415306E+01  0.29411346067E+02  0.43400733300E+02  0.00000000000E+00 0. -1.
         11    1    3    3    0    0  0.47927217302E+01  0.34808603845E+01 -0.27898113178E+01  0.65474894463E+01  0.51100000000E-03 0. -1.
        -11    1    3    3    0    0  0.24746028446E+02  0.77612965773E+00 -0.23353712119E+02  0.34034749464E+02  0.51100000000E-03 0.  1.
         12    1    3    3    0    0  0.23299607674E+01 -0.59837315729E+01 -0.32678226296E+01  0.72050277898E+01  0.00000000000E+00 0. -1.
</event>
<event>
 7    1  0.5933032E-010  0.4778727E+02  0.7816164E-02  0.1312668E+00
        -11   -1    0    0    0    0  0.00000000000E+00  0.00000000000E+00  0.45593999997E+02  0.45594000000E+02  0.51100000000E-03 0.  1.
         11   -1    0    0    0    0 -0.00000000000E+00 -0.00000000000E+00 -0.45593999997E+02  0.45594000000E+02  0.51100000000E-03 0. -1.
    9900012    2    1    2    0    0 -0.33582266789E+02 -0.15882286894E+02 -0.22441207376E+02  0.47787268806E+02  0.19999989793E+02 0.  0.
         12    1    1    2    0    0  0.33582266789E+02  0.15882286894E+02  0.22441207376E+02  0.43400731194E+02  0.00000000000E+00 0. -1.
         11    1    3    3    0    0  0.12332081548E+01 -0.44988125914E-01  0.11310706614E+01  0.16739615846E+01  0.51100000000E-03 0. -1.
        -11    1    3    3    0    0  0.16662908657E+00 -0.20108095396E+01 -0.11923636184E+01  0.23436833226E+01  0.51100000000E-03 0.  1.
        -12    1    3    3    0    0 -0.34982104031E+02 -0.13826489229E+02 -0.22379914419E+02  0.43769623898E+02  0.00000000000E+00 0.  1.
</event>
<event>
 7    1  0.4519840E-010  0.4778727E+02  0.7816164E-02  0.1312668E+00
        -11   -1    0    0    0    0  0.00000000000E+00  0.00000000000E+00  0.45593999997E+02  0.45594000000E+02  0.51100000000E-03 0.  1.
         11   -1    0    0    0    0 -0.00000000000E+00 -0.00000000000E+00 -0.45593999997E+02  0.45594000000E+02  0.51100000000E-03 0. -1.
    9900012    2    1    2    0    0 -0.25840393179E+02 -0.32180494469E+02 -0.13428073322E+02  0.47787270778E+02  0.19999998784E+02 0.  0.
        -12    1    1    2    0    0  0.25840393179E+02  0.32180494469E+02  0.13428073322E+02  0.43400729222E+02  0.00000000000E+00 0.  1.
         11    1    3    3    0    0 -0.20582734395E+01 -0.63043189378E+01 -0.40324414123E+01  0.77615404931E+01  0.51100000000E-03 0. -1.
        -11    1    3    3    0    0 -0.22181697008E+02 -0.14679133722E+02 -0.10636952961E+02  0.28646979205E+02  0.51100000000E-03 0.  1.
        -12    1    3    3    0    0 -0.16004227313E+01 -0.11197041809E+02  0.12413210515E+01  0.11378751080E+02  0.00000000000E+00 0.  1.
</event>
<event>
 7    1  0.4519840E-010  0.4778726E+02  0.7816164E-02  0.1312668E+00
        -11   -1    0    0    0    0  0.00000000000E+00  0.00000000000E+00  0.45593999997E+02  0.45594000000E+02  0.51100000000E-03 0. -1.
         11   -1    0    0    0    0 -0.00000000000E+00 -0.00000000000E+00 -0.45593999997E+02  0.45594000000E+02  0.51100000000E-03 0.  1.
    9900012    2    1    2    0    0  0.29268568550E+02 -0.31396999929E+02 -0.64189715775E+01  0.47787263766E+02  0.19999966816E+02 0.  0.
         12    1    1    2    0    0 -0.29268568550E+02  0.31396999929E+02  0.64189715775E+01  0.43400736234E+02  0.00000000000E+00 0. -1.
         11    1    3    3    0    0  0.10760458201E+02 -0.22146932542E+02 -0.76202143842E+01  0.25774827822E+02  0.51100000000E-03 0. -1.
        -11    1    3    3    0    0  0.78764932343E+01 -0.75241129084E+01  0.24637944359E+01  0.11167887178E+02  0.51100000000E-03 0.  1.
         12    1    3    3    0    0  0.10631617115E+02 -0.17259544784E+01 -0.12625516292E+01  0.10844548767E+02  0.00000000000E+00 0. -1.
</event>
<event>
 7    1  0.4519840E-010  0.4778730E+02  0.7816164E-02  0.1312668E+00
        -11   -1    0    0    0    0  0.00000000000E+00  0.00000000000E+00  0.45593999997E+02  0.45594000000E+02  0.51100000000E-03 0. -1.
         11   -1    0    0    0    0 -0.00000000000E+00 -0.00000000000E+00 -0.45593999997E+02  0.45594000000E+02  0.51100000000E-03 0.  1.
    9900012    2    1    2    0    0 -0.12033449326E+02  0.19386545166E+02 -0.36918545975E+02  0.47787296399E+02  0.20000115599E+02 0.  0.
         12    1    1    2    0    0  0.12033449326E+02 -0.19386545166E+02  0.36918545975E+02  0.43400703601E+02  0.00000000000E+00 0. -1.
         11    1    3    3    0    0 -0.10948802341E+02  0.11947282489E+02 -0.23907545559E+02  0.28882253487E+02  0.51100000000E-03 0. -1.
        -11    1    3    3    0    0 -0.35004976710E+01  0.72419730571E+01 -0.29680688797E+01  0.85737442719E+01  0.51100000000E-03 0.  1.
         12    1    3    3    0    0  0.24158506857E+01  0.19728962016E+00 -0.10042931537E+02  0.10331298640E+02  0.00000000000E+00 0. -1.
</event>
<event>
 7    1  0.4519840E-010  0.4778727E+02  0.7816164E-02  0.1312668E+00
        -11   -1    0    0    0    0  0.00000000000E+00  0.00000000000E+00  0.45593999997E+02  0.45594000000E+02  0.51100000000E-03 0. -1.
         11   -1    0    0    0    0 -0.00000000000E+00 -0.00000000000E+00 -0.45593999997E+02  0.45594000000E+02  0.51100000000E-03 0.  1.
    9900012    2    1    2    0    0  0.16148995489E+01  0.15353193762E+02 -0.40562235976E+02  0.47787269054E+02  0.19999990924E+02 0.  0.
         12    1    1    2    0    0 -0.16148995489E+01 -0.15353193762E+02  0.40562235976E+02  0.43400730946E+02  0.00000000000E+00 0. -1.
         11    1    3    3    0    0 -0.22462664763E+01 -0.22694508786E+00 -0.15879227675E+00  0.22632791263E+01  0.51100000000E-03 0. -1.
        -11    1    3    3    0    0  0.29032714804E+01 -0.15872810376E+01 -0.35275699775E+01  0.48365480033E+01  0.51100000000E-03 0.  1.
         12    1    3    3    0    0  0.95789454481E+00  0.17167419888E+02 -0.36875873722E+02  0.40687441924E+02  0.00000000000E+00 0. -1.
</event>
<event>
 7    1  0.4519840E-010  0.4778727E+02  0.7816164E-02  0.1312668E+00
        -11   -1    0    0    0    0  0.00000000000E+00  0.00000000000E+00  0.45593999997E+02  0.45594000000E+02  0.51100000000E-03 0. -1.
         11   -1    0    0    0    0 -0.00000000000E+00 -0.00000000000E+00 -0.45593999997E+02  0.45594000000E+02  0.51100000000E-03 0.  1.
    9900012    2    1    2    0    0  0.34179745671E+02 -0.26472010557E+02  0.38210955213E+01  0.47787272724E+02  0.20000007660E+02 0.  0.
        -12    1    1    2    0    0 -0.34179745671E+02  0.26472010557E+02 -0.38210955213E+01  0.43400727276E+02  0.00000000000E+00 0.  1.
         11    1    3    3    0    0  0.26991620306E+02 -0.14264815717E+02  0.62049876993E+01  0.31153401207E+02  0.51100000000E-03 0. -1.
        -11    1    3    3    0    0  0.76437414028E+01 -0.48156770292E+01 -0.87838583932E+00  0.90768436048E+01  0.51100000000E-03 0.  1.
        -12    1    3    3    0    0 -0.45561603794E+00 -0.73915178115E+01 -0.15055063387E+01  0.75570279124E+01  0.00000000000E+00 0.  1.
</event>
<event>
 7    1  0.4519840E-010  0.4778727E+02  0.7816164E-02  0.1312668E+00
        -11   -1    0    0    0    0  0.00000000000E+00  0.00000000000E+00  0.45593999997E+02  0.45594000000E+02  0.51100000000E-03 0. -1.
         11   -1    0    0    0    0 -0.00000000000E+00 -0.00000000000E+00 -0.45593999997E+02  0.45594000000E+02  0.51100000000E-03 0.  1.
    9900012    2    1    2    0    0  0.23453334545E+02  0.23179523881E+02  0.28218329990E+02  0.47787269867E+02  0.19999994633E+02 0.  0.
        -12    1    1    2    0    0 -0.23453334545E+02 -0.23179523881E+02 -0.28218329990E+02  0.43400730133E+02  0.00000000000E+00 0.  1.
         11    1    3    3    0    0  0.10955043269E+02  0.17180013965E+02  0.21945824922E+02  0.29946370141E+02  0.51100000000E-03 0. -1.
        -11    1    3    3    0    0  0.11750826165E+01  0.52182637366E+01  0.18561530549E+01  0.56618371581E+01  0.51100000000E-03 0.  1.
        -12    1    3    3    0    0  0.11323208659E+02  0.78124617961E+00  0.44163520129E+01  0.12179062568E+02  0.00000000000E+00 0.  1.
</event>
<event>
 7    1  0.4519840E-010  0.4778727E+02  0.7816164E-02  0.1312668E+00
        -11   -1    0    0    0    0  0.00000000000E+00  0.00000000000E+00  0.45593999997E+02  0.45594000000E+02  0.51100000000E-03 0. -1.
         11   -1    0    0    0    0 -0.00000000000E+00 -0.00000000000E+00 -0.45593999997E+02  0.45594000000E+02  0.51100000000E-03 0.  1.
    9900012    2    1    2    0    0  0.39825667438E+02  0.87501849784E+01  0.14865186083E+02  0.47787270959E+02  0.19999999608E+02 0.  0.
        -12    1    1    2    0    0 -0.39825667438E+02 -0.87501849784E+01 -0.14865186083E+02  0.43400729041E+02  0.00000000000E+00 0.  1.
         11    1    3    3    0    0  0.76278190579E+01  0.37968468704E+01  0.36853486652E+01  0.92833972651E+01  0.51100000000E-03 0. -1.
        -11    1    3    3    0    0  0.30881603495E+02  0.72717546962E+00  0.56200568063E+01  0.31397249200E+02  0.51100000000E-03 0.  1.
         12    1    3    3    0    0  0.13162448857E+01  0.42261626384E+01  0.55597806111E+01  0.71066244933E+01  0.00000000000E+00 0. -1.
</event>
<event>
 7    1  0.4519840E-010  0.4778727E+02  0.7816164E-02  0.1312668E+00
        -11   -1    0    0    0    0  0.00000000000E+00  0.00000000000E+00  0.45593999997E+02  0.45594000000E+02  0.51100000000E-03 0.  1.
         11   -1    0    0    0    0 -0.00000000000E+00 -0.00000000000E+00 -0.45593999997E+02  0.45594000000E+02  0.51100000000E-03 0. -1.
    9900012    2    1    2    0    0 -0.32044472440E+01 -0.33957470842E+02 -0.26837384205E+02  0.47787268450E+02  0.19999988170E+02 0.  0.
         12    1    1    2    0    0  0.32044472440E+01  0.33957470842E+02  0.26837384205E+02  0.43400731550E+02  0.00000000000E+00 0. -1.
         11    1    3    3    0    0  0.98817950272E+00 -0.11657635329E+02 -0.15476387517E+02  0.19400915727E+02  0.51100000000E-03 0. -1.
        -11    1    3    3    0    0 -0.51690176459E+01 -0.18253968985E+02 -0.13892952772E+02  0.23514681884E+02  0.51100000000E-03 0.  1.
        -12    1    3    3    0    0  0.97639089926E+00 -0.40458665283E+01  0.25319560841E+01  0.48716708391E+01  0.00000000000E+00 0.  1.
</event>
<event>
 7    1  0.4519840E-010  0.4778729E+02  0.7816164E-02  0.1312668E+00
        -11   -1    0    0    0    0  0.00000000000E+00  0.00000000000E+00  0.45593999997E+02  0.45594000000E+02  0.51100000000E-03 0. -1.
         11   -1    0    0    0    0 -0.00000000000E+00 -0.00000000000E+00 -0.45593999997E+02  0.45594000000E+02  0.51100000000E-03 0.  1.
    9900012    2    1    2    0    0  0.35452977806E+02  0.20822499992E+02 -0.13897174717E+02  0.47787290255E+02  0.20000087591E+02 0.  0.
        -12    1    1    2    0    0 -0.35452977806E+02 -0.20822499992E+02  0.13897174717E+02  0.43400709745E+02  0.00000000000E+00 0.  1.
         11    1    3    3    0    0  0.26486686368E+02  0.12475870236E+02 -0.73514777393E+01  0.30186687764E+02  0.51100000000E-03 0. -1.
        -11    1    3    3    0    0  0.96248833869E+01  0.20950274189E+01 -0.53233101018E+01  0.11196658019E+02  0.51100000000E-03 0.  1.
        -12    1    3    3    0    0 -0.65859194956E+00  0.62516023367E+01 -0.12223868762E+01  0.64039444726E+01  0.00000000000E+00 0.  1.
</event>
<event>
 7    1  0.4519840E-010  0.4778727E+02  0.7816164E-02  0.1312668E+00
        -11   -1    0    0    0    0  0.00000000000E+00  0.00000000000E+00  0.45593999997E+02  0.45594000000E+02  0.51100000000E-03 0. -1.
         11   -1    0    0    0    0 -0.00000000000E+00 -0.00000000000E+00 -0.45593999997E+02  0.45594000000E+02  0.51100000000E-03 0.  1.
    9900012    2    1    2    0    0 -0.26183621910E+02  0.76818419396E+01  0.33749526918E+02  0.47787270523E+02  0.19999997623E+02 0.  0.
        -12    1    1    2    0    0  0.26183621910E+02 -0.76818419396E+01 -0.33749526918E+02  0.43400729477E+02  0.00000000000E+00 0.  1.
         11    1    3    3    0    0 -0.12267832116E+02  0.10475309612E+02  0.11526590272E+02  0.19826600814E+02  0.51100000000E-03 0. -1.
        -11    1    3    3    0    0 -0.58078843029E+01  0.33235213046E+01  0.72295385664E+01  0.98510680681E+01  0.51100000000E-03 0.  1.
        -12    1    3    3    0    0 -0.81079054917E+01 -0.61169889772E+01  0.14993398080E+02  0.18109601641E+02  0.00000000000E+00 0.  1.
</event>
<event>
 7    1  0.4994217E-010  0.4778728E+02  0.7816164E-02  0.1312668E+00
        -11   -1    0    0    0    0  0.00000000000E+00  0.00000000000E+00  0.45593999997E+02  0.45594000000E+02  0.51100000000E-03 0. -1.
         11   -1    0    0    0    0 -0.00000000000E+00 -0.00000000000E+00 -0.45593999997E+02  0.45594000000E+02  0.51100000000E-03 0.  1.
    9900012    2    1    2    0    0 -0.21117839418E+02  0.13462176610E+01 -0.37892577822E+02  0.47787275379E+02  0.20000019764E+02 0.  0.
         12    1    1    2    0    0  0.21117839418E+02 -0.13462176610E+01  0.37892577822E+02  0.43400724621E+02  0.00000000000E+00 0. -1.
         11    1    3    3    0    0 -0.11942614238E+02 -0.36232981286E+01 -0.95283527256E+01  0.15701714240E+02  0.51100000000E-03 0. -1.
        -11    1    3    3    0    0 -0.19017394503E+01 -0.28753073127E+01 -0.30469814291E+01  0.46008804776E+01  0.51100000000E-03 0.  1.
        -12    1    3    3    0    0 -0.72734857295E+01  0.78448231022E+01 -0.25317243667E+02  0.27484680661E+02  0.00000000000E+00 0.  1.
</event>
<event>
 7    1  0.4519840E-010  0.4778727E+02  0.7816164E-02  0.1312668E+00
        -11   -1    0    0    0    0  0.00000000000E+00  0.00000000000E+00  0.45593999997E+02  0.45594000000E+02  0.51100000000E-03 0. -1.
         11   -1    0    0    0    0 -0.00000000000E+00 -0.00000000000E+00 -0.45593999997E+02  0.45594000000E+02  0.51100000000E-03 0.  1.
    9900012    2    1    2    0    0  0.18942319078E+02  0.22691973463E+02  0.31778705000E+02  0.47787271859E+02  0.20000003713E+02 0.  0.
        -12    1    1    2    0    0 -0.18942319078E+02 -0.22691973463E+02 -0.31778705000E+02  0.43400728141E+02  0.00000000000E+00 0.  1.
         11    1    3    3    0    0  0.67438644253E+01  0.12343339235E+01  0.29218851170E+01  0.74525633523E+01  0.51100000000E-03 0. -1.
        -11    1    3    3    0    0 -0.13376322017E+01  0.10559812148E+00  0.63385606924E+01  0.64790248327E+01  0.51100000000E-03 0.  1.
         12    1    3    3    0    0  0.13536086854E+02  0.21352041418E+02  0.22518259191E+02  0.33855683674E+02  0.00000000000E+00 0. -1.
</event>
<event>
 7    1  0.4519840E-010  0.4778727E+02  0.7816164E-02  0.1312668E+00
        -11   -1    0    0    0    0  0.00000000000E+00  0.00000000000E+00  0.45593999997E+02  0.45594000000E+02  0.51100000000E-03 0. -1.
         11   -1    0    0    0    0 -0.00000000000E+00 -0.00000000000E+00 -0.45593999997E+02  0.45594000000E+02  0.51100000000E-03 0.  1.
    9900012    2    1    2    0    0 -0.13459764306E+02  0.38454728525E+02 -0.14956322624E+02  0.47787274343E+02  0.20000015040E+02 0.  0.
         12    1    1    2    0    0  0.13459764306E+02 -0.38454728525E+02  0.14956322624E+02  0.43400725657E+02  0.00000000000E+00 0. -1.
         11    1    3    3    0    0 -0.24007710219E-01  0.71270664165E+01  0.91793251155E+00  0.71859760946E+01  0.51100000000E-03 0. -1.
        -11    1    3    3    0    0 -0.65116889784E+01  0.14976585383E+01 -0.19443117501E+01  0.69588377544E+01  0.51100000000E-03 0.  1.
         12    1    3    3    0    0 -0.69240676172E+01  0.29830003570E+02 -0.13929943385E+02  0.33642460494E+02  0.00000000000E+00 0. -1.
</event>
<event>
 7    1  0.4519840E-010  0.4778727E+02  0.7816164E-02  0.1312668E+00
        -11   -1    0    0    0    0  0.00000000000E+00  0.00000000000E+00  0.45593999997E+02  0.45594000000E+02  0.51100000000E-03 0. -1.
         11   -1    0    0    0    0 -0.00000000000E+00 -0.00000000000E+00 -0.45593999997E+02  0.45594000000E+02  0.51100000000E-03 0.  1.
    9900012    2    1    2    0    0  0.36138344780E+02 -0.21444552271E+02  0.10852399652E+02  0.47787270009E+02  0.19999995280E+02 0.  0.
        -12    1    1    2    0    0 -0.36138344780E+02  0.21444552271E+02 -0.10852399652E+02  0.43400729991E+02  0.00000000000E+00 0.  1.
         11    1    3    3    0    0  0.11890436040E+02 -0.13872281180E+02  0.63289259718E+01  0.19335924043E+02  0.51100000000E-03 0. -1.
        -11    1    3    3    0    0  0.10147299948E+01 -0.91250951860E+00  0.40544440878E+01  0.42779513446E+01  0.51100000000E-03 0.  1.
         12    1    3    3    0    0  0.23233178745E+02 -0.66597615720E+01  0.46902959249E+00  0.24173394622E+02  0.00000000000E+00 0. -1.
</event>
<event>
 7    1  0.4519840E-010  0.4778726E+02  0.7816164E-02  0.1312668E+00
        -11   -1    0    0    0    0  0.00000000000E+00  0.00000000000E+00  0.45593999997E+02  0.45594000000E+02  0.51100000000E-03 0. -1.
         11   -1    0    0    0    0 -0.00000000000E+00 -0.00000000000E+00 -0.45593999997E+02  0.45594000000E+02  0.51100000000E-03 0.  1.
    9900012    2    1    2    0    0 -0.10852569275E+02  0.19739166545E+02  0.37097316795E+02  0.47787264187E+02  0.19999968732E+02 0.  0.
        -12    1    1    2    0    0  0.10852569275E+02 -0.19739166545E+02 -0.37097316795E+02  0.43400735813E+02  0.00000000000E+00 0.  1.
         11    1    3    3    0    0 -0.38899669977E+01  0.97560912548E+00  0.42644520993E+01  0.58539908078E+01  0.51100000000E-03 0. -1.
        -11    1    3    3    0    0 -0.10304276355E+02  0.80090630500E+01  0.98878242761E+01  0.16373523485E+02  0.51100000000E-03 0.  1.
         12    1    3    3    0    0  0.33416740772E+01  0.10754494370E+02  0.22945040419E+02  0.25559749894E+02  0.00000000000E+00 0. -1.
</event>
<event>
 7    1  0.4519840E-010  0.4778727E+02  0.7816164E-02  0.1312668E+00
        -11   -1    0    0    0    0  0.00000000000E+00  0.00000000000E+00  0.45593999997E+02  0.45594000000E+02  0.51100000000E-03 0. -1.
         11   -1    0    0    0    0 -0.00000000000E+00 -0.00000000000E+00 -0.45593999997E+02  0.45594000000E+02  0.51100000000E-03 0.  1.
    9900012    2    1    2    0    0  0.14038383363E+02 -0.26382097596E+02  0.31472718711E+02  0.47787270696E+02  0.19999998413E+02 0.  0.
        -12    1    1    2    0    0 -0.14038383363E+02  0.26382097596E+02 -0.31472718711E+02  0.43400729304E+02  0.00000000000E+00 0.  1.
         11    1    3    3    0    0  0.17526927002E+02 -0.20003747376E+02  0.19667770338E+02  0.33078153962E+02  0.51100000000E-03 0. -1.
        -11    1    3    3    0    0 -0.60177694704E+00 -0.49105604418E+01  0.43758249421E+01  0.66048151777E+01  0.51100000000E-03 0.  1.
        -12    1    3    3    0    0 -0.28867666922E+01 -0.14677897787E+01  0.74291234306E+01  0.81043015564E+01  0.00000000000E+00 0.  1.
</event>
<event>
 7    1  0.4519840E-010  0.4778727E+02  0.7816164E-02  0.1312668E+00
        -11   -1    0    0    0    0  0.00000000000E+00  0.00000000000E+00  0.45593999997E+02  0.45594000000E+02  0.51100000000E-03 0. -1.
         11   -1    0    0    0    0 -0.00000000000E+00 -0.00000000000E+00 -0.45593999997E+02  0.45594000000E+02  0.51100000000E-03 0.  1.
    9900012    2    1    2    0    0 -0.41003219030E+02  0.12676966962E+02 -0.64539970736E+01  0.47787267974E+02  0.19999986002E+02 0.  0.
        -12    1    1    2    0    0  0.41003219030E+02 -0.12676966962E+02  0.64539970736E+01  0.43400732026E+02  0.00000000000E+00 0.  1.
         11    1    3    3    0    0 -0.19921594714E+02 -0.23507611083E+01  0.51624764104E+00  0.20066452742E+02  0.51100000000E-03 0. -1.
        -11    1    3    3    0    0  0.13150629705E-01  0.16062104152E+01  0.39864021909E+00  0.16549921820E+01  0.51100000000E-03 0.  1.
        -12    1    3    3    0    0 -0.21094774945E+02  0.13421517655E+02 -0.73688849337E+01  0.26065823051E+02  0.00000000000E+00 0.  1.
</event>
<event>
 7    1  0.4519840E-010  0.4778727E+02  0.7816164E-02  0.1312668E+00
        -11   -1    0    0    0    0  0.00000000000E+00  0.00000000000E+00  0.45593999997E+02  0.45594000000E+02  0.51100000000E-03 0. -1.
         11   -1    0    0    0    0 -0.00000000000E+00 -0.00000000000E+00 -0.45593999997E+02  0.45594000000E+02  0.51100000000E-03 0.  1.
    9900012    2    1    2    0    0 -0.19969251611E+02 -0.10373582060E+02  0.37111202049E+02  0.47787268069E+02  0.19999986432E+02 0.  0.
        -12    1    1    2    0    0  0.19969251611E+02  0.10373582060E+02 -0.37111202049E+02  0.43400731931E+02  0.00000000000E+00 0.  1.
         11    1    3    3    0    0 -0.91021312769E+01  0.37212177019E+00  0.31358849066E+01  0.96343677947E+01  0.51100000000E-03 0. -1.
        -11    1    3    3    0    0  0.11344552544E+01 -0.18204778508E+00  0.42257054539E+01  0.43791228533E+01  0.51100000000E-03 0.  1.
         12    1    3    3    0    0 -0.12001575588E+02 -0.10563656045E+02  0.29749611689E+02  0.33773777421E+02  0.00000000000E+00 0. -1.
</event>
<event>
 7    1  0.4519840E-010  0.4778728E+02  0.7816164E-02  0.1312668E+00
        -11   -1    0    0    0    0  0.00000000000E+00  0.00000000000E+00  0.45593999997E+02  0.45594000000E+02  0.51100000000E-03 0.  1.
         11   -1    0    0    0    0 -0.00000000000E+00 -0.00000000000E+00 -0.45593999997E+02  0.45594000000E+02  0.51100000000E-03 0. -1.
    9900012    2    1    2    0    0 -0.23974233974E+02 -0.36177375739E+02  0.23762251745E+00  0.47787275646E+02  0.20000020980E+02 0.  0.
         12    1    1    2    0    0  0.23974233974E+02  0.36177375739E+02 -0.23762251745E+00  0.43400724354E+02  0.00000000000E+00 0. -1.
         11    1    3    3    0    0 -0.10293894009E+02 -0.16921609528E+02 -0.67615105290E+01  0.20929002551E+02  0.51100000000E-03 0. -1.
        -11    1    3    3    0    0 -0.47767504962E+01 -0.14424950158E+02  0.13381811497E+01  0.15254089990E+02  0.51100000000E-03 0.  1.
         12    1    3    3    0    0 -0.89035894681E+01 -0.48308160535E+01  0.56609518967E+01  0.11604183105E+02  0.00000000000E+00 0. -1.
</event>
<event>
 7    1  0.6823236E-010  0.4778727E+02  0.7816164E-02  0.1312668E+00
        -11   -1    0    0    0    0  0.00000000000E+00  0.00000000000E+00  0.45593999997E+02  0.45594000000E+02  0.51100000000E-03 0. -1.
         11   -1    0    0    0    0 -0.00000000000E+00 -0.00000000000E+00 -0.45593999997E+02  0.45594000000E+02  0.51100000000E-03 0.  1.
    9900012    2    1    2    0    0 -0.19281327837E+02  0.94262381118E+01 -0.37722672553E+02  0.47787267372E+02  0.19999983258E+02 0.  0.
         12    1    1    2    0    0  0.19281327837E+02 -0.94262381118E+01  0.37722672553E+02  0.43400732628E+02  0.00000000000E+00 0. -1.
         11    1    3    3    0    0 -0.29933873572E+00 -0.34699892799E+01 -0.34386863542E+01  0.48943838616E+01  0.51100000000E-03 0. -1.
        -11    1    3    3    0    0 -0.34228965938E+01 -0.21481233950E+01 -0.68006737530E+01  0.79107407344E+01  0.51100000000E-03 0.  1.
        -12    1    3    3    0    0 -0.15559092507E+02  0.15044350787E+02 -0.27483312446E+02  0.34982142776E+02  0.00000000000E+00 0.  1.
</event>
<event>
 7    1  0.4519840E-010  0.4778727E+02  0.7816164E-02  0.1312668E+00
        -11   -1    0    0    0    0  0.00000000000E+00  0.00000000000E+00  0.45593999997E+02  0.45594000000E+02  0.51100000000E-03 0. -1.
         11   -1    0    0    0    0 -0.00000000000E+00 -0.00000000000E+00 -0.45593999997E+02  0.45594000000E+02  0.51100000000E-03 0.  1.
    9900012    2    1    2    0    0 -0.15355168570E+02 -0.34082999205E+02 -0.22049742928E+02  0.47787271898E+02  0.20000003891E+02 0.  0.
         12    1    1    2    0    0  0.15355168570E+02  0.34082999205E+02  0.22049742928E+02  0.43400728102E+02  0.00000000000E+00 0. -1.
         11    1    3    3    0    0 -0.10599052310E+02 -0.10394171550E+02 -0.45269260808E+01  0.15520044204E+02  0.51100000000E-03 0. -1.
        -11    1    3    3    0    0 -0.24992610047E+01 -0.78011666904E+01 -0.13389013233E+02  0.15696183705E+02  0.51100000000E-03 0.  1.
         12    1    3    3    0    0 -0.22568552554E+01 -0.15887660964E+02 -0.41338036146E+01  0.16571043989E+02  0.00000000000E+00 0. -1.
</event>
<event>
 7    1  0.4519840E-010  0.4778727E+02  0.7816164E-02  0.1312668E+00
        -11   -1    0    0    0    0  0.00000000000E+00  0.00000000000E+00  0.45593999997E+02  0.45594000000E+02  0.51100000000E-03 0. -1.
         11   -1    0    0    0    0 -0.00000000000E+00 -0.00000000000E+00 -0.45593999997E+02  0.45594000000E+02  0.51100000000E-03 0.  1.
    9900012    2    1    2    0    0  0.11153641628E+02 -0.25688021092E+02  0.33156373774E+02  0.47787271077E+02  0.20000000150E+02 0.  0.
        -12    1    1    2    0    0 -0.11153641628E+02  0.25688021092E+02 -0.33156373774E+02  0.43400728923E+02  0.00000000000E+00 0.  1.
         11    1    3    3    0    0  0.33871237552E+01 -0.27469316774E+01  0.48544903611E-01  0.43612610381E+01  0.51100000000E-03 0. -1.
        -11    1    3    3    0    0  0.74153099932E+01 -0.29717394921E+01  0.75692581825E+01  0.11005077355E+02  0.51100000000E-03 0.  1.
        -12    1    3    3    0    0  0.35120787950E+00 -0.19969349923E+02  0.25538570688E+02  0.32420932684E+02  0.00000000000E+00 0.  1.
</event>
<event>
 7    1  0.4519840E-010  0.4778727E+02  0.7816164E-02  0.1312668E+00
        -11   -1    0    0    0    0  0.00000000000E+00  0.00000000000E+00  0.45593999997E+02  0.45594000000E+02  0.51100000000E-03 0. -1.
         11   -1    0    0    0    0 -0.00000000000E+00 -0.00000000000E+00 -0.45593999997E+02  0.45594000000E+02  0.51100000000E-03 0.  1.
    9900012    2    1    2    0    0  0.24863032920E+02 -0.13858818867E+02 -0.32762573071E+02  0.47787268893E+02  0.19999990190E+02 0.  0.
         12    1    1    2    0    0 -0.24863032920E+02  0.13858818867E+02  0.32762573071E+02  0.43400731107E+02  0.00000000000E+00 0. -1.
         11    1    3    3    0    0  0.56440204818E+01 -0.70611919289E+01 -0.20952384558E+01  0.92793007875E+01  0.51100000000E-03 0. -1.
        -11    1    3    3    0    0  0.44152627084E+01 -0.70885988393E+01 -0.13068159803E+02  0.15508693665E+02  0.51100000000E-03 0.  1.
        -12    1    3    3    0    0  0.14803749730E+02  0.29097190132E+00 -0.17599174812E+02  0.22999274440E+02  0.00000000000E+00 0.  1.
</event>
<event>
 7    1  0.4519840E-010  0.4778727E+02  0.7816164E-02  0.1312668E+00
        -11   -1    0    0    0    0  0.00000000000E+00  0.00000000000E+00  0.45593999997E+02  0.45594000000E+02  0.51100000000E-03 0. -1.
         11   -1    0    0    0    0 -0.00000000000E+00 -0.00000000000E+00 -0.45593999997E+02  0.45594000000E+02  0.51100000000E-03 0.  1.
    9900012    2    1    2    0    0  0.88609698772E+01  0.28066844977E+02  0.31896056695E+02  0.47787274121E+02  0.20000014027E+02 0.  0.
        -12    1    1    2    0    0 -0.88609698772E+01 -0.28066844977E+02 -0.31896056695E+02  0.43400725879E+02  0.00000000000E+00 0.  1.
         11    1    3    3    0    0  0.95841833325E+01  0.86433632326E+01  0.11796557139E+02  0.17484938053E+02  0.51100000000E-03 0. -1.
        -11    1    3    3    0    0  0.31355534003E+01  0.17463008644E+01  0.73147738666E+01  0.81478327680E+01  0.51100000000E-03 0.  1.
        -12    1    3    3    0    0 -0.38587668556E+01  0.17677180880E+02  0.12784725689E+02  0.22154503300E+02  0.00000000000E+00 0.  1.
</event>
<event>
 7    1  0.4519840E-010  0.4778727E+02  0.7816164E-02  0.1312668E+00
        -11   -1    0    0    0    0  0.00000000000E+00  0.00000000000E+00  0.45593999997E+02  0.45594000000E+02  0.51100000000E-03 0. -1.
         11   -1    0    0    0    0 -0.00000000000E+00 -0.00000000000E+00 -0.45593999997E+02  0.45594000000E+02  0.51100000000E-03 0.  1.
    9900012    2    1    2    0    0  0.37567179254E+02 -0.81016404095E+01  0.20166654226E+02  0.47787268703E+02  0.19999989324E+02 0.  0.
        -12    1    1    2    0    0 -0.37567179254E+02  0.81016404095E+01 -0.20166654226E+02  0.43400731297E+02  0.00000000000E+00 0.  1.
         11    1    3    3    0    0  0.12360362921E+02  0.19494889851E+01  0.41292180897E+01  0.13176855510E+02  0.51100000000E-03 0. -1.
        -11    1    3    3    0    0  0.18052098020E+02 -0.44478493664E+01  0.17348066591E+02  0.25428665352E+02  0.51100000000E-03 0.  1.
        -12    1    3    3    0    0  0.71547183135E+01 -0.56032800283E+01 -0.13106304539E+01  0.91817478406E+01  0.00000000000E+00 0.  1.
</event>
<event>
 7    1  0.4519840E-010  0.4778727E+02  0.7816164E-02  0.1312668E+00
        -11   -1    0    0    0    0  0.00000000000E+00  0.00000000000E+00  0.45593999997E+02  0.45594000000E+02  0.51100000000E-03 0. -1.
         11   -1    0    0    0    0 -0.00000000000E+00 -0.00000000000E+00 -0.45593999997E+02  0.45594000000E+02  0.51100000000E-03 0.  1.
    9900012    2    1    2    0    0  0.21843592350E+02 -0.27390118431E+02 -0.25617616135E+02  0.47787269926E+02  0.19999994903E+02 0.  0.
         12    1    1    2    0    0 -0.21843592350E+02  0.27390118431E+02  0.25617616135E+02  0.43400730074E+02  0.00000000000E+00 0. -1.
         11    1    3    3    0    0  0.15510796917E+02 -0.21844903006E+02 -0.98625944389E+01  0.28549174729E+02  0.51100000000E-03 0. -1.
        -11    1    3    3    0    0  0.57740356143E+01 -0.59007277448E+01 -0.81384172604E+01  0.11592752519E+02  0.51100000000E-03 0.  1.
        -12    1    3    3    0    0  0.55875981875E+00  0.35551231975E+00 -0.76166044361E+01  0.76453426791E+01  0.00000000000E+00 0.  1.
</event>
<event>
 7    1  0.4519840E-010  0.4778727E+02  0.7816164E-02  0.1312668E+00
        -11   -1    0    0    0    0  0.00000000000E+00  0.00000000000E+00  0.45593999997E+02  0.45594000000E+02  0.51100000000E-03 0. -1.
         11   -1    0    0    0    0 -0.00000000000E+00 -0.00000000000E+00 -0.45593999997E+02  0.45594000000E+02  0.51100000000E-03 0.  1.
    9900012    2    1    2    0    0 -0.27798538376E+02  0.25206893396E+01  0.33234186755E+02  0.47787265215E+02  0.19999973422E+02 0.  0.
        -12    1    1    2    0    0  0.27798538376E+02 -0.25206893396E+01 -0.33234186755E+02  0.43400734785E+02  0.00000000000E+00 0.  1.
         11    1    3    3    0    0 -0.75851007331E+01  0.50712623730E+01  0.11610557247E+02  0.14766736099E+02  0.51100000000E-03 0. -1.
        -11    1    3    3    0    0 -0.46465601969E+01 -0.57940099106E+01  0.18640557091E+01  0.76574001107E+01  0.51100000000E-03 0.  1.
        -12    1    3    3    0    0 -0.15566877446E+02  0.32434368772E+01  0.19759573800E+02  0.25363129005E+02  0.00000000000E+00 0.  1.
</event>
<event>
 7    1  0.4519840E-010  0.4778727E+02  0.7816164E-02  0.1312668E+00
        -11   -1    0    0    0    0  0.00000000000E+00  0.00000000000E+00  0.45593999997E+02  0.45594000000E+02  0.51100000000E-03 0. -1.
         11   -1    0    0    0    0 -0.00000000000E+00 -0.00000000000E+00 -0.45593999997E+02  0.45594000000E+02  0.51100000000E-03 0.  1.
    9900012    2    1    2    0    0  0.24041104265E+02 -0.25647119275E+02 -0.25453365080E+02  0.47787271719E+02  0.20000003077E+02 0.  0.
         12    1    1    2    0    0 -0.24041104265E+02  0.25647119275E+02  0.25453365080E+02  0.43400728281E+02  0.00000000000E+00 0. -1.
         11    1    3    3    0    0  0.20499956015E+02 -0.15409945895E+02 -0.18331184000E+02  0.31523751938E+02  0.51100000000E-03 0. -1.
        -11    1    3    3    0    0  0.65345933595E+01 -0.39055009970E+01 -0.35027019736E+01  0.83799027315E+01  0.51100000000E-03 0.  1.
         12    1    3    3    0    0 -0.29934451101E+01 -0.63316723824E+01 -0.36194791066E+01  0.78836170499E+01  0.00000000000E+00 0. -1.
</event>
<event>
 7    1  0.4519840E-010  0.4778727E+02  0.7816164E-02  0.1312668E+00
        -11   -1    0    0    0    0  0.00000000000E+00  0.00000000000E+00  0.45593999997E+02  0.45594000000E+02  0.51100000000E-03 0. -1.
         11   -1    0    0    0    0 -0.00000000000E+00 -0.00000000000E+00 -0.45593999997E+02  0.45594000000E+02  0.51100000000E-03 0.  1.
    9900012    2    1    2    0    0  0.53878339985E+01  0.11301438629E+02  0.41555647229E+02  0.47787273199E+02  0.20000009823E+02 0.  0.
        -12    1    1    2    0    0 -0.53878339985E+01 -0.11301438629E+02 -0.41555647229E+02  0.43400726801E+02  0.00000000000E+00 0.  1.
         11    1    3    3    0    0  0.65692135524E+01  0.90430606610E+01  0.15304682831E+02  0.18951644510E+02  0.51100000000E-03 0. -1.
        -11    1    3    3    0    0 -0.32684249762E+01  0.64127695744E+01  0.14225528944E+02  0.15942769189E+02  0.51100000000E-03 0.  1.
        -12    1    3    3    0    0  0.20870454223E+01 -0.41543916066E+01  0.12025435454E+02  0.12892859500E+02  0.00000000000E+00 0.  1.
</event>
<event>
 7    1  0.4519840E-010  0.4778727E+02  0.7816164E-02  0.1312668E+00
        -11   -1    0    0    0    0  0.00000000000E+00  0.00000000000E+00  0.45593999997E+02  0.45594000000E+02  0.51100000000E-03 0.  1.
         11   -1    0    0    0    0 -0.00000000000E+00 -0.00000000000E+00 -0.45593999997E+02  0.45594000000E+02  0.51100000000E-03 0. -1.
    9900012    2    1    2    0    0 -0.35593231730E+02  0.23546488328E+02  0.78935432133E+01  0.47787270951E+02  0.19999999572E+02 0.  0.
        -12    1    1    2    0    0  0.35593231730E+02 -0.23546488328E+02 -0.78935432133E+01  0.43400729049E+02  0.00000000000E+00 0.  1.
         11    1    3    3    0    0 -0.26150873461E+02  0.19787140039E+02 -0.21034446142E+01  0.32860669093E+02  0.51100000000E-03 0. -1.
        -11    1    3    3    0    0 -0.27152479892E+00 -0.30434145554E+00 -0.33391353739E+00  0.52711284329E+00  0.51100000000E-03 0.  1.
        -12    1    3    3    0    0 -0.91708334700E+01  0.40636897445E+01  0.10330901365E+02  0.14399489015E+02  0.00000000000E+00 0.  1.
</event>
<event>
 7    1  0.4519840E-010  0.4778728E+02  0.7816164E-02  0.1312668E+00
        -11   -1    0    0    0    0  0.00000000000E+00  0.00000000000E+00  0.45593999997E+02  0.45594000000E+02  0.51100000000E-03 0. -1.
         11   -1    0    0    0    0 -0.00000000000E+00 -0.00000000000E+00 -0.45593999997E+02  0.45594000000E+02  0.51100000000E-03 0.  1.
    9900012    2    1    2    0    0 -0.14076722041E+02 -0.12522065296E+02 -0.39098162959E+02  0.47787279160E+02  0.20000037002E+02 0.  0.
         12    1    1    2    0    0  0.14076722041E+02  0.12522065296E+02  0.39098162959E+02  0.43400720840E+02  0.00000000000E+00 0. -1.
         11    1    3    3    0    0 -0.60798793030E+00 -0.55083847259E+00 -0.50613145985E+00  0.96397181600E+00  0.51100000000E-03 0. -1.
        -11    1    3    3    0    0 -0.13631132042E+02 -0.15307850637E+02 -0.22703379656E+02  0.30587276765E+02  0.51100000000E-03 0.  1.
         12    1    3    3    0    0  0.16239793170E+00  0.33366238133E+01 -0.15888651843E+02  0.16236030579E+02  0.00000000000E+00 0. -1.
</event>
<event>
 7    1  0.4519840E-010  0.4778727E+02  0.7816164E-02  0.1312668E+00
        -11   -1    0    0    0    0  0.00000000000E+00  0.00000000000E+00  0.45593999997E+02  0.45594000000E+02  0.51100000000E-03 0. -1.
         11   -1    0    0    0    0 -0.00000000000E+00 -0.00000000000E+00 -0.45593999997E+02  0.45594000000E+02  0.51100000000E-03 0.  1.
    9900012    2    1    2    0    0  0.50641610710E+01 -0.23721767718E+02 -0.35989655241E+02  0.47787271027E+02  0.19999999922E+02 0.  0.
         12    1    1    2    0    0 -0.50641610710E+01  0.23721767718E+02  0.35989655241E+02  0.43400728973E+02  0.00000000000E+00 0. -1.
         11    1    3    3    0    0 -0.57879501658E+01 -0.65418903962E+01 -0.13697737526E+02  0.16245759775E+02  0.51100000000E-03 0. -1.
        -11    1    3    3    0    0 -0.13644792044E+01 -0.12447574983E+01 -0.38866678618E+01  0.43031862680E+01  0.51100000000E-03 0.  1.
        -12    1    3    3    0    0  0.12216590441E+02 -0.15935119823E+02 -0.18405249853E+02  0.27238324984E+02  0.00000000000E+00 0.  1.
</event>
<event>
 7    1  0.4519840E-010  0.4778727E+02  0.7816164E-02  0.1312668E+00
        -11   -1    0    0    0    0  0.00000000000E+00  0.00000000000E+00  0.45593999997E+02  0.45594000000E+02  0.51100000000E-03 0. -1.
         11   -1    0    0    0    0 -0.00000000000E+00 -0.00000000000E+00 -0.45593999997E+02  0.45594000000E+02  0.51100000000E-03 0.  1.
    9900012    2    1    2    0    0  0.26705452503E+02  0.99694554513E+00 -0.34197193961E+02  0.47787272257E+02  0.20000005528E+02 0.  0.
         12    1    1    2    0    0 -0.26705452503E+02 -0.99694554513E+00  0.34197193961E+02  0.43400727743E+02  0.00000000000E+00 0. -1.
         11    1    3    3    0    0  0.22918102851E+01 -0.61122705661E+01 -0.13353079546E+02  0.14863276203E+02  0.51100000000E-03 0. -1.
        -11    1    3    3    0    0  0.43883644806E+01  0.67180242460E+00 -0.40140267154E+01  0.59851041800E+01  0.51100000000E-03 0.  1.
         12    1    3    3    0    0  0.20025277738E+02  0.64374136866E+01 -0.16830087700E+02  0.26938891874E+02  0.00000000000E+00 0. -1.
</event>
<event>
 7    1  0.4519840E-010  0.4778727E+02  0.7816164E-02  0.1312668E+00
        -11   -1    0    0    0    0  0.00000000000E+00  0.00000000000E+00  0.45593999997E+02  0.45594000000E+02  0.51100000000E-03 0. -1.
         11   -1    0    0    0    0 -0.00000000000E+00 -0.00000000000E+00 -0.45593999997E+02  0.45594000000E+02  0.51100000000E-03 0.  1.
    9900012    2    1    2    0    0 -0.31096241166E+02  0.23507836133E+02 -0.19079533427E+02  0.47787272240E+02  0.20000005453E+02 0.  0.
         12    1    1    2    0    0  0.31096241166E+02 -0.23507836133E+02  0.19079533427E+02  0.43400727760E+02  0.00000000000E+00 0. -1.
         11    1    3    3    0    0 -0.22869288249E+01  0.58171678007E+01 -0.15775602001E+01  0.64465635123E+01  0.51100000000E-03 0. -1.
        -11    1    3    3    0    0 -0.13416954673E+02  0.80393268219E+01 -0.17091463197E+02  0.23168158385E+02  0.51100000000E-03 0.  1.
         12    1    3    3    0    0 -0.15392357667E+02  0.96513415101E+01 -0.41051002982E+00  0.18172550344E+02  0.00000000000E+00 0. -1.
</event>
<event>
 7    1  0.4519840E-010  0.4778727E+02  0.7816164E-02  0.1312668E+00
        -11   -1    0    0    0    0  0.00000000000E+00  0.00000000000E+00  0.45593999997E+02  0.45594000000E+02  0.51100000000E-03 0. -1.
         11   -1    0    0    0    0 -0.00000000000E+00 -0.00000000000E+00 -0.45593999997E+02  0.45594000000E+02  0.51100000000E-03 0.  1.
    9900012    2    1    2    0    0  0.33011754849E+02  0.28137859005E+02 -0.14520081676E+01  0.47787269645E+02  0.19999993621E+02 0.  0.
         12    1    1    2    0    0 -0.33011754849E+02 -0.28137859005E+02  0.14520081676E+01  0.43400730355E+02  0.00000000000E+00 0. -1.
         11    1    3    3    0    0 -0.28797061596E+00  0.51465612371E+00 -0.93940873576E-01  0.59717932832E+00  0.51100000000E-03 0. -1.
        -11    1    3    3    0    0  0.27105621236E+02  0.22210149564E+02 -0.87631250223E+01  0.36121985087E+02  0.51100000000E-03 0.  1.
         12    1    3    3    0    0  0.61941042287E+01  0.54130533179E+01  0.74050577283E+01  0.11068105230E+02  0.00000000000E+00 0. -1.
</event>
<event>
 7    1  0.4519840E-010  0.4778727E+02  0.7816164E-02  0.1312668E+00
        -11   -1    0    0    0    0  0.00000000000E+00  0.00000000000E+00  0.45593999997E+02  0.45594000000E+02  0.51100000000E-03 0. -1.
         11   -1    0    0    0    0 -0.00000000000E+00 -0.00000000000E+00 -0.45593999997E+02  0.45594000000E+02  0.51100000000E-03 0.  1.
    9900012    2    1    2    0    0  0.15958060761E+02 -0.10178191457E+02  0.39055959598E+02  0.47787271150E+02  0.20000000482E+02 0.  0.
        -12    1    1    2    0    0 -0.15958060761E+02  0.10178191457E+02 -0.39055959598E+02  0.43400728850E+02  0.00000000000E+00 0.  1.
         11    1    3    3    0    0  0.99474089618E+01 -0.84704309887E+01  0.71631348722E+01  0.14899988176E+02  0.51100000000E-03 0. -1.
        -11    1    3    3    0    0  0.28976811994E+01 -0.31058177484E+01  0.12646986213E+02  0.13341248845E+02  0.51100000000E-03 0.  1.
         12    1    3    3    0    0  0.31129705996E+01  0.13980572801E+01  0.19245838513E+02  0.19546034129E+02  0.00000000000E+00 0. -1.
</event>
<event>
 7    1  0.4519840E-010  0.4778727E+02  0.7816164E-02  0.1312668E+00
        -11   -1    0    0    0    0  0.00000000000E+00  0.00000000000E+00  0.45593999997E+02  0.45594000000E+02  0.51100000000E-03 0. -1.
         11   -1    0    0    0    0 -0.00000000000E+00 -0.00000000000E+00 -0.45593999997E+02  0.45594000000E+02  0.51100000000E-03 0.  1.
    9900012    2    1    2    0    0 -0.13293021884E+02  0.20274888821E+01  0.41265093143E+02  0.47787273576E+02  0.20000011544E+02 0.  0.
        -12    1    1    2    0    0  0.13293021884E+02 -0.20274888821E+01 -0.41265093143E+02  0.43400726424E+02  0.00000000000E+00 0.  1.
         11    1    3    3    0    0 -0.72859324012E+01 -0.14518155347E+01  0.35758049315E+02  0.36521646600E+02  0.51100000000E-03 0. -1.
        -11    1    3    3    0    0  0.20127740359E+00  0.81649562499E+00  0.43270657202E+01  0.44080240139E+01  0.51100000000E-03 0.  1.
        -12    1    3    3    0    0 -0.62083668864E+01  0.26628087918E+01  0.11799781083E+01  0.68576029627E+01  0.00000000000E+00 0.  1.
</event>
<event>
 7    1  0.4519840E-010  0.4778726E+02  0.7816164E-02  0.1312668E+00
        -11   -1    0    0    0    0  0.00000000000E+00  0.00000000000E+00  0.45593999997E+02  0.45594000000E+02  0.51100000000E-03 0. -1.
         11   -1    0    0    0    0 -0.00000000000E+00 -0.00000000000E+00 -0.45593999997E+02  0.45594000000E+02  0.51100000000E-03 0.  1.
    9900012    2    1    2    0    0 -0.18455877565E+02 -0.17862127779E+02 -0.34984979326E+02  0.47787264938E+02  0.19999972158E+02 0.  0.
         12    1    1    2    0    0  0.18455877565E+02  0.17862127779E+02  0.34984979326E+02  0.43400735062E+02  0.00000000000E+00 0. -1.
         11    1    3    3    0    0  0.24763079803E+00 -0.25464289446E+01 -0.12156746229E+02  0.12423047151E+02  0.51100000000E-03 0. -1.
        -11    1    3    3    0    0 -0.12704684713E+02 -0.99948332665E+01 -0.22003835634E+02  0.27303378702E+02  0.51100000000E-03 0.  1.
         12    1    3    3    0    0 -0.59988236495E+01 -0.53208655678E+01 -0.82439746324E+00  0.80608390845E+01  0.00000000000E+00 0. -1.
</event>
<event>
 7    1  0.4519840E-010  0.4778727E+02  0.7816164E-02  0.1312668E+00
        -11   -1    0    0    0    0  0.00000000000E+00  0.00000000000E+00  0.45593999997E+02  0.45594000000E+02  0.51100000000E-03 0. -1.
         11   -1    0    0    0    0 -0.00000000000E+00 -0.00000000000E+00 -0.45593999997E+02  0.45594000000E+02  0.51100000000E-03 0.  1.
    9900012    2    1    2    0    0  0.23596211709E+02 -0.17239902705E+02 -0.32087814082E+02  0.47787271148E+02  0.20000000474E+02 0.  0.
         12    1    1    2    0    0 -0.23596211709E+02  0.17239902705E+02  0.32087814082E+02  0.43400728852E+02  0.00000000000E+00 0. -1.
         11    1    3    3    0    0  0.11372562645E+02 -0.80025811456E+01 -0.88179927576E+01  0.16466131380E+02  0.51100000000E-03 0. -1.
        -11    1    3    3    0    0 -0.26709163484E+00 -0.67673189409E+01 -0.30530430420E+01  0.74289309908E+01  0.51100000000E-03 0.  1.
         12    1    3    3    0    0  0.12490740699E+02 -0.24700026187E+01 -0.20216778282E+02  0.23892208777E+02  0.00000000000E+00 0. -1.
</event>
<event>
 7    1  0.4519840E-010  0.4778727E+02  0.7816164E-02  0.1312668E+00
        -11   -1    0    0    0    0  0.00000000000E+00  0.00000000000E+00  0.45593999997E+02  0.45594000000E+02  0.51100000000E-03 0.  1.
         11   -1    0    0    0    0 -0.00000000000E+00 -0.00000000000E+00 -0.45593999997E+02  0.45594000000E+02  0.51100000000E-03 0. -1.
    9900012    2    1    2    0    0  0.36628189535E+02 -0.18000218666E+02  0.14764522071E+02  0.47787271289E+02  0.20000001115E+02 0.  0.
        -12    1    1    2    0    0 -0.36628189535E+02  0.18000218666E+02 -0.14764522071E+02  0.43400728711E+02  0.00000000000E+00 0.  1.
         11    1    3    3    0    0  0.64089819928E+01 -0.15968043415E+01 -0.12413633963E+01  0.67205518844E+01  0.51100000000E-03 0. -1.
        -11    1    3    3    0    0  0.26917015265E+02 -0.71609057744E+01  0.10192846119E+02  0.29659709954E+02  0.51100000000E-03 0.  1.
         12    1    3    3    0    0  0.33021922776E+01 -0.92425085504E+01  0.58130393483E+01  0.11407009451E+02  0.00000000000E+00 0. -1.
</event>
<event>
 7    1  0.4519840E-010  0.4778727E+02  0.7816164E-02  0.1312668E+00
        -11   -1    0    0    0    0  0.00000000000E+00  0.00000000000E+00  0.45593999997E+02  0.45594000000E+02  0.51100000000E-03 0. -1.
         11   -1    0    0    0    0 -0.00000000000E+00 -0.00000000000E+00 -0.45593999997E+02  0.45594000000E+02  0.51100000000E-03 0.  1.
    9900012    2    1    2    0    0 -0.10063719696E+02  0.19830959015E+02  0.37270335701E+02  0.47787270596E+02  0.19999997953E+02 0.  0.
        -12    1    1    2    0    0  0.10063719696E+02 -0.19830959015E+02 -0.37270335701E+02  0.43400729404E+02  0.00000000000E+00 0.  1.
         11    1    3    3    0    0  0.59964544757E+00  0.45263113438E+01  0.11780701820E+02  0.12634555974E+02  0.51100000000E-03 0. -1.
        -11    1    3    3    0    0  0.22709142231E+01 -0.10986697762E+01  0.48215116156E+00  0.25683840619E+01  0.51100000000E-03 0.  1.
        -12    1    3    3    0    0 -0.12934279367E+02  0.16403317448E+02  0.25007482719E+02  0.32584330559E+02  0.00000000000E+00 0.  1.
</event>
<event>
 7    1  0.4519840E-010  0.4778727E+02  0.7816164E-02  0.1312668E+00
        -11   -1    0    0    0    0  0.00000000000E+00  0.00000000000E+00  0.45593999997E+02  0.45594000000E+02  0.51100000000E-03 0. -1.
         11   -1    0    0    0    0 -0.00000000000E+00 -0.00000000000E+00 -0.45593999997E+02  0.45594000000E+02  0.51100000000E-03 0.  1.
    9900012    2    1    2    0    0 -0.12708796291E+02  0.12509305939E+01  0.41479451360E+02  0.47787271715E+02  0.20000003057E+02 0.  0.
        -12    1    1    2    0    0  0.12708796291E+02 -0.12509305939E+01 -0.41479451360E+02  0.43400728285E+02  0.00000000000E+00 0.  1.
         11    1    3    3    0    0 -0.39394319940E+00 -0.30121751496E+01  0.26256776895E+01  0.40152925132E+01  0.51100000000E-03 0. -1.
        -11    1    3    3    0    0  0.81225492634E+00 -0.34122335664E+01  0.23348519747E+01  0.42136243285E+01  0.51100000000E-03 0.  1.
        -12    1    3    3    0    0 -0.13127108018E+02  0.76753393099E+01  0.36518921696E+02  0.39558354873E+02  0.00000000000E+00 0.  1.
</event>
<event>
 7    1  0.4519840E-010  0.4778728E+02  0.7816164E-02  0.1312668E+00
        -11   -1    0    0    0    0  0.00000000000E+00  0.00000000000E+00  0.45593999997E+02  0.45594000000E+02  0.51100000000E-03 0. -1.
         11   -1    0    0    0    0 -0.00000000000E+00 -0.00000000000E+00 -0.45593999997E+02  0.45594000000E+02  0.51100000000E-03 0.  1.
    9900012    2    1    2    0    0  0.90279135589E+01  0.12651195677E+02 -0.40522424555E+02  0.47787275731E+02  0.20000021367E+02 0.  0.
         12    1    1    2    0    0 -0.90279135589E+01 -0.12651195677E+02  0.40522424555E+02  0.43400724269E+02  0.00000000000E+00 0. -1.
         11    1    3    3    0    0  0.35074388296E+01  0.85390531516E+01 -0.17274673202E+02  0.19586523183E+02  0.51100000000E-03 0. -1.
        -11    1    3    3    0    0  0.68832088622E+01  0.48926176231E+01 -0.24674114631E+02  0.26079267715E+02  0.51100000000E-03 0.  1.
         12    1    3    3    0    0 -0.13627341328E+01 -0.78047509754E+00  0.14263632789E+01  0.21214848333E+01  0.00000000000E+00 0. -1.
</event>
<event>
 7    1  0.4519840E-010  0.4778727E+02  0.7816164E-02  0.1312668E+00
        -11   -1    0    0    0    0  0.00000000000E+00  0.00000000000E+00  0.45593999997E+02  0.45594000000E+02  0.51100000000E-03 0. -1.
         11   -1    0    0    0    0 -0.00000000000E+00 -0.00000000000E+00 -0.45593999997E+02  0.45594000000E+02  0.51100000000E-03 0.  1.
    9900012    2    1    2    0    0  0.16262418228E+00  0.11925310105E+02 -0.41729890846E+02  0.47787271230E+02  0.20000000846E+02 0.  0.
         12    1    1    2    0    0 -0.16262418228E+00 -0.11925310105E+02  0.41729890846E+02  0.43400728770E+02  0.00000000000E+00 0. -1.
         11    1    3    3    0    0  0.10141849203E+01  0.12052001318E+01 -0.16624569509E+01  0.22901619560E+01  0.51100000000E-03 0.  1.
        -11    1    3    3    0    0  0.40658483627E+00  0.12743205899E+02 -0.12595573266E+02  0.17922139213E+02  0.51100000000E-03 0. -1.
        -12    1    3    3    0    0 -0.12581455743E+01 -0.20230959256E+01 -0.27471860629E+02  0.27574970061E+02  0.00000000000E+00 0.  1.
</event>
<event>
 7    1  0.4519840E-010  0.4778728E+02  0.7816164E-02  0.1312668E+00
        -11   -1    0    0    0    0  0.00000000000E+00  0.00000000000E+00  0.45593999997E+02  0.45594000000E+02  0.51100000000E-03 0. -1.
         11   -1    0    0    0    0 -0.00000000000E+00 -0.00000000000E+00 -0.45593999997E+02  0.45594000000E+02  0.51100000000E-03 0.  1.
    9900012    2    1    2    0    0 -0.12309494309E+02  0.21852369807E+01  0.41561086721E+02  0.47787276040E+02  0.20000022777E+02 0.  0.
        -12    1    1    2    0    0  0.12309494309E+02 -0.21852369807E+01 -0.41561086721E+02  0.43400723960E+02  0.00000000000E+00 0.  1.
         11    1    3    3    0    0 -0.67690319575E+01 -0.15126488550E+00  0.66435596079E+01  0.94857555963E+01  0.51100000000E-03 0. -1.
        -11    1    3    3    0    0 -0.50326792861E+01  0.24959072305E+00  0.21743609493E+01  0.54879870740E+01  0.51100000000E-03 0.  1.
        -12    1    3    3    0    0 -0.50778306499E+00  0.20869111432E+01  0.32743166164E+02  0.32813533370E+02  0.00000000000E+00 0.  1.
</event>
<event>
 7    1  0.4519840E-010  0.4778728E+02  0.7816164E-02  0.1312668E+00
        -11   -1    0    0    0    0  0.00000000000E+00  0.00000000000E+00  0.45593999997E+02  0.45594000000E+02  0.51100000000E-03 0.  1.
         11   -1    0    0    0    0 -0.00000000000E+00 -0.00000000000E+00 -0.45593999997E+02  0.45594000000E+02  0.51100000000E-03 0. -1.
    9900012    2    1    2    0    0  0.41594586022E+02  0.10677533825E+02  0.62851775972E+01  0.47787276822E+02  0.20000026344E+02 0.  0.
         12    1    1    2    0    0 -0.41594586022E+02 -0.10677533825E+02 -0.62851775972E+01  0.43400723178E+02  0.00000000000E+00 0. -1.
         11    1    3    3    0    0  0.85794642625E+01 -0.15815656039E+00  0.70306687453E+01  0.11093354939E+02  0.51100000000E-03 0. -1.
        -11    1    3    3    0    0  0.19893002271E+02  0.24148392439E+01  0.39206701009E+01  0.20418977502E+02  0.51100000000E-03 0.  1.
        -12    1    3    3    0    0  0.13122119488E+02  0.84208511418E+01 -0.46661612490E+01  0.16274944381E+02  0.00000000000E+00 0.  1.
</event>
<event>
 7    1  0.4519840E-010  0.4778727E+02  0.7816164E-02  0.1312668E+00
        -11   -1    0    0    0    0  0.00000000000E+00  0.00000000000E+00  0.45593999997E+02  0.45594000000E+02  0.51100000000E-03 0. -1.
         11   -1    0    0    0    0 -0.00000000000E+00 -0.00000000000E+00 -0.45593999997E+02  0.45594000000E+02  0.51100000000E-03 0.  1.
    9900012    2    1    2    0    0 -0.21140190294E+02  0.16829676667E+02  0.33962881830E+02  0.47787274147E+02  0.20000014146E+02 0.  0.
        -12    1    1    2    0    0  0.21140190294E+02 -0.16829676667E+02 -0.33962881830E+02  0.43400725853E+02  0.00000000000E+00 0.  1.
         11    1    3    3    0    0 -0.24937046458E+01  0.67020489398E+01  0.20360371985E+02  0.21579637867E+02  0.51100000000E-03 0. -1.
        -11    1    3    3    0    0 -0.38650287594E+01 -0.84354134520E+00  0.29963097643E+01  0.49626486655E+01  0.51100000000E-03 0.  1.
         12    1    3    3    0    0 -0.14781456889E+02  0.10971169073E+02  0.10606200080E+02  0.21244987614E+02  0.00000000000E+00 0. -1.
</event>
<event>
 7    1  0.4519840E-010  0.4778728E+02  0.7816164E-02  0.1312668E+00
        -11   -1    0    0    0    0  0.00000000000E+00  0.00000000000E+00  0.45593999997E+02  0.45594000000E+02  0.51100000000E-03 0. -1.
         11   -1    0    0    0    0 -0.00000000000E+00 -0.00000000000E+00 -0.45593999997E+02  0.45594000000E+02  0.51100000000E-03 0.  1.
    9900012    2    1    2    0    0 -0.75226005020E+01  0.18580044365E+02  0.38494351175E+02  0.47787278355E+02  0.20000033330E+02 0.  0.
        -12    1    1    2    0    0  0.75226005020E+01 -0.18580044365E+02 -0.38494351175E+02  0.43400721645E+02  0.00000000000E+00 0.  1.
         11    1    3    3    0    0  0.26524534806E+00 -0.25109225801E+01  0.42830092958E+01  0.49718463559E+01  0.51100000000E-03 0.  1.
        -11    1    3    3    0    0 -0.11293502065E+00  0.97020393817E+01  0.59180205759E+01  0.11365090861E+02  0.51100000000E-03 0. -1.
        -12    1    3    3    0    0 -0.76749108294E+01  0.11388927563E+02  0.28293321304E+02  0.31450341138E+02  0.00000000000E+00 0.  1.
</event>
<event>
 7    1  0.4519840E-010  0.4778727E+02  0.7816164E-02  0.1312668E+00
        -11   -1    0    0    0    0  0.00000000000E+00  0.00000000000E+00  0.45593999997E+02  0.45594000000E+02  0.51100000000E-03 0. -1.
         11   -1    0    0    0    0 -0.00000000000E+00 -0.00000000000E+00 -0.45593999997E+02  0.45594000000E+02  0.51100000000E-03 0.  1.
    9900012    2    1    2    0    0  0.35589399617E+01 -0.12530931740E+02  0.41399676449E+02  0.47787268278E+02  0.19999987387E+02 0.  0.
        -12    1    1    2    0    0 -0.35589399617E+01  0.12530931740E+02 -0.41399676449E+02  0.43400731722E+02  0.00000000000E+00 0.  1.
         11    1    3    3    0    0  0.12091713303E+01  0.15507369934E+01  0.81636592358E+01  0.83971550485E+01  0.51100000000E-03 0. -1.
        -11    1    3    3    0    0  0.56040228153E+01 -0.53439316473E+01  0.40251651739E+01  0.87272350778E+01  0.51100000000E-03 0.  1.
        -12    1    3    3    0    0 -0.32542541839E+01 -0.87377370865E+01  0.29210852039E+02  0.30662878152E+02  0.00000000000E+00 0.  1.
</event>
<event>
 7    1  0.4519840E-010  0.4778727E+02  0.7816164E-02  0.1312668E+00
        -11   -1    0    0    0    0  0.00000000000E+00  0.00000000000E+00  0.45593999997E+02  0.45594000000E+02  0.51100000000E-03 0. -1.
         11   -1    0    0    0    0 -0.00000000000E+00 -0.00000000000E+00 -0.45593999997E+02  0.45594000000E+02  0.51100000000E-03 0.  1.
    9900012    2    1    2    0    0 -0.11160873420E+02  0.37036974945E+02  0.19680464836E+02  0.47787270689E+02  0.19999998381E+02 0.  0.
        -12    1    1    2    0    0  0.11160873420E+02 -0.37036974945E+02 -0.19680464836E+02  0.43400729311E+02  0.00000000000E+00 0.  1.
         11    1    3    3    0    0 -0.88614161420E+01  0.17988099426E+02  0.91767946742E+01  0.22052437003E+02  0.51100000000E-03 0. -1.
        -11    1    3    3    0    0 -0.61136510570E+01  0.17278942340E+02  0.53703512781E+01  0.19099195029E+02  0.51100000000E-03 0.  1.
         12    1    3    3    0    0  0.38141937786E+01  0.17699331783E+01  0.51333188834E+01  0.66356386577E+01  0.00000000000E+00 0. -1.
</event>
<event>
 7    1  0.4519840E-010  0.4778728E+02  0.7816164E-02  0.1312668E+00
        -11   -1    0    0    0    0  0.00000000000E+00  0.00000000000E+00  0.45593999997E+02  0.45594000000E+02  0.51100000000E-03 0. -1.
         11   -1    0    0    0    0 -0.00000000000E+00 -0.00000000000E+00 -0.45593999997E+02  0.45594000000E+02  0.51100000000E-03 0.  1.
    9900012    2    1    2    0    0 -0.23136447684E+02  0.13585647579E+02  0.34113890093E+02  0.47787279628E+02  0.20000039135E+02 0.  0.
        -12    1    1    2    0    0  0.23136447684E+02 -0.13585647579E+02 -0.34113890093E+02  0.43400720372E+02  0.00000000000E+00 0.  1.
         11    1    3    3    0    0 -0.14112183091E+02  0.11857921547E+02  0.22368529569E+02  0.28984739611E+02  0.51100000000E-03 0. -1.
        -11    1    3    3    0    0 -0.11025324718E+02 -0.42338163334E+00  0.11365418717E+02  0.15840131944E+02  0.51100000000E-03 0.  1.
         12    1    3    3    0    0  0.20010601246E+01  0.21511076650E+01  0.37994180687E+00  0.29624080721E+01  0.00000000000E+00 0. -1.
</event>
<event>
 7    1  0.4519840E-010  0.4778727E+02  0.7816164E-02  0.1312668E+00
        -11   -1    0    0    0    0  0.00000000000E+00  0.00000000000E+00  0.45593999997E+02  0.45594000000E+02  0.51100000000E-03 0. -1.
         11   -1    0    0    0    0 -0.00000000000E+00 -0.00000000000E+00 -0.45593999997E+02  0.45594000000E+02  0.51100000000E-03 0.  1.
    9900012    2    1    2    0    0 -0.32643416682E+02  0.19122672796E+02 -0.21268614454E+02  0.47787271570E+02  0.20000002394E+02 0.  0.
         12    1    1    2    0    0  0.32643416682E+02 -0.19122672796E+02  0.21268614454E+02  0.43400728430E+02  0.00000000000E+00 0. -1.
         11    1    3    3    0    0 -0.54531067516E+01  0.21526182461E+01 -0.84420230200E+01  0.10278029553E+02  0.51100000000E-03 0. -1.
        -11    1    3    3    0    0 -0.13984894148E+02  0.16252544915E+01 -0.95219326368E+01  0.16996644312E+02  0.51100000000E-03 0.  1.
         12    1    3    3    0    0 -0.13205415782E+02  0.15344800058E+02 -0.33046587971E+01  0.20512597704E+02  0.00000000000E+00 0. -1.
</event>
<event>
 7    1  0.4519840E-010  0.4778727E+02  0.7816164E-02  0.1312668E+00
        -11   -1    0    0    0    0  0.00000000000E+00  0.00000000000E+00  0.45593999997E+02  0.45594000000E+02  0.51100000000E-03 0. -1.
         11   -1    0    0    0    0 -0.00000000000E+00 -0.00000000000E+00 -0.45593999997E+02  0.45594000000E+02  0.51100000000E-03 0.  1.
    9900012    2    1    2    0    0  0.31926459251E+02  0.35159560566E+01  0.29188399063E+02  0.47787269739E+02  0.19999994047E+02 0.  0.
        -12    1    1    2    0    0 -0.31926459251E+02 -0.35159560566E+01 -0.29188399063E+02  0.43400730261E+02  0.00000000000E+00 0.  1.
         11    1    3    3    0    0  0.96178418311E+01 -0.29080098205E+01  0.19574009213E+02  0.22002300778E+02  0.51100000000E-03 0. -1.
        -11    1    3    3    0    0  0.69642278056E+01 -0.53596405638E+00  0.38595704456E+01  0.79802262301E+01  0.51100000000E-03 0.  1.
        -12    1    3    3    0    0  0.15344389615E+02  0.69599299336E+01  0.57548194053E+01  0.17804742731E+02  0.00000000000E+00 0.  1.
</event>
<event>
 7    1  0.4519840E-010  0.4778727E+02  0.7816164E-02  0.1312668E+00
        -11   -1    0    0    0    0  0.00000000000E+00  0.00000000000E+00  0.45593999997E+02  0.45594000000E+02  0.51100000000E-03 0. -1.
         11   -1    0    0    0    0 -0.00000000000E+00 -0.00000000000E+00 -0.45593999997E+02  0.45594000000E+02  0.51100000000E-03 0.  1.
    9900012    2    1    2    0    0 -0.10645471331E+02  0.19761762398E+02  0.37145253136E+02  0.47787272547E+02  0.20000006850E+02 0.  0.
        -12    1    1    2    0    0  0.10645471331E+02 -0.19761762398E+02 -0.37145253136E+02  0.43400727453E+02  0.00000000000E+00 0.  1.
         11    1    3    3    0    0 -0.53382898925E+01  0.11814976160E+02  0.18221536167E+02  0.22363259628E+02  0.51100000000E-03 0. -1.
        -11    1    3    3    0    0 -0.17070514462E+00  0.66478301070E+01  0.18994926665E+02  0.20125357752E+02  0.51100000000E-03 0.  1.
        -12    1    3    3    0    0 -0.51364762943E+01  0.12989561312E+01 -0.71209696514E-01  0.52986551666E+01  0.00000000000E+00 0.  1.
</event>
<event>
 7    1  0.4519840E-010  0.4778728E+02  0.7816164E-02  0.1312668E+00
        -11   -1    0    0    0    0  0.00000000000E+00  0.00000000000E+00  0.45593999997E+02  0.45594000000E+02  0.51100000000E-03 0. -1.
         11   -1    0    0    0    0 -0.00000000000E+00 -0.00000000000E+00 -0.45593999997E+02  0.45594000000E+02  0.51100000000E-03 0.  1.
    9900012    2    1    2    0    0  0.72786928659E+01 -0.40965290792E+01  0.42589456931E+02  0.47787276942E+02  0.20000026888E+02 0.  0.
        -12    1    1    2    0    0 -0.72786928659E+01  0.40965290792E+01 -0.42589456931E+02  0.43400723058E+02  0.00000000000E+00 0.  1.
         11    1    3    3    0    0  0.28341324515E+01 -0.15358785891E+01  0.10290949419E+02  0.10784009922E+02  0.51100000000E-03 0. -1.
        -11    1    3    3    0    0  0.79618347612E+01  0.42321000374E+01  0.10178173957E+02  0.13597672920E+02  0.51100000000E-03 0.  1.
         12    1    3    3    0    0 -0.35172743467E+01 -0.67927505274E+01  0.22120333555E+02  0.23405594100E+02  0.00000000000E+00 0. -1.
</event>
<event>
 7    1  0.4519840E-010  0.4778727E+02  0.7816164E-02  0.1312668E+00
        -11   -1    0    0    0    0  0.00000000000E+00  0.00000000000E+00  0.45593999997E+02  0.45594000000E+02  0.51100000000E-03 0. -1.
         11   -1    0    0    0    0 -0.00000000000E+00 -0.00000000000E+00 -0.45593999997E+02  0.45594000000E+02  0.51100000000E-03 0.  1.
    9900012    2    1    2    0    0  0.29383821159E+02 -0.16860408536E+02  0.27128231205E+02  0.47787271317E+02  0.20000001242E+02 0.  0.
        -12    1    1    2    0    0 -0.29383821159E+02  0.16860408536E+02 -0.27128231205E+02  0.43400728683E+02  0.00000000000E+00 0.  1.
         11    1    3    3    0    0  0.24402554801E+01 -0.73000474595E+01  0.78663596547E+01  0.11005687357E+02  0.51100000000E-03 0.  1.
        -11    1    3    3    0    0  0.13589770218E+02 -0.74030749480E+01  0.17134333250E+02  0.23088368272E+02  0.51100000000E-03 0. -1.
        -12    1    3    3    0    0  0.13353795461E+02 -0.21572861290E+01  0.21275382995E+01  0.13693215688E+02  0.00000000000E+00 0.  1.
</event>
<event>
 7    1  0.4519840E-010  0.4778727E+02  0.7816164E-02  0.1312668E+00
        -11   -1    0    0    0    0  0.00000000000E+00  0.00000000000E+00  0.45593999997E+02  0.45594000000E+02  0.51100000000E-03 0. -1.
         11   -1    0    0    0    0 -0.00000000000E+00 -0.00000000000E+00 -0.45593999997E+02  0.45594000000E+02  0.51100000000E-03 0.  1.
    9900012    2    1    2    0    0  0.85491389713E+01 -0.27861761263E+02  0.32159875740E+02  0.47787272754E+02  0.20000007796E+02 0.  0.
        -12    1    1    2    0    0 -0.85491389713E+01  0.27861761263E+02 -0.32159875740E+02  0.43400727246E+02  0.00000000000E+00 0.  1.
         11    1    3    3    0    0  0.18809470993E+01 -0.19929378156E+02  0.15124196904E+02  0.25089029633E+02  0.51100000000E-03 0. -1.
        -11    1    3    3    0    0  0.33101998897E+01 -0.39562048769E+01  0.29454117793E+00  0.51667915678E+01  0.51100000000E-03 0.  1.
        -12    1    3    3    0    0  0.33579919823E+01 -0.39761782298E+01  0.16741137658E+02  0.17531451553E+02  0.00000000000E+00 0.  1.
</event>
<event>
 7    1  0.4519840E-010  0.4778727E+02  0.7816164E-02  0.1312668E+00
        -11   -1    0    0    0    0  0.00000000000E+00  0.00000000000E+00  0.45593999997E+02  0.45594000000E+02  0.51100000000E-03 0.  1.
         11   -1    0    0    0    0 -0.00000000000E+00 -0.00000000000E+00 -0.45593999997E+02  0.45594000000E+02  0.51100000000E-03 0. -1.
    9900012    2    1    2    0    0 -0.22009716853E+02  0.44811826530E+01  0.37136432603E+02  0.47787271200E+02  0.20000000709E+02 0.  0.
        -12    1    1    2    0    0  0.22009716853E+02 -0.44811826530E+01 -0.37136432603E+02  0.43400728800E+02  0.00000000000E+00 0.  1.
         11    1    3    3    0    0 -0.17869079774E+02  0.31239272342E+01  0.36144766627E+02  0.40441403143E+02  0.51100000000E-03 0. -1.
        -11    1    3    3    0    0 -0.17205102280E+01 -0.16445644569E+01  0.22645949165E+01  0.32852911735E+01  0.51100000000E-03 0.  1.
        -12    1    3    3    0    0 -0.24201268507E+01  0.30018198757E+01 -0.12729289412E+01  0.40605768838E+01  0.00000000000E+00 0.  1.
</event>
<event>
 7    1  0.4519840E-010  0.4778727E+02  0.7816164E-02  0.1312668E+00
        -11   -1    0    0    0    0  0.00000000000E+00  0.00000000000E+00  0.45593999997E+02  0.45594000000E+02  0.51100000000E-03 0. -1.
         11   -1    0    0    0    0 -0.00000000000E+00 -0.00000000000E+00 -0.45593999997E+02  0.45594000000E+02  0.51100000000E-03 0.  1.
    9900012    2    1    2    0    0 -0.55561174362E+01 -0.25053841659E+02  0.35000828085E+02  0.47787269713E+02  0.19999993927E+02 0.  0.
        -12    1    1    2    0    0  0.55561174362E+01  0.25053841659E+02 -0.35000828085E+02  0.43400730287E+02  0.00000000000E+00 0.  1.
         11    1    3    3    0    0 -0.20911374864E+01 -0.31321793934E+01  0.33374480094E+01  0.50320933235E+01  0.51100000000E-03 0. -1.
        -11    1    3    3    0    0 -0.24025309115E+01 -0.23689270411E+02  0.32697184359E+02  0.40448232998E+02  0.51100000000E-03 0.  1.
        -12    1    3    3    0    0 -0.10624490383E+01  0.17676081459E+01 -0.10338042826E+01  0.23069433914E+01  0.00000000000E+00 0.  1.
</event>
<event>
 7    1  0.4519840E-010  0.4778727E+02  0.7816164E-02  0.1312668E+00
        -11   -1    0    0    0    0  0.00000000000E+00  0.00000000000E+00  0.45593999997E+02  0.45594000000E+02  0.51100000000E-03 0. -1.
         11   -1    0    0    0    0 -0.00000000000E+00 -0.00000000000E+00 -0.45593999997E+02  0.45594000000E+02  0.51100000000E-03 0.  1.
    9900012    2    1    2    0    0 -0.20109821025E+02  0.11280288967E+02  0.36769192992E+02  0.47787269889E+02  0.19999994733E+02 0.  0.
        -12    1    1    2    0    0  0.20109821025E+02 -0.11280288967E+02 -0.36769192992E+02  0.43400730111E+02  0.00000000000E+00 0.  1.
         11    1    3    3    0    0 -0.13274924631E+02  0.42157487907E+01  0.19247632749E+02  0.23758525386E+02  0.51100000000E-03 0. -1.
        -11    1    3    3    0    0  0.99695948807E+00  0.47928793436E+01  0.14546785877E+02  0.15348439668E+02  0.51100000000E-03 0.  1.
         12    1    3    3    0    0 -0.78318558823E+01  0.22716608323E+01  0.29747743661E+01  0.86803048349E+01  0.00000000000E+00 0. -1.
</event>
<event>
 7    1  0.4519840E-010  0.4778727E+02  0.7816164E-02  0.1312668E+00
        -11   -1    0    0    0    0  0.00000000000E+00  0.00000000000E+00  0.45593999997E+02  0.45594000000E+02  0.51100000000E-03 0. -1.
         11   -1    0    0    0    0 -0.00000000000E+00 -0.00000000000E+00 -0.45593999997E+02  0.45594000000E+02  0.51100000000E-03 0.  1.
    9900012    2    1    2    0    0 -0.20402190375E+02 -0.37046502269E+02  0.97432403024E+01  0.47787269199E+02  0.19999991585E+02 0.  0.
        -12    1    1    2    0    0  0.20402190375E+02  0.37046502269E+02 -0.97432403024E+01  0.43400730801E+02  0.00000000000E+00 0.  1.
         11    1    3    3    0    0 -0.33750585457E+00 -0.99156970650E+01  0.79799200619E+01  0.12732402874E+02  0.51100000000E-03 0. -1.
        -11    1    3    3    0    0 -0.92526159088E+01 -0.10652717116E+02  0.52216495741E+01  0.15045162267E+02  0.51100000000E-03 0.  1.
         12    1    3    3    0    0 -0.10812068611E+02 -0.16478088088E+02 -0.34583293336E+01  0.20009704058E+02  0.00000000000E+00 0. -1.
</event>
<event>
 7    1  0.4519840E-010  0.4778728E+02  0.7816164E-02  0.1312668E+00
        -11   -1    0    0    0    0  0.00000000000E+00  0.00000000000E+00  0.45593999997E+02  0.45594000000E+02  0.51100000000E-03 0. -1.
         11   -1    0    0    0    0 -0.00000000000E+00 -0.00000000000E+00 -0.45593999997E+02  0.45594000000E+02  0.51100000000E-03 0.  1.
    9900012    2    1    2    0    0  0.29661849556E+02  0.15004829662E+02 -0.27904339961E+02  0.47787280872E+02  0.20000044806E+02 0.  0.
         12    1    1    2    0    0 -0.29661849556E+02 -0.15004829662E+02  0.27904339961E+02  0.43400719128E+02  0.00000000000E+00 0. -1.
         11    1    3    3    0    0  0.73050839404E+01  0.60372656846E+01 -0.43995128471E+01  0.10448375083E+02  0.51100000000E-03 0. -1.
        -11    1    3    3    0    0  0.23649724696E+02  0.10528540460E+02 -0.18157948060E+02  0.31620732446E+02  0.51100000000E-03 0.  1.
         12    1    3    3    0    0 -0.12929590804E+01 -0.15609764830E+01 -0.53468790537E+01  0.57181733429E+01  0.00000000000E+00 0. -1.
</event>
<event>
 7    1  0.4519840E-010  0.4778726E+02  0.7816164E-02  0.1312668E+00
        -11   -1    0    0    0    0  0.00000000000E+00  0.00000000000E+00  0.45593999997E+02  0.45594000000E+02  0.51100000000E-03 0. -1.
         11   -1    0    0    0    0 -0.00000000000E+00 -0.00000000000E+00 -0.45593999997E+02  0.45594000000E+02  0.51100000000E-03 0.  1.
    9900012    2    1    2    0    0 -0.98636751485E+00  0.98347955268E+01 -0.42260246673E+02  0.47787256080E+02  0.19999931772E+02 0.  0.
         12    1    1    2    0    0  0.98636751485E+00 -0.98347955268E+01  0.42260246673E+02  0.43400743920E+02  0.00000000000E+00 0. -1.
         11    1    3    3    0    0 -0.46799769376E+01  0.27126365793E+01 -0.13016015211E+02  0.14095291185E+02  0.51100000000E-03 0. -1.
        -11    1    3    3    0    0 -0.38867509797E+00  0.50741167562E+01 -0.11348812882E+01  0.52139893543E+01  0.51100000000E-03 0.  1.
        -12    1    3    3    0    0  0.40822845207E+01  0.20480421913E+01 -0.28109350174E+02  0.28477975541E+02  0.00000000000E+00 0.  1.
</event>
<event>
 7    1  0.4519840E-010  0.4778727E+02  0.7816164E-02  0.1312668E+00
        -11   -1    0    0    0    0  0.00000000000E+00  0.00000000000E+00  0.45593999997E+02  0.45594000000E+02  0.51100000000E-03 0. -1.
         11   -1    0    0    0    0 -0.00000000000E+00 -0.00000000000E+00 -0.45593999997E+02  0.45594000000E+02  0.51100000000E-03 0.  1.
    9900012    2    1    2    0    0 -0.30090049709E+02  0.19621397245E+02 -0.24355960572E+02  0.47787272624E+02  0.20000007204E+02 0.  0.
         12    1    1    2    0    0  0.30090049709E+02 -0.19621397245E+02  0.24355960572E+02  0.43400727376E+02  0.00000000000E+00 0. -1.
         11    1    3    3    0    0 -0.56508569391E+01  0.28889032344E+01 -0.66751946281E+01  0.92106552225E+01  0.51100000000E-03 0.  1.
        -11    1    3    3    0    0 -0.91549263230E+01  0.16609922919E+02 -0.89141202695E+01  0.20956234294E+02  0.51100000000E-03 0. -1.
         12    1    3    3    0    0 -0.15284266447E+02  0.12257109214E+00 -0.87666456744E+01  0.17620383108E+02  0.00000000000E+00 0. -1.
</event>
<event>
 7    1  0.4519840E-010  0.4778727E+02  0.7816164E-02  0.1312668E+00
        -11   -1    0    0    0    0  0.00000000000E+00  0.00000000000E+00  0.45593999997E+02  0.45594000000E+02  0.51100000000E-03 0. -1.
         11   -1    0    0    0    0 -0.00000000000E+00 -0.00000000000E+00 -0.45593999997E+02  0.45594000000E+02  0.51100000000E-03 0.  1.
    9900012    2    1    2    0    0  0.15837100186E+01  0.24117038608E+00  0.43371151424E+02  0.47787273319E+02  0.20000010370E+02 0.  0.
        -12    1    1    2    0    0 -0.15837100186E+01 -0.24117038608E+00 -0.43371151424E+02  0.43400726681E+02  0.00000000000E+00 0.  1.
         11    1    3    3    0    0  0.32907616666E+01 -0.14245306380E+01  0.19067566702E+02  0.19401816927E+02  0.51100000000E-03 0. -1.
        -11    1    3    3    0    0  0.39716389650E+01 -0.40480057238E+01  0.53729273209E+01  0.78120813274E+01  0.51100000000E-03 0.  1.
         12    1    3    3    0    0 -0.56786906130E+01  0.57137067480E+01  0.18930657402E+02  0.20573375064E+02  0.00000000000E+00 0. -1.
</event>
<event>
 7    1  0.4519840E-010  0.4778727E+02  0.7816164E-02  0.1312668E+00
        -11   -1    0    0    0    0  0.00000000000E+00  0.00000000000E+00  0.45593999997E+02  0.45594000000E+02  0.51100000000E-03 0. -1.
         11   -1    0    0    0    0 -0.00000000000E+00 -0.00000000000E+00 -0.45593999997E+02  0.45594000000E+02  0.51100000000E-03 0.  1.
    9900012    2    1    2    0    0 -0.36218655831E+02 -0.19060293599E+02 -0.14440824949E+02  0.47787271348E+02  0.20000001385E+02 0.  0.
         12    1    1    2    0    0  0.36218655831E+02  0.19060293599E+02  0.14440824949E+02  0.43400728652E+02  0.00000000000E+00 0. -1.
         11    1    3    3    0    0 -0.13441292621E+02 -0.36904443960E+01 -0.13731227035E+02  0.19566152491E+02  0.51100000000E-03 0. -1.
        -11    1    3    3    0    0 -0.34701296744E+01 -0.54572146269E+01 -0.81055723580E+00  0.65176678908E+01  0.51100000000E-03 0.  1.
        -12    1    3    3    0    0 -0.19307233536E+02 -0.99126345759E+01  0.10095932237E+00  0.21703450966E+02  0.00000000000E+00 0.  1.
</event>
<event>
 7    1  0.4519840E-010  0.4778726E+02  0.7816164E-02  0.1312668E+00
        -11   -1    0    0    0    0  0.00000000000E+00  0.00000000000E+00  0.45593999997E+02  0.45594000000E+02  0.51100000000E-03 0. -1.
         11   -1    0    0    0    0 -0.00000000000E+00 -0.00000000000E+00 -0.45593999997E+02  0.45594000000E+02  0.51100000000E-03 0.  1.
    9900012    2    1    2    0    0  0.36302825230E+02 -0.44361630402E+01  0.23367698750E+02  0.47787262598E+02  0.19999961489E+02 0.  0.
        -12    1    1    2    0    0 -0.36302825230E+02  0.44361630402E+01 -0.23367698750E+02  0.43400737402E+02  0.00000000000E+00 0.  1.
         11    1    3    3    0    0  0.27476670366E+02 -0.47946781978E+01  0.14482082926E+02  0.31427489234E+02  0.51100000000E-03 0. -1.
        -11    1    3    3    0    0  0.86205927904E+01 -0.31599875456E+01  0.89676926215E+01  0.12834315430E+02  0.51100000000E-03 0.  1.
        -12    1    3    3    0    0  0.20556207353E+00  0.35185027033E+01 -0.82076798347E-01  0.35254579333E+01  0.00000000000E+00 0.  1.
</event>
<event>
 7    1  0.4519840E-010  0.4778727E+02  0.7816164E-02  0.1312668E+00
        -11   -1    0    0    0    0  0.00000000000E+00  0.00000000000E+00  0.45593999997E+02  0.45594000000E+02  0.51100000000E-03 0. -1.
         11   -1    0    0    0    0 -0.00000000000E+00 -0.00000000000E+00 -0.45593999997E+02  0.45594000000E+02  0.51100000000E-03 0.  1.
    9900012    2    1    2    0    0  0.14754465965E+02  0.74698466162E+01  0.40126432218E+02  0.47787269166E+02  0.19999991434E+02 0.  0.
        -12    1    1    2    0    0 -0.14754465965E+02 -0.74698466162E+01 -0.40126432218E+02  0.43400730834E+02  0.00000000000E+00 0.  1.
         11    1    3    3    0    0  0.81865436031E+01 -0.15641200660E+01  0.22652533259E+02  0.24137175292E+02  0.51100000000E-03 0.  1.
        -11    1    3    3    0    0  0.29982562725E+01  0.58266401335E+01  0.17671308880E+02  0.18847133302E+02  0.51100000000E-03 0. -1.
        -12    1    3    3    0    0  0.35696660896E+01  0.32073265486E+01 -0.19740992054E+00  0.48029605721E+01  0.00000000000E+00 0.  1.
</event>
<event>
 7    1  0.4519840E-010  0.4778727E+02  0.7816164E-02  0.1312668E+00
        -11   -1    0    0    0    0  0.00000000000E+00  0.00000000000E+00  0.45593999997E+02  0.45594000000E+02  0.51100000000E-03 0. -1.
         11   -1    0    0    0    0 -0.00000000000E+00 -0.00000000000E+00 -0.45593999997E+02  0.45594000000E+02  0.51100000000E-03 0.  1.
    9900012    2    1    2    0    0  0.30303428985E+02 -0.36075413420E+01 -0.30859539265E+02  0.47787270439E+02  0.19999997238E+02 0.  0.
         12    1    1    2    0    0 -0.30303428985E+02  0.36075413420E+01  0.30859539265E+02  0.43400729561E+02  0.00000000000E+00 0. -1.
         11    1    3    3    0    0  0.61827702813E+01 -0.61209015669E+00 -0.24919262047E+01  0.66941018204E+01  0.51100000000E-03 0. -1.
        -11    1    3    3    0    0  0.53969134057E+01 -0.34389057502E+01 -0.19204758358E+02  0.20242912115E+02  0.51100000000E-03 0.  1.
        -12    1    3    3    0    0  0.18723745298E+02  0.44345456494E+00 -0.91628547030E+01  0.20850256503E+02  0.00000000000E+00 0.  1.
</event>
<event>
 7    1  0.5649325E-010  0.4778728E+02  0.7816164E-02  0.1312668E+00
        -11   -1    0    0    0    0  0.00000000000E+00  0.00000000000E+00  0.45593999997E+02  0.45594000000E+02  0.51100000000E-03 0. -1.
         11   -1    0    0    0    0 -0.00000000000E+00 -0.00000000000E+00 -0.45593999997E+02  0.45594000000E+02  0.51100000000E-03 0.  1.
    9900012    2    1    2    0    0 -0.36818343232E+01 -0.14727174321E+02 -0.40659283346E+02  0.47787275471E+02  0.20000020181E+02 0.  0.
         12    1    1    2    0    0  0.36818343232E+01  0.14727174321E+02  0.40659283346E+02  0.43400724529E+02  0.00000000000E+00 0. -1.
         11    1    3    3    0    0 -0.63800087104E-01  0.18843943219E+01 -0.98490076277E+01  0.10027859389E+02  0.51100000000E-03 0. -1.
        -11    1    3    3    0    0 -0.28439407431E+01 -0.51142395569E+00  0.10819470664E+00  0.28915843008E+01  0.51100000000E-03 0.  1.
        -12    1    3    3    0    0 -0.77409349298E+00 -0.16100144687E+02 -0.30918470425E+02  0.34867831781E+02  0.00000000000E+00 0.  1.
</event>
<event>
 7    1  0.4519840E-010  0.4778727E+02  0.7816164E-02  0.1312668E+00
        -11   -1    0    0    0    0  0.00000000000E+00  0.00000000000E+00  0.45593999997E+02  0.45594000000E+02  0.51100000000E-03 0. -1.
         11   -1    0    0    0    0 -0.00000000000E+00 -0.00000000000E+00 -0.45593999997E+02  0.45594000000E+02  0.51100000000E-03 0.  1.
    9900012    2    1    2    0    0 -0.12367840682E+02  0.64523826866E+01  0.41097768370E+02  0.47787270853E+02  0.19999999129E+02 0.  0.
        -12    1    1    2    0    0  0.12367840682E+02 -0.64523826866E+01 -0.41097768370E+02  0.43400729147E+02  0.00000000000E+00 0.  1.
         11    1    3    3    0    0 -0.13996261437E+02  0.10922467050E+02  0.25637739765E+02  0.31184761041E+02  0.51100000000E-03 0. -1.
        -11    1    3    3    0    0 -0.82337091732E+00 -0.12232057388E+01  0.16843720710E+01  0.22385891721E+01  0.51100000000E-03 0.  1.
         12    1    3    3    0    0  0.24517916728E+01 -0.32468786251E+01  0.13775656534E+02  0.14363920640E+02  0.00000000000E+00 0. -1.
</event>
<event>
 7    1  0.4519840E-010  0.4778727E+02  0.7816164E-02  0.1312668E+00
        -11   -1    0    0    0    0  0.00000000000E+00  0.00000000000E+00  0.45593999997E+02  0.45594000000E+02  0.51100000000E-03 0. -1.
         11   -1    0    0    0    0 -0.00000000000E+00 -0.00000000000E+00 -0.45593999997E+02  0.45594000000E+02  0.51100000000E-03 0.  1.
    9900012    2    1    2    0    0  0.48026718192E+01 -0.34205867434E+02 -0.26277681076E+02  0.47787267906E+02  0.19999985691E+02 0.  0.
         12    1    1    2    0    0 -0.48026718192E+01  0.34205867434E+02  0.26277681076E+02  0.43400732094E+02  0.00000000000E+00 0. -1.
         11    1    3    3    0    0  0.47128810572E+01 -0.24782453784E+01  0.98067720555E+00  0.54143029152E+01  0.51100000000E-03 0. -1.
        -11    1    3    3    0    0  0.32753565742E+01 -0.18245936561E+02 -0.14419478986E+02  0.23485389845E+02  0.51100000000E-03 0.  1.
        -12    1    3    3    0    0 -0.31855658122E+01 -0.13481685495E+02 -0.12838879296E+02  0.18887575146E+02  0.00000000000E+00 0.  1.
</event>
<event>
 7    1  0.4519840E-010  0.4778729E+02  0.7816164E-02  0.1312668E+00
        -11   -1    0    0    0    0  0.00000000000E+00  0.00000000000E+00  0.45593999997E+02  0.45594000000E+02  0.51100000000E-03 0. -1.
         11   -1    0    0    0    0 -0.00000000000E+00 -0.00000000000E+00 -0.45593999997E+02  0.45594000000E+02  0.51100000000E-03 0.  1.
    9900012    2    1    2    0    0  0.32401045445E+02 -0.17852276116E+02  0.22695588154E+02  0.47787294590E+02  0.20000107352E+02 0.  0.
        -12    1    1    2    0    0 -0.32401045445E+02  0.17852276116E+02 -0.22695588154E+02  0.43400705410E+02  0.00000000000E+00 0.  1.
         11    1    3    3    0    0  0.17063159026E+02 -0.56035544863E+01  0.10769144451E+02  0.20941005021E+02  0.51100000000E-03 0. -1.
        -11    1    3    3    0    0  0.17399604703E+02 -0.98812882765E+01  0.73924524044E+01  0.21331536622E+02  0.51100000000E-03 0.  1.
        -12    1    3    3    0    0 -0.20617182845E+01 -0.23674333535E+01  0.45339912983E+01  0.55147529466E+01  0.00000000000E+00 0.  1.
</event>
<event>
 7    1  0.4519840E-010  0.4778727E+02  0.7816164E-02  0.1312668E+00
        -11   -1    0    0    0    0  0.00000000000E+00  0.00000000000E+00  0.45593999997E+02  0.45594000000E+02  0.51100000000E-03 0. -1.
         11   -1    0    0    0    0 -0.00000000000E+00 -0.00000000000E+00 -0.45593999997E+02  0.45594000000E+02  0.51100000000E-03 0.  1.
    9900012    2    1    2    0    0 -0.28725433353E+01  0.37776340697E+02  0.21173573273E+02  0.47787266978E+02  0.19999981461E+02 0.  0.
        -12    1    1    2    0    0  0.28725433353E+01 -0.37776340697E+02 -0.21173573273E+02  0.43400733022E+02  0.00000000000E+00 0.  1.
         11    1    3    3    0    0 -0.47073543209E+01  0.16700434206E+02  0.10146939112E+02  0.20100349773E+02  0.51100000000E-03 0.  1.
        -11    1    3    3    0    0  0.40750613905E+01  0.16538237632E+02  0.13795110434E+02  0.21918588035E+02  0.51100000000E-03 0. -1.
        -12    1    3    3    0    0 -0.22402504050E+01  0.45376688587E+01 -0.27684762728E+01  0.57683291707E+01  0.00000000000E+00 0.  1.
</event>
<event>
 7    1  0.4519840E-010  0.4778727E+02  0.7816164E-02  0.1312668E+00
        -11   -1    0    0    0    0  0.00000000000E+00  0.00000000000E+00  0.45593999997E+02  0.45594000000E+02  0.51100000000E-03 0. -1.
         11   -1    0    0    0    0 -0.00000000000E+00 -0.00000000000E+00 -0.45593999997E+02  0.45594000000E+02  0.51100000000E-03 0.  1.
    9900012    2    1    2    0    0 -0.28326718408E+02  0.83582844018E+01 -0.31801878589E+02  0.47787269872E+02  0.19999994653E+02 0.  0.
         12    1    1    2    0    0  0.28326718408E+02 -0.83582844018E+01  0.31801878589E+02  0.43400730128E+02  0.00000000000E+00 0. -1.
         11    1    3    3    0    0 -0.17869646648E+02  0.10142683141E+02 -0.15871885815E+02  0.25963725700E+02  0.51100000000E-03 0. -1.
        -11    1    3    3    0    0 -0.65907476982E+01  0.38414488758E+01 -0.56903136287E+01  0.95170559598E+01  0.51100000000E-03 0.  1.
        -12    1    3    3    0    0 -0.38663240620E+01 -0.56258476149E+01 -0.10239679145E+02  0.12306488212E+02  0.00000000000E+00 0.  1.
</event>
<event>
 7    1  0.4519840E-010  0.4778727E+02  0.7816164E-02  0.1312668E+00
        -11   -1    0    0    0    0  0.00000000000E+00  0.00000000000E+00  0.45593999997E+02  0.45594000000E+02  0.51100000000E-03 0. -1.
         11   -1    0    0    0    0 -0.00000000000E+00 -0.00000000000E+00 -0.45593999997E+02  0.45594000000E+02  0.51100000000E-03 0.  1.
    9900012    2    1    2    0    0  0.23708875479E+01 -0.16264343769E+01  0.43305389573E+02  0.47787272327E+02  0.20000005846E+02 0.  0.
        -12    1    1    2    0    0 -0.23708875479E+01  0.16264343769E+01 -0.43305389573E+02  0.43400727673E+02  0.00000000000E+00 0.  1.
         11    1    3    3    0    0 -0.32621608865E+01  0.11779504931E+01  0.17251133493E+02  0.17596331096E+02  0.51100000000E-03 0. -1.
        -11    1    3    3    0    0 -0.46126960317E+01 -0.10987199427E+01  0.64539969702E+01  0.80086345494E+01  0.51100000000E-03 0.  1.
        -12    1    3    3    0    0  0.10245744466E+02 -0.17056649272E+01  0.19600259110E+02  0.22182306681E+02  0.00000000000E+00 0.  1.
</event>
<event>
 7    1  0.4519840E-010  0.4778727E+02  0.7816164E-02  0.1312668E+00
        -11   -1    0    0    0    0  0.00000000000E+00  0.00000000000E+00  0.45593999997E+02  0.45594000000E+02  0.51100000000E-03 0. -1.
         11   -1    0    0    0    0 -0.00000000000E+00 -0.00000000000E+00 -0.45593999997E+02  0.45594000000E+02  0.51100000000E-03 0.  1.
    9900012    2    1    2    0    0 -0.38166724561E+02  0.17988161435E+02  0.10166137034E+02  0.47787272383E+02  0.20000006104E+02 0.  0.
        -12    1    1    2    0    0  0.38166724561E+02 -0.17988161435E+02 -0.10166137034E+02  0.43400727617E+02  0.00000000000E+00 0.  1.
         11    1    3    3    0    0 -0.13829681258E+01  0.62631083547E+01  0.20575039977E+01  0.67359075158E+01  0.51100000000E-03 0. -1.
        -11    1    3    3    0    0 -0.59567493190E+01 -0.22852185577E+01  0.11722357260E+01  0.64868500186E+01  0.51100000000E-03 0.  1.
        -12    1    3    3    0    0 -0.30827007116E+02  0.14010271638E+02  0.69363973100E+01  0.34564514849E+02  0.00000000000E+00 0.  1.
</event>
<event>
 7    1  0.4519840E-010  0.4778727E+02  0.7816164E-02  0.1312668E+00
        -11   -1    0    0    0    0  0.00000000000E+00  0.00000000000E+00  0.45593999997E+02  0.45594000000E+02  0.51100000000E-03 0. -1.
         11   -1    0    0    0    0 -0.00000000000E+00 -0.00000000000E+00 -0.45593999997E+02  0.45594000000E+02  0.51100000000E-03 0.  1.
    9900012    2    1    2    0    0 -0.21300858154E+02  0.98616739890E+01  0.36505400668E+02  0.47787269016E+02  0.19999990753E+02 0.  0.
        -12    1    1    2    0    0  0.21300858154E+02 -0.98616739890E+01 -0.36505400668E+02  0.43400730984E+02  0.00000000000E+00 0.  1.
         11    1    3    3    0    0 -0.86658047057E+01  0.26938551569E+01  0.18361416820E+02  0.20481568658E+02  0.51100000000E-03 0. -1.
        -11    1    3    3    0    0  0.28403498116E+01  0.20823003875E+01  0.61127897126E+01  0.70547686204E+01  0.51100000000E-03 0.  1.
         12    1    3    3    0    0 -0.15475403260E+02  0.50855184447E+01  0.12031194136E+02  0.20250931738E+02  0.00000000000E+00 0. -1.
</event>
<event>
 7    1  0.4519840E-010  0.4778727E+02  0.7816164E-02  0.1312668E+00
        -11   -1    0    0    0    0  0.00000000000E+00  0.00000000000E+00  0.45593999997E+02  0.45594000000E+02  0.51100000000E-03 0.  1.
         11   -1    0    0    0    0 -0.00000000000E+00 -0.00000000000E+00 -0.45593999997E+02  0.45594000000E+02  0.51100000000E-03 0. -1.
    9900012    2    1    2    0    0  0.28229464315E+02 -0.30664767311E+02  0.12099288758E+02  0.47787269612E+02  0.19999993471E+02 0.  0.
        -12    1    1    2    0    0 -0.28229464315E+02  0.30664767311E+02 -0.12099288758E+02  0.43400730388E+02  0.00000000000E+00 0.  1.
         11    1    3    3    0    0  0.45661226158E+01 -0.47053532548E+01  0.13409504286E+01  0.66923817365E+01  0.51100000000E-03 0. -1.
        -11    1    3    3    0    0  0.90212304642E+01 -0.22307392835E+02  0.33856178072E+01  0.24299481114E+02  0.51100000000E-03 0.  1.
        -12    1    3    3    0    0  0.14642111235E+02 -0.36520212205E+01  0.73727205225E+01  0.16795406762E+02  0.00000000000E+00 0.  1.
</event>
<event>
 7    1  0.4519840E-010  0.4778727E+02  0.7816164E-02  0.1312668E+00
        -11   -1    0    0    0    0  0.00000000000E+00  0.00000000000E+00  0.45593999997E+02  0.45594000000E+02  0.51100000000E-03 0.  1.
         11   -1    0    0    0    0 -0.00000000000E+00 -0.00000000000E+00 -0.45593999997E+02  0.45594000000E+02  0.51100000000E-03 0. -1.
    9900012    2    1    2    0    0 -0.37296319709E+02 -0.15929923541E+02  0.15454620613E+02  0.47787271594E+02  0.20000002507E+02 0.  0.
        -12    1    1    2    0    0  0.37296319709E+02  0.15929923541E+02 -0.15454620613E+02  0.43400728406E+02  0.00000000000E+00 0.  1.
         11    1    3    3    0    0 -0.12259051545E+02 -0.68288200601E+01  0.12501384462E+01  0.14088292110E+02  0.51100000000E-03 0. -1.
        -11    1    3    3    0    0 -0.98616184049E+01 -0.56313330732E+01  0.14134711599E+02  0.18131560936E+02  0.51100000000E-03 0.  1.
        -12    1    3    3    0    0 -0.15175649759E+02 -0.34697704080E+01  0.69770567918E-01  0.15567418547E+02  0.00000000000E+00 0.  1.
</event>
<event>
 7    1  0.4519840E-010  0.4778727E+02  0.7816164E-02  0.1312668E+00
        -11   -1    0    0    0    0  0.00000000000E+00  0.00000000000E+00  0.45593999997E+02  0.45594000000E+02  0.51100000000E-03 0.  1.
         11   -1    0    0    0    0 -0.00000000000E+00 -0.00000000000E+00 -0.45593999997E+02  0.45594000000E+02  0.51100000000E-03 0. -1.
    9900012    2    1    2    0    0 -0.19107662611E+02 -0.35996975791E+02  0.14924419523E+02  0.47787270344E+02  0.19999996806E+02 0.  0.
        -12    1    1    2    0    0  0.19107662611E+02  0.35996975791E+02 -0.14924419523E+02  0.43400729656E+02  0.00000000000E+00 0.  1.
         11    1    3    3    0    0 -0.14917271472E+02 -0.15558486605E+02  0.38174715805E+01  0.21889828303E+02  0.51100000000E-03 0. -1.
        -11    1    3    3    0    0 -0.72548925178E+01 -0.92018230193E+01  0.62243283933E+01  0.13268356211E+02  0.51100000000E-03 0.  1.
        -12    1    3    3    0    0  0.30645013783E+01 -0.11236666167E+02  0.48826195496E+01  0.12629085830E+02  0.00000000000E+00 0.  1.
</event>
<event>
 7    1  0.4519840E-010  0.4778727E+02  0.7816164E-02  0.1312668E+00
        -11   -1    0    0    0    0  0.00000000000E+00  0.00000000000E+00  0.45593999997E+02  0.45594000000E+02  0.51100000000E-03 0. -1.
         11   -1    0    0    0    0 -0.00000000000E+00 -0.00000000000E+00 -0.45593999997E+02  0.45594000000E+02  0.51100000000E-03 0.  1.
    9900012    2    1    2    0    0 -0.17690163623E+02  0.24156690372E+02  0.31418717722E+02  0.47787269568E+02  0.19999993267E+02 0.  0.
        -12    1    1    2    0    0  0.17690163623E+02 -0.24156690372E+02 -0.31418717722E+02  0.43400730432E+02  0.00000000000E+00 0.  1.
         11    1    3    3    0    0 -0.46119427459E+01  0.26189580840E+01  0.14192969591E+02  0.15151545908E+02  0.51100000000E-03 0. -1.
        -11    1    3    3    0    0 -0.13139141196E+02  0.13520275444E+02  0.81883333723E+01  0.20554407876E+02  0.51100000000E-03 0.  1.
         12    1    3    3    0    0  0.60920318870E-01  0.80174568442E+01  0.90374147589E+01  0.12081315783E+02  0.00000000000E+00 0. -1.
</event>
<event>
 7    1  0.4519840E-010  0.4778727E+02  0.7816164E-02  0.1312668E+00
        -11   -1    0    0    0    0  0.00000000000E+00  0.00000000000E+00  0.45593999997E+02  0.45594000000E+02  0.51100000000E-03 0. -1.
         11   -1    0    0    0    0 -0.00000000000E+00 -0.00000000000E+00 -0.45593999997E+02  0.45594000000E+02  0.51100000000E-03 0.  1.
    9900012    2    1    2    0    0  0.22363064598E+02 -0.10779631549E+02 -0.35599386479E+02  0.47787269221E+02  0.19999991684E+02 0.  0.
         12    1    1    2    0    0 -0.22363064598E+02  0.10779631549E+02  0.35599386479E+02  0.43400730779E+02  0.00000000000E+00 0. -1.
         11    1    3    3    0    0  0.50772153821E+01 -0.66603055942E+01 -0.10876863995E+01  0.84451671747E+01  0.51100000000E-03 0. -1.
        -11    1    3    3    0    0  0.39356929992E+01  0.14404535734E+01 -0.53930547676E+01  0.68300531381E+01  0.51100000000E-03 0.  1.
         12    1    3    3    0    0  0.13350156216E+02 -0.55597795285E+01 -0.29118645312E+02  0.32512048908E+02  0.00000000000E+00 0. -1.
</event>
<event>
 7    1  0.4519840E-010  0.4778728E+02  0.7816164E-02  0.1312668E+00
        -11   -1    0    0    0    0  0.00000000000E+00  0.00000000000E+00  0.45593999997E+02  0.45594000000E+02  0.51100000000E-03 0. -1.
         11   -1    0    0    0    0 -0.00000000000E+00 -0.00000000000E+00 -0.45593999997E+02  0.45594000000E+02  0.51100000000E-03 0.  1.
    9900012    2    1    2    0    0  0.34772517758E+02  0.22379324309E+02  0.13178036679E+02  0.47787276522E+02  0.20000024973E+02 0.  0.
        -12    1    1    2    0    0 -0.34772517758E+02 -0.22379324309E+02 -0.13178036679E+02  0.43400723478E+02  0.00000000000E+00 0.  1.
         11    1    3    3    0    0  0.10577564079E+02  0.15461921091E+02  0.70247954269E+01  0.20007588978E+02  0.51100000000E-03 0.  1.
        -11    1    3    3    0    0  0.89042929532E+01  0.76570907270E+01  0.33943711638E+01  0.12224533826E+02  0.51100000000E-03 0. -1.
        -12    1    3    3    0    0  0.15290660725E+02 -0.73968750871E+00  0.27588700882E+01  0.15555153718E+02  0.00000000000E+00 0.  1.
</event>
<event>
 7    1  0.4519840E-010  0.4778727E+02  0.7816164E-02  0.1312668E+00
        -11   -1    0    0    0    0  0.00000000000E+00  0.00000000000E+00  0.45593999997E+02  0.45594000000E+02  0.51100000000E-03 0. -1.
         11   -1    0    0    0    0 -0.00000000000E+00 -0.00000000000E+00 -0.45593999997E+02  0.45594000000E+02  0.51100000000E-03 0.  1.
    9900012    2    1    2    0    0 -0.35397748048E+01  0.16070536516E+02  0.40160064554E+02  0.47787274954E+02  0.20000017825E+02 0.  0.
        -12    1    1    2    0    0  0.35397748048E+01 -0.16070536516E+02 -0.40160064554E+02  0.43400725046E+02  0.00000000000E+00 0.  1.
         11    1    3    3    0    0 -0.16665857968E+01  0.92477373843E+01  0.56795826464E+01  0.10979791175E+02  0.51100000000E-03 0. -1.
        -11    1    3    3    0    0  0.44151153903E+01  0.23788608657E+01  0.10825257835E+02  0.11930567061E+02  0.51100000000E-03 0.  1.
         12    1    3    3    0    0 -0.62883043982E+01  0.44439382661E+01  0.23655224072E+02  0.24876916718E+02  0.00000000000E+00 0. -1.
</event>
<event>
 7    1  0.4519840E-010  0.4778727E+02  0.7816164E-02  0.1312668E+00
        -11   -1    0    0    0    0  0.00000000000E+00  0.00000000000E+00  0.45593999997E+02  0.45594000000E+02  0.51100000000E-03 0. -1.
         11   -1    0    0    0    0 -0.00000000000E+00 -0.00000000000E+00 -0.45593999997E+02  0.45594000000E+02  0.51100000000E-03 0.  1.
    9900012    2    1    2    0    0  0.34024384688E+02  0.22891871278E+02 -0.14210092101E+02  0.47787271417E+02  0.20000001700E+02 0.  0.
         12    1    1    2    0    0 -0.34024384688E+02 -0.22891871278E+02  0.14210092101E+02  0.43400728583E+02  0.00000000000E+00 0. -1.
         11    1    3    3    0    0  0.11805338007E+02  0.31271170758E+00 -0.63011242983E+01  0.13385363714E+02  0.51100000000E-03 0. -1.
        -11    1    3    3    0    0  0.78955620504E+01  0.64307962807E+01 -0.77818270446E+01  0.12816078702E+02  0.51100000000E-03 0.  1.
         12    1    3    3    0    0  0.14323484631E+02  0.16148363289E+02 -0.12714075790E+00  0.21585829001E+02  0.00000000000E+00 0. -1.
</event>
<event>
 7    1  0.4519840E-010  0.4778728E+02  0.7816164E-02  0.1312668E+00
        -11   -1    0    0    0    0  0.00000000000E+00  0.00000000000E+00  0.45593999997E+02  0.45594000000E+02  0.51100000000E-03 0. -1.
         11   -1    0    0    0    0 -0.00000000000E+00 -0.00000000000E+00 -0.45593999997E+02  0.45594000000E+02  0.51100000000E-03 0.  1.
    9900012    2    1    2    0    0 -0.86167210750E+00 -0.23133182053E+01 -0.43330462164E+02  0.47787275683E+02  0.20000021148E+02 0.  0.
         12    1    1    2    0    0  0.86167210750E+00  0.23133182053E+01  0.43330462164E+02  0.43400724317E+02  0.00000000000E+00 0. -1.
         11    1    3    3    0    0 -0.61448391829E+01  0.36802724975E+01 -0.13225718500E+02  0.15040714224E+02  0.51100000000E-03 0. -1.
        -11    1    3    3    0    0 -0.26343547708E+01 -0.36880578090E+01 -0.87329678026E+01  0.98390203965E+01  0.51100000000E-03 0.  1.
        -12    1    3    3    0    0  0.79175218462E+01 -0.23055328939E+01 -0.21371775861E+02  0.22907541063E+02  0.00000000000E+00 0.  1.
</event>
<event>
 7    1  0.4519840E-010  0.4778727E+02  0.7816164E-02  0.1312668E+00
        -11   -1    0    0    0    0  0.00000000000E+00  0.00000000000E+00  0.45593999997E+02  0.45594000000E+02  0.51100000000E-03 0. -1.
         11   -1    0    0    0    0 -0.00000000000E+00 -0.00000000000E+00 -0.45593999997E+02  0.45594000000E+02  0.51100000000E-03 0.  1.
    9900012    2    1    2    0    0 -0.14685239798E+02 -0.27917954924E+02 -0.29808635494E+02  0.47787271606E+02  0.20000002562E+02 0.  0.
         12    1    1    2    0    0  0.14685239798E+02  0.27917954924E+02  0.29808635494E+02  0.43400728394E+02  0.00000000000E+00 0. -1.
         11    1    3    3    0    0  0.46409659550E+00 -0.60343361533E+01 -0.68651286264E+01  0.91519719066E+01  0.51100000000E-03 0.  1.
        -11    1    3    3    0    0 -0.99995943169E+00 -0.15227411557E+02 -0.92121161135E+01  0.17825180649E+02  0.51100000000E-03 0. -1.
        -12    1    3    3    0    0 -0.14149376962E+02 -0.66562072132E+01 -0.13731390754E+02  0.20810119051E+02  0.00000000000E+00 0.  1.
</event>
<event>
 7    1  0.4519840E-010  0.4778728E+02  0.7816164E-02  0.1312668E+00
        -11   -1    0    0    0    0  0.00000000000E+00  0.00000000000E+00  0.45593999997E+02  0.45594000000E+02  0.51100000000E-03 0.  1.
         11   -1    0    0    0    0 -0.00000000000E+00 -0.00000000000E+00 -0.45593999997E+02  0.45594000000E+02  0.51100000000E-03 0. -1.
    9900012    2    1    2    0    0  0.42616319700E+02 -0.78986103499E+01  0.22547463343E+01  0.47787278447E+02  0.20000033753E+02 0.  0.
        -12    1    1    2    0    0 -0.42616319700E+02  0.78986103499E+01 -0.22547463343E+01  0.43400721553E+02  0.00000000000E+00 0.  1.
         11    1    3    3    0    0  0.82759358105E+01  0.37468585154E+01  0.17533856709E+01  0.92522658763E+01  0.51100000000E-03 0. -1.
        -11    1    3    3    0    0  0.39866704075E+01 -0.34351350841E+01 -0.42102983254E+01  0.67394588977E+01  0.51100000000E-03 0.  1.
         12    1    3    3    0    0  0.30353713482E+02 -0.82103337812E+01  0.47116589888E+01  0.31795553673E+02  0.00000000000E+00 0. -1.
</event>
<event>
 7    1  0.4519840E-010  0.4778725E+02  0.7816164E-02  0.1312668E+00
        -11   -1    0    0    0    0  0.00000000000E+00  0.00000000000E+00  0.45593999997E+02  0.45594000000E+02  0.51100000000E-03 0. -1.
         11   -1    0    0    0    0 -0.00000000000E+00 -0.00000000000E+00 -0.45593999997E+02  0.45594000000E+02  0.51100000000E-03 0.  1.
    9900012    2    1    2    0    0  0.18796747100E+02  0.27571133371E+01  0.39021862845E+02  0.47787249368E+02  0.19999901170E+02 0.  0.
        -12    1    1    2    0    0 -0.18796747100E+02 -0.27571133371E+01 -0.39021862845E+02  0.43400750632E+02  0.00000000000E+00 0.  1.
         11    1    3    3    0    0  0.82014585384E+01  0.55598711263E+01  0.93162852328E+01  0.13600340433E+02  0.51100000000E-03 0. -1.
        -11    1    3    3    0    0  0.60129836994E+00  0.26004906746E+01  0.32819875620E+00  0.26892054892E+01  0.51100000000E-03 0.  1.
         12    1    3    3    0    0  0.99939901913E+01 -0.54032484637E+01  0.29377378856E+02  0.31497703446E+02  0.00000000000E+00 0. -1.
</event>
<event>
 7    1  0.4519840E-010  0.4778727E+02  0.7816164E-02  0.1312668E+00
        -11   -1    0    0    0    0  0.00000000000E+00  0.00000000000E+00  0.45593999997E+02  0.45594000000E+02  0.51100000000E-03 0. -1.
         11   -1    0    0    0    0 -0.00000000000E+00 -0.00000000000E+00 -0.45593999997E+02  0.45594000000E+02  0.51100000000E-03 0.  1.
    9900012    2    1    2    0    0 -0.22887249958E+02 -0.16687397714E+01 -0.36837653829E+02  0.47787266795E+02  0.19999980627E+02 0.  0.
         12    1    1    2    0    0  0.22887249958E+02  0.16687397714E+01  0.36837653829E+02  0.43400733205E+02  0.00000000000E+00 0. -1.
         11    1    3    3    0    0 -0.46873124586E+01 -0.89856268752E+01 -0.10564778905E+02  0.14639909221E+02  0.51100000000E-03 0. -1.
        -11    1    3    3    0    0 -0.27554460963E+01  0.83480724284E+00 -0.72533589652E+01  0.78038838319E+01  0.51100000000E-03 0.  1.
         12    1    3    3    0    0 -0.15444491403E+02  0.64820798610E+01 -0.19019515959E+02  0.25343473743E+02  0.00000000000E+00 0. -1.
</event>
<event>
 7    1  0.4519840E-010  0.4778728E+02  0.7816164E-02  0.1312668E+00
        -11   -1    0    0    0    0  0.00000000000E+00  0.00000000000E+00  0.45593999997E+02  0.45594000000E+02  0.51100000000E-03 0. -1.
         11   -1    0    0    0    0 -0.00000000000E+00 -0.00000000000E+00 -0.45593999997E+02  0.45594000000E+02  0.51100000000E-03 0.  1.
    9900012    2    1    2    0    0 -0.31725842977E+02 -0.11890380122E+02 -0.27124022596E+02  0.47787275883E+02  0.20000022063E+02 0.  0.
         12    1    1    2    0    0  0.31725842977E+02  0.11890380122E+02  0.27124022596E+02  0.43400724117E+02  0.00000000000E+00 0. -1.
         11    1    3    3    0    0 -0.43916956207E+01 -0.11115092743E+01 -0.60766503598E+00  0.45707439601E+01  0.51100000000E-03 0. -1.
        -11    1    3    3    0    0 -0.18789181515E+02 -0.11207090710E+02 -0.88736746353E+01  0.23608776461E+02  0.51100000000E-03 0.  1.
         12    1    3    3    0    0 -0.85449658414E+01  0.42821986271E+00 -0.17642682925E+02  0.19607755462E+02  0.00000000000E+00 0. -1.
</event>
<event>
 7    1  0.4519840E-010  0.4778727E+02  0.7816164E-02  0.1312668E+00
        -11   -1    0    0    0    0  0.00000000000E+00  0.00000000000E+00  0.45593999997E+02  0.45594000000E+02  0.51100000000E-03 0. -1.
         11   -1    0    0    0    0 -0.00000000000E+00 -0.00000000000E+00 -0.45593999997E+02  0.45594000000E+02  0.51100000000E-03 0.  1.
    9900012    2    1    2    0    0 -0.35286624203E+02  0.19812879377E+02 -0.15682068916E+02  0.47787270486E+02  0.19999997453E+02 0.  0.
         12    1    1    2    0    0  0.35286624203E+02 -0.19812879377E+02  0.15682068916E+02  0.43400729514E+02  0.00000000000E+00 0. -1.
         11    1    3    3    0    0 -0.44539812057E+00  0.39046621537E+00  0.79717772228E+00  0.99314446742E+00  0.51100000000E-03 0. -1.
        -11    1    3    3    0    0 -0.33069330677E+02  0.14006946657E+02 -0.83576895449E+01  0.36873108912E+02  0.51100000000E-03 0.  1.
        -12    1    3    3    0    0 -0.17718954060E+01  0.54154665044E+01 -0.81215570937E+01  0.99210171060E+01  0.00000000000E+00 0.  1.
</event>
<event>
 7    1  0.4519840E-010  0.4778726E+02  0.7816164E-02  0.1312668E+00
        -11   -1    0    0    0    0  0.00000000000E+00  0.00000000000E+00  0.45593999997E+02  0.45594000000E+02  0.51100000000E-03 0. -1.
         11   -1    0    0    0    0 -0.00000000000E+00 -0.00000000000E+00 -0.45593999997E+02  0.45594000000E+02  0.51100000000E-03 0.  1.
    9900012    2    1    2    0    0 -0.17847460690E+02  0.35828884140E+02  0.16774477990E+02  0.47787263789E+02  0.19999966919E+02 0.  0.
        -12    1    1    2    0    0  0.17847460690E+02 -0.35828884140E+02 -0.16774477990E+02  0.43400736211E+02  0.00000000000E+00 0.  1.
         11    1    3    3    0    0 -0.42342182990E+01  0.11724696150E+02 -0.24431440442E+01  0.12702994036E+02  0.51100000000E-03 0. -1.
        -11    1    3    3    0    0 -0.39594840858E+01  0.68554532187E+00  0.28340025738E+01  0.49172205018E+01  0.51100000000E-03 0.  1.
        -12    1    3    3    0    0 -0.96537583049E+01  0.23418642669E+02  0.16383619461E+02  0.30167049251E+02  0.00000000000E+00 0.  1.
</event>
<event>
 7    1  0.4519840E-010  0.4778727E+02  0.7816164E-02  0.1312668E+00
        -11   -1    0    0    0    0  0.00000000000E+00  0.00000000000E+00  0.45593999997E+02  0.45594000000E+02  0.51100000000E-03 0. -1.
         11   -1    0    0    0    0 -0.00000000000E+00 -0.00000000000E+00 -0.45593999997E+02  0.45594000000E+02  0.51100000000E-03 0.  1.
    9900012    2    1    2    0    0 -0.10889672440E+02 -0.25066866697E+02  0.33714840862E+02  0.47787271133E+02  0.20000000403E+02 0.  0.
        -12    1    1    2    0    0  0.10889672440E+02  0.25066866697E+02 -0.33714840862E+02  0.43400728867E+02  0.00000000000E+00 0.  1.
         11    1    3    3    0    0 -0.53632204151E+01 -0.70118156778E+01  0.95698676952E+01  0.13019679731E+02  0.51100000000E-03 0. -1.
        -11    1    3    3    0    0 -0.71308630072E+00  0.62486758801E+00  0.11859866862E+02  0.11897705401E+02  0.51100000000E-03 0.  1.
        -12    1    3    3    0    0 -0.48133657245E+01 -0.18679918608E+02  0.12285106305E+02  0.22869886001E+02  0.00000000000E+00 0.  1.
</event>
<event>
 7    1  0.4519840E-010  0.4778727E+02  0.7816164E-02  0.1312668E+00
        -11   -1    0    0    0    0  0.00000000000E+00  0.00000000000E+00  0.45593999997E+02  0.45594000000E+02  0.51100000000E-03 0. -1.
         11   -1    0    0    0    0 -0.00000000000E+00 -0.00000000000E+00 -0.45593999997E+02  0.45594000000E+02  0.51100000000E-03 0.  1.
    9900012    2    1    2    0    0  0.17733285293E+02 -0.92946344300E+01  0.38506669328E+02  0.47787271674E+02  0.20000002873E+02 0.  0.
        -12    1    1    2    0    0 -0.17733285293E+02  0.92946344300E+01 -0.38506669328E+02  0.43400728326E+02  0.00000000000E+00 0.  1.
         11    1    3    3    0    0  0.10873526390E+02 -0.38338613057E+01  0.27276510723E+02  0.29613174537E+02  0.51100000000E-03 0. -1.
        -11    1    3    3    0    0  0.66236799506E+01  0.19254887454E+01  0.52993039094E+01  0.86984633805E+01  0.51100000000E-03 0.  1.
        -12    1    3    3    0    0  0.23607895223E+00 -0.73862618696E+01  0.59308546949E+01  0.94756337567E+01  0.00000000000E+00 0.  1.
</event>
<event>
 7    1  0.4519840E-010  0.4778726E+02  0.7816164E-02  0.1312668E+00
        -11   -1    0    0    0    0  0.00000000000E+00  0.00000000000E+00  0.45593999997E+02  0.45594000000E+02  0.51100000000E-03 0.  1.
         11   -1    0    0    0    0 -0.00000000000E+00 -0.00000000000E+00 -0.45593999997E+02  0.45594000000E+02  0.51100000000E-03 0. -1.
    9900012    2    1    2    0    0 -0.20268830967E+02  0.27052182395E+02 -0.27220906619E+02  0.47787264542E+02  0.19999970351E+02 0.  0.
         12    1    1    2    0    0  0.20268830967E+02 -0.27052182395E+02  0.27220906619E+02  0.43400735458E+02  0.00000000000E+00 0. -1.
         11    1    3    3    0    0 -0.74526864258E+01  0.10299955360E+02 -0.52603186681E+01  0.13758726981E+02  0.51100000000E-03 0. -1.
        -11    1    3    3    0    0 -0.88114212344E+01  0.18871370770E+02 -0.20609500972E+02  0.29300534286E+02  0.51100000000E-03 0.  1.
         12    1    3    3    0    0 -0.40047233072E+01 -0.21191437348E+01 -0.13510869797E+01  0.47280032744E+01  0.00000000000E+00 0. -1.
</event>
<event>
 7    1  0.4519840E-010  0.4778727E+02  0.7816164E-02  0.1312668E+00
        -11   -1    0    0    0    0  0.00000000000E+00  0.00000000000E+00  0.45593999997E+02  0.45594000000E+02  0.51100000000E-03 0. -1.
         11   -1    0    0    0    0 -0.00000000000E+00 -0.00000000000E+00 -0.45593999997E+02  0.45594000000E+02  0.51100000000E-03 0.  1.
    9900012    2    1    2    0    0 -0.31773577894E+02  0.18471732982E+01 -0.29506792238E+02  0.47787273167E+02  0.20000009680E+02 0.  0.
         12    1    1    2    0    0  0.31773577894E+02 -0.18471732982E+01  0.29506792238E+02  0.43400726833E+02  0.00000000000E+00 0. -1.
         11    1    3    3    0    0 -0.29763668312E+01 -0.11017752845E+01 -0.10212191537E+01  0.33340001669E+01  0.51100000000E-03 0. -1.
        -11    1    3    3    0    0 -0.83511096245E+01  0.91132029064E+01 -0.13852633114E+02  0.18565746514E+02  0.51100000000E-03 0.  1.
        -12    1    3    3    0    0 -0.20446101438E+02 -0.61642543237E+01 -0.14632939971E+02  0.25887526486E+02  0.00000000000E+00 0.  1.
</event>
<event>
 7    1  0.4519840E-010  0.4778728E+02  0.7816164E-02  0.1312668E+00
        -11   -1    0    0    0    0  0.00000000000E+00  0.00000000000E+00  0.45593999997E+02  0.45594000000E+02  0.51100000000E-03 0. -1.
         11   -1    0    0    0    0 -0.00000000000E+00 -0.00000000000E+00 -0.45593999997E+02  0.45594000000E+02  0.51100000000E-03 0.  1.
    9900012    2    1    2    0    0 -0.12716785398E+02 -0.92127869729E+00  0.41485630152E+02  0.47787275416E+02  0.20000019932E+02 0.  0.
        -12    1    1    2    0    0  0.12716785398E+02  0.92127869729E+00 -0.41485630152E+02  0.43400724584E+02  0.00000000000E+00 0.  1.
         11    1    3    3    0    0 -0.84932115433E+01 -0.23515876876E+01  0.11864098920E+02  0.14779088281E+02  0.51100000000E-03 0. -1.
        -11    1    3    3    0    0 -0.27252204642E+01 -0.46426619839E+01  0.41987326455E+01  0.68271877786E+01  0.51100000000E-03 0.  1.
         12    1    3    3    0    0 -0.14983533906E+01  0.60729709742E+01  0.25422798587E+02  0.26180999357E+02  0.00000000000E+00 0. -1.
</event>
<event>
 7    1  0.4519840E-010  0.4778727E+02  0.7816164E-02  0.1312668E+00
        -11   -1    0    0    0    0  0.00000000000E+00  0.00000000000E+00  0.45593999997E+02  0.45594000000E+02  0.51100000000E-03 0. -1.
         11   -1    0    0    0    0 -0.00000000000E+00 -0.00000000000E+00 -0.45593999997E+02  0.45594000000E+02  0.51100000000E-03 0.  1.
    9900012    2    1    2    0    0  0.20561855543E+02 -0.33236060231E+02 -0.18873200824E+02  0.47787270600E+02  0.19999997976E+02 0.  0.
         12    1    1    2    0    0 -0.20561855543E+02  0.33236060231E+02  0.18873200824E+02  0.43400729400E+02  0.00000000000E+00 0. -1.
         11    1    3    3    0    0  0.94517927900E+00  0.92608596521E+00  0.64818147043E+00  0.14734783894E+01  0.51100000000E-03 0. -1.
        -11    1    3    3    0    0  0.14672801831E+02 -0.11313338846E+02 -0.71048492748E+01  0.19843427952E+02  0.51100000000E-03 0.  1.
         12    1    3    3    0    0  0.49438744324E+01 -0.22848807351E+02 -0.12416533020E+02  0.26470364259E+02  0.00000000000E+00 0. -1.
</event>
<event>
 7    1  0.4519840E-010  0.4778728E+02  0.7816164E-02  0.1312668E+00
        -11   -1    0    0    0    0  0.00000000000E+00  0.00000000000E+00  0.45593999997E+02  0.45594000000E+02  0.51100000000E-03 0. -1.
         11   -1    0    0    0    0 -0.00000000000E+00 -0.00000000000E+00 -0.45593999997E+02  0.45594000000E+02  0.51100000000E-03 0.  1.
    9900012    2    1    2    0    0 -0.74854115013E+01 -0.11510138341E+02  0.41171691058E+02  0.47787276336E+02  0.20000024125E+02 0.  0.
        -12    1    1    2    0    0  0.74854115013E+01  0.11510138341E+02 -0.41171691058E+02  0.43400723664E+02  0.00000000000E+00 0.  1.
         11    1    3    3    0    0 -0.41459474518E+01 -0.89501169871E-01  0.19212293552E+02  0.19654747888E+02  0.51100000000E-03 0. -1.
        -11    1    3    3    0    0  0.11863318538E+00  0.20632747280E+01  0.85784094974E+01  0.88238475849E+01  0.51100000000E-03 0.  1.
        -12    1    3    3    0    0 -0.34580972349E+01 -0.13483911899E+02  0.13380988009E+02  0.19308680863E+02  0.00000000000E+00 0.  1.
</event>
<event>
 7    1  0.4519840E-010  0.4778727E+02  0.7816164E-02  0.1312668E+00
        -11   -1    0    0    0    0  0.00000000000E+00  0.00000000000E+00  0.45593999997E+02  0.45594000000E+02  0.51100000000E-03 0. -1.
         11   -1    0    0    0    0 -0.00000000000E+00 -0.00000000000E+00 -0.45593999997E+02  0.45594000000E+02  0.51100000000E-03 0.  1.
    9900012    2    1    2    0    0  0.35530495838E+02 -0.15268593124E+02  0.19699672006E+02  0.47787272499E+02  0.20000006632E+02 0.  0.
        -12    1    1    2    0    0 -0.35530495838E+02  0.15268593124E+02 -0.19699672006E+02  0.43400727501E+02  0.00000000000E+00 0.  1.
         11    1    3    3    0    0  0.67808298922E+01 -0.82953888847E+01 -0.47810549500E+00  0.10724817756E+02  0.51100000000E-03 0. -1.
        -11    1    3    3    0    0  0.17807482984E+01 -0.33847086253E+01  0.32548265122E+01  0.50220725668E+01  0.51100000000E-03 0.  1.
        -12    1    3    3    0    0  0.26968917647E+02 -0.35884956139E+01  0.16922950989E+02  0.32040382176E+02  0.00000000000E+00 0.  1.
</event>
<event>
 7    1  0.4519840E-010  0.4778727E+02  0.7816164E-02  0.1312668E+00
        -11   -1    0    0    0    0  0.00000000000E+00  0.00000000000E+00  0.45593999997E+02  0.45594000000E+02  0.51100000000E-03 0. -1.
         11   -1    0    0    0    0 -0.00000000000E+00 -0.00000000000E+00 -0.45593999997E+02  0.45594000000E+02  0.51100000000E-03 0.  1.
    9900012    2    1    2    0    0  0.34842273867E+02  0.20081766992E+02  0.16320596335E+02  0.47787270991E+02  0.19999999758E+02 0.  0.
        -12    1    1    2    0    0 -0.34842273867E+02 -0.20081766992E+02 -0.16320596335E+02  0.43400729009E+02  0.00000000000E+00 0.  1.
         11    1    3    3    0    0  0.56676466121E+01  0.96482689811E+01  0.86801511660E+01  0.14161791447E+02  0.51100000000E-03 0. -1.
        -11    1    3    3    0    0  0.14426580634E+01 -0.22143184766E+00  0.32913023269E+01  0.36004118681E+01  0.51100000000E-03 0.  1.
        -12    1    3    3    0    0  0.27731969192E+02  0.10654929858E+02  0.43491428419E+01  0.30025067677E+02  0.00000000000E+00 0.  1.
</event>
<event>
 7    1  0.4519840E-010  0.4778727E+02  0.7816164E-02  0.1312668E+00
        -11   -1    0    0    0    0  0.00000000000E+00  0.00000000000E+00  0.45593999997E+02  0.45594000000E+02  0.51100000000E-03 0. -1.
         11   -1    0    0    0    0 -0.00000000000E+00 -0.00000000000E+00 -0.45593999997E+02  0.45594000000E+02  0.51100000000E-03 0.  1.
    9900012    2    1    2    0    0  0.19565811930E+02  0.17956228437E+02  0.34327486836E+02  0.47787268570E+02  0.19999988720E+02 0.  0.
        -12    1    1    2    0    0 -0.19565811930E+02 -0.17956228437E+02 -0.34327486836E+02  0.43400731430E+02  0.00000000000E+00 0.  1.
         11    1    3    3    0    0  0.51729084369E+01  0.22895800127E+00  0.69234799142E+00  0.52240548873E+01  0.51100000000E-03 0. -1.
        -11    1    3    3    0    0 -0.23184229522E+01  0.18560499648E+01  0.48692618840E+01  0.57034829721E+01  0.51100000000E-03 0.  1.
         12    1    3    3    0    0  0.16711326446E+02  0.15871220471E+02  0.28765876960E+02  0.36859730711E+02  0.00000000000E+00 0. -1.
</event>
<event>
 7    1  0.4519840E-010  0.4778727E+02  0.7816164E-02  0.1312668E+00
        -11   -1    0    0    0    0  0.00000000000E+00  0.00000000000E+00  0.45593999997E+02  0.45594000000E+02  0.51100000000E-03 0. -1.
         11   -1    0    0    0    0 -0.00000000000E+00 -0.00000000000E+00 -0.45593999997E+02  0.45594000000E+02  0.51100000000E-03 0.  1.
    9900012    2    1    2    0    0 -0.56257679280E+01  0.16939866848E+01  0.43001215247E+02  0.47787269955E+02  0.19999995035E+02 0.  0.
        -12    1    1    2    0    0  0.56257679280E+01 -0.16939866848E+01 -0.43001215247E+02  0.43400730045E+02  0.00000000000E+00 0.  1.
         11    1    3    3    0    0 -0.12521748406E+02  0.40372389381E+01  0.24588362002E+02  0.27886932918E+02  0.51100000000E-03 0. -1.
        -11    1    3    3    0    0  0.13744171618E+01  0.32985587263E+00  0.33139152655E+01  0.36027575660E+01  0.51100000000E-03 0.  1.
         12    1    3    3    0    0  0.55215633160E+01 -0.26731081258E+01  0.15098937980E+02  0.16297579472E+02  0.00000000000E+00 0. -1.
</event>
<event>
 7    1  0.4519840E-010  0.4778727E+02  0.7816164E-02  0.1312668E+00
        -11   -1    0    0    0    0  0.00000000000E+00  0.00000000000E+00  0.45593999997E+02  0.45594000000E+02  0.51100000000E-03 0. -1.
         11   -1    0    0    0    0 -0.00000000000E+00 -0.00000000000E+00 -0.45593999997E+02  0.45594000000E+02  0.51100000000E-03 0.  1.
    9900012    2    1    2    0    0 -0.39252119650E+02  0.16881194719E+01  0.18440293658E+02  0.47787273340E+02  0.20000010467E+02 0.  0.
        -12    1    1    2    0    0  0.39252119650E+02 -0.16881194719E+01 -0.18440293658E+02  0.43400726660E+02  0.00000000000E+00 0.  1.
         11    1    3    3    0    0 -0.16142968845E+02 -0.41948763716E+01  0.80170371793E+01  0.18505818444E+02  0.51100000000E-03 0. -1.
        -11    1    3    3    0    0 -0.19256744962E+02  0.21975878543E+01  0.22344945692E+01  0.19510114944E+02  0.51100000000E-03 0.  1.
        -12    1    3    3    0    0 -0.38524058440E+01  0.36854079892E+01  0.81887619099E+01  0.97713399516E+01  0.00000000000E+00 0.  1.
</event>
<event>
 7    1  0.4519840E-010  0.4778727E+02  0.7816164E-02  0.1312668E+00
        -11   -1    0    0    0    0  0.00000000000E+00  0.00000000000E+00  0.45593999997E+02  0.45594000000E+02  0.51100000000E-03 0. -1.
         11   -1    0    0    0    0 -0.00000000000E+00 -0.00000000000E+00 -0.45593999997E+02  0.45594000000E+02  0.51100000000E-03 0.  1.
    9900012    2    1    2    0    0  0.15364913527E+02 -0.37808578460E+02 -0.14766655568E+02  0.47787270864E+02  0.19999999178E+02 0.  0.
         12    1    1    2    0    0 -0.15364913527E+02  0.37808578460E+02  0.14766655568E+02  0.43400729136E+02  0.00000000000E+00 0. -1.
         11    1    3    3    0    0  0.96474484482E+01 -0.94208083106E+01 -0.19473419869E+01  0.13624134169E+02  0.51100000000E-03 0.  1.
        -11    1    3    3    0    0  0.44020496642E+01 -0.13813061463E+01 -0.22392247004E+01  0.51283696665E+01  0.51100000000E-03 0. -1.
        -12    1    3    3    0    0  0.13154154141E+01 -0.27006464003E+02 -0.10580088881E+02  0.29034767028E+02  0.00000000000E+00 0.  1.
</event>
<event>
 7    1  0.4519840E-010  0.4778727E+02  0.7816164E-02  0.1312668E+00
        -11   -1    0    0    0    0  0.00000000000E+00  0.00000000000E+00  0.45593999997E+02  0.45594000000E+02  0.51100000000E-03 0. -1.
         11   -1    0    0    0    0 -0.00000000000E+00 -0.00000000000E+00 -0.45593999997E+02  0.45594000000E+02  0.51100000000E-03 0.  1.
    9900012    2    1    2    0    0 -0.13331457777E+02 -0.17189175533E+02  0.37555660701E+02  0.47787272210E+02  0.20000005315E+02 0.  0.
        -12    1    1    2    0    0  0.13331457777E+02  0.17189175533E+02 -0.37555660701E+02  0.43400727790E+02  0.00000000000E+00 0.  1.
         11    1    3    3    0    0 -0.16779691625E+01  0.22802896842E+01  0.37054372421E+01  0.46632142317E+01  0.51100000000E-03 0. -1.
        -11    1    3    3    0    0  0.22702634093E-01 -0.18027490043E+01 -0.12053610096E+01  0.21687127072E+01  0.51100000000E-03 0.  1.
         12    1    3    3    0    0 -0.11676191249E+02 -0.17666716213E+02  0.35055584469E+02  0.40955345271E+02  0.00000000000E+00 0. -1.
</event>
<event>
 7    1  0.4519840E-010  0.4778727E+02  0.7816164E-02  0.1312668E+00
        -11   -1    0    0    0    0  0.00000000000E+00  0.00000000000E+00  0.45593999997E+02  0.45594000000E+02  0.51100000000E-03 0. -1.
         11   -1    0    0    0    0 -0.00000000000E+00 -0.00000000000E+00 -0.45593999997E+02  0.45594000000E+02  0.51100000000E-03 0.  1.
    9900012    2    1    2    0    0  0.26797734989E+02 -0.33296939824E+02  0.75378086892E+01  0.47787270028E+02  0.19999995368E+02 0.  0.
        -12    1    1    2    0    0 -0.26797734989E+02  0.33296939824E+02 -0.75378086892E+01  0.43400729972E+02  0.00000000000E+00 0.  1.
         11    1    3    3    0    0  0.25233283906E+01 -0.34938856701E+01 -0.21351274903E+01  0.48096977975E+01  0.51100000000E-03 0. -1.
        -11    1    3    3    0    0  0.44685098519E+01 -0.15193667893E+02  0.92954147779E+01  0.18363547057E+02  0.51100000000E-03 0.  1.
        -12    1    3    3    0    0  0.19805896747E+02 -0.14609386261E+02  0.37752140156E+00  0.24614025174E+02  0.00000000000E+00 0.  1.
</event>
<event>
 7    1  0.4519840E-010  0.4778728E+02  0.7816164E-02  0.1312668E+00
        -11   -1    0    0    0    0  0.00000000000E+00  0.00000000000E+00  0.45593999997E+02  0.45594000000E+02  0.51100000000E-03 0. -1.
         11   -1    0    0    0    0 -0.00000000000E+00 -0.00000000000E+00 -0.45593999997E+02  0.45594000000E+02  0.51100000000E-03 0.  1.
    9900012    2    1    2    0    0 -0.32044617012E+01 -0.11278963956E+02  0.41786824433E+02  0.47787282276E+02  0.20000051211E+02 0.  0.
        -12    1    1    2    0    0  0.32044617012E+01  0.11278963956E+02 -0.41786824433E+02  0.43400717724E+02  0.00000000000E+00 0.  1.
         11    1    3    3    0    0 -0.57186931974E+00 -0.55125357889E+01  0.71076658322E+01  0.90129905795E+01  0.51100000000E-03 0. -1.
        -11    1    3    3    0    0 -0.75966045862E+01 -0.54740286176E+01  0.10412296033E+02  0.14003188904E+02  0.51100000000E-03 0.  1.
         12    1    3    3    0    0  0.49640122048E+01 -0.29239954916E+00  0.24266862568E+02  0.24771102793E+02  0.00000000000E+00 0. -1.
</event>
<event>
 7    1  0.4519840E-010  0.4778727E+02  0.7816164E-02  0.1312668E+00
        -11   -1    0    0    0    0  0.00000000000E+00  0.00000000000E+00  0.45593999997E+02  0.45594000000E+02  0.51100000000E-03 0. -1.
         11   -1    0    0    0    0 -0.00000000000E+00 -0.00000000000E+00 -0.45593999997E+02  0.45594000000E+02  0.51100000000E-03 0.  1.
    9900012    2    1    2    0    0  0.16849340021E+02  0.20064027104E+02  0.34599968641E+02  0.47787271058E+02  0.20000000060E+02 0.  0.
        -12    1    1    2    0    0 -0.16849340021E+02 -0.20064027104E+02 -0.34599968641E+02  0.43400728942E+02  0.00000000000E+00 0.  1.
         11    1    3    3    0    0 -0.12578751387E+01  0.41636038705E+01  0.45440558208E+01  0.62901741326E+01  0.51100000000E-03 0. -1.
        -11    1    3    3    0    0  0.13058369270E+02  0.61818440073E+01  0.26138713696E+02  0.29865842651E+02  0.51100000000E-03 0.  1.
         12    1    3    3    0    0  0.50488458895E+01  0.97185792267E+01  0.39171991241E+01  0.11631254274E+02  0.00000000000E+00 0. -1.
</event>
<event>
 7    1  0.4519840E-010  0.4778727E+02  0.7816164E-02  0.1312668E+00
        -11   -1    0    0    0    0  0.00000000000E+00  0.00000000000E+00  0.45593999997E+02  0.45594000000E+02  0.51100000000E-03 0. -1.
         11   -1    0    0    0    0 -0.00000000000E+00 -0.00000000000E+00 -0.45593999997E+02  0.45594000000E+02  0.51100000000E-03 0.  1.
    9900012    2    1    2    0    0 -0.11754767290E+02 -0.13091786081E+02  0.39674347585E+02  0.47787271053E+02  0.20000000041E+02 0.  0.
        -12    1    1    2    0    0  0.11754767290E+02  0.13091786081E+02 -0.39674347585E+02  0.43400728947E+02  0.00000000000E+00 0.  1.
         11    1    3    3    0    0  0.25942779348E+01 -0.19885621531E+01  0.96256765956E+01  0.10165545122E+02  0.51100000000E-03 0. -1.
        -11    1    3    3    0    0  0.90116182227E+00 -0.46357222983E+00 -0.10044627245E+01  0.14268628064E+01  0.51100000000E-03 0.  1.
         12    1    3    3    0    0 -0.15250207047E+02 -0.10639651698E+02  0.31053133714E+02  0.36194863125E+02  0.00000000000E+00 0. -1.
</event>
<event>
 7    1  0.4519840E-010  0.4778727E+02  0.7816164E-02  0.1312668E+00
        -11   -1    0    0    0    0  0.00000000000E+00  0.00000000000E+00  0.45593999997E+02  0.45594000000E+02  0.51100000000E-03 0. -1.
         11   -1    0    0    0    0 -0.00000000000E+00 -0.00000000000E+00 -0.45593999997E+02  0.45594000000E+02  0.51100000000E-03 0.  1.
    9900012    2    1    2    0    0 -0.41066773147E+01  0.83628479567E+00  0.43197904983E+02  0.47787272290E+02  0.20000005679E+02 0.  0.
        -12    1    1    2    0    0  0.41066773147E+01 -0.83628479567E+00 -0.43197904983E+02  0.43400727710E+02  0.00000000000E+00 0.  1.
         11    1    3    3    0    0  0.12644515276E+01 -0.20705734139E+01  0.32705339295E+01  0.40721621251E+01  0.51100000000E-03 0. -1.
        -11    1    3    3    0    0 -0.10277428442E+01  0.72433587406E+01  0.66827192077E+01  0.99086445828E+01  0.51100000000E-03 0.  1.
         12    1    3    3    0    0 -0.43433859980E+01 -0.43365005311E+01  0.33244651846E+02  0.33806465582E+02  0.00000000000E+00 0. -1.
</event>
<event>
 7    1  0.4519840E-010  0.4778725E+02  0.7816164E-02  0.1312668E+00
        -11   -1    0    0    0    0  0.00000000000E+00  0.00000000000E+00  0.45593999997E+02  0.45594000000E+02  0.51100000000E-03 0.  1.
         11   -1    0    0    0    0 -0.00000000000E+00 -0.00000000000E+00 -0.45593999997E+02  0.45594000000E+02  0.51100000000E-03 0. -1.
    9900012    2    1    2    0    0 -0.10247758927E+02  0.34886866006E+02  0.23696307769E+02  0.47787251336E+02  0.19999910140E+02 0.  0.
        -12    1    1    2    0    0  0.10247758927E+02 -0.34886866006E+02 -0.23696307769E+02  0.43400748664E+02  0.00000000000E+00 0.  1.
         11    1    3    3    0    0 -0.10296443196E+01  0.21999425459E+02  0.22362638180E+02  0.31386660775E+02  0.51100000000E-03 0. -1.
        -11    1    3    3    0    0 -0.40226638675E+01  0.57995918292E+01  0.25999395369E+01  0.75217535079E+01  0.51100000000E-03 0.  1.
        -12    1    3    3    0    0 -0.51954507401E+01  0.70878487177E+01 -0.12662699480E+01  0.88788370533E+01  0.00000000000E+00 0.  1.
</event>
<event>
 7    1  0.4519840E-010  0.4778726E+02  0.7816164E-02  0.1312668E+00
        -11   -1    0    0    0    0  0.00000000000E+00  0.00000000000E+00  0.45593999997E+02  0.45594000000E+02  0.51100000000E-03 0. -1.
         11   -1    0    0    0    0 -0.00000000000E+00 -0.00000000000E+00 -0.45593999997E+02  0.45594000000E+02  0.51100000000E-03 0.  1.
    9900012    2    1    2    0    0 -0.20261914609E+02 -0.17778897694E+02 -0.34014552307E+02  0.47787260888E+02  0.19999953693E+02 0.  0.
         12    1    1    2    0    0  0.20261914609E+02  0.17778897694E+02  0.34014552307E+02  0.43400739112E+02  0.00000000000E+00 0. -1.
         11    1    3    3    0    0 -0.17521834233E+01  0.26454863269E+00  0.25694432487E+00  0.17905734766E+01  0.51100000000E-03 0. -1.
        -11    1    3    3    0    0 -0.18652881100E+02 -0.14273725458E+02 -0.18837903328E+02  0.30108733183E+02  0.51100000000E-03 0.  1.
         12    1    3    3    0    0  0.14314991510E+00 -0.37697208688E+01 -0.15433593303E+02  0.15887954229E+02  0.00000000000E+00 0. -1.
</event>
<event>
 7    1  0.4519840E-010  0.4778727E+02  0.7816164E-02  0.1312668E+00
        -11   -1    0    0    0    0  0.00000000000E+00  0.00000000000E+00  0.45593999997E+02  0.45594000000E+02  0.51100000000E-03 0. -1.
         11   -1    0    0    0    0 -0.00000000000E+00 -0.00000000000E+00 -0.45593999997E+02  0.45594000000E+02  0.51100000000E-03 0.  1.
    9900012    2    1    2    0    0 -0.19497486082E+02 -0.28776984254E+02 -0.25987618682E+02  0.47787272920E+02  0.20000008553E+02 0.  0.
         12    1    1    2    0    0  0.19497486082E+02  0.28776984254E+02  0.25987618682E+02  0.43400727080E+02  0.00000000000E+00 0. -1.
         11    1    3    3    0    0 -0.80649330865E+01 -0.12382453586E+02 -0.21862838763E+02  0.26388482744E+02  0.51100000000E-03 0. -1.
        -11    1    3    3    0    0 -0.21284983658E+01 -0.85978460144E+01 -0.18509704056E+01  0.90487321257E+01  0.51100000000E-03 0.  1.
        -12    1    3    3    0    0 -0.93040546302E+01 -0.77966846536E+01 -0.22738095138E+01  0.12350058051E+02  0.00000000000E+00 0.  1.
</event>
<event>
 7    1  0.4519840E-010  0.4778727E+02  0.7816164E-02  0.1312668E+00
        -11   -1    0    0    0    0  0.00000000000E+00  0.00000000000E+00  0.45593999997E+02  0.45594000000E+02  0.51100000000E-03 0. -1.
         11   -1    0    0    0    0 -0.00000000000E+00 -0.00000000000E+00 -0.45593999997E+02  0.45594000000E+02  0.51100000000E-03 0.  1.
    9900012    2    1    2    0    0  0.94083433401E+01 -0.97317978229E+01  0.41235885206E+02  0.47787273716E+02  0.20000012182E+02 0.  0.
        -12    1    1    2    0    0 -0.94083433401E+01  0.97317978229E+01 -0.41235885206E+02  0.43400726284E+02  0.00000000000E+00 0.  1.
         11    1    3    3    0    0  0.92814874331E+01 -0.37296779552E+01  0.22998062628E+02  0.25079222307E+02  0.51100000000E-03 0. -1.
        -11    1    3    3    0    0  0.55844336916E+01 -0.93416354323E+00  0.51722341364E+01  0.76688048225E+01  0.51100000000E-03 0.  1.
         12    1    3    3    0    0 -0.54575777846E+01 -0.50679563244E+01  0.13065588441E+02  0.15039246587E+02  0.00000000000E+00 0. -1.
</event>
<event>
 7    1  0.4519840E-010  0.4778724E+02  0.7816164E-02  0.1312668E+00
        -11   -1    0    0    0    0  0.00000000000E+00  0.00000000000E+00  0.45593999997E+02  0.45594000000E+02  0.51100000000E-03 0. -1.
         11   -1    0    0    0    0 -0.00000000000E+00 -0.00000000000E+00 -0.45593999997E+02  0.45594000000E+02  0.51100000000E-03 0.  1.
    9900012    2    1    2    0    0  0.47346513240E+01 -0.36539147367E+02  0.22936859412E+02  0.47787242712E+02  0.19999870822E+02 0.  0.
        -12    1    1    2    0    0 -0.47346513240E+01  0.36539147367E+02 -0.22936859412E+02  0.43400757288E+02  0.00000000000E+00 0.  1.
         11    1    3    3    0    0  0.66266806009E+00 -0.88808677800E+01  0.46920702283E+01  0.10066005403E+02  0.51100000000E-03 0. -1.
        -11    1    3    3    0    0  0.82823480528E+01 -0.11561933087E+02  0.18138113547E+01  0.14337555505E+02  0.51100000000E-03 0.  1.
         12    1    3    3    0    0 -0.42103647889E+01 -0.16096346500E+02  0.16430977829E+02  0.23383681804E+02  0.00000000000E+00 0. -1.
</event>
<event>
 7    1  0.4519840E-010  0.4778726E+02  0.7816164E-02  0.1312668E+00
        -11   -1    0    0    0    0  0.00000000000E+00  0.00000000000E+00  0.45593999997E+02  0.45594000000E+02  0.51100000000E-03 0. -1.
         11   -1    0    0    0    0 -0.00000000000E+00 -0.00000000000E+00 -0.45593999997E+02  0.45594000000E+02  0.51100000000E-03 0.  1.
    9900012    2    1    2    0    0 -0.20726181498E+01 -0.15554081308E+02  0.40464783569E+02  0.47787263824E+02  0.19999967081E+02 0.  0.
        -12    1    1    2    0    0  0.20726181498E+01  0.15554081308E+02 -0.40464783569E+02  0.43400736176E+02  0.00000000000E+00 0.  1.
         11    1    3    3    0    0  0.36839579147E+01 -0.11919553927E+01  0.64292379360E+01  0.75051585109E+01  0.51100000000E-03 0. -1.
        -11    1    3    3    0    0  0.34933652118E+01 -0.19457180944E+00  0.12001950231E+02  0.12501530639E+02  0.51100000000E-03 0.  1.
         12    1    3    3    0    0 -0.92499412763E+01 -0.14167554105E+02  0.22033595401E+02  0.27780574675E+02  0.00000000000E+00 0. -1.
</event>
<event>
 7    1  0.4519840E-010  0.4778727E+02  0.7816164E-02  0.1312668E+00
        -11   -1    0    0    0    0  0.00000000000E+00  0.00000000000E+00  0.45593999997E+02  0.45594000000E+02  0.51100000000E-03 0. -1.
         11   -1    0    0    0    0 -0.00000000000E+00 -0.00000000000E+00 -0.45593999997E+02  0.45594000000E+02  0.51100000000E-03 0.  1.
    9900012    2    1    2    0    0 -0.19326509970E+02  0.20967153205E+02 -0.32718310180E+02  0.47787270488E+02  0.19999997463E+02 0.  0.
         12    1    1    2    0    0  0.19326509970E+02 -0.20967153205E+02  0.32718310180E+02  0.43400729512E+02  0.00000000000E+00 0. -1.
         11    1    3    3    0    0 -0.46969908435E+01  0.93732149563E+01 -0.44804202929E+00  0.10493789760E+02  0.51100000000E-03 0. -1.
        -11    1    3    3    0    0 -0.64554139762E+01  0.51225205353E+01 -0.15238280599E+02  0.17323907819E+02  0.51100000000E-03 0.  1.
         12    1    3    3    0    0 -0.81741051501E+01  0.64714177132E+01 -0.17031987552E+02  0.19969572909E+02  0.00000000000E+00 0. -1.
</event>
<event>
 7    1  0.4519840E-010  0.4778727E+02  0.7816164E-02  0.1312668E+00
        -11   -1    0    0    0    0  0.00000000000E+00  0.00000000000E+00  0.45593999997E+02  0.45594000000E+02  0.51100000000E-03 0. -1.
         11   -1    0    0    0    0 -0.00000000000E+00 -0.00000000000E+00 -0.45593999997E+02  0.45594000000E+02  0.51100000000E-03 0.  1.
    9900012    2    1    2    0    0  0.23554803322E+02  0.26409646534E+02  0.25126178982E+02  0.47787273510E+02  0.20000011242E+02 0.  0.
        -12    1    1    2    0    0 -0.23554803322E+02 -0.26409646534E+02 -0.25126178982E+02  0.43400726490E+02  0.00000000000E+00 0.  1.
         11    1    3    3    0    0  0.14619848666E+01  0.42695685919E+01  0.62321719716E+01  0.76945814347E+01  0.51100000000E-03 0. -1.
        -11    1    3    3    0    0  0.24680077953E+02  0.18849329799E+02  0.17676417707E+02  0.35733167014E+02  0.51100000000E-03 0.  1.
        -12    1    3    3    0    0 -0.25872594972E+01  0.32907481437E+01  0.12175893032E+01  0.43595250615E+01  0.00000000000E+00 0.  1.
</event>
<event>
 7    1  0.4519840E-010  0.4778727E+02  0.7816164E-02  0.1312668E+00
        -11   -1    0    0    0    0  0.00000000000E+00  0.00000000000E+00  0.45593999997E+02  0.45594000000E+02  0.51100000000E-03 0. -1.
         11   -1    0    0    0    0 -0.00000000000E+00 -0.00000000000E+00 -0.45593999997E+02  0.45594000000E+02  0.51100000000E-03 0.  1.
    9900012    2    1    2    0    0 -0.71237857318E+01  0.62248844856E+01 -0.42357122468E+02  0.47787270354E+02  0.19999996853E+02 0.  0.
         12    1    1    2    0    0  0.71237857318E+01 -0.62248844856E+01  0.42357122468E+02  0.43400729646E+02  0.00000000000E+00 0. -1.
         11    1    3    3    0    0 -0.38980278147E+01 -0.21632510150E+01 -0.19739908223E+01  0.48755426186E+01  0.51100000000E-03 0. -1.
        -11    1    3    3    0    0 -0.61032059985E+01  0.25272753146E+01 -0.11163413878E+02  0.12971432213E+02  0.51100000000E-03 0.  1.
        -12    1    3    3    0    0  0.28774480814E+01  0.58608601861E+01 -0.29219717768E+02  0.29940295523E+02  0.00000000000E+00 0.  1.
</event>
<event>
 7    1  0.4519840E-010  0.4778727E+02  0.7816164E-02  0.1312668E+00
        -11   -1    0    0    0    0  0.00000000000E+00  0.00000000000E+00  0.45593999997E+02  0.45594000000E+02  0.51100000000E-03 0. -1.
         11   -1    0    0    0    0 -0.00000000000E+00 -0.00000000000E+00 -0.45593999997E+02  0.45594000000E+02  0.51100000000E-03 0.  1.
    9900012    2    1    2    0    0 -0.62929827278E+01 -0.21096635024E+02 -0.37402588406E+02  0.47787271199E+02  0.20000000705E+02 0.  0.
         12    1    1    2    0    0  0.62929827278E+01  0.21096635024E+02  0.37402588406E+02  0.43400728801E+02  0.00000000000E+00 0. -1.
         11    1    3    3    0    0 -0.12467480019E+01  0.30556667867E-01 -0.45900054394E+00  0.13289078413E+01  0.51100000000E-03 0. -1.
        -11    1    3    3    0    0  0.20263383943E+01 -0.20301724180E+02 -0.31345858379E+02  0.37400920975E+02  0.51100000000E-03 0.  1.
        -12    1    3    3    0    0 -0.70725731203E+01 -0.82546751241E+00 -0.55977294830E+01  0.90574423830E+01  0.00000000000E+00 0.  1.
</event>
<event>
 7    1  0.4519840E-010  0.4778726E+02  0.7816164E-02  0.1312668E+00
        -11   -1    0    0    0    0  0.00000000000E+00  0.00000000000E+00  0.45593999997E+02  0.45594000000E+02  0.51100000000E-03 0. -1.
         11   -1    0    0    0    0 -0.00000000000E+00 -0.00000000000E+00 -0.45593999997E+02  0.45594000000E+02  0.51100000000E-03 0.  1.
    9900012    2    1    2    0    0 -0.24625118286E+02  0.26878638479E+02  0.23553481919E+02  0.47787260749E+02  0.19999953057E+02 0.  0.
        -12    1    1    2    0    0  0.24625118286E+02 -0.26878638479E+02 -0.23553481919E+02  0.43400739251E+02  0.00000000000E+00 0.  1.
         11    1    3    3    0    0 -0.76931831902E+01  0.98001177406E+01  0.31429199681E+01  0.12849331559E+02  0.51100000000E-03 0. -1.
        -11    1    3    3    0    0 -0.38723424124E+01 -0.17769945723E+01  0.38915891845E-01  0.42607816391E+01  0.51100000000E-03 0.  1.
        -12    1    3    3    0    0 -0.13059592683E+02  0.18855515311E+02  0.20371646059E+02  0.30677147550E+02  0.00000000000E+00 0.  1.
</event>
<event>
 7    1  0.4519840E-010  0.4778726E+02  0.7816164E-02  0.1312668E+00
        -11   -1    0    0    0    0  0.00000000000E+00  0.00000000000E+00  0.45593999997E+02  0.45594000000E+02  0.51100000000E-03 0. -1.
         11   -1    0    0    0    0 -0.00000000000E+00 -0.00000000000E+00 -0.45593999997E+02  0.45594000000E+02  0.51100000000E-03 0.  1.
    9900012    2    1    2    0    0  0.13126963010E+02 -0.38338568354E+02 -0.15539017599E+02  0.47787262111E+02  0.19999959271E+02 0.  0.
         12    1    1    2    0    0 -0.13126963010E+02  0.38338568354E+02  0.15539017599E+02  0.43400737889E+02  0.00000000000E+00 0. -1.
         11    1    3    3    0    0  0.53225155592E+00 -0.61294629908E+01 -0.60579549359E+01  0.86343747047E+01  0.51100000000E-03 0. -1.
        -11    1    3    3    0    0  0.12664348023E+02 -0.32918312838E+02 -0.11431230852E+02  0.37076597336E+02  0.51100000000E-03 0.  1.
         12    1    3    3    0    0 -0.69636569249E-01  0.70920747435E+00  0.19501681888E+01  0.20762900708E+01  0.00000000000E+00 0. -1.
</event>
<event>
 7    1  0.4519840E-010  0.4778727E+02  0.7816164E-02  0.1312668E+00
        -11   -1    0    0    0    0  0.00000000000E+00  0.00000000000E+00  0.45593999997E+02  0.45594000000E+02  0.51100000000E-03 0. -1.
         11   -1    0    0    0    0 -0.00000000000E+00 -0.00000000000E+00 -0.45593999997E+02  0.45594000000E+02  0.51100000000E-03 0.  1.
    9900012    2    1    2    0    0  0.18444020014E+02  0.21694860218E+02  0.32753234551E+02  0.47787271807E+02  0.20000003476E+02 0.  0.
        -12    1    1    2    0    0 -0.18444020014E+02 -0.21694860218E+02 -0.32753234551E+02  0.43400728193E+02  0.00000000000E+00 0.  1.
         11    1    3    3    0    0  0.23487065167E+01  0.11511314696E+02  0.12698786963E+02  0.17299883783E+02  0.51100000000E-03 0. -1.
        -11    1    3    3    0    0  0.11425372456E+02  0.12296149600E+02  0.10954848537E+02  0.20043531063E+02  0.51100000000E-03 0.  1.
        -12    1    3    3    0    0  0.46699410413E+01 -0.21126040778E+01  0.90995990514E+01  0.10443856961E+02  0.00000000000E+00 0.  1.
</event>
<event>
 7    1  0.4519840E-010  0.4778728E+02  0.7816164E-02  0.1312668E+00
        -11   -1    0    0    0    0  0.00000000000E+00  0.00000000000E+00  0.45593999997E+02  0.45594000000E+02  0.51100000000E-03 0. -1.
         11   -1    0    0    0    0 -0.00000000000E+00 -0.00000000000E+00 -0.45593999997E+02  0.45594000000E+02  0.51100000000E-03 0.  1.
    9900012    2    1    2    0    0  0.14128551438E+02  0.19732681707E+02  0.35980936956E+02  0.47787279760E+02  0.20000039738E+02 0.  0.
        -12    1    1    2    0    0 -0.14128551438E+02 -0.19732681707E+02 -0.35980936956E+02  0.43400720240E+02  0.00000000000E+00 0.  1.
         11    1    3    3    0    0  0.78413377550E-01  0.22813056574E+01  0.26114086224E+01  0.34684231885E+01  0.51100000000E-03 0.  1.
        -11    1    3    3    0    0  0.17390228114E+02  0.80970507886E+01  0.20736857848E+02  0.28248885624E+02  0.51100000000E-03 0. -1.
         12    1    3    3    0    0 -0.33400900530E+01  0.93543252612E+01  0.12632670486E+02  0.16069970947E+02  0.00000000000E+00 0. -1.
</event>
<event>
 7    1  0.4519840E-010  0.4778728E+02  0.7816164E-02  0.1312668E+00
        -11   -1    0    0    0    0  0.00000000000E+00  0.00000000000E+00  0.45593999997E+02  0.45594000000E+02  0.51100000000E-03 0. -1.
         11   -1    0    0    0    0 -0.00000000000E+00 -0.00000000000E+00 -0.45593999997E+02  0.45594000000E+02  0.51100000000E-03 0.  1.
    9900012    2    1    2    0    0  0.28054938298E+02  0.12534641880E+02 -0.30650058294E+02  0.47787275543E+02  0.20000020510E+02 0.  0.
         12    1    1    2    0    0 -0.28054938298E+02 -0.12534641880E+02  0.30650058294E+02  0.43400724457E+02  0.00000000000E+00 0. -1.
         11    1    3    3    0    0  0.23524135439E+02  0.15065123935E+02 -0.22100948872E+02  0.35620146667E+02  0.51100000000E-03 0. -1.
        -11    1    3    3    0    0  0.50302027773E+01  0.10836906323E+00 -0.79612316671E+01  0.94178497415E+01  0.51100000000E-03 0.  1.
         12    1    3    3    0    0 -0.49939991789E+00 -0.26388511180E+01 -0.58787775527E+00  0.27492791339E+01  0.00000000000E+00 0. -1.
</event>
<event>
 7    1  0.4519840E-010  0.4778727E+02  0.7816164E-02  0.1312668E+00
        -11   -1    0    0    0    0  0.00000000000E+00  0.00000000000E+00  0.45593999997E+02  0.45594000000E+02  0.51100000000E-03 0. -1.
         11   -1    0    0    0    0 -0.00000000000E+00 -0.00000000000E+00 -0.45593999997E+02  0.45594000000E+02  0.51100000000E-03 0.  1.
    9900012    2    1    2    0    0  0.25357147127E+02  0.50680709803E+01  0.34856175357E+02  0.47787271730E+02  0.20000003125E+02 0.  0.
        -12    1    1    2    0    0 -0.25357147127E+02 -0.50680709803E+01 -0.34856175357E+02  0.43400728270E+02  0.00000000000E+00 0.  1.
         11    1    3    3    0    0  0.86078689128E+01  0.21921813042E+01  0.60201762422E+01  0.10730498047E+02  0.51100000000E-03 0. -1.
        -11    1    3    3    0    0  0.16345514497E+02 -0.24282184970E+00  0.12929591762E+02  0.20842484257E+02  0.51100000000E-03 0.  1.
        -12    1    3    3    0    0  0.40376371770E+00  0.31187115258E+01  0.15906407352E+02  0.16214289425E+02  0.00000000000E+00 0.  1.
</event>
<event>
 7    1  0.4519840E-010  0.4778728E+02  0.7816164E-02  0.1312668E+00
        -11   -1    0    0    0    0  0.00000000000E+00  0.00000000000E+00  0.45593999997E+02  0.45594000000E+02  0.51100000000E-03 0. -1.
         11   -1    0    0    0    0 -0.00000000000E+00 -0.00000000000E+00 -0.45593999997E+02  0.45594000000E+02  0.51100000000E-03 0.  1.
    9900012    2    1    2    0    0  0.13019065374E+02  0.29557881051E+02 -0.28990656077E+02  0.47787279554E+02  0.20000038798E+02 0.  0.
         12    1    1    2    0    0 -0.13019065374E+02 -0.29557881051E+02  0.28990656077E+02  0.43400720446E+02  0.00000000000E+00 0. -1.
         11    1    3    3    0    0  0.63309003131E+00  0.15754177473E+01  0.20899999474E+01  0.26927391458E+01  0.51100000000E-03 0. -1.
        -11    1    3    3    0    0  0.19142186473E+01  0.87061963354E+01 -0.28832617766E+01  0.93688465882E+01  0.51100000000E-03 0.  1.
         12    1    3    3    0    0  0.10471756695E+02  0.19276266969E+02 -0.28197394248E+02  0.35725693820E+02  0.00000000000E+00 0. -1.
</event>
<event>
 7    1  0.4519840E-010  0.4778727E+02  0.7816164E-02  0.1312668E+00
        -11   -1    0    0    0    0  0.00000000000E+00  0.00000000000E+00  0.45593999997E+02  0.45594000000E+02  0.51100000000E-03 0.  1.
         11   -1    0    0    0    0 -0.00000000000E+00 -0.00000000000E+00 -0.45593999997E+02  0.45594000000E+02  0.51100000000E-03 0. -1.
    9900012    2    1    2    0    0  0.36406907993E+02 -0.20101299067E+02 -0.12413618753E+02  0.47787272998E+02  0.20000008906E+02 0.  0.
         12    1    1    2    0    0 -0.36406907993E+02  0.20101299067E+02  0.12413618753E+02  0.43400727002E+02  0.00000000000E+00 0. -1.
         11    1    3    3    0    0  0.24494327463E+01  0.24909441334E+01 -0.29646241437E+01  0.45818686175E+01  0.51100000000E-03 0. -1.
        -11    1    3    3    0    0  0.16204271402E+02 -0.64645150909E+01 -0.54602540985E-01  0.17446241679E+02  0.51100000000E-03 0.  1.
        -12    1    3    3    0    0  0.17753203845E+02 -0.16127728109E+02 -0.93943920687E+01  0.25759162701E+02  0.00000000000E+00 0.  1.
</event>
<event>
 7    1  0.4519840E-010  0.4778727E+02  0.7816164E-02  0.1312668E+00
        -11   -1    0    0    0    0  0.00000000000E+00  0.00000000000E+00  0.45593999997E+02  0.45594000000E+02  0.51100000000E-03 0. -1.
         11   -1    0    0    0    0 -0.00000000000E+00 -0.00000000000E+00 -0.45593999997E+02  0.45594000000E+02  0.51100000000E-03 0.  1.
    9900012    2    1    2    0    0 -0.40309559364E+01  0.52358353002E+01  0.42894761663E+02  0.47787272412E+02  0.20000006234E+02 0.  0.
        -12    1    1    2    0    0  0.40309559364E+01 -0.52358353002E+01 -0.42894761663E+02  0.43400727588E+02  0.00000000000E+00 0.  1.
         11    1    3    3    0    0  0.78040538316E+00 -0.75335114109E+00  0.40958679637E+01  0.42370632685E+01  0.51100000000E-03 0.  1.
        -11    1    3    3    0    0 -0.11200258098E+02  0.11089843098E+01  0.17742665171E+02  0.21011372999E+02  0.51100000000E-03 0. -1.
         12    1    3    3    0    0  0.63888967789E+01  0.48802021315E+01  0.21056228528E+02  0.22538836144E+02  0.00000000000E+00 0. -1.
</event>
<event>
 7    1  0.4519840E-010  0.4778727E+02  0.7816164E-02  0.1312668E+00
        -11   -1    0    0    0    0  0.00000000000E+00  0.00000000000E+00  0.45593999997E+02  0.45594000000E+02  0.51100000000E-03 0. -1.
         11   -1    0    0    0    0 -0.00000000000E+00 -0.00000000000E+00 -0.45593999997E+02  0.45594000000E+02  0.51100000000E-03 0.  1.
    9900012    2    1    2    0    0  0.19717657842E+02  0.88406346331E+01 -0.37638819147E+02  0.47787267768E+02  0.19999985060E+02 0.  0.
         12    1    1    2    0    0 -0.19717657842E+02 -0.88406346331E+01  0.37638819147E+02  0.43400732232E+02  0.00000000000E+00 0. -1.
         11    1    3    3    0    0  0.14940622988E+01 -0.13106766968E+01 -0.61935534545E+01  0.65046291371E+01  0.51100000000E-03 0. -1.
        -11    1    3    3    0    0  0.16855325626E+02  0.59036352543E+01 -0.12450889213E+02  0.21771071485E+02  0.51100000000E-03 0.  1.
        -12    1    3    3    0    0  0.13682699177E+01  0.42476760755E+01 -0.18994376480E+02  0.19511567145E+02  0.00000000000E+00 0.  1.
</event>
<event>
 7    1  0.4519840E-010  0.4778728E+02  0.7816164E-02  0.1312668E+00
        -11   -1    0    0    0    0  0.00000000000E+00  0.00000000000E+00  0.45593999997E+02  0.45594000000E+02  0.51100000000E-03 0. -1.
         11   -1    0    0    0    0 -0.00000000000E+00 -0.00000000000E+00 -0.45593999997E+02  0.45594000000E+02  0.51100000000E-03 0.  1.
    9900012    2    1    2    0    0  0.13455793970E+01  0.30338900939E+02 -0.31005859839E+02  0.47787276061E+02  0.20000022872E+02 0.  0.
         12    1    1    2    0    0 -0.13455793970E+01 -0.30338900939E+02  0.31005859839E+02  0.43400723939E+02  0.00000000000E+00 0. -1.
         11    1    3    3    0    0  0.19063824707E+01  0.58434468800E+01 -0.11286604564E+02  0.12851755071E+02  0.51100000000E-03 0. -1.
        -11    1    3    3    0    0 -0.67501058224E+00  0.10059165430E+02 -0.17684047243E+02  0.20356030447E+02  0.51100000000E-03 0.  1.
         12    1    3    3    0    0  0.11420750856E+00  0.14436288629E+02 -0.20352080322E+01  0.14579490542E+02  0.00000000000E+00 0. -1.
</event>
<event>
 7    1  0.4519840E-010  0.4778727E+02  0.7816164E-02  0.1312668E+00
        -11   -1    0    0    0    0  0.00000000000E+00  0.00000000000E+00  0.45593999997E+02  0.45594000000E+02  0.51100000000E-03 0. -1.
         11   -1    0    0    0    0 -0.00000000000E+00 -0.00000000000E+00 -0.45593999997E+02  0.45594000000E+02  0.51100000000E-03 0.  1.
    9900012    2    1    2    0    0  0.23721708530E+02 -0.69102481572E+01 -0.35681259896E+02  0.47787270825E+02  0.19999998998E+02 0.  0.
         12    1    1    2    0    0 -0.23721708530E+02  0.69102481572E+01  0.35681259896E+02  0.43400729175E+02  0.00000000000E+00 0. -1.
         11    1    3    3    0    0  0.10420013078E+02 -0.12214185205E+01 -0.17643927210E+02  0.20527462176E+02  0.51100000000E-03 0. -1.
        -11    1    3    3    0    0  0.13482379294E+02  0.10889563831E+01 -0.10513447287E+02  0.17131635986E+02  0.51100000000E-03 0.  1.
         12    1    3    3    0    0 -0.18068384240E+00 -0.67777860198E+01 -0.75238853999E+01  0.10128172663E+02  0.00000000000E+00 0. -1.
</event>
<event>
 7    1  0.4519840E-010  0.4778727E+02  0.7816164E-02  0.1312668E+00
        -11   -1    0    0    0    0  0.00000000000E+00  0.00000000000E+00  0.45593999997E+02  0.45594000000E+02  0.51100000000E-03 0. -1.
         11   -1    0    0    0    0 -0.00000000000E+00 -0.00000000000E+00 -0.45593999997E+02  0.45594000000E+02  0.51100000000E-03 0.  1.
    9900012    2    1    2    0    0  0.30095952180E+02  0.11155419272E+02 -0.29213241027E+02  0.47787272264E+02  0.20000005561E+02 0.  0.
         12    1    1    2    0    0 -0.30095952180E+02 -0.11155419272E+02  0.29213241027E+02  0.43400727736E+02  0.00000000000E+00 0. -1.
         11    1    3    3    0    0 -0.10776295859E+01  0.15020097403E+01 -0.31094847682E+01  0.36174873281E+01  0.51100000000E-03 0. -1.
        -11    1    3    3    0    0  0.88767347807E+00  0.48924199579E+01 -0.37458617971E+01  0.62253689137E+01  0.51100000000E-03 0.  1.
        -12    1    3    3    0    0  0.30285908287E+02  0.47609895736E+01 -0.22357894462E+02  0.37944416022E+02  0.00000000000E+00 0.  1.
</event>
<event>
 7    1  0.4519840E-010  0.4778727E+02  0.7816164E-02  0.1312668E+00
        -11   -1    0    0    0    0  0.00000000000E+00  0.00000000000E+00  0.45593999997E+02  0.45594000000E+02  0.51100000000E-03 0. -1.
         11   -1    0    0    0    0 -0.00000000000E+00 -0.00000000000E+00 -0.45593999997E+02  0.45594000000E+02  0.51100000000E-03 0.  1.
    9900012    2    1    2    0    0  0.21504323365E+02 -0.33103045822E+02  0.18038173645E+02  0.47787271036E+02  0.19999999964E+02 0.  0.
        -12    1    1    2    0    0 -0.21504323365E+02  0.33103045822E+02 -0.18038173645E+02  0.43400728964E+02  0.00000000000E+00 0.  1.
         11    1    3    3    0    0  0.40054254456E+00 -0.94899014712E+01  0.87512883613E+01  0.12915251159E+02  0.51100000000E-03 0. -1.
        -11    1    3    3    0    0  0.60362651984E+01 -0.10170470681E+02  0.86802700839E+01  0.14670448541E+02  0.51100000000E-03 0.  1.
        -12    1    3    3    0    0  0.15067515622E+02 -0.13442673671E+02  0.60661519997E+00  0.20201571336E+02  0.00000000000E+00 0.  1.
</event>
<event>
 7    1  0.4519840E-010  0.4778727E+02  0.7816164E-02  0.1312668E+00
        -11   -1    0    0    0    0  0.00000000000E+00  0.00000000000E+00  0.45593999997E+02  0.45594000000E+02  0.51100000000E-03 0. -1.
         11   -1    0    0    0    0 -0.00000000000E+00 -0.00000000000E+00 -0.45593999997E+02  0.45594000000E+02  0.51100000000E-03 0.  1.
    9900012    2    1    2    0    0  0.33185402133E+02  0.85366272133E+01 -0.26636029617E+02  0.47787274284E+02  0.20000014771E+02 0.  0.
         12    1    1    2    0    0 -0.33185402133E+02 -0.85366272133E+01  0.26636029617E+02  0.43400725716E+02  0.00000000000E+00 0. -1.
         11    1    3    3    0    0  0.57238624429E+01  0.67509288452E+01 -0.11046557109E+02  0.14155001440E+02  0.51100000000E-03 0. -1.
        -11    1    3    3    0    0  0.66674275848E+01  0.53269052690E+01 -0.28860889245E+01  0.90088856072E+01  0.51100000000E-03 0.  1.
        -12    1    3    3    0    0  0.20794112105E+02 -0.35412069009E+01 -0.12703383583E+02  0.24623387237E+02  0.00000000000E+00 0.  1.
</event>
<event>
 7    1  0.4519840E-010  0.4778727E+02  0.7816164E-02  0.1312668E+00
        -11   -1    0    0    0    0  0.00000000000E+00  0.00000000000E+00  0.45593999997E+02  0.45594000000E+02  0.51100000000E-03 0. -1.
         11   -1    0    0    0    0 -0.00000000000E+00 -0.00000000000E+00 -0.45593999997E+02  0.45594000000E+02  0.51100000000E-03 0.  1.
    9900012    2    1    2    0    0  0.36070392148E+01  0.29166005126E+02  0.31936761868E+02  0.47787270219E+02  0.19999996237E+02 0.  0.
        -12    1    1    2    0    0 -0.36070392148E+01 -0.29166005126E+02 -0.31936761868E+02  0.43400729781E+02  0.00000000000E+00 0.  1.
         11    1    3    3    0    0  0.84074440396E+00  0.57178367449E+01  0.15515779937E+01  0.59839704817E+01  0.51100000000E-03 0. -1.
        -11    1    3    3    0    0  0.72881966436E+01  0.21723223970E+02  0.28595805286E+02  0.36643367069E+02  0.51100000000E-03 0.  1.
        -12    1    3    3    0    0 -0.45219018328E+01  0.17249444117E+01  0.17893785880E+01  0.51599326682E+01  0.00000000000E+00 0.  1.
</event>
<event>
 7    1  0.4519840E-010  0.4778727E+02  0.7816164E-02  0.1312668E+00
        -11   -1    0    0    0    0  0.00000000000E+00  0.00000000000E+00  0.45593999997E+02  0.45594000000E+02  0.51100000000E-03 0. -1.
         11   -1    0    0    0    0 -0.00000000000E+00 -0.00000000000E+00 -0.45593999997E+02  0.45594000000E+02  0.51100000000E-03 0.  1.
    9900012    2    1    2    0    0 -0.24082139797E+02 -0.10666901522E+02  0.34494800649E+02  0.47787268242E+02  0.19999987223E+02 0.  0.
        -12    1    1    2    0    0  0.24082139797E+02  0.10666901522E+02 -0.34494800649E+02  0.43400731758E+02  0.00000000000E+00 0.  1.
         11    1    3    3    0    0 -0.63009250973E+00 -0.41649043050E+01  0.56304377705E+01  0.70317333701E+01  0.51100000000E-03 0. -1.
        -11    1    3    3    0    0 -0.15855394724E+02 -0.90042273009E+01  0.11288173655E+02  0.21445104706E+02  0.51100000000E-03 0.  1.
         12    1    3    3    0    0 -0.75966525636E+01  0.25022300835E+01  0.17576189224E+02  0.19310430166E+02  0.00000000000E+00 0. -1.
</event>
<event>
 7    1  0.4519840E-010  0.4778727E+02  0.7816164E-02  0.1312668E+00
        -11   -1    0    0    0    0  0.00000000000E+00  0.00000000000E+00  0.45593999997E+02  0.45594000000E+02  0.51100000000E-03 0. -1.
         11   -1    0    0    0    0 -0.00000000000E+00 -0.00000000000E+00 -0.45593999997E+02  0.45594000000E+02  0.51100000000E-03 0.  1.
    9900012    2    1    2    0    0  0.23572568442E+02  0.91843784440E+01  0.35264780992E+02  0.47787267648E+02  0.19999984512E+02 0.  0.
        -12    1    1    2    0    0 -0.23572568442E+02 -0.91843784440E+01 -0.35264780992E+02  0.43400732352E+02  0.00000000000E+00 0.  1.
         11    1    3    3    0    0 -0.53367938380E+00  0.61818663269E+00 -0.14828805772E+01  0.16928979488E+01  0.51100000000E-03 0.  1.
        -11    1    3    3    0    0  0.28428214908E+01 -0.24216280533E+01  0.67934969801E+01  0.77522588926E+01  0.51100000000E-03 0. -1.
         12    1    3    3    0    0  0.21263426335E+02  0.10987819865E+02  0.29954164589E+02  0.38342110806E+02  0.00000000000E+00 0. -1.
</event>
<event>
 7    1  0.4519840E-010  0.4778727E+02  0.7816164E-02  0.1312668E+00
        -11   -1    0    0    0    0  0.00000000000E+00  0.00000000000E+00  0.45593999997E+02  0.45594000000E+02  0.51100000000E-03 0. -1.
         11   -1    0    0    0    0 -0.00000000000E+00 -0.00000000000E+00 -0.45593999997E+02  0.45594000000E+02  0.51100000000E-03 0.  1.
    9900012    2    1    2    0    0  0.81395981128E+00  0.32022729312E+02  0.29283199696E+02  0.47787268352E+02  0.19999987724E+02 0.  0.
        -12    1    1    2    0    0 -0.81395981128E+00 -0.32022729312E+02 -0.29283199696E+02  0.43400731648E+02  0.00000000000E+00 0.  1.
         11    1    3    3    0    0 -0.22389908986E+01  0.11167907036E+02  0.23137912100E+02  0.25789497949E+02  0.51100000000E-03 0. -1.
        -11    1    3    3    0    0  0.72851839104E+00  0.35108538246E+01  0.56071885350E+00  0.36292202355E+01  0.51100000000E-03 0.  1.
         12    1    3    3    0    0  0.23244323189E+01  0.17343968451E+02  0.55845687418E+01  0.18368550168E+02  0.00000000000E+00 0. -1.
</event>
<event>
 7    1  0.4519840E-010  0.4778727E+02  0.7816164E-02  0.1312668E+00
        -11   -1    0    0    0    0  0.00000000000E+00  0.00000000000E+00  0.45593999997E+02  0.45594000000E+02  0.51100000000E-03 0. -1.
         11   -1    0    0    0    0 -0.00000000000E+00 -0.00000000000E+00 -0.45593999997E+02  0.45594000000E+02  0.51100000000E-03 0.  1.
    9900012    2    1    2    0    0 -0.99957483305E+01  0.38933571190E+02 -0.16367208614E+02  0.47787268807E+02  0.19999989798E+02 0.  0.
         12    1    1    2    0    0  0.99957483305E+01 -0.38933571190E+02  0.16367208614E+02  0.43400731193E+02  0.00000000000E+00 0. -1.
         11    1    3    3    0    0 -0.15999859690E+01  0.20906665017E+02 -0.10496849711E+02  0.23448506378E+02  0.51100000000E-03 0. -1.
        -11    1    3    3    0    0 -0.64216200744E+01  0.17784167347E+02 -0.83687935555E+00  0.18926546962E+02  0.51100000000E-03 0.  1.
         12    1    3    3    0    0 -0.19741422871E+01  0.24273882613E+00 -0.50334795474E+01  0.54122154670E+01  0.00000000000E+00 0. -1.
</event>
<event>
 7    1  0.5933878E-010  0.4778727E+02  0.7816164E-02  0.1312668E+00
        -11   -1    0    0    0    0  0.00000000000E+00  0.00000000000E+00  0.45593999997E+02  0.45594000000E+02  0.51100000000E-03 0. -1.
         11   -1    0    0    0    0 -0.00000000000E+00 -0.00000000000E+00 -0.45593999997E+02  0.45594000000E+02  0.51100000000E-03 0.  1.
    9900012    2    1    2    0    0 -0.38763734606E+01  0.34747580478E+02 -0.25713861501E+02  0.47787270818E+02  0.19999998967E+02 0.  0.
         12    1    1    2    0    0  0.38763734606E+01 -0.34747580478E+02  0.25713861501E+02  0.43400729182E+02  0.00000000000E+00 0. -1.
         11    1    3    3    0    0 -0.36376826101E+01  0.12395763372E+01 -0.11567951223E+01  0.40134099571E+01  0.51100000000E-03 0. -1.
        -11    1    3    3    0    0  0.17450713449E+00  0.25126167151E+01 -0.84969237243E+01  0.88623590841E+01  0.51100000000E-03 0.  1.
        -12    1    3    3    0    0 -0.41319798507E+00  0.30995387425E+02 -0.16060142654E+02  0.34911501777E+02  0.00000000000E+00 0.  1.
</event>
<event>
 7    1  0.4519840E-010  0.4778727E+02  0.7816164E-02  0.1312668E+00
        -11   -1    0    0    0    0  0.00000000000E+00  0.00000000000E+00  0.45593999997E+02  0.45594000000E+02  0.51100000000E-03 0. -1.
         11   -1    0    0    0    0 -0.00000000000E+00 -0.00000000000E+00 -0.45593999997E+02  0.45594000000E+02  0.51100000000E-03 0.  1.
    9900012    2    1    2    0    0 -0.25513906754E+02  0.93292752318E+01 -0.33847132224E+02  0.47787272195E+02  0.20000005244E+02 0.  0.
         12    1    1    2    0    0  0.25513906754E+02 -0.93292752318E+01  0.33847132224E+02  0.43400727805E+02  0.00000000000E+00 0. -1.
         11    1    3    3    0    0 -0.76380578691E+01 -0.35117989538E+00 -0.13653759668E+02  0.15648910782E+02  0.51100000000E-03 0. -1.
        -11    1    3    3    0    0 -0.10861302095E+02  0.69598225139E+01 -0.20922300664E+02  0.24579456421E+02  0.51100000000E-03 0.  1.
         12    1    3    3    0    0 -0.70145467903E+01  0.27206326133E+01  0.72892810726E+00  0.75589049918E+01  0.00000000000E+00 0. -1.
</event>
<event>
 7    1  0.4519840E-010  0.4778727E+02  0.7816164E-02  0.1312668E+00
        -11   -1    0    0    0    0  0.00000000000E+00  0.00000000000E+00  0.45593999997E+02  0.45594000000E+02  0.51100000000E-03 0. -1.
         11   -1    0    0    0    0 -0.00000000000E+00 -0.00000000000E+00 -0.45593999997E+02  0.45594000000E+02  0.51100000000E-03 0.  1.
    9900012    2    1    2    0    0  0.23577383641E+02  0.23824761470E+02  0.27570114023E+02  0.47787268835E+02  0.19999989925E+02 0.  0.
        -12    1    1    2    0    0 -0.23577383641E+02 -0.23824761470E+02 -0.27570114023E+02  0.43400731165E+02  0.00000000000E+00 0.  1.
         11    1    3    3    0    0  0.55218015466E+01  0.13137085585E+02  0.15703019901E+02  0.21205144287E+02  0.51100000000E-03 0. -1.
        -11    1    3    3    0    0 -0.40863558071E+00 -0.15426333626E+01  0.12178945798E+01  0.20074780691E+01  0.51100000000E-03 0.  1.
        -12    1    3    3    0    0  0.18464217675E+02  0.12230309248E+02  0.10649199542E+02  0.24574646478E+02  0.00000000000E+00 0.  1.
</event>
<event>
 7    1  0.4519840E-010  0.4778726E+02  0.7816164E-02  0.1312668E+00
        -11   -1    0    0    0    0  0.00000000000E+00  0.00000000000E+00  0.45593999997E+02  0.45594000000E+02  0.51100000000E-03 0. -1.
         11   -1    0    0    0    0 -0.00000000000E+00 -0.00000000000E+00 -0.45593999997E+02  0.45594000000E+02  0.51100000000E-03 0.  1.
    9900012    2    1    2    0    0 -0.14408076163E+02  0.13805195508E+02  0.38541509424E+02  0.47787262328E+02  0.19999960260E+02 0.  0.
        -12    1    1    2    0    0  0.14408076163E+02 -0.13805195508E+02 -0.38541509424E+02  0.43400737672E+02  0.00000000000E+00 0.  1.
         11    1    3    3    0    0 -0.72579042200E+01  0.32104252265E+01  0.17114813100E+02  0.18865334122E+02  0.51100000000E-03 0. -1.
        -11    1    3    3    0    0 -0.14358697529E+01  0.28509908360E+00  0.15787203437E+02  0.15854929708E+02  0.51100000000E-03 0.  1.
         12    1    3    3    0    0 -0.57143021901E+01  0.10309671198E+02  0.56394928874E+01  0.13066998499E+02  0.00000000000E+00 0. -1.
</event>
<event>
 7    1  0.4519840E-010  0.4778727E+02  0.7816164E-02  0.1312668E+00
        -11   -1    0    0    0    0  0.00000000000E+00  0.00000000000E+00  0.45593999997E+02  0.45594000000E+02  0.51100000000E-03 0. -1.
         11   -1    0    0    0    0 -0.00000000000E+00 -0.00000000000E+00 -0.45593999997E+02  0.45594000000E+02  0.51100000000E-03 0.  1.
    9900012    2    1    2    0    0 -0.40301222498E+02  0.15405637989E+02 -0.47012043370E+01  0.47787267991E+02  0.19999986078E+02 0.  0.
        -12    1    1    2    0    0  0.40301222498E+02 -0.15405637989E+02  0.47012043370E+01  0.43400732009E+02  0.00000000000E+00 0.  1.
         11    1    3    3    0    0 -0.19444595116E+01 -0.50140753958E+00  0.18547561107E+01  0.27335787540E+01  0.51100000000E-03 0. -1.
        -11    1    3    3    0    0 -0.67890931496E+01 -0.25850582475E+01 -0.42032130455E+01  0.83929322709E+01  0.51100000000E-03 0.  1.
        -12    1    3    3    0    0 -0.31567669837E+02  0.18492103776E+02 -0.23527474022E+01  0.36660756966E+02  0.00000000000E+00 0.  1.
</event>
<event>
 7    1  0.4519840E-010  0.4778727E+02  0.7816164E-02  0.1312668E+00
        -11   -1    0    0    0    0  0.00000000000E+00  0.00000000000E+00  0.45593999997E+02  0.45594000000E+02  0.51100000000E-03 0. -1.
         11   -1    0    0    0    0 -0.00000000000E+00 -0.00000000000E+00 -0.45593999997E+02  0.45594000000E+02  0.51100000000E-03 0.  1.
    9900012    2    1    2    0    0  0.18925214628E+02 -0.22978277445E+02  0.31582562737E+02  0.47787271296E+02  0.20000001147E+02 0.  0.
        -12    1    1    2    0    0 -0.18925214628E+02  0.22978277445E+02 -0.31582562737E+02  0.43400728704E+02  0.00000000000E+00 0.  1.
         11    1    3    3    0    0  0.17352455582E+02 -0.19322414741E+02  0.23556556869E+02  0.35062441414E+02  0.51100000000E-03 0. -1.
        -11    1    3    3    0    0  0.36907385535E+01 -0.18375376019E+01  0.88926899261E+01  0.98019401086E+01  0.51100000000E-03 0.  1.
        -12    1    3    3    0    0 -0.21179795075E+01 -0.18183251020E+01 -0.86668405841E+00  0.29228897735E+01  0.00000000000E+00 0.  1.
</event>
<event>
 7    1  0.4519840E-010  0.4778727E+02  0.7816164E-02  0.1312668E+00
        -11   -1    0    0    0    0  0.00000000000E+00  0.00000000000E+00  0.45593999997E+02  0.45594000000E+02  0.51100000000E-03 0. -1.
         11   -1    0    0    0    0 -0.00000000000E+00 -0.00000000000E+00 -0.45593999997E+02  0.45594000000E+02  0.51100000000E-03 0.  1.
    9900012    2    1    2    0    0 -0.10679630309E+02 -0.66553655424E+01  0.41536428084E+02  0.47787271296E+02  0.20000001148E+02 0.  0.
        -12    1    1    2    0    0  0.10679630309E+02  0.66553655424E+01 -0.41536428084E+02  0.43400728704E+02  0.00000000000E+00 0.  1.
         11    1    3    3    0    0 -0.11856681622E+02 -0.51468520033E+01  0.34523134588E+02  0.36863502365E+02  0.51100000000E-03 0. -1.
        -11    1    3    3    0    0  0.21604087504E+00 -0.28690564369E+01  0.83220681429E+01  0.88053947631E+01  0.51100000000E-03 0.  1.
        -12    1    3    3    0    0  0.96101043776E+00  0.13605428978E+01 -0.13087746466E+01  0.21183741676E+01  0.00000000000E+00 0.  1.
</event>
<event>
 7    1  0.4519840E-010  0.4778727E+02  0.7816164E-02  0.1312668E+00
        -11   -1    0    0    0    0  0.00000000000E+00  0.00000000000E+00  0.45593999997E+02  0.45594000000E+02  0.51100000000E-03 0. -1.
         11   -1    0    0    0    0 -0.00000000000E+00 -0.00000000000E+00 -0.45593999997E+02  0.45594000000E+02  0.51100000000E-03 0.  1.
    9900012    2    1    2    0    0 -0.18971090464E+01 -0.13552601289E+02  0.41186785944E+02  0.47787270043E+02  0.19999995435E+02 0.  0.
        -12    1    1    2    0    0  0.18971090464E+01  0.13552601289E+02 -0.41186785944E+02  0.43400729957E+02  0.00000000000E+00 0.  1.
         11    1    3    3    0    0 -0.13232236613E+01  0.31938703494E+01  0.45303372971E+01  0.56987441558E+01  0.51100000000E-03 0. -1.
        -11    1    3    3    0    0  0.21483326360E+01  0.12440839517E+01  0.46819575798E+01  0.52994155370E+01  0.51100000000E-03 0.  1.
         12    1    3    3    0    0 -0.27222180211E+01 -0.17990555590E+02  0.31974491067E+02  0.36789110350E+02  0.00000000000E+00 0. -1.
</event>
<event>
 7    1  0.9848852E-010  0.4778727E+02  0.7816164E-02  0.1312668E+00
        -11   -1    0    0    0    0  0.00000000000E+00  0.00000000000E+00  0.45593999997E+02  0.45594000000E+02  0.51100000000E-03 0. -1.
         11   -1    0    0    0    0 -0.00000000000E+00 -0.00000000000E+00 -0.45593999997E+02  0.45594000000E+02  0.51100000000E-03 0.  1.
    9900012    2    1    2    0    0  0.45356267386E+01  0.38864295845E+02 -0.18778125369E+02  0.47787269662E+02  0.19999993699E+02 0.  0.
         12    1    1    2    0    0 -0.45356267386E+01 -0.38864295845E+02  0.18778125369E+02  0.43400730338E+02  0.00000000000E+00 0. -1.
         11    1    3    3    0    0 -0.35047026584E+00  0.31623349703E+01 -0.82290045468E+01  0.88226814497E+01  0.51100000000E-03 0. -1.
        -11    1    3    3    0    0 -0.29771663367E+01  0.52137509529E+01 -0.12309365696E+01  0.61287783036E+01  0.51100000000E-03 0.  1.
        -12    1    3    3    0    0  0.78632633411E+01  0.30488209922E+02 -0.93181842527E+01  0.32835809909E+02  0.00000000000E+00 0.  1.
</event>
<event>
 7    1  0.4519840E-010  0.4778727E+02  0.7816164E-02  0.1312668E+00
        -11   -1    0    0    0    0  0.00000000000E+00  0.00000000000E+00  0.45593999997E+02  0.45594000000E+02  0.51100000000E-03 0. -1.
         11   -1    0    0    0    0 -0.00000000000E+00 -0.00000000000E+00 -0.45593999997E+02  0.45594000000E+02  0.51100000000E-03 0.  1.
    9900012    2    1    2    0    0 -0.14888721145E+02  0.11056409515E+02  0.39239075243E+02  0.47787271497E+02  0.20000002064E+02 0.  0.
        -12    1    1    2    0    0  0.14888721145E+02 -0.11056409515E+02 -0.39239075243E+02  0.43400728503E+02  0.00000000000E+00 0.  1.
         11    1    3    3    0    0 -0.98032664450E+01  0.32965336135E+01  0.44210524142E+01  0.11247971887E+02  0.51100000000E-03 0. -1.
        -11    1    3    3    0    0  0.92286421887E+00 -0.29306856434E+00  0.43840045071E+01  0.44896618279E+01  0.51100000000E-03 0.  1.
         12    1    3    3    0    0 -0.60083189190E+01  0.80529444657E+01  0.30434018321E+02  0.32049637782E+02  0.00000000000E+00 0. -1.
</event>
<event>
 7    1  0.4519840E-010  0.4778727E+02  0.7816164E-02  0.1312668E+00
        -11   -1    0    0    0    0  0.00000000000E+00  0.00000000000E+00  0.45593999997E+02  0.45594000000E+02  0.51100000000E-03 0. -1.
         11   -1    0    0    0    0 -0.00000000000E+00 -0.00000000000E+00 -0.45593999997E+02  0.45594000000E+02  0.51100000000E-03 0.  1.
    9900012    2    1    2    0    0 -0.28647479726E+01  0.23871918047E+02 -0.36132369968E+02  0.47787269457E+02  0.19999992761E+02 0.  0.
         12    1    1    2    0    0  0.28647479726E+01 -0.23871918047E+02  0.36132369968E+02  0.43400730543E+02  0.00000000000E+00 0. -1.
         11    1    3    3    0    0 -0.87024784786E+00  0.16869033833E+02 -0.29103098444E+02  0.33649843582E+02  0.51100000000E-03 0. -1.
        -11    1    3    3    0    0  0.15401283864E+00  0.90860739439E+01 -0.62988873581E+01  0.11056963502E+02  0.51100000000E-03 0.  1.
         12    1    3    3    0    0 -0.21485129633E+01 -0.20831897295E+01 -0.73038416582E+00  0.30804623732E+01  0.00000000000E+00 0. -1.
</event>
<event>
 7    1  0.4519840E-010  0.4778727E+02  0.7816164E-02  0.1312668E+00
        -11   -1    0    0    0    0  0.00000000000E+00  0.00000000000E+00  0.45593999997E+02  0.45594000000E+02  0.51100000000E-03 0. -1.
         11   -1    0    0    0    0 -0.00000000000E+00 -0.00000000000E+00 -0.45593999997E+02  0.45594000000E+02  0.51100000000E-03 0.  1.
    9900012    2    1    2    0    0 -0.30701352540E+02 -0.18905469707E+02  0.24158503061E+02  0.47787273015E+02  0.20000008986E+02 0.  0.
        -12    1    1    2    0    0  0.30701352540E+02  0.18905469707E+02 -0.24158503061E+02  0.43400726985E+02  0.00000000000E+00 0.  1.
         11    1    3    3    0    0  0.75717852772E+00  0.46622754374E+00  0.23059598673E-01  0.88950517233E+00  0.51100000000E-03 0. -1.
        -11    1    3    3    0    0 -0.85732207117E+01  0.20923063552E+01  0.57304335365E+01  0.10522154154E+02  0.51100000000E-03 0.  1.
         12    1    3    3    0    0 -0.22885310356E+02 -0.21464003606E+02  0.18405009926E+02  0.36375613689E+02  0.00000000000E+00 0. -1.
</event>
<event>
 7    1  0.4519840E-010  0.4778727E+02  0.7816164E-02  0.1312668E+00
        -11   -1    0    0    0    0  0.00000000000E+00  0.00000000000E+00  0.45593999997E+02  0.45594000000E+02  0.51100000000E-03 0. -1.
         11   -1    0    0    0    0 -0.00000000000E+00 -0.00000000000E+00 -0.45593999997E+02  0.45594000000E+02  0.51100000000E-03 0.  1.
    9900012    2    1    2    0    0  0.79767806113E+01  0.16338090209E+02  0.39408896083E+02  0.47787270615E+02  0.19999998044E+02 0.  0.
        -12    1    1    2    0    0 -0.79767806113E+01 -0.16338090209E+02 -0.39408896083E+02  0.43400729385E+02  0.00000000000E+00 0.  1.
         11    1    3    3    0    0  0.26691103034E+01  0.89418855747E+01  0.23530178623E+02  0.25313055401E+02  0.51100000000E-03 0. -1.
        -11    1    3    3    0    0  0.75296138542E+01  0.30689408263E-02  0.11040157288E+02  0.13363389069E+02  0.51100000000E-03 0.  1.
        -12    1    3    3    0    0 -0.22219435463E+01  0.73931356934E+01  0.48385601723E+01  0.91108261450E+01  0.00000000000E+00 0.  1.
</event>
<event>
 7    1  0.4519840E-010  0.4778724E+02  0.7816164E-02  0.1312668E+00
        -11   -1    0    0    0    0  0.00000000000E+00  0.00000000000E+00  0.45593999997E+02  0.45594000000E+02  0.51100000000E-03 0. -1.
         11   -1    0    0    0    0 -0.00000000000E+00 -0.00000000000E+00 -0.45593999997E+02  0.45594000000E+02  0.51100000000E-03 0.  1.
    9900012    2    1    2    0    0  0.30294135592E+01  0.17476756234E+02 -0.39610749779E+02  0.47787241332E+02  0.19999864527E+02 0.  0.
         12    1    1    2    0    0 -0.30294135592E+01 -0.17476756234E+02  0.39610749779E+02  0.43400758668E+02  0.00000000000E+00 0. -1.
         11    1    3    3    0    0 -0.42414936218E+00  0.48577150189E+01  0.58568585543E+00  0.49112448594E+01  0.51100000000E-03 0. -1.
        -11    1    3    3    0    0  0.21752367925E+01  0.61496724071E+01 -0.97998168307E+01  0.11772278284E+02  0.51100000000E-03 0.  1.
        -12    1    3    3    0    0  0.12783261289E+01  0.64693688079E+01 -0.30396618803E+02  0.31103718188E+02  0.00000000000E+00 0.  1.
</event>
<event>
 7    1  0.4519840E-010  0.4778727E+02  0.7816164E-02  0.1312668E+00
        -11   -1    0    0    0    0  0.00000000000E+00  0.00000000000E+00  0.45593999997E+02  0.45594000000E+02  0.51100000000E-03 0. -1.
         11   -1    0    0    0    0 -0.00000000000E+00 -0.00000000000E+00 -0.45593999997E+02  0.45594000000E+02  0.51100000000E-03 0.  1.
    9900012    2    1    2    0    0 -0.16833191597E+02  0.28962810750E+02 -0.27593880954E+02  0.47787274061E+02  0.20000013756E+02 0.  0.
         12    1    1    2    0    0  0.16833191597E+02 -0.28962810750E+02  0.27593880954E+02  0.43400725939E+02  0.00000000000E+00 0. -1.
         11    1    3    3    0    0 -0.15035249755E+02  0.81952839939E+01 -0.78011748880E+01  0.18817006798E+02  0.51100000000E-03 0. -1.
        -11    1    3    3    0    0 -0.11879238477E+01  0.40816973205E+01 -0.24973381419E+01  0.49303259670E+01  0.51100000000E-03 0.  1.
        -12    1    3    3    0    0 -0.61001799442E+00  0.16685829436E+02 -0.17295367924E+02  0.24039941296E+02  0.00000000000E+00 0.  1.
</event>
<event>
 7    1  0.4519840E-010  0.4778727E+02  0.7816164E-02  0.1312668E+00
        -11   -1    0    0    0    0  0.00000000000E+00  0.00000000000E+00  0.45593999997E+02  0.45594000000E+02  0.51100000000E-03 0. -1.
         11   -1    0    0    0    0 -0.00000000000E+00 -0.00000000000E+00 -0.45593999997E+02  0.45594000000E+02  0.51100000000E-03 0.  1.
    9900012    2    1    2    0    0 -0.16109242334E+02 -0.13402845622E+02  0.38006306409E+02  0.47787270902E+02  0.19999999352E+02 0.  0.
        -12    1    1    2    0    0  0.16109242334E+02  0.13402845622E+02 -0.38006306409E+02  0.43400729098E+02  0.00000000000E+00 0.  1.
         11    1    3    3    0    0  0.79807493171E+00  0.29484520086E+00  0.32188679183E+01  0.33294095912E+01  0.51100000000E-03 0. -1.
        -11    1    3    3    0    0 -0.12740953793E+02  0.18768281244E+00  0.20263797733E+02  0.23937180853E+02  0.51100000000E-03 0.  1.
         12    1    3    3    0    0 -0.41663634724E+01 -0.13885373635E+02  0.14523640758E+02  0.20520680458E+02  0.00000000000E+00 0. -1.
</event>
<event>
 7    1  0.4519840E-010  0.4778726E+02  0.7816164E-02  0.1312668E+00
        -11   -1    0    0    0    0  0.00000000000E+00  0.00000000000E+00  0.45593999997E+02  0.45594000000E+02  0.51100000000E-03 0. -1.
         11   -1    0    0    0    0 -0.00000000000E+00 -0.00000000000E+00 -0.45593999997E+02  0.45594000000E+02  0.51100000000E-03 0.  1.
    9900012    2    1    2    0    0  0.18762555461E+02 -0.70548372970E+01  0.38494412081E+02  0.47787262930E+02  0.19999963003E+02 0.  0.
        -12    1    1    2    0    0 -0.18762555461E+02  0.70548372970E+01 -0.38494412081E+02  0.43400737070E+02  0.00000000000E+00 0.  1.
         11    1    3    3    0    0  0.32836218303E+01 -0.86196987159E+01  0.19356566020E+02  0.21441968814E+02  0.51100000000E-03 0.  1.
        -11    1    3    3    0    0  0.71842927999E+01 -0.38923545978E+01  0.89752055720E+01  0.12137495733E+02  0.51100000000E-03 0. -1.
        -12    1    3    3    0    0  0.82946408311E+01  0.54572160167E+01  0.10162640490E+02  0.14207798383E+02  0.00000000000E+00 0.  1.
</event>
<event>
 7    1  0.4519840E-010  0.4778726E+02  0.7816164E-02  0.1312668E+00
        -11   -1    0    0    0    0  0.00000000000E+00  0.00000000000E+00  0.45593999997E+02  0.45594000000E+02  0.51100000000E-03 0.  1.
         11   -1    0    0    0    0 -0.00000000000E+00 -0.00000000000E+00 -0.45593999997E+02  0.45594000000E+02  0.51100000000E-03 0. -1.
    9900012    2    1    2    0    0  0.35101836193E+02 -0.21222745455E+02 -0.14180287999E+02  0.47787258111E+02  0.19999941032E+02 0.  0.
         12    1    1    2    0    0 -0.35101836193E+02  0.21222745455E+02  0.14180287999E+02  0.43400741889E+02  0.00000000000E+00 0. -1.
         11    1    3    3    0    0  0.11337500803E+01 -0.76845124949E+01 -0.68608927977E+01  0.10363829976E+02  0.51100000000E-03 0. -1.
        -11    1    3    3    0    0  0.91431013746E+01 -0.43532347998E+01 -0.77155957797E+00  0.10155897814E+02  0.51100000000E-03 0.  1.
         12    1    3    3    0    0  0.24824984738E+02 -0.91849981608E+01 -0.65478356235E+01  0.27267530321E+02  0.00000000000E+00 0. -1.
</event>
<event>
 7    1  0.4519840E-010  0.4778724E+02  0.7816164E-02  0.1312668E+00
        -11   -1    0    0    0    0  0.00000000000E+00  0.00000000000E+00  0.45593999997E+02  0.45594000000E+02  0.51100000000E-03 0. -1.
         11   -1    0    0    0    0 -0.00000000000E+00 -0.00000000000E+00 -0.45593999997E+02  0.45594000000E+02  0.51100000000E-03 0.  1.
    9900012    2    1    2    0    0 -0.40363027960E+02  0.54042201210E+01 -0.15008200458E+02  0.47787243069E+02  0.19999872447E+02 0.  0.
         12    1    1    2    0    0  0.40363027960E+02 -0.54042201210E+01  0.15008200458E+02  0.43400756931E+02  0.00000000000E+00 0. -1.
         11    1    3    3    0    0 -0.15055748197E+02  0.36806027717E+01 -0.48327879588E+01  0.16235092554E+02  0.51100000000E-03 0. -1.
        -11    1    3    3    0    0 -0.11957677656E+02  0.43670272148E+01 -0.12390081125E+02  0.17764320763E+02  0.51100000000E-03 0.  1.
         12    1    3    3    0    0 -0.13349602107E+02 -0.26434098655E+01  0.22146686260E+01  0.13787829752E+02  0.00000000000E+00 0. -1.
</event>
<event>
 7    1  0.4519840E-010  0.4778727E+02  0.7816164E-02  0.1312668E+00
        -11   -1    0    0    0    0  0.00000000000E+00  0.00000000000E+00  0.45593999997E+02  0.45594000000E+02  0.51100000000E-03 0. -1.
         11   -1    0    0    0    0 -0.00000000000E+00 -0.00000000000E+00 -0.45593999997E+02  0.45594000000E+02  0.51100000000E-03 0.  1.
    9900012    2    1    2    0    0  0.16737784057E+02  0.23796599539E+02 -0.32205456741E+02  0.47787274100E+02  0.20000013930E+02 0.  0.
         12    1    1    2    0    0 -0.16737784057E+02 -0.23796599539E+02  0.32205456741E+02  0.43400725900E+02  0.00000000000E+00 0. -1.
         11    1    3    3    0    0 -0.29824698073E-01  0.38990086752E+00 -0.22248887768E+01  0.22589914850E+01  0.51100000000E-03 0. -1.
        -11    1    3    3    0    0  0.70997575712E+01  0.20297736455E+02 -0.27791951002E+02  0.35139681323E+02  0.51100000000E-03 0.  1.
         12    1    3    3    0    0  0.96678511842E+01  0.31089622168E+01 -0.21886169628E+01  0.10388601292E+02  0.00000000000E+00 0. -1.
</event>
<event>
 7    1  0.4519840E-010  0.4778727E+02  0.7816164E-02  0.1312668E+00
        -11   -1    0    0    0    0  0.00000000000E+00  0.00000000000E+00  0.45593999997E+02  0.45594000000E+02  0.51100000000E-03 0. -1.
         11   -1    0    0    0    0 -0.00000000000E+00 -0.00000000000E+00 -0.45593999997E+02  0.45594000000E+02  0.51100000000E-03 0.  1.
    9900012    2    1    2    0    0 -0.42218991740E+02  0.72770912869E+01  0.69443320871E+01  0.47787273402E+02  0.20000010748E+02 0.  0.
        -12    1    1    2    0    0  0.42218991740E+02 -0.72770912869E+01 -0.69443320871E+01  0.43400726598E+02  0.00000000000E+00 0.  1.
         11    1    3    3    0    0 -0.18502655203E+02 -0.23444301428E+01  0.35512648331E+01  0.18985681037E+02  0.51100000000E-03 0. -1.
        -11    1    3    3    0    0 -0.13275174706E+02  0.46818641370E+00 -0.28364820405E+01  0.13582897062E+02  0.51100000000E-03 0.  1.
         12    1    3    3    0    0 -0.10441161831E+02  0.91533350160E+01  0.62295492945E+01  0.15218695303E+02  0.00000000000E+00 0. -1.
</event>
<event>
 7    1  0.4519840E-010  0.4778727E+02  0.7816164E-02  0.1312668E+00
        -11   -1    0    0    0    0  0.00000000000E+00  0.00000000000E+00  0.45593999997E+02  0.45594000000E+02  0.51100000000E-03 0.  1.
         11   -1    0    0    0    0 -0.00000000000E+00 -0.00000000000E+00 -0.45593999997E+02  0.45594000000E+02  0.51100000000E-03 0. -1.
    9900012    2    1    2    0    0  0.16921733526E+02  0.37942307126E+02 -0.12556257914E+02  0.47787270186E+02  0.19999996086E+02 0.  0.
        -12    1    1    2    0    0 -0.16921733526E+02 -0.37942307126E+02  0.12556257914E+02  0.43400729814E+02  0.00000000000E+00 0.  1.
         11    1    3    3    0    0 -0.47109498804E-02  0.38752168714E+00 -0.27929197107E+01  0.28196801277E+01  0.51100000000E-03 0. -1.
        -11    1    3    3    0    0  0.29001830993E+01  0.24677946843E+02 -0.51470727664E+01  0.25375273018E+02  0.51100000000E-03 0.  1.
        -12    1    3    3    0    0  0.14026261377E+02  0.12876838596E+02 -0.46162654369E+01  0.19592317040E+02  0.00000000000E+00 0.  1.
</event>
<event>
 7    1  0.4519840E-010  0.4778728E+02  0.7816164E-02  0.1312668E+00
        -11   -1    0    0    0    0  0.00000000000E+00  0.00000000000E+00  0.45593999997E+02  0.45594000000E+02  0.51100000000E-03 0.  1.
         11   -1    0    0    0    0 -0.00000000000E+00 -0.00000000000E+00 -0.45593999997E+02  0.45594000000E+02  0.51100000000E-03 0. -1.
    9900012    2    1    2    0    0 -0.17858705065E+02 -0.23276374629E+02 -0.31982806075E+02  0.47787275963E+02  0.20000022426E+02 0.  0.
         12    1    1    2    0    0  0.17858705065E+02  0.23276374629E+02  0.31982806075E+02  0.43400724037E+02  0.00000000000E+00 0. -1.
         11    1    3    3    0    0 -0.10015361326E+02 -0.72668837838E+01 -0.17774422687E+02  0.21657450555E+02  0.51100000000E-03 0. -1.
        -11    1    3    3    0    0  0.81481155256E+00  0.18824792357E+01 -0.12513236306E+01  0.24028019120E+01  0.51100000000E-03 0.  1.
        -12    1    3    3    0    0 -0.86581552915E+01 -0.17891970081E+02 -0.12957059758E+02  0.23727023496E+02  0.00000000000E+00 0.  1.
</event>
<event>
 7    1  0.4519840E-010  0.4778727E+02  0.7816164E-02  0.1312668E+00
        -11   -1    0    0    0    0  0.00000000000E+00  0.00000000000E+00  0.45593999997E+02  0.45594000000E+02  0.51100000000E-03 0. -1.
         11   -1    0    0    0    0 -0.00000000000E+00 -0.00000000000E+00 -0.45593999997E+02  0.45594000000E+02  0.51100000000E-03 0.  1.
    9900012    2    1    2    0    0 -0.24025566159E+02 -0.13023528016E+02  0.33716213836E+02  0.47787272049E+02  0.20000004579E+02 0.  0.
        -12    1    1    2    0    0  0.24025566159E+02  0.13023528016E+02 -0.33716213836E+02  0.43400727951E+02  0.00000000000E+00 0.  1.
         11    1    3    3    0    0  0.12638698892E+01 -0.31743845963E+01  0.12061750300E+00  0.34188643590E+01  0.51100000000E-03 0. -1.
        -11    1    3    3    0    0 -0.70172146543E+01 -0.78255555064E+01  0.10604750871E+02  0.14931221041E+02  0.51100000000E-03 0.  1.
         12    1    3    3    0    0 -0.18272221394E+02 -0.20235879130E+01  0.22990845462E+02  0.29437186648E+02  0.00000000000E+00 0. -1.
</event>
<event>
 7    1  0.4519840E-010  0.4778727E+02  0.7816164E-02  0.1312668E+00
        -11   -1    0    0    0    0  0.00000000000E+00  0.00000000000E+00  0.45593999997E+02  0.45594000000E+02  0.51100000000E-03 0. -1.
         11   -1    0    0    0    0 -0.00000000000E+00 -0.00000000000E+00 -0.45593999997E+02  0.45594000000E+02  0.51100000000E-03 0.  1.
    9900012    2    1    2    0    0  0.52356836545E+01 -0.32202675374E+02  0.28621639649E+02  0.47787274882E+02  0.20000017497E+02 0.  0.
        -12    1    1    2    0    0 -0.52356836545E+01  0.32202675374E+02 -0.28621639649E+02  0.43400725118E+02  0.00000000000E+00 0.  1.
         11    1    3    3    0    0  0.97745794113E+00 -0.28244925462E+02  0.22894009750E+02  0.36371237552E+02  0.51100000000E-03 0. -1.
        -11    1    3    3    0    0 -0.47788553297E+00 -0.47978018883E+01  0.16069389358E+01  0.50822761187E+01  0.51100000000E-03 0.  1.
        -12    1    3    3    0    0  0.47361112464E+01  0.84005197683E+00  0.41206909638E+01  0.63337612113E+01  0.00000000000E+00 0.  1.
</event>
<event>
 7    1  0.4519840E-010  0.4778727E+02  0.7816164E-02  0.1312668E+00
        -11   -1    0    0    0    0  0.00000000000E+00  0.00000000000E+00  0.45593999997E+02  0.45594000000E+02  0.51100000000E-03 0. -1.
         11   -1    0    0    0    0 -0.00000000000E+00 -0.00000000000E+00 -0.45593999997E+02  0.45594000000E+02  0.51100000000E-03 0.  1.
    9900012    2    1    2    0    0  0.21263786026E+02  0.35855743992E+02 -0.12076429769E+02  0.47787272710E+02  0.20000007593E+02 0.  0.
         12    1    1    2    0    0 -0.21263786026E+02 -0.35855743992E+02  0.12076429769E+02  0.43400727290E+02  0.00000000000E+00 0. -1.
         11    1    3    3    0    0  0.40590997067E+01  0.13857953747E+02  0.14836006852E+01  0.14516206245E+02  0.51100000000E-03 0. -1.
        -11    1    3    3    0    0  0.14540615728E+02  0.20508110054E+02 -0.70951944178E+01  0.26121903986E+02  0.51100000000E-03 0.  1.
         12    1    3    3    0    0  0.26640705915E+01  0.14896801903E+01 -0.64648360360E+01  0.71491624795E+01  0.00000000000E+00 0. -1.
</event>
<event>
 7    1  0.4519840E-010  0.4778727E+02  0.7816164E-02  0.1312668E+00
        -11   -1    0    0    0    0  0.00000000000E+00  0.00000000000E+00  0.45593999997E+02  0.45594000000E+02  0.51100000000E-03 0. -1.
         11   -1    0    0    0    0 -0.00000000000E+00 -0.00000000000E+00 -0.45593999997E+02  0.45594000000E+02  0.51100000000E-03 0.  1.
    9900012    2    1    2    0    0  0.11357567901E+02 -0.30156635506E+02 -0.29072431848E+02  0.47787270661E+02  0.19999998250E+02 0.  0.
         12    1    1    2    0    0 -0.11357567901E+02  0.30156635506E+02  0.29072431848E+02  0.43400729339E+02  0.00000000000E+00 0. -1.
         11    1    3    3    0    0  0.46167574619E+01 -0.51568627431E+01 -0.89257142167E+01  0.11294957165E+02  0.51100000000E-03 0. -1.
        -11    1    3    3    0    0  0.29349110640E+01 -0.23404565465E+02 -0.21730804368E+02  0.32072032151E+02  0.51100000000E-03 0.  1.
         12    1    3    3    0    0  0.38058993748E+01 -0.15952072982E+01  0.15840867374E+01  0.44202813448E+01  0.00000000000E+00 0. -1.
</event>
<event>
 7    1  0.4519840E-010  0.4778727E+02  0.7816164E-02  0.1312668E+00
        -11   -1    0    0    0    0  0.00000000000E+00  0.00000000000E+00  0.45593999997E+02  0.45594000000E+02  0.51100000000E-03 0. -1.
         11   -1    0    0    0    0 -0.00000000000E+00 -0.00000000000E+00 -0.45593999997E+02  0.45594000000E+02  0.51100000000E-03 0.  1.
    9900012    2    1    2    0    0 -0.24702082486E+02  0.21728806279E+02 -0.28307055573E+02  0.47787270782E+02  0.19999998802E+02 0.  0.
         12    1    1    2    0    0  0.24702082486E+02 -0.21728806279E+02  0.28307055573E+02  0.43400729218E+02  0.00000000000E+00 0. -1.
         11    1    3    3    0    0 -0.58963395968E+01  0.11086741787E+01 -0.16438563118E+01  0.62207911804E+01  0.51100000000E-03 0. -1.
        -11    1    3    3    0    0 -0.15278116837E+02  0.15978546257E+02 -0.10677447214E+02  0.24550818191E+02  0.51100000000E-03 0.  1.
         12    1    3    3    0    0 -0.35276260518E+01  0.46415858430E+01 -0.15985752048E+02  0.17015661410E+02  0.00000000000E+00 0. -1.
</event>
<event>
 7    1  0.4519840E-010  0.4778731E+02  0.7816164E-02  0.1312668E+00
        -11   -1    0    0    0    0  0.00000000000E+00  0.00000000000E+00  0.45593999997E+02  0.45594000000E+02  0.51100000000E-03 0. -1.
         11   -1    0    0    0    0 -0.00000000000E+00 -0.00000000000E+00 -0.45593999997E+02  0.45594000000E+02  0.51100000000E-03 0.  1.
    9900012    2    1    2    0    0  0.17186900713E+02  0.15385517595E+02  0.36762976303E+02  0.47787307212E+02  0.20000164904E+02 0.  0.
        -12    1    1    2    0    0 -0.17186900713E+02 -0.15385517595E+02 -0.36762976303E+02  0.43400692788E+02  0.00000000000E+00 0.  1.
         11    1    3    3    0    0  0.66214818983E+01  0.37676500061E+01  0.20764107854E+02  0.22117580888E+02  0.51100000000E-03 0. -1.
        -11    1    3    3    0    0  0.55135879462E+01  0.11020250174E+02  0.16460299328E+02  0.20561785432E+02  0.51100000000E-03 0.  1.
        -12    1    3    3    0    0  0.50518308684E+01  0.59761741560E+00 -0.46143087955E+00  0.51079408919E+01  0.00000000000E+00 0.  1.
</event>
<event>
 7    1  0.4519840E-010  0.4778727E+02  0.7816164E-02  0.1312668E+00
        -11   -1    0    0    0    0  0.00000000000E+00  0.00000000000E+00  0.45593999997E+02  0.45594000000E+02  0.51100000000E-03 0. -1.
         11   -1    0    0    0    0 -0.00000000000E+00 -0.00000000000E+00 -0.45593999997E+02  0.45594000000E+02  0.51100000000E-03 0.  1.
    9900012    2    1    2    0    0  0.41738114483E+02  0.41136439946E+01  0.11163831090E+02  0.47787269682E+02  0.19999993789E+02 0.  0.
        -12    1    1    2    0    0 -0.41738114483E+02 -0.41136439946E+01 -0.11163831090E+02  0.43400730318E+02  0.00000000000E+00 0.  1.
         11    1    3    3    0    0  0.21966491866E+02  0.24776006761E+01  0.30918098913E+01  0.22320944395E+02  0.51100000000E-03 0. -1.
        -11    1    3    3    0    0  0.18908079629E+02 -0.30295560868E+01  0.49241083261E+01  0.19772216072E+02  0.51100000000E-03 0.  1.
        -12    1    3    3    0    0  0.86354298823E+00  0.46655994053E+01  0.31479128723E+01  0.56941092152E+01  0.00000000000E+00 0.  1.
</event>
<event>
 7    1  0.4519840E-010  0.4778727E+02  0.7816164E-02  0.1312668E+00
        -11   -1    0    0    0    0  0.00000000000E+00  0.00000000000E+00  0.45593999997E+02  0.45594000000E+02  0.51100000000E-03 0. -1.
         11   -1    0    0    0    0 -0.00000000000E+00 -0.00000000000E+00 -0.45593999997E+02  0.45594000000E+02  0.51100000000E-03 0.  1.
    9900012    2    1    2    0    0 -0.40280554597E+02  0.63291812986E+01 -0.14867472383E+02  0.47787270171E+02  0.19999996020E+02 0.  0.
        -12    1    1    2    0    0  0.40280554597E+02 -0.63291812986E+01  0.14867472383E+02  0.43400729829E+02  0.00000000000E+00 0.  1.
         11    1    3    3    0    0 -0.55025659164E+01  0.57298691239E+01 -0.75117074166E+00  0.79795920689E+01  0.51100000000E-03 0. -1.
        -11    1    3    3    0    0 -0.10107592867E+02  0.30673220935E+01  0.12531094037E+01  0.10636831381E+02  0.51100000000E-03 0.  1.
         12    1    3    3    0    0 -0.24670395814E+02 -0.24680099187E+01 -0.15369411045E+02  0.29170846721E+02  0.00000000000E+00 0. -1.
</event>
<event>
 7    1  0.4519840E-010  0.4778727E+02  0.7816164E-02  0.1312668E+00
        -11   -1    0    0    0    0  0.00000000000E+00  0.00000000000E+00  0.45593999997E+02  0.45594000000E+02  0.51100000000E-03 0.  1.
         11   -1    0    0    0    0 -0.00000000000E+00 -0.00000000000E+00 -0.45593999997E+02  0.45594000000E+02  0.51100000000E-03 0. -1.
    9900012    2    1    2    0    0  0.37434739392E+02 -0.17855673649E+02 -0.12784301348E+02  0.47787272405E+02  0.20000006204E+02 0.  0.
        -12    1    1    2    0    0 -0.37434739392E+02  0.17855673649E+02  0.12784301348E+02  0.43400727595E+02  0.00000000000E+00 0.  1.
         11    1    3    3    0    0  0.28467527863E+02 -0.88927308544E+01 -0.44637437167E+01  0.30156356095E+02  0.51100000000E-03 0. -1.
        -11    1    3    3    0    0  0.98070774310E+01 -0.41745924119E+01 -0.52551797942E+01  0.11883724352E+02  0.51100000000E-03 0.  1.
        -12    1    3    3    0    0 -0.83986590232E+00 -0.47883503829E+01 -0.30653778367E+01  0.57471919583E+01  0.00000000000E+00 0.  1.
</event>
<event>
 7    1  0.4519840E-010  0.4778727E+02  0.7816164E-02  0.1312668E+00
        -11   -1    0    0    0    0  0.00000000000E+00  0.00000000000E+00  0.45593999997E+02  0.45594000000E+02  0.51100000000E-03 0. -1.
         11   -1    0    0    0    0 -0.00000000000E+00 -0.00000000000E+00 -0.45593999997E+02  0.45594000000E+02  0.51100000000E-03 0.  1.
    9900012    2    1    2    0    0  0.11041333122E+02 -0.19184384352E+02 -0.37331910689E+02  0.47787271944E+02  0.20000004102E+02 0.  0.
         12    1    1    2    0    0 -0.11041333122E+02  0.19184384352E+02  0.37331910689E+02  0.43400728056E+02  0.00000000000E+00 0. -1.
         11    1    3    3    0    0  0.25091886929E+01 -0.46532348102E+01 -0.40423796536E+01  0.66550323531E+01  0.51100000000E-03 0. -1.
        -11    1    3    3    0    0  0.10197384121E+02 -0.70252892157E+01 -0.30560303238E+02  0.32973830013E+02  0.51100000000E-03 0.  1.
         12    1    3    3    0    0 -0.16652396919E+01 -0.75058603262E+01 -0.27292277974E+01  0.81584095777E+01  0.00000000000E+00 0. -1.
</event>
<event>
 7    1  0.4519840E-010  0.4778727E+02  0.7816164E-02  0.1312668E+00
        -11   -1    0    0    0    0  0.00000000000E+00  0.00000000000E+00  0.45593999997E+02  0.45594000000E+02  0.51100000000E-03 0. -1.
         11   -1    0    0    0    0 -0.00000000000E+00 -0.00000000000E+00 -0.45593999997E+02  0.45594000000E+02  0.51100000000E-03 0.  1.
    9900012    2    1    2    0    0  0.84735922047E+01 -0.93941251197E+01 -0.41515922879E+02  0.47787271848E+02  0.20000003663E+02 0.  0.
         12    1    1    2    0    0 -0.84735922047E+01  0.93941251197E+01  0.41515922879E+02  0.43400728152E+02  0.00000000000E+00 0. -1.
         11    1    3    3    0    0  0.38664604919E+01 -0.49470376268E-01 -0.99531048352E+01  0.10677839677E+02  0.51100000000E-03 0.  1.
        -11    1    3    3    0    0  0.73224078706E+01  0.90806988248E+00 -0.62695634118E+01  0.96824415088E+01  0.51100000000E-03 0. -1.
         12    1    3    3    0    0 -0.27152761579E+01 -0.10252724626E+02 -0.25293254632E+02  0.27426990662E+02  0.00000000000E+00 0. -1.
</event>
<event>
 7    1  0.4519840E-010  0.4778727E+02  0.7816164E-02  0.1312668E+00
        -11   -1    0    0    0    0  0.00000000000E+00  0.00000000000E+00  0.45593999997E+02  0.45594000000E+02  0.51100000000E-03 0. -1.
         11   -1    0    0    0    0 -0.00000000000E+00 -0.00000000000E+00 -0.45593999997E+02  0.45594000000E+02  0.51100000000E-03 0.  1.
    9900012    2    1    2    0    0 -0.28180236655E+01  0.62329523863E+01  0.42858287702E+02  0.47787265241E+02  0.19999973542E+02 0.  0.
        -12    1    1    2    0    0  0.28180236655E+01 -0.62329523863E+01 -0.42858287702E+02  0.43400734759E+02  0.00000000000E+00 0.  1.
         11    1    3    3    0    0 -0.12674010835E+01  0.17791437194E+00  0.46558111331E-01  0.12806744118E+01  0.51100000000E-03 0. -1.
        -11    1    3    3    0    0 -0.55380848379E+01  0.10629050113E+02  0.25885791351E+02  0.28525800324E+02  0.51100000000E-03 0.  1.
         12    1    3    3    0    0  0.39874622559E+01 -0.45740120991E+01  0.16925938240E+02  0.17980790506E+02  0.00000000000E+00 0. -1.
</event>
<event>
 7    1  0.4519840E-010  0.4778727E+02  0.7816164E-02  0.1312668E+00
        -11   -1    0    0    0    0  0.00000000000E+00  0.00000000000E+00  0.45593999997E+02  0.45594000000E+02  0.51100000000E-03 0. -1.
         11   -1    0    0    0    0 -0.00000000000E+00 -0.00000000000E+00 -0.45593999997E+02  0.45594000000E+02  0.51100000000E-03 0.  1.
    9900012    2    1    2    0    0  0.35264696528E+02 -0.25134433307E+02 -0.28782972616E+01  0.47787272426E+02  0.20000006298E+02 0.  0.
         12    1    1    2    0    0 -0.35264696528E+02  0.25134433307E+02  0.28782972616E+01  0.43400727574E+02  0.00000000000E+00 0. -1.
         11    1    3    3    0    0  0.21511322880E+02 -0.10508457368E+02 -0.33461406568E+01  0.24173567090E+02  0.51100000000E-03 0.  1.
        -11    1    3    3    0    0  0.35883430081E+01 -0.20787244733E+01 -0.50631098014E+01  0.65446452999E+01  0.51100000000E-03 0. -1.
        -12    1    3    3    0    0  0.10165030640E+02 -0.12547251466E+02  0.55309531965E+01  0.17069060036E+02  0.00000000000E+00 0.  1.
</event>
<event>
 7    1  0.4519840E-010  0.4778727E+02  0.7816164E-02  0.1312668E+00
        -11   -1    0    0    0    0  0.00000000000E+00  0.00000000000E+00  0.45593999997E+02  0.45594000000E+02  0.51100000000E-03 0. -1.
         11   -1    0    0    0    0 -0.00000000000E+00 -0.00000000000E+00 -0.45593999997E+02  0.45594000000E+02  0.51100000000E-03 0.  1.
    9900012    2    1    2    0    0  0.99596477208E+01  0.93567631000E+01 -0.41193198128E+02  0.47787272236E+02  0.20000005434E+02 0.  0.
         12    1    1    2    0    0 -0.99596477208E+01 -0.93567631000E+01  0.41193198128E+02  0.43400727764E+02  0.00000000000E+00 0. -1.
         11    1    3    3    0    0 -0.30550963790E+01  0.85410996168E+01 -0.22203427848E+02  0.23984916198E+02  0.51100000000E-03 0. -1.
        -11    1    3    3    0    0  0.89090194388E+00 -0.10518293196E+01 -0.50454579668E+01  0.52303630416E+01  0.51100000000E-03 0.  1.
         12    1    3    3    0    0  0.12123842156E+02  0.18674928028E+01 -0.13944312313E+02  0.18571992997E+02  0.00000000000E+00 0. -1.
</event>
<event>
 7    1  0.4519840E-010  0.4778727E+02  0.7816164E-02  0.1312668E+00
        -11   -1    0    0    0    0  0.00000000000E+00  0.00000000000E+00  0.45593999997E+02  0.45594000000E+02  0.51100000000E-03 0. -1.
         11   -1    0    0    0    0 -0.00000000000E+00 -0.00000000000E+00 -0.45593999997E+02  0.45594000000E+02  0.51100000000E-03 0.  1.
    9900012    2    1    2    0    0  0.27803252238E+02 -0.12089762204E+02  0.31055434755E+02  0.47787271746E+02  0.20000003199E+02 0.  0.
        -12    1    1    2    0    0 -0.27803252238E+02  0.12089762204E+02 -0.31055434755E+02  0.43400728254E+02  0.00000000000E+00 0.  1.
         11    1    3    3    0    0  0.19234225193E+02 -0.55980246938E+01  0.15013063973E+02  0.25033685094E+02  0.51100000000E-03 0. -1.
        -11    1    3    3    0    0  0.53239128493E+01 -0.51392817410E+01  0.11949483012E+01  0.74956098180E+01  0.51100000000E-03 0.  1.
        -12    1    3    3    0    0  0.32451141953E+01 -0.13524557690E+01  0.14847422481E+02  0.15257976834E+02  0.00000000000E+00 0.  1.
</event>
<event>
 7    1  0.4519840E-010  0.4778727E+02  0.7816164E-02  0.1312668E+00
        -11   -1    0    0    0    0  0.00000000000E+00  0.00000000000E+00  0.45593999997E+02  0.45594000000E+02  0.51100000000E-03 0. -1.
         11   -1    0    0    0    0 -0.00000000000E+00 -0.00000000000E+00 -0.45593999997E+02  0.45594000000E+02  0.51100000000E-03 0.  1.
    9900012    2    1    2    0    0 -0.15870015070E+02  0.24990956452E+01  0.40317743519E+02  0.47787270746E+02  0.19999998638E+02 0.  0.
        -12    1    1    2    0    0  0.15870015070E+02 -0.24990956452E+01 -0.40317743519E+02  0.43400729254E+02  0.00000000000E+00 0.  1.
         11    1    3    3    0    0 -0.16478809703E+01  0.70709715094E+01  0.13314037990E+02  0.15165017562E+02  0.51100000000E-03 0. -1.
        -11    1    3    3    0    0 -0.43520663886E+01  0.31158966273E+01  0.11620170297E+02  0.12793656695E+02  0.51100000000E-03 0.  1.
        -12    1    3    3    0    0 -0.98700677111E+01 -0.76877724915E+01  0.15383535232E+02  0.19828596489E+02  0.00000000000E+00 0.  1.
</event>
<event>
 7    1  0.4519840E-010  0.4778727E+02  0.7816164E-02  0.1312668E+00
        -11   -1    0    0    0    0  0.00000000000E+00  0.00000000000E+00  0.45593999997E+02  0.45594000000E+02  0.51100000000E-03 0. -1.
         11   -1    0    0    0    0 -0.00000000000E+00 -0.00000000000E+00 -0.45593999997E+02  0.45594000000E+02  0.51100000000E-03 0.  1.
    9900012    2    1    2    0    0  0.14294393444E+02 -0.89921104683E+01 -0.39980441187E+02  0.47787269452E+02  0.19999992740E+02 0.  0.
         12    1    1    2    0    0 -0.14294393444E+02  0.89921104683E+01  0.39980441187E+02  0.43400730548E+02  0.00000000000E+00 0. -1.
         11    1    3    3    0    0  0.95942782963E+01 -0.11892986167E+02 -0.23171009766E+02  0.27755882076E+02  0.51100000000E-03 0. -1.
        -11    1    3    3    0    0  0.55084633853E+01 -0.90939632484E+00 -0.14416934038E+02  0.15460212090E+02  0.51100000000E-03 0.  1.
        -12    1    3    3    0    0 -0.80834823813E+00  0.38102720235E+01 -0.23924973828E+01  0.45711752858E+01  0.00000000000E+00 0.  1.
</event>
<event>
 7    1  0.4519840E-010  0.4778727E+02  0.7816164E-02  0.1312668E+00
        -11   -1    0    0    0    0  0.00000000000E+00  0.00000000000E+00  0.45593999997E+02  0.45594000000E+02  0.51100000000E-03 0. -1.
         11   -1    0    0    0    0 -0.00000000000E+00 -0.00000000000E+00 -0.45593999997E+02  0.45594000000E+02  0.51100000000E-03 0.  1.
    9900012    2    1    2    0    0 -0.26662964502E+02 -0.17757063053E+02 -0.29281331411E+02  0.47787270357E+02  0.19999996868E+02 0.  0.
         12    1    1    2    0    0  0.26662964502E+02  0.17757063053E+02  0.29281331411E+02  0.43400729643E+02  0.00000000000E+00 0. -1.
         11    1    3    3    0    0 -0.12730210308E+02 -0.13392159357E+02 -0.11967000986E+02  0.22014025066E+02  0.51100000000E-03 0.  1.
        -11    1    3    3    0    0 -0.10676280373E+02 -0.75156675551E+01 -0.16703825202E+02  0.21201084832E+02  0.51100000000E-03 0. -1.
         12    1    3    3    0    0 -0.32564738212E+01  0.31507638589E+01 -0.61050522209E+00  0.45721604597E+01  0.00000000000E+00 0. -1.
</event>
<event>
 7    1  0.4852966E-010  0.4778727E+02  0.7816164E-02  0.1312668E+00
        -11   -1    0    0    0    0  0.00000000000E+00  0.00000000000E+00  0.45593999997E+02  0.45594000000E+02  0.51100000000E-03 0. -1.
         11   -1    0    0    0    0 -0.00000000000E+00 -0.00000000000E+00 -0.45593999997E+02  0.45594000000E+02  0.51100000000E-03 0.  1.
    9900012    2    1    2    0    0  0.42045407966E+02 -0.14826348450E+01 -0.10658757255E+02  0.47787266788E+02  0.19999980593E+02 0.  0.
         12    1    1    2    0    0 -0.42045407966E+02  0.14826348450E+01  0.10658757255E+02  0.43400733212E+02  0.00000000000E+00 0. -1.
         11    1    3    3    0    0 -0.89538467017E+00  0.56104182106E+00  0.36173789418E+00  0.11168420648E+01  0.51100000000E-03 0. -1.
        -11    1    3    3    0    0  0.18029220097E+02 -0.63226495489E+01 -0.24321341838E-01  0.19105739096E+02  0.51100000000E-03 0.  1.
        -12    1    3    3    0    0  0.24911572540E+02  0.42789728829E+01 -0.10996173807E+02  0.27564685627E+02  0.00000000000E+00 0.  1.
</event>
<event>
 7    1  0.4519840E-010  0.4778727E+02  0.7816164E-02  0.1312668E+00
        -11   -1    0    0    0    0  0.00000000000E+00  0.00000000000E+00  0.45593999997E+02  0.45594000000E+02  0.51100000000E-03 0.  1.
         11   -1    0    0    0    0 -0.00000000000E+00 -0.00000000000E+00 -0.45593999997E+02  0.45594000000E+02  0.51100000000E-03 0. -1.
    9900012    2    1    2    0    0 -0.11529267252E+02  0.31774109983E+02 -0.27223244768E+02  0.47787272768E+02  0.20000007859E+02 0.  0.
         12    1    1    2    0    0  0.11529267252E+02 -0.31774109983E+02  0.27223244768E+02  0.43400727232E+02  0.00000000000E+00 0. -1.
         11    1    3    3    0    0 -0.46101308467E+01  0.18739224338E+01 -0.70566721850E+01  0.86349009432E+01  0.51100000000E-03 0. -1.
        -11    1    3    3    0    0 -0.96856476842E+01  0.11901895856E+02 -0.95443363415E+01  0.18071005852E+02  0.51100000000E-03 0.  1.
        -12    1    3    3    0    0  0.27665112791E+01  0.17998291693E+02 -0.10622236241E+02  0.21081365973E+02  0.00000000000E+00 0.  1.
</event>
<event>
 7    1  0.4519840E-010  0.4778727E+02  0.7816164E-02  0.1312668E+00
        -11   -1    0    0    0    0  0.00000000000E+00  0.00000000000E+00  0.45593999997E+02  0.45594000000E+02  0.51100000000E-03 0. -1.
         11   -1    0    0    0    0 -0.00000000000E+00 -0.00000000000E+00 -0.45593999997E+02  0.45594000000E+02  0.51100000000E-03 0.  1.
    9900012    2    1    2    0    0 -0.27740561817E+02  0.18257646973E+02  0.27941776840E+02  0.47787270330E+02  0.19999996742E+02 0.  0.
        -12    1    1    2    0    0  0.27740561817E+02 -0.18257646973E+02 -0.27941776840E+02  0.43400729670E+02  0.00000000000E+00 0.  1.
         11    1    3    3    0    0  0.74258165580E+00  0.53582990856E+01  0.73804242243E+01  0.91505988109E+01  0.51100000000E-03 0. -1.
        -11    1    3    3    0    0 -0.36690269508E+01 -0.77901914872E+00  0.51835411457E+01  0.63982598158E+01  0.51100000000E-03 0.  1.
        -12    1    3    3    0    0 -0.24814116522E+02  0.13678367036E+02  0.15377811470E+02  0.32238411703E+02  0.00000000000E+00 0.  1.
</event>
<event>
 7    1  0.4519840E-010  0.4778727E+02  0.7816164E-02  0.1312668E+00
        -11   -1    0    0    0    0  0.00000000000E+00  0.00000000000E+00  0.45593999997E+02  0.45594000000E+02  0.51100000000E-03 0.  1.
         11   -1    0    0    0    0 -0.00000000000E+00 -0.00000000000E+00 -0.45593999997E+02  0.45594000000E+02  0.51100000000E-03 0. -1.
    9900012    2    1    2    0    0 -0.23355885801E+02 -0.28675942396E+02  0.22711581997E+02  0.47787273846E+02  0.20000012775E+02 0.  0.
        -12    1    1    2    0    0  0.23355885801E+02  0.28675942396E+02 -0.22711581997E+02  0.43400726154E+02  0.00000000000E+00 0.  1.
         11    1    3    3    0    0  0.72095732936E+00 -0.17655514617E+01  0.20551220401E+01  0.28036544537E+01  0.51100000000E-03 0. -1.
        -11    1    3    3    0    0 -0.17938170021E+01 -0.31338095306E+01  0.10106494041E+02  0.10732183547E+02  0.51100000000E-03 0.  1.
         12    1    3    3    0    0 -0.22283026128E+02 -0.23776581404E+02  0.10549965916E+02  0.34251435846E+02  0.00000000000E+00 0. -1.
</event>
<event>
 7    1  0.4519840E-010  0.4778727E+02  0.7816164E-02  0.1312668E+00
        -11   -1    0    0    0    0  0.00000000000E+00  0.00000000000E+00  0.45593999997E+02  0.45594000000E+02  0.51100000000E-03 0. -1.
         11   -1    0    0    0    0 -0.00000000000E+00 -0.00000000000E+00 -0.45593999997E+02  0.45594000000E+02  0.51100000000E-03 0.  1.
    9900012    2    1    2    0    0 -0.25905422808E+01 -0.13888646750E+02  0.41036785935E+02  0.47787271692E+02  0.20000002950E+02 0.  0.
        -12    1    1    2    0    0  0.25905422808E+01  0.13888646750E+02 -0.41036785935E+02  0.43400728308E+02  0.00000000000E+00 0.  1.
         11    1    3    3    0    0 -0.49107002068E+01 -0.92363353262E+01  0.17737316527E+02  0.20592165127E+02  0.51100000000E-03 0. -1.
        -11    1    3    3    0    0 -0.34222434142E+01 -0.65176291838E+01  0.16699421630E+02  0.18249984197E+02  0.51100000000E-03 0.  1.
        -12    1    3    3    0    0  0.57424013402E+01  0.18653177597E+01  0.66000477777E+01  0.89451223672E+01  0.00000000000E+00 0.  1.
</event>
<event>
 7    1  0.4519840E-010  0.4778727E+02  0.7816164E-02  0.1312668E+00
        -11   -1    0    0    0    0  0.00000000000E+00  0.00000000000E+00  0.45593999997E+02  0.45594000000E+02  0.51100000000E-03 0. -1.
         11   -1    0    0    0    0 -0.00000000000E+00 -0.00000000000E+00 -0.45593999997E+02  0.45594000000E+02  0.51100000000E-03 0.  1.
    9900012    2    1    2    0    0  0.11351641234E+02 -0.23102206893E+02 -0.34943547546E+02  0.47787271468E+02  0.20000001930E+02 0.  0.
         12    1    1    2    0    0 -0.11351641234E+02  0.23102206893E+02  0.34943547546E+02  0.43400728532E+02  0.00000000000E+00 0. -1.
         11    1    3    3    0    0  0.90133957904E+01 -0.77142271012E+01 -0.13431300382E+02  0.17920670570E+02  0.51100000000E-03 0. -1.
        -11    1    3    3    0    0  0.49917465631E+01 -0.70746799104E+01 -0.26036388039E+01  0.90414359959E+01  0.51100000000E-03 0.  1.
        -12    1    3    3    0    0 -0.26535011195E+01 -0.83132998814E+01 -0.18908608360E+02  0.20825164902E+02  0.00000000000E+00 0.  1.
</event>
<event>
 7    1  0.4519840E-010  0.4778728E+02  0.7816164E-02  0.1312668E+00
        -11   -1    0    0    0    0  0.00000000000E+00  0.00000000000E+00  0.45593999997E+02  0.45594000000E+02  0.51100000000E-03 0.  1.
         11   -1    0    0    0    0 -0.00000000000E+00 -0.00000000000E+00 -0.45593999997E+02  0.45594000000E+02  0.51100000000E-03 0. -1.
    9900012    2    1    2    0    0  0.30868312439E+02 -0.15484364414E+02  0.26286962664E+02  0.47787278114E+02  0.20000032231E+02 0.  0.
        -12    1    1    2    0    0 -0.30868312439E+02  0.15484364414E+02 -0.26286962664E+02  0.43400721886E+02  0.00000000000E+00 0.  1.
         11    1    3    3    0    0  0.23008941478E+01 -0.67009140715E+01  0.20692277677E+01  0.73809258964E+01  0.51100000000E-03 0. -1.
        -11    1    3    3    0    0  0.20973222361E+02 -0.11924132800E+02  0.18177566795E+02  0.30207365561E+02  0.51100000000E-03 0.  1.
        -12    1    3    3    0    0  0.75941959302E+01  0.31406824580E+01  0.60401681015E+01  0.10198986657E+02  0.00000000000E+00 0.  1.
</event>
<event>
 7    1  0.4519840E-010  0.4778727E+02  0.7816164E-02  0.1312668E+00
        -11   -1    0    0    0    0  0.00000000000E+00  0.00000000000E+00  0.45593999997E+02  0.45594000000E+02  0.51100000000E-03 0. -1.
         11   -1    0    0    0    0 -0.00000000000E+00 -0.00000000000E+00 -0.45593999997E+02  0.45594000000E+02  0.51100000000E-03 0.  1.
    9900012    2    1    2    0    0  0.25241327618E+02 -0.25926125124E+02  0.23965278445E+02  0.47787272416E+02  0.20000006253E+02 0.  0.
        -12    1    1    2    0    0 -0.25241327618E+02  0.25926125124E+02 -0.23965278445E+02  0.43400727584E+02  0.00000000000E+00 0.  1.
         11    1    3    3    0    0  0.60007021648E+01 -0.89587718581E+01  0.15928330605E+01  0.10899776929E+02  0.51100000000E-03 0. -1.
        -11    1    3    3    0    0  0.47104037966E+01  0.21109087742E+01  0.24657802405E+01  0.57204818185E+01  0.51100000000E-03 0.  1.
         12    1    3    3    0    0  0.14530221656E+02 -0.19078262040E+02  0.19906665144E+02  0.31167013669E+02  0.00000000000E+00 0. -1.
</event>
<event>
 7    1  0.4519840E-010  0.4778727E+02  0.7816164E-02  0.1312668E+00
        -11   -1    0    0    0    0  0.00000000000E+00  0.00000000000E+00  0.45593999997E+02  0.45594000000E+02  0.51100000000E-03 0.  1.
         11   -1    0    0    0    0 -0.00000000000E+00 -0.00000000000E+00 -0.45593999997E+02  0.45594000000E+02  0.51100000000E-03 0. -1.
    9900012    2    1    2    0    0 -0.15293092463E+01  0.34832040656E+02 -0.25845954766E+02  0.47787271656E+02  0.20000002788E+02 0.  0.
         12    1    1    2    0    0  0.15293092463E+01 -0.34832040656E+02  0.25845954766E+02  0.43400728344E+02  0.00000000000E+00 0. -1.
         11    1    3    3    0    0  0.21217243036E+01  0.12503286654E+01 -0.76153670977E+01  0.80036774101E+01  0.51100000000E-03 0. -1.
        -11    1    3    3    0    0  0.15996643738E+01  0.14349419671E+02 -0.12346034105E+02  0.18997087392E+02  0.51100000000E-03 0.  1.
         12    1    3    3    0    0 -0.52506979238E+01  0.19232292319E+02 -0.58845535641E+01  0.20786506854E+02  0.00000000000E+00 0. -1.
</event>
<event>
 7    1  0.4519840E-010  0.4778727E+02  0.7816164E-02  0.1312668E+00
        -11   -1    0    0    0    0  0.00000000000E+00  0.00000000000E+00  0.45593999997E+02  0.45594000000E+02  0.51100000000E-03 0. -1.
         11   -1    0    0    0    0 -0.00000000000E+00 -0.00000000000E+00 -0.45593999997E+02  0.45594000000E+02  0.51100000000E-03 0.  1.
    9900012    2    1    2    0    0 -0.33756207321E+02 -0.11185407710E+02 -0.24880276839E+02  0.47787273579E+02  0.20000011554E+02 0.  0.
         12    1    1    2    0    0  0.33756207321E+02  0.11185407710E+02  0.24880276839E+02  0.43400726421E+02  0.00000000000E+00 0. -1.
         11    1    3    3    0    0 -0.93355145981E+01 -0.48098097766E+01 -0.69735926987E+01  0.12606232518E+02  0.51100000000E-03 0. -1.
        -11    1    3    3    0    0 -0.11280190375E+02 -0.59023661345E+01 -0.17981101544E+02  0.22031809591E+02  0.51100000000E-03 0.  1.
         12    1    3    3    0    0 -0.13140502348E+02 -0.47323179880E+00  0.74417403589E-01  0.13149231469E+02  0.00000000000E+00 0. -1.
</event>
<event>
 7    1  0.4519840E-010  0.4778727E+02  0.7816164E-02  0.1312668E+00
        -11   -1    0    0    0    0  0.00000000000E+00  0.00000000000E+00  0.45593999997E+02  0.45594000000E+02  0.51100000000E-03 0. -1.
         11   -1    0    0    0    0 -0.00000000000E+00 -0.00000000000E+00 -0.45593999997E+02  0.45594000000E+02  0.51100000000E-03 0.  1.
    9900012    2    1    2    0    0 -0.62982519958E+01  0.21200390988E+02 -0.37342986589E+02  0.47787271853E+02  0.20000003689E+02 0.  0.
         12    1    1    2    0    0  0.62982519958E+01 -0.21200390988E+02  0.37342986589E+02  0.43400728147E+02  0.00000000000E+00 0. -1.
         11    1    3    3    0    0 -0.31631221406E+01  0.96600869788E+01 -0.59766166142E+01  0.11791631292E+02  0.51100000000E-03 0. -1.
        -11    1    3    3    0    0 -0.37169191609E+01  0.14326892786E+02 -0.25825281328E+02  0.29766096501E+02  0.51100000000E-03 0.  1.
         12    1    3    3    0    0  0.58178930572E+00 -0.27865887772E+01 -0.55410886472E+01  0.62295440608E+01  0.00000000000E+00 0. -1.
</event>
<event>
 7    1  0.4519840E-010  0.4778726E+02  0.7816164E-02  0.1312668E+00
        -11   -1    0    0    0    0  0.00000000000E+00  0.00000000000E+00  0.45593999997E+02  0.45594000000E+02  0.51100000000E-03 0. -1.
         11   -1    0    0    0    0 -0.00000000000E+00 -0.00000000000E+00 -0.45593999997E+02  0.45594000000E+02  0.51100000000E-03 0.  1.
    9900012    2    1    2    0    0  0.17697106402E+02  0.20958581200E+02 -0.33632943284E+02  0.47787256057E+02  0.19999931664E+02 0.  0.
         12    1    1    2    0    0 -0.17697106402E+02 -0.20958581200E+02  0.33632943284E+02  0.43400743943E+02  0.00000000000E+00 0. -1.
         11    1    3    3    0    0 -0.66888681143E+00  0.17430471124E+01 -0.10791647378E+02  0.10951953077E+02  0.51100000000E-03 0. -1.
        -11    1    3    3    0    0  0.56379429032E+00  0.25969849007E+01 -0.77309042571E+01  0.81749052270E+01  0.51100000000E-03 0.  1.
        -12    1    3    3    0    0  0.17802198923E+02  0.16618549187E+02 -0.15110391648E+02  0.28660397752E+02  0.00000000000E+00 0.  1.
</event>
<event>
 7    1  0.4519840E-010  0.4778727E+02  0.7816164E-02  0.1312668E+00
        -11   -1    0    0    0    0  0.00000000000E+00  0.00000000000E+00  0.45593999997E+02  0.45594000000E+02  0.51100000000E-03 0. -1.
         11   -1    0    0    0    0 -0.00000000000E+00 -0.00000000000E+00 -0.45593999997E+02  0.45594000000E+02  0.51100000000E-03 0.  1.
    9900012    2    1    2    0    0  0.52279334827E+01  0.34250033512E+02 -0.26138618788E+02  0.47787268713E+02  0.19999989371E+02 0.  0.
         12    1    1    2    0    0 -0.52279334827E+01 -0.34250033512E+02  0.26138618788E+02  0.43400731287E+02  0.00000000000E+00 0. -1.
         11    1    3    3    0    0 -0.16909936882E+01 -0.40515466875E+00 -0.35988233315E+01  0.39968912409E+01  0.51100000000E-03 0. -1.
        -11    1    3    3    0    0 -0.25270922356E+01  0.51975174969E+01 -0.72834666661E+01  0.92978099698E+01  0.51100000000E-03 0.  1.
         12    1    3    3    0    0  0.94460194066E+01  0.29457670684E+02 -0.15256328791E+02  0.34492567502E+02  0.00000000000E+00 0. -1.
</event>
<event>
 7    1  0.4519840E-010  0.4778727E+02  0.7816164E-02  0.1312668E+00
        -11   -1    0    0    0    0  0.00000000000E+00  0.00000000000E+00  0.45593999997E+02  0.45594000000E+02  0.51100000000E-03 0.  1.
         11   -1    0    0    0    0 -0.00000000000E+00 -0.00000000000E+00 -0.45593999997E+02  0.45594000000E+02  0.51100000000E-03 0. -1.
    9900012    2    1    2    0    0  0.17993512531E+02 -0.38492248976E+02  0.88432738082E+01  0.47787271710E+02  0.20000003037E+02 0.  0.
        -12    1    1    2    0    0 -0.17993512531E+02  0.38492248976E+02 -0.88432738082E+01  0.43400728290E+02  0.00000000000E+00 0.  1.
         11    1    3    3    0    0  0.36508243517E+00 -0.13956372963E+02  0.10126109518E+02  0.17246788851E+02  0.51100000000E-03 0. -1.
        -11    1    3    3    0    0  0.31249528473E+01 -0.25682294137E+01 -0.11917255965E+01  0.42167929493E+01  0.51100000000E-03 0.  1.
        -12    1    3    3    0    0  0.14503477249E+02 -0.21967646599E+02 -0.91110112821E-01  0.26323689910E+02  0.00000000000E+00 0.  1.
</event>
<event>
 7    1  0.4519840E-010  0.4778730E+02  0.7816164E-02  0.1312668E+00
        -11   -1    0    0    0    0  0.00000000000E+00  0.00000000000E+00  0.45593999997E+02  0.45594000000E+02  0.51100000000E-03 0. -1.
         11   -1    0    0    0    0 -0.00000000000E+00 -0.00000000000E+00 -0.45593999997E+02  0.45594000000E+02  0.51100000000E-03 0.  1.
    9900012    2    1    2    0    0 -0.15954508346E+02  0.10731847658E+02 -0.38908890739E+02  0.47787301051E+02  0.20000136813E+02 0.  0.
         12    1    1    2    0    0  0.15954508346E+02 -0.10731847658E+02  0.38908890739E+02  0.43400698949E+02  0.00000000000E+00 0. -1.
         11    1    3    3    0    0 -0.60474094698E+00  0.44502831135E+01 -0.10685182160E+01  0.46165423038E+01  0.51100000000E-03 0. -1.
        -11    1    3    3    0    0 -0.10345845022E+02 -0.20169179096E+00 -0.10971539768E+02  0.15081507682E+02  0.51100000000E-03 0.  1.
        -12    1    3    3    0    0 -0.50039223765E+01  0.64832563357E+01 -0.26868832754E+02  0.28089251066E+02  0.00000000000E+00 0.  1.
</event>
<event>
 7    1  0.4519840E-010  0.4778727E+02  0.7816164E-02  0.1312668E+00
        -11   -1    0    0    0    0  0.00000000000E+00  0.00000000000E+00  0.45593999997E+02  0.45594000000E+02  0.51100000000E-03 0. -1.
         11   -1    0    0    0    0 -0.00000000000E+00 -0.00000000000E+00 -0.45593999997E+02  0.45594000000E+02  0.51100000000E-03 0.  1.
    9900012    2    1    2    0    0 -0.28433229205E+02 -0.19502616068E+02 -0.26359487216E+02  0.47787272785E+02  0.20000007935E+02 0.  0.
         12    1    1    2    0    0  0.28433229205E+02  0.19502616068E+02  0.26359487216E+02  0.43400727215E+02  0.00000000000E+00 0. -1.
         11    1    3    3    0    0 -0.12801375451E+02 -0.64599859777E+01 -0.94392958069E+01  0.17167030549E+02  0.51100000000E-03 0. -1.
        -11    1    3    3    0    0 -0.16570258817E+02 -0.15504852412E+02 -0.13898107970E+02  0.26610737137E+02  0.51100000000E-03 0.  1.
         12    1    3    3    0    0  0.93840506342E+00  0.24622223215E+01 -0.30220834390E+01  0.40095050986E+01  0.00000000000E+00 0. -1.
</event>
<event>
 7    1  0.4519840E-010  0.4778729E+02  0.7816164E-02  0.1312668E+00
        -11   -1    0    0    0    0  0.00000000000E+00  0.00000000000E+00  0.45593999997E+02  0.45594000000E+02  0.51100000000E-03 0. -1.
         11   -1    0    0    0    0 -0.00000000000E+00 -0.00000000000E+00 -0.45593999997E+02  0.45594000000E+02  0.51100000000E-03 0.  1.
    9900012    2    1    2    0    0  0.64918028830E+01 -0.30889968480E+02  0.29787386436E+02  0.47787285166E+02  0.20000064388E+02 0.  0.
        -12    1    1    2    0    0 -0.64918028830E+01  0.30889968480E+02 -0.29787386436E+02  0.43400714834E+02  0.00000000000E+00 0.  1.
         11    1    3    3    0    0 -0.16341428430E+01 -0.98921039659E-02  0.25125481704E+01  0.29972352685E+01  0.51100000000E-03 0. -1.
        -11    1    3    3    0    0  0.17958302331E+01  0.12571495010E+01  0.41064846819E-01  0.21925140084E+01  0.51100000000E-03 0.  1.
        -12    1    3    3    0    0  0.63301154928E+01 -0.32137225878E+02  0.27233773418E+02  0.42597535890E+02  0.00000000000E+00 0.  1.
</event>
<event>
 7    1  0.4519840E-010  0.4778728E+02  0.7816164E-02  0.1312668E+00
        -11   -1    0    0    0    0  0.00000000000E+00  0.00000000000E+00  0.45593999997E+02  0.45594000000E+02  0.51100000000E-03 0. -1.
         11   -1    0    0    0    0 -0.00000000000E+00 -0.00000000000E+00 -0.45593999997E+02  0.45594000000E+02  0.51100000000E-03 0.  1.
    9900012    2    1    2    0    0 -0.19468634285E+02 -0.74030589526E+01  0.38076102265E+02  0.47787279194E+02  0.20000037157E+02 0.  0.
        -12    1    1    2    0    0  0.19468634285E+02  0.74030589526E+01 -0.38076102265E+02  0.43400720806E+02  0.00000000000E+00 0.  1.
         11    1    3    3    0    0 -0.10240945381E+01 -0.22452112790E+01  0.14808814387E+01  0.28779773118E+01  0.51100000000E-03 0. -1.
        -11    1    3    3    0    0  0.85380663500E+00  0.31895109732E+01  0.80307683777E+00  0.33980727900E+01  0.51100000000E-03 0.  1.
         12    1    3    3    0    0 -0.19298346382E+02 -0.83473586468E+01  0.35792143988E+02  0.41511229092E+02  0.00000000000E+00 0. -1.
</event>
<event>
 7    1  0.4519840E-010  0.4778722E+02  0.7816164E-02  0.1312668E+00
        -11   -1    0    0    0    0  0.00000000000E+00  0.00000000000E+00  0.45593999997E+02  0.45594000000E+02  0.51100000000E-03 0. -1.
         11   -1    0    0    0    0 -0.00000000000E+00 -0.00000000000E+00 -0.45593999997E+02  0.45594000000E+02  0.51100000000E-03 0.  1.
    9900012    2    1    2    0    0 -0.15844652558E+02 -0.32585130519E+02 -0.23891091429E+02  0.47787216651E+02  0.19999751999E+02 0.  0.
         12    1    1    2    0    0  0.15844652558E+02  0.32585130519E+02  0.23891091429E+02  0.43400783349E+02  0.00000000000E+00 0. -1.
         11    1    3    3    0    0 -0.74346049740E+01 -0.25679825152E+02 -0.18463505344E+02  0.32490426295E+02  0.51100000000E-03 0. -1.
        -11    1    3    3    0    0 -0.37875316493E+01 -0.79750633988E+01 -0.11404073054E+01  0.89021099349E+01  0.51100000000E-03 0.  1.
         12    1    3    3    0    0 -0.46225159345E+01  0.10697580320E+01 -0.42871787791E+01  0.63946804218E+01  0.00000000000E+00 0. -1.
</event>
<event>
 7    1  0.4519840E-010  0.4778726E+02  0.7816164E-02  0.1312668E+00
        -11   -1    0    0    0    0  0.00000000000E+00  0.00000000000E+00  0.45593999997E+02  0.45594000000E+02  0.51100000000E-03 0. -1.
         11   -1    0    0    0    0 -0.00000000000E+00 -0.00000000000E+00 -0.45593999997E+02  0.45594000000E+02  0.51100000000E-03 0.  1.
    9900012    2    1    2    0    0  0.67061200578E+01  0.11468508120E+02 -0.41317371182E+02  0.47787263991E+02  0.19999967841E+02 0.  0.
         12    1    1    2    0    0 -0.67061200578E+01 -0.11468508120E+02  0.41317371182E+02  0.43400736009E+02  0.00000000000E+00 0. -1.
         11    1    3    3    0    0 -0.24416050290E+01  0.39026635639E+01 -0.56783815818E+01  0.73100092791E+01  0.51100000000E-03 0. -1.
        -11    1    3    3    0    0  0.12468291534E+01  0.74797257426E+01 -0.56272439868E+01  0.94428150078E+01  0.51100000000E-03 0.  1.
        -12    1    3    3    0    0  0.79008959335E+01  0.86118813408E-01 -0.30011745613E+02  0.31034439704E+02  0.00000000000E+00 0.  1.
</event>
<event>
 7    1  0.4519840E-010  0.4778727E+02  0.7816164E-02  0.1312668E+00
        -11   -1    0    0    0    0  0.00000000000E+00  0.00000000000E+00  0.45593999997E+02  0.45594000000E+02  0.51100000000E-03 0. -1.
         11   -1    0    0    0    0 -0.00000000000E+00 -0.00000000000E+00 -0.45593999997E+02  0.45594000000E+02  0.51100000000E-03 0.  1.
    9900012    2    1    2    0    0 -0.77054034066E+01  0.11145507606E+02 -0.41231390933E+02  0.47787272129E+02  0.20000004946E+02 0.  0.
         12    1    1    2    0    0  0.77054034066E+01 -0.11145507606E+02  0.41231390933E+02  0.43400727871E+02  0.00000000000E+00 0. -1.
         11    1    3    3    0    0 -0.60086576192E+01  0.15889017430E+02 -0.28362463680E+02  0.33060462603E+02  0.51100000000E-03 0. -1.
        -11    1    3    3    0    0 -0.23150971568E+01 -0.94886822212E+00 -0.87135199370E+01  0.90656194329E+01  0.51100000000E-03 0.  1.
         12    1    3    3    0    0  0.61835136945E+00 -0.37946416026E+01 -0.41554073160E+01  0.56611900931E+01  0.00000000000E+00 0. -1.
</event>
<event>
 7    1  0.4519840E-010  0.4778727E+02  0.7816164E-02  0.1312668E+00
        -11   -1    0    0    0    0  0.00000000000E+00  0.00000000000E+00  0.45593999997E+02  0.45594000000E+02  0.51100000000E-03 0. -1.
         11   -1    0    0    0    0 -0.00000000000E+00 -0.00000000000E+00 -0.45593999997E+02  0.45594000000E+02  0.51100000000E-03 0.  1.
    9900012    2    1    2    0    0 -0.12136738217E+02  0.58627967328E+01  0.41254702337E+02  0.47787271147E+02  0.20000000466E+02 0.  0.
        -12    1    1    2    0    0  0.12136738217E+02 -0.58627967328E+01 -0.41254702337E+02  0.43400728853E+02  0.00000000000E+00 0.  1.
         11    1    3    3    0    0  0.91693103676E+00 -0.15024284625E+01  0.63423490996E+00  0.18709110063E+01  0.51100000000E-03 0. -1.
        -11    1    3    3    0    0 -0.43810917420E+01 -0.35145832955E+01  0.21796654591E+02  0.22508674155E+02  0.51100000000E-03 0.  1.
         12    1    3    3    0    0 -0.86725775121E+01  0.10879808491E+02  0.18823812837E+02  0.23407685986E+02  0.00000000000E+00 0. -1.
</event>
<event>
 7    1  0.4519840E-010  0.4778727E+02  0.7816164E-02  0.1312668E+00
        -11   -1    0    0    0    0  0.00000000000E+00  0.00000000000E+00  0.45593999997E+02  0.45594000000E+02  0.51100000000E-03 0. -1.
         11   -1    0    0    0    0 -0.00000000000E+00 -0.00000000000E+00 -0.45593999997E+02  0.45594000000E+02  0.51100000000E-03 0.  1.
    9900012    2    1    2    0    0 -0.58790139639E+01  0.23120943648E+02  0.36255788737E+02  0.47787273539E+02  0.20000011374E+02 0.  0.
        -12    1    1    2    0    0  0.58790139639E+01 -0.23120943648E+02 -0.36255788737E+02  0.43400726461E+02  0.00000000000E+00 0.  1.
         11    1    3    3    0    0 -0.89561483092E+00  0.66150720261E+01  0.40998731171E+01  0.78339175177E+01  0.51100000000E-03 0. -1.
        -11    1    3    3    0    0 -0.81828677825E+01  0.15803646031E+01  0.13268465476E+02  0.15668728531E+02  0.51100000000E-03 0.  1.
         12    1    3    3    0    0  0.31994686495E+01  0.14925507019E+02  0.18887450144E+02  0.24284627491E+02  0.00000000000E+00 0. -1.
</event>
<event>
 7    1  0.4519840E-010  0.4778727E+02  0.7816164E-02  0.1312668E+00
        -11   -1    0    0    0    0  0.00000000000E+00  0.00000000000E+00  0.45593999997E+02  0.45594000000E+02  0.51100000000E-03 0. -1.
         11   -1    0    0    0    0 -0.00000000000E+00 -0.00000000000E+00 -0.45593999997E+02  0.45594000000E+02  0.51100000000E-03 0.  1.
    9900012    2    1    2    0    0 -0.27090546693E+01  0.32198863039E+01  0.43196258344E+02  0.47787269823E+02  0.19999994430E+02 0.  0.
        -12    1    1    2    0    0  0.27090546693E+01 -0.32198863039E+01 -0.43196258344E+02  0.43400730177E+02  0.00000000000E+00 0.  1.
         11    1    3    3    0    0 -0.52348772054E+01  0.29580514464E+01  0.23359620363E+02  0.24121066964E+02  0.51100000000E-03 0. -1.
        -11    1    3    3    0    0  0.13411871430E+01 -0.54946079421E+01  0.15078818225E+02  0.16104665743E+02  0.51100000000E-03 0.  1.
         12    1    3    3    0    0  0.11846353931E+01  0.57564427996E+01  0.47578197561E+01  0.75615371157E+01  0.00000000000E+00 0. -1.
</event>
<event>
 7    1  0.4519840E-010  0.4778727E+02  0.7816164E-02  0.1312668E+00
        -11   -1    0    0    0    0  0.00000000000E+00  0.00000000000E+00  0.45593999997E+02  0.45594000000E+02  0.51100000000E-03 0. -1.
         11   -1    0    0    0    0 -0.00000000000E+00 -0.00000000000E+00 -0.45593999997E+02  0.45594000000E+02  0.51100000000E-03 0.  1.
    9900012    2    1    2    0    0 -0.35875246755E+02 -0.91362472888E+01 -0.22652128880E+02  0.47787270893E+02  0.19999999308E+02 0.  0.
         12    1    1    2    0    0  0.35875246755E+02  0.91362472888E+01  0.22652128880E+02  0.43400729107E+02  0.00000000000E+00 0. -1.
         11    1    3    3    0    0 -0.17959431027E+01 -0.10793970649E+01 -0.51135216896E+01  0.55261753486E+01  0.51100000000E-03 0. -1.
        -11    1    3    3    0    0 -0.18756652741E+02  0.16077295602E+01 -0.14784555372E+02  0.23936998438E+02  0.51100000000E-03 0.  1.
        -12    1    3    3    0    0 -0.15322650911E+02 -0.96645797842E+01 -0.27540518182E+01  0.18324097106E+02  0.00000000000E+00 0.  1.
</event>
<event>
 7    1  0.4519840E-010  0.4778726E+02  0.7816164E-02  0.1312668E+00
        -11   -1    0    0    0    0  0.00000000000E+00  0.00000000000E+00  0.45593999997E+02  0.45594000000E+02  0.51100000000E-03 0. -1.
         11   -1    0    0    0    0 -0.00000000000E+00 -0.00000000000E+00 -0.45593999997E+02  0.45594000000E+02  0.51100000000E-03 0.  1.
    9900012    2    1    2    0    0 -0.18587127197E+02 -0.25732804326E+01  0.39134659427E+02  0.47787255328E+02  0.19999928341E+02 0.  0.
        -12    1    1    2    0    0  0.18587127197E+02  0.25732804326E+01 -0.39134659427E+02  0.43400744672E+02  0.00000000000E+00 0.  1.
         11    1    3    3    0    0  0.17293801226E+01 -0.47401985577E+00  0.10895338851E+02  0.11041913755E+02  0.51100000000E-03 0. -1.
        -11    1    3    3    0    0 -0.12333227886E+02 -0.21679548338E+01  0.76787425030E+01  0.14689166924E+02  0.51100000000E-03 0.  1.
         12    1    3    3    0    0 -0.79832794336E+01  0.68694256996E-01  0.20560578073E+02  0.22056174648E+02  0.00000000000E+00 0. -1.
</event>
<event>
 7    1  0.4519840E-010  0.4778726E+02  0.7816164E-02  0.1312668E+00
        -11   -1    0    0    0    0  0.00000000000E+00  0.00000000000E+00  0.45593999997E+02  0.45594000000E+02  0.51100000000E-03 0. -1.
         11   -1    0    0    0    0 -0.00000000000E+00 -0.00000000000E+00 -0.45593999997E+02  0.45594000000E+02  0.51100000000E-03 0.  1.
    9900012    2    1    2    0    0  0.19071854833E+02 -0.12653559618E+02 -0.36875135437E+02  0.47787264623E+02  0.19999970721E+02 0.  0.
         12    1    1    2    0    0 -0.19071854833E+02  0.12653559618E+02  0.36875135437E+02  0.43400735377E+02  0.00000000000E+00 0. -1.
         11    1    3    3    0    0 -0.53244891885E+00 -0.99452122031E+00 -0.10631654592E+02  0.10691335461E+02  0.51100000000E-03 0. -1.
        -11    1    3    3    0    0  0.37079077962E+01 -0.84396879799E+01 -0.53928864249E+01  0.10679894085E+02  0.51100000000E-03 0.  1.
        -12    1    3    3    0    0  0.15896395956E+02 -0.32193504176E+01 -0.20850594420E+02  0.26416035077E+02  0.00000000000E+00 0.  1.
</event>
<event>
 7    1  0.4519840E-010  0.4778727E+02  0.7816164E-02  0.1312668E+00
        -11   -1    0    0    0    0  0.00000000000E+00  0.00000000000E+00  0.45593999997E+02  0.45594000000E+02  0.51100000000E-03 0.  1.
         11   -1    0    0    0    0 -0.00000000000E+00 -0.00000000000E+00 -0.45593999997E+02  0.45594000000E+02  0.51100000000E-03 0. -1.
    9900012    2    1    2    0    0 -0.35253665267E+02  0.24097865875E+02 -0.77521074760E+01  0.47787271610E+02  0.20000002578E+02 0.  0.
         12    1    1    2    0    0  0.35253665267E+02 -0.24097865875E+02  0.77521074760E+01  0.43400728390E+02  0.00000000000E+00 0. -1.
         11    1    3    3    0    0 -0.14363112674E+02  0.21153592642E+02 -0.67284549157E+01  0.26439470365E+02  0.51100000000E-03 0. -1.
        -11    1    3    3    0    0 -0.47684208223E+01  0.19821321444E+01  0.92872578869E-02  0.51639879445E+01  0.51100000000E-03 0.  1.
         12    1    3    3    0    0 -0.16122131770E+02  0.96214108882E+00 -0.10329398182E+01  0.16183813301E+02  0.00000000000E+00 0. -1.
</event>
<event>
 7    1  0.4519840E-010  0.4778727E+02  0.7816164E-02  0.1312668E+00
        -11   -1    0    0    0    0  0.00000000000E+00  0.00000000000E+00  0.45593999997E+02  0.45594000000E+02  0.51100000000E-03 0. -1.
         11   -1    0    0    0    0 -0.00000000000E+00 -0.00000000000E+00 -0.45593999997E+02  0.45594000000E+02  0.51100000000E-03 0.  1.
    9900012    2    1    2    0    0  0.15521109667E+02  0.26131979873E+02  0.30981259981E+02  0.47787266280E+02  0.19999978279E+02 0.  0.
        -12    1    1    2    0    0 -0.15521109667E+02 -0.26131979873E+02 -0.30981259981E+02  0.43400733720E+02  0.00000000000E+00 0.  1.
         11    1    3    3    0    0  0.12844822001E+02  0.27475309397E+02  0.30929422411E+02  0.43318717082E+02  0.51100000000E-03 0. -1.
        -11    1    3    3    0    0 -0.33823410871E+00  0.51120116873E+00 -0.61351592331E+00  0.86725486247E+00  0.51100000000E-03 0.  1.
         12    1    3    3    0    0  0.30145217753E+01 -0.18545306924E+01  0.66535349261E+00  0.36012943358E+01  0.00000000000E+00 0. -1.
</event>
<event>
 7    1  0.4519840E-010  0.4778727E+02  0.7816164E-02  0.1312668E+00
        -11   -1    0    0    0    0  0.00000000000E+00  0.00000000000E+00  0.45593999997E+02  0.45594000000E+02  0.51100000000E-03 0. -1.
         11   -1    0    0    0    0 -0.00000000000E+00 -0.00000000000E+00 -0.45593999997E+02  0.45594000000E+02  0.51100000000E-03 0.  1.
    9900012    2    1    2    0    0  0.10729561298E+02 -0.62699972240E+01  0.41583493381E+02  0.47787271060E+02  0.20000000069E+02 0.  0.
        -12    1    1    2    0    0 -0.10729561298E+02  0.62699972240E+01 -0.41583493381E+02  0.43400728940E+02  0.00000000000E+00 0.  1.
         11    1    3    3    0    0  0.49872820993E+01 -0.70909389748E+01  0.59853088331E+01  0.10534624833E+02  0.51100000000E-03 0. -1.
        -11    1    3    3    0    0 -0.22674166147E+01 -0.33288265298E+00  0.14037199370E+02  0.14223043112E+02  0.51100000000E-03 0.  1.
        -12    1    3    3    0    0  0.80096958130E+01  0.11538244038E+01  0.21560985178E+02  0.23029603114E+02  0.00000000000E+00 0.  1.
</event>
<event>
 7    1  0.4519840E-010  0.4778727E+02  0.7816164E-02  0.1312668E+00
        -11   -1    0    0    0    0  0.00000000000E+00  0.00000000000E+00  0.45593999997E+02  0.45594000000E+02  0.51100000000E-03 0. -1.
         11   -1    0    0    0    0 -0.00000000000E+00 -0.00000000000E+00 -0.45593999997E+02  0.45594000000E+02  0.51100000000E-03 0.  1.
    9900012    2    1    2    0    0 -0.25143678868E+02 -0.16210716266E+02 -0.31442512388E+02  0.47787268507E+02  0.19999988429E+02 0.  0.
         12    1    1    2    0    0  0.25143678868E+02  0.16210716266E+02  0.31442512388E+02  0.43400731493E+02  0.00000000000E+00 0. -1.
         11    1    3    3    0    0 -0.14128192371E+02 -0.98052437553E+01 -0.91701887491E+01  0.19489509658E+02  0.51100000000E-03 0. -1.
        -11    1    3    3    0    0 -0.44022927330E+01 -0.84611696981E+01 -0.80578720711E+01  0.12486027252E+02  0.51100000000E-03 0.  1.
        -12    1    3    3    0    0 -0.66131937643E+01  0.20556971869E+01 -0.14214451568E+02  0.15811731596E+02  0.00000000000E+00 0.  1.
</event>
<event>
 7    1  0.4519840E-010  0.4778728E+02  0.7816164E-02  0.1312668E+00
        -11   -1    0    0    0    0  0.00000000000E+00  0.00000000000E+00  0.45593999997E+02  0.45594000000E+02  0.51100000000E-03 0.  1.
         11   -1    0    0    0    0 -0.00000000000E+00 -0.00000000000E+00 -0.45593999997E+02  0.45594000000E+02  0.51100000000E-03 0. -1.
    9900012    2    1    2    0    0 -0.27397749571E+02 -0.32757669328E+02  0.77408806068E+01  0.47787276343E+02  0.20000024158E+02 0.  0.
        -12    1    1    2    0    0  0.27397749571E+02  0.32757669328E+02 -0.77408806068E+01  0.43400723657E+02  0.00000000000E+00 0.  1.
         11    1    3    3    0    0 -0.17297974677E+02 -0.24806977757E+02  0.87584307291E+01  0.31485174011E+02  0.51100000000E-03 0. -1.
        -11    1    3    3    0    0 -0.20872099878E+01 -0.63083962944E+01  0.28797363453E+01  0.72419052065E+01  0.51100000000E-03 0.  1.
        -12    1    3    3    0    0 -0.80125649061E+01 -0.16422952768E+01 -0.38972864677E+01  0.90601971260E+01  0.00000000000E+00 0.  1.
</event>
<event>
 7    1  0.4519840E-010  0.4778726E+02  0.7816164E-02  0.1312668E+00
        -11   -1    0    0    0    0  0.00000000000E+00  0.00000000000E+00  0.45593999997E+02  0.45594000000E+02  0.51100000000E-03 0. -1.
         11   -1    0    0    0    0 -0.00000000000E+00 -0.00000000000E+00 -0.45593999997E+02  0.45594000000E+02  0.51100000000E-03 0.  1.
    9900012    2    1    2    0    0  0.68080959661E+01  0.54275675722E+01 -0.42518411001E+02  0.47787263434E+02  0.19999965301E+02 0.  0.
         12    1    1    2    0    0 -0.68080959661E+01 -0.54275675722E+01  0.42518411001E+02  0.43400736566E+02  0.00000000000E+00 0. -1.
         11    1    3    3    0    0 -0.47005544254E+00  0.15463919151E+01 -0.10979154298E+02  0.11097482121E+02  0.51100000000E-03 0. -1.
        -11    1    3    3    0    0 -0.15640396877E+01  0.41143754977E+01 -0.25738354548E+02  0.26112012580E+02  0.51100000000E-03 0.  1.
         12    1    3    3    0    0  0.88421910964E+01 -0.23319984054E+00 -0.58009021554E+01  0.10577768733E+02  0.00000000000E+00 0. -1.
</event>
<event>
 7    1  0.4519840E-010  0.4778727E+02  0.7816164E-02  0.1312668E+00
        -11   -1    0    0    0    0  0.00000000000E+00  0.00000000000E+00  0.45593999997E+02  0.45594000000E+02  0.51100000000E-03 0. -1.
         11   -1    0    0    0    0 -0.00000000000E+00 -0.00000000000E+00 -0.45593999997E+02  0.45594000000E+02  0.51100000000E-03 0.  1.
    9900012    2    1    2    0    0 -0.44206552895E+01 -0.41895386519E+01 -0.42971254093E+02  0.47787272983E+02  0.20000008839E+02 0.  0.
         12    1    1    2    0    0  0.44206552895E+01  0.41895386519E+01  0.42971254093E+02  0.43400727017E+02  0.00000000000E+00 0. -1.
         11    1    3    3    0    0  0.29846818989E+01 -0.56730345710E+01 -0.22468854303E+02  0.23365381684E+02  0.51100000000E-03 0. -1.
        -11    1    3    3    0    0 -0.85071625727E+00 -0.43233123863E+01 -0.83756539260E+01  0.94639488106E+01  0.51100000000E-03 0.  1.
        -12    1    3    3    0    0 -0.65546209312E+01  0.58068083054E+01 -0.12126745863E+02  0.14957942488E+02  0.00000000000E+00 0.  1.
</event>
<event>
 7    1  0.4519840E-010  0.4778724E+02  0.7816164E-02  0.1312668E+00
        -11   -1    0    0    0    0  0.00000000000E+00  0.00000000000E+00  0.45593999997E+02  0.45594000000E+02  0.51100000000E-03 0. -1.
         11   -1    0    0    0    0 -0.00000000000E+00 -0.00000000000E+00 -0.45593999997E+02  0.45594000000E+02  0.51100000000E-03 0.  1.
    9900012    2    1    2    0    0  0.21019523219E+02 -0.10526651309E+02 -0.36482801368E+02  0.47787244940E+02  0.19999880979E+02 0.  0.
         12    1    1    2    0    0 -0.21019523219E+02  0.10526651309E+02  0.36482801368E+02  0.43400755060E+02  0.00000000000E+00 0. -1.
         11    1    3    3    0    0  0.13485670347E+02  0.18315408072E+01 -0.79998149163E+01  0.15786541274E+02  0.51100000000E-03 0. -1.
        -11    1    3    3    0    0  0.27807586047E+01 -0.31668141690E+01 -0.74239141311E+01  0.85367342517E+01  0.51100000000E-03 0.  1.
         12    1    3    3    0    0  0.47530942676E+01 -0.91913779475E+01 -0.21059072320E+02  0.23463969414E+02  0.00000000000E+00 0. -1.
</event>
<event>
 7    1  0.4519840E-010  0.4778727E+02  0.7816164E-02  0.1312668E+00
        -11   -1    0    0    0    0  0.00000000000E+00  0.00000000000E+00  0.45593999997E+02  0.45594000000E+02  0.51100000000E-03 0.  1.
         11   -1    0    0    0    0 -0.00000000000E+00 -0.00000000000E+00 -0.45593999997E+02  0.45594000000E+02  0.51100000000E-03 0. -1.
    9900012    2    1    2    0    0 -0.12466835945E+02  0.39937083218E+02 -0.11542571291E+02  0.47787267674E+02  0.19999984632E+02 0.  0.
        -12    1    1    2    0    0  0.12466835945E+02 -0.39937083218E+02  0.11542571291E+02  0.43400732326E+02  0.00000000000E+00 0.  1.
         11    1    3    3    0    0 -0.99636239166E+01  0.16184642879E+02 -0.70911281147E+01  0.20285476698E+02  0.51100000000E-03 0. -1.
        -11    1    3    3    0    0 -0.76128432544E-01  0.11888263881E+02 -0.86307281658E+01  0.14691020474E+02  0.51100000000E-03 0.  1.
        -12    1    3    3    0    0 -0.24270835960E+01  0.11864176458E+02  0.41792849896E+01  0.12810770501E+02  0.00000000000E+00 0.  1.
</event>
<event>
 7    1  0.4519840E-010  0.4778727E+02  0.7816164E-02  0.1312668E+00
        -11   -1    0    0    0    0  0.00000000000E+00  0.00000000000E+00  0.45593999997E+02  0.45594000000E+02  0.51100000000E-03 0. -1.
         11   -1    0    0    0    0 -0.00000000000E+00 -0.00000000000E+00 -0.45593999997E+02  0.45594000000E+02  0.51100000000E-03 0.  1.
    9900012    2    1    2    0    0 -0.57726242416E+01 -0.58101057398E+01  0.42620924555E+02  0.47787265799E+02  0.19999976082E+02 0.  0.
        -12    1    1    2    0    0  0.57726242416E+01  0.58101057398E+01 -0.42620924555E+02  0.43400734201E+02  0.00000000000E+00 0.  1.
         11    1    3    3    0    0  0.45301870289E+01  0.20366842664E+01  0.50773696484E+01  0.71028416937E+01  0.51100000000E-03 0. -1.
        -11    1    3    3    0    0 -0.70377672566E+01 -0.74792622213E-01  0.20407445134E+02  0.21587023395E+02  0.51100000000E-03 0.  1.
        -12    1    3    3    0    0 -0.32650440140E+01 -0.77719973840E+01  0.17136109772E+02  0.19097400709E+02  0.00000000000E+00 0.  1.
</event>
<event>
 7    1  0.4519840E-010  0.4778727E+02  0.7816164E-02  0.1312668E+00
        -11   -1    0    0    0    0  0.00000000000E+00  0.00000000000E+00  0.45593999997E+02  0.45594000000E+02  0.51100000000E-03 0. -1.
         11   -1    0    0    0    0 -0.00000000000E+00 -0.00000000000E+00 -0.45593999997E+02  0.45594000000E+02  0.51100000000E-03 0.  1.
    9900012    2    1    2    0    0  0.38731843147E+02  0.17488490531E+02  0.88102412861E+01  0.47787270442E+02  0.19999997254E+02 0.  0.
        -12    1    1    2    0    0 -0.38731843147E+02 -0.17488490531E+02 -0.88102412861E+01  0.43400729558E+02  0.00000000000E+00 0.  1.
         11    1    3    3    0    0  0.74330086730E+01  0.68343339636E+01  0.71887939611E+01  0.12395019062E+02  0.51100000000E-03 0. -1.
        -11    1    3    3    0    0  0.49853996935E+01  0.18872608165E+01  0.51757757618E+01  0.74299810559E+01  0.51100000000E-03 0.  1.
        -12    1    3    3    0    0  0.26313434781E+02  0.87668957510E+01 -0.35543284368E+01  0.27962270325E+02  0.00000000000E+00 0.  1.
</event>
<event>
 7    1  0.4519840E-010  0.4778727E+02  0.7816164E-02  0.1312668E+00
        -11   -1    0    0    0    0  0.00000000000E+00  0.00000000000E+00  0.45593999997E+02  0.45594000000E+02  0.51100000000E-03 0. -1.
         11   -1    0    0    0    0 -0.00000000000E+00 -0.00000000000E+00 -0.45593999997E+02  0.45594000000E+02  0.51100000000E-03 0.  1.
    9900012    2    1    2    0    0  0.14789633877E+02 -0.52656570206E+01  0.40461868273E+02  0.47787271916E+02  0.20000003974E+02 0.  0.
        -12    1    1    2    0    0 -0.14789633877E+02  0.52656570206E+01 -0.40461868273E+02  0.43400728084E+02  0.00000000000E+00 0.  1.
         11    1    3    3    0    0  0.10634969885E+02 -0.66872731719E+01  0.36539239735E+02  0.38638559078E+02  0.51100000000E-03 0. -1.
        -11    1    3    3    0    0  0.42423857750E+01 -0.11951827912E+01 -0.29907839394E-01  0.44076290348E+01  0.51100000000E-03 0.  1.
         12    1    3    3    0    0 -0.87721782495E-01  0.26167989426E+01  0.39525363775E+01  0.47410838036E+01  0.00000000000E+00 0. -1.
</event>
<event>
 7    1  0.5699457E-010  0.4778727E+02  0.7816164E-02  0.1312668E+00
        -11   -1    0    0    0    0  0.00000000000E+00  0.00000000000E+00  0.45593999997E+02  0.45594000000E+02  0.51100000000E-03 0. -1.
         11   -1    0    0    0    0 -0.00000000000E+00 -0.00000000000E+00 -0.45593999997E+02  0.45594000000E+02  0.51100000000E-03 0.  1.
    9900012    2    1    2    0    0 -0.71033262569E+01  0.53018560094E+01 -0.42485954357E+02  0.47787271450E+02  0.20000001848E+02 0.  0.
         12    1    1    2    0    0  0.71033262569E+01 -0.53018560094E+01  0.42485954357E+02  0.43400728550E+02  0.00000000000E+00 0. -1.
         11    1    3    3    0    0  0.30850466635E+01 -0.29670306132E+01 -0.96167429370E+01  0.10526278001E+02  0.51100000000E-03 0. -1.
        -11    1    3    3    0    0 -0.54232565921E+01 -0.37173304317E+00 -0.39916818439E+01  0.67441398060E+01  0.51100000000E-03 0.  1.
        -12    1    3    3    0    0 -0.47651163284E+01  0.86406196657E+01 -0.28877529576E+02  0.30516853643E+02  0.00000000000E+00 0.  1.
</event>
<event>
 7    1  0.4519840E-010  0.4778727E+02  0.7816164E-02  0.1312668E+00
        -11   -1    0    0    0    0  0.00000000000E+00  0.00000000000E+00  0.45593999997E+02  0.45594000000E+02  0.51100000000E-03 0.  1.
         11   -1    0    0    0    0 -0.00000000000E+00 -0.00000000000E+00 -0.45593999997E+02  0.45594000000E+02  0.51100000000E-03 0. -1.
    9900012    2    1    2    0    0 -0.40532490648E+02 -0.24937151959E+01 -0.15314097765E+02  0.47787274154E+02  0.20000014176E+02 0.  0.
         12    1    1    2    0    0  0.40532490648E+02  0.24937151959E+01  0.15314097765E+02  0.43400725846E+02  0.00000000000E+00 0. -1.
         11    1    3    3    0    0 -0.20583569091E+02 -0.63863016569E+01 -0.46505040896E+01  0.22047570250E+02  0.51100000000E-03 0.  1.
        -11    1    3    3    0    0 -0.17601885954E+01 -0.33668317111E+01 -0.23274369996E+01  0.44554217433E+01  0.51100000000E-03 0. -1.
         12    1    3    3    0    0 -0.18188732962E+02  0.72594181722E+01 -0.83361566760E+01  0.21284282160E+02  0.00000000000E+00 0. -1.
</event>
<event>
 7    1  0.4519840E-010  0.4778726E+02  0.7816164E-02  0.1312668E+00
        -11   -1    0    0    0    0  0.00000000000E+00  0.00000000000E+00  0.45593999997E+02  0.45594000000E+02  0.51100000000E-03 0.  1.
         11   -1    0    0    0    0 -0.00000000000E+00 -0.00000000000E+00 -0.45593999997E+02  0.45594000000E+02  0.51100000000E-03 0. -1.
    9900012    2    1    2    0    0  0.39223454643E+02 -0.16346111414E+02 -0.88288804070E+01  0.47787264041E+02  0.19999968070E+02 0.  0.
         12    1    1    2    0    0 -0.39223454643E+02  0.16346111414E+02  0.88288804070E+01  0.43400735959E+02  0.00000000000E+00 0. -1.
         11    1    3    3    0    0  0.72704237567E+01 -0.84230511121E+01  0.29109403755E+01  0.11501322783E+02  0.51100000000E-03 0. -1.
        -11    1    3    3    0    0  0.17282408846E+02 -0.89586424205E+01 -0.49425704461E+01  0.20084021818E+02  0.51100000000E-03 0.  1.
         12    1    3    3    0    0  0.14670622041E+02  0.10355821186E+01 -0.67972503364E+01  0.16201919440E+02  0.00000000000E+00 0. -1.
</event>
<event>
 7    1  0.4519840E-010  0.4778727E+02  0.7816164E-02  0.1312668E+00
        -11   -1    0    0    0    0  0.00000000000E+00  0.00000000000E+00  0.45593999997E+02  0.45594000000E+02  0.51100000000E-03 0. -1.
         11   -1    0    0    0    0 -0.00000000000E+00 -0.00000000000E+00 -0.45593999997E+02  0.45594000000E+02  0.51100000000E-03 0.  1.
    9900012    2    1    2    0    0  0.37331998279E+02 -0.58406271041E+01  0.21350225417E+02  0.47787272520E+02  0.20000006727E+02 0.  0.
        -12    1    1    2    0    0 -0.37331998279E+02  0.58406271041E+01 -0.21350225417E+02  0.43400727480E+02  0.00000000000E+00 0.  1.
         11    1    3    3    0    0  0.13503222765E+02 -0.34657867762E+01  0.15328825757E+02  0.20720077278E+02  0.51100000000E-03 0. -1.
        -11    1    3    3    0    0  0.12837293526E+02 -0.64577489685E+01  0.53120183054E+01  0.15320449261E+02  0.51100000000E-03 0.  1.
        -12    1    3    3    0    0  0.10991481987E+02  0.40829086406E+01  0.70938135422E+00  0.11746745981E+02  0.00000000000E+00 0.  1.
</event>
<event>
 7    1  0.4519840E-010  0.4778727E+02  0.7816164E-02  0.1312668E+00
        -11   -1    0    0    0    0  0.00000000000E+00  0.00000000000E+00  0.45593999997E+02  0.45594000000E+02  0.51100000000E-03 0. -1.
         11   -1    0    0    0    0 -0.00000000000E+00 -0.00000000000E+00 -0.45593999997E+02  0.45594000000E+02  0.51100000000E-03 0.  1.
    9900012    2    1    2    0    0  0.69249091551E+01 -0.32361172068E+02 -0.28078879320E+02  0.47787270878E+02  0.19999999243E+02 0.  0.
         12    1    1    2    0    0 -0.69249091551E+01  0.32361172068E+02  0.28078879320E+02  0.43400729122E+02  0.00000000000E+00 0. -1.
         11    1    3    3    0    0  0.24504115549E+01  0.45178852874E+00 -0.46099720129E+01  0.52402740276E+01  0.51100000000E-03 0. -1.
        -11    1    3    3    0    0  0.87711308249E+01 -0.17410010589E+02 -0.12608860935E+02  0.23216902873E+02  0.51100000000E-03 0.  1.
        -12    1    3    3    0    0 -0.42966332247E+01 -0.15402950008E+02 -0.10860046371E+02  0.19330093978E+02  0.00000000000E+00 0.  1.
</event>
<event>
 7    1  0.4519840E-010  0.4778727E+02  0.7816164E-02  0.1312668E+00
        -11   -1    0    0    0    0  0.00000000000E+00  0.00000000000E+00  0.45593999997E+02  0.45594000000E+02  0.51100000000E-03 0. -1.
         11   -1    0    0    0    0 -0.00000000000E+00 -0.00000000000E+00 -0.45593999997E+02  0.45594000000E+02  0.51100000000E-03 0.  1.
    9900012    2    1    2    0    0 -0.85163419902E+01  0.10963339845E+02  0.41120559185E+02  0.47787270868E+02  0.19999999197E+02 0.  0.
        -12    1    1    2    0    0  0.85163419902E+01 -0.10963339845E+02 -0.41120559185E+02  0.43400729132E+02  0.00000000000E+00 0.  1.
         11    1    3    3    0    0 -0.67884644363E+01 -0.65819378756E+00  0.55672486419E+01  0.88040176151E+01  0.51100000000E-03 0. -1.
        -11    1    3    3    0    0 -0.10939271343E+01 -0.15036056503E+01  0.10794200028E+02  0.10953184972E+02  0.51100000000E-03 0.  1.
         12    1    3    3    0    0 -0.63395041964E+00  0.13125139283E+02  0.24759110515E+02  0.28030068281E+02  0.00000000000E+00 0. -1.
</event>
<event>
 7    1  0.4519840E-010  0.4778730E+02  0.7816164E-02  0.1312668E+00
        -11   -1    0    0    0    0  0.00000000000E+00  0.00000000000E+00  0.45593999997E+02  0.45594000000E+02  0.51100000000E-03 0. -1.
         11   -1    0    0    0    0 -0.00000000000E+00 -0.00000000000E+00 -0.45593999997E+02  0.45594000000E+02  0.51100000000E-03 0.  1.
    9900012    2    1    2    0    0 -0.82325584003E+01  0.28037342133E+01 -0.42520401849E+02  0.47787302808E+02  0.20000144822E+02 0.  0.
         12    1    1    2    0    0  0.82325584003E+01 -0.28037342133E+01  0.42520401849E+02  0.43400697192E+02  0.00000000000E+00 0. -1.
         11    1    3    3    0    0 -0.30063360979E+01  0.94112672636E+01 -0.28155159173E+02  0.29838280724E+02  0.51100000000E-03 0. -1.
        -11    1    3    3    0    0  0.48988791578E+00 -0.18096196868E+01 -0.77589376573E+01  0.79822194540E+01  0.51100000000E-03 0.  1.
        -12    1    3    3    0    0 -0.57161102181E+01 -0.47979133635E+01 -0.66063050189E+01  0.99668026303E+01  0.00000000000E+00 0.  1.
</event>
<event>
 7    1  0.4519840E-010  0.4778727E+02  0.7816164E-02  0.1312668E+00
        -11   -1    0    0    0    0  0.00000000000E+00  0.00000000000E+00  0.45593999997E+02  0.45594000000E+02  0.51100000000E-03 0. -1.
         11   -1    0    0    0    0 -0.00000000000E+00 -0.00000000000E+00 -0.45593999997E+02  0.45594000000E+02  0.51100000000E-03 0.  1.
    9900012    2    1    2    0    0  0.21287396908E+01  0.16183123977E+02 -0.40214406757E+02  0.47787267919E+02  0.19999985752E+02 0.  0.
         12    1    1    2    0    0 -0.21287396908E+01 -0.16183123977E+02  0.40214406757E+02  0.43400732081E+02  0.00000000000E+00 0. -1.
         11    1    3    3    0    0  0.31730095410E+01  0.62272303304E+01 -0.17230473388E+02  0.18593966779E+02  0.51100000000E-03 0. -1.
        -11    1    3    3    0    0 -0.33662032836E+01  0.80782630283E+01 -0.24375448944E+02  0.25898883559E+02  0.51100000000E-03 0.  1.
         12    1    3    3    0    0  0.23219334333E+01  0.18776306185E+01  0.13915155754E+01  0.32944175820E+01  0.00000000000E+00 0. -1.
</event>
<event>
 7    1  0.4519840E-010  0.4778727E+02  0.7816164E-02  0.1312668E+00
        -11   -1    0    0    0    0  0.00000000000E+00  0.00000000000E+00  0.45593999997E+02  0.45594000000E+02  0.51100000000E-03 0. -1.
         11   -1    0    0    0    0 -0.00000000000E+00 -0.00000000000E+00 -0.45593999997E+02  0.45594000000E+02  0.51100000000E-03 0.  1.
    9900012    2    1    2    0    0  0.33135109262E+01  0.40904450979E+02  0.14123377363E+02  0.47787271288E+02  0.20000001111E+02 0.  0.
        -12    1    1    2    0    0 -0.33135109262E+01 -0.40904450979E+02 -0.14123377363E+02  0.43400728712E+02  0.00000000000E+00 0.  1.
         11    1    3    3    0    0  0.38537234403E+01  0.19899486060E+02  0.93160290786E+01  0.22307602468E+02  0.51100000000E-03 0. -1.
        -11    1    3    3    0    0  0.66828879217E+00  0.18597003582E+01  0.59427820092E+01  0.62627273294E+01  0.51100000000E-03 0.  1.
         12    1    3    3    0    0 -0.12085013062E+01  0.19145264561E+02 -0.11354337246E+01  0.19216941490E+02  0.00000000000E+00 0. -1.
</event>
<event>
 7    1  0.5590054E-010  0.4778727E+02  0.7816164E-02  0.1312668E+00
        -11   -1    0    0    0    0  0.00000000000E+00  0.00000000000E+00  0.45593999997E+02  0.45594000000E+02  0.51100000000E-03 0. -1.
         11   -1    0    0    0    0 -0.00000000000E+00 -0.00000000000E+00 -0.45593999997E+02  0.45594000000E+02  0.51100000000E-03 0.  1.
    9900012    2    1    2    0    0 -0.15634363189E+02  0.69020778837E+00 -0.40481025069E+02  0.47787273166E+02  0.20000009672E+02 0.  0.
         12    1    1    2    0    0  0.15634363189E+02 -0.69020778837E+00  0.40481025069E+02  0.43400726834E+02  0.00000000000E+00 0. -1.
         11    1    3    3    0    0 -0.20111636427E+01  0.51522237325E+01 -0.95421898521E+01  0.11029214660E+02  0.51100000000E-03 0. -1.
        -11    1    3    3    0    0 -0.12087780418E+02  0.27309210384E+01 -0.21163141414E+02  0.24524496323E+02  0.51100000000E-03 0.  1.
        -12    1    3    3    0    0 -0.15354191282E+01 -0.71929369825E+01 -0.97756938031E+01  0.12233562182E+02  0.00000000000E+00 0.  1.
</event>
<event>
 7    1  0.4519840E-010  0.4778727E+02  0.7816164E-02  0.1312668E+00
        -11   -1    0    0    0    0  0.00000000000E+00  0.00000000000E+00  0.45593999997E+02  0.45594000000E+02  0.51100000000E-03 0. -1.
         11   -1    0    0    0    0 -0.00000000000E+00 -0.00000000000E+00 -0.45593999997E+02  0.45594000000E+02  0.51100000000E-03 0.  1.
    9900012    2    1    2    0    0 -0.29507994941E+00 -0.42449816253E+02  0.90304627863E+01  0.47787271547E+02  0.20000002293E+02 0.  0.
        -12    1    1    2    0    0  0.29507994941E+00  0.42449816253E+02 -0.90304627863E+01  0.43400728453E+02  0.00000000000E+00 0.  1.
         11    1    3    3    0    0  0.16094964950E+01 -0.74058839149E+00 -0.15760985256E+01  0.23712943631E+01  0.51100000000E-03 0. -1.
        -11    1    3    3    0    0  0.18160485629E+01 -0.41760757506E+01 -0.28478008841E+01  0.53709972253E+01  0.51100000000E-03 0.  1.
         12    1    3    3    0    0 -0.37206250073E+01 -0.37533152111E+02  0.13454362196E+02  0.40044979959E+02  0.00000000000E+00 0. -1.
</event>
<event>
 7    1  0.4519840E-010  0.4778727E+02  0.7816164E-02  0.1312668E+00
        -11   -1    0    0    0    0  0.00000000000E+00  0.00000000000E+00  0.45593999997E+02  0.45594000000E+02  0.51100000000E-03 0. -1.
         11   -1    0    0    0    0 -0.00000000000E+00 -0.00000000000E+00 -0.45593999997E+02  0.45594000000E+02  0.51100000000E-03 0.  1.
    9900012    2    1    2    0    0 -0.25387000670E+02  0.96471724041E+01  0.33853441615E+02  0.47787271347E+02  0.20000001379E+02 0.  0.
        -12    1    1    2    0    0  0.25387000670E+02 -0.96471724041E+01 -0.33853441615E+02  0.43400728653E+02  0.00000000000E+00 0.  1.
         11    1    3    3    0    0 -0.16273272776E+01  0.17314246618E+01  0.29135657066E+01  0.37596397189E+01  0.51100000000E-03 0. -1.
        -11    1    3    3    0    0 -0.13725041388E+01  0.68066066228E+01  0.16353520154E+01  0.71335851999E+01  0.51100000000E-03 0.  1.
         12    1    3    3    0    0 -0.22387169254E+02  0.11091411194E+01  0.29304523893E+02  0.36894046428E+02  0.00000000000E+00 0. -1.
</event>
<event>
 7    1  0.4519840E-010  0.4778727E+02  0.7816164E-02  0.1312668E+00
        -11   -1    0    0    0    0  0.00000000000E+00  0.00000000000E+00  0.45593999997E+02  0.45594000000E+02  0.51100000000E-03 0. -1.
         11   -1    0    0    0    0 -0.00000000000E+00 -0.00000000000E+00 -0.45593999997E+02  0.45594000000E+02  0.51100000000E-03 0.  1.
    9900012    2    1    2    0    0 -0.16624747913E+02  0.14505894435E+02  0.37374057813E+02  0.47787269431E+02  0.19999992642E+02 0.  0.
        -12    1    1    2    0    0  0.16624747913E+02 -0.14505894435E+02 -0.37374057813E+02  0.43400730569E+02  0.00000000000E+00 0.  1.
         11    1    3    3    0    0 -0.62136192114E+01  0.68190167773E+01  0.16466666309E+02  0.18874828558E+02  0.51100000000E-03 0. -1.
        -11    1    3    3    0    0 -0.80858135060E+01  0.38566295780E+01  0.22451678166E+02  0.24172956470E+02  0.51100000000E-03 0.  1.
        -12    1    3    3    0    0 -0.23253151954E+01  0.38302480795E+01 -0.15442866618E+01  0.47394844025E+01  0.00000000000E+00 0.  1.
</event>
<event>
 7    1  0.4519840E-010  0.4778727E+02  0.7816164E-02  0.1312668E+00
        -11   -1    0    0    0    0  0.00000000000E+00  0.00000000000E+00  0.45593999997E+02  0.45594000000E+02  0.51100000000E-03 0. -1.
         11   -1    0    0    0    0 -0.00000000000E+00 -0.00000000000E+00 -0.45593999997E+02  0.45594000000E+02  0.51100000000E-03 0.  1.
    9900012    2    1    2    0    0  0.35966709739E+02  0.21828499767E+02 -0.10655327987E+02  0.47787266987E+02  0.19999981501E+02 0.  0.
         12    1    1    2    0    0 -0.35966709739E+02 -0.21828499767E+02  0.10655327987E+02  0.43400733013E+02  0.00000000000E+00 0. -1.
         11    1    3    3    0    0  0.22901113545E+02  0.84959173777E+01 -0.25935779724E+01  0.24563555538E+02  0.51100000000E-03 0. -1.
        -11    1    3    3    0    0  0.11028717013E+02  0.81563999005E+01 -0.35820557975E+00  0.13721799073E+02  0.51100000000E-03 0.  1.
         12    1    3    3    0    0  0.20368791808E+01  0.51761824885E+01 -0.77035444345E+01  0.95019123763E+01  0.00000000000E+00 0. -1.
</event>
<event>
 7    1  0.4519840E-010  0.4778727E+02  0.7816164E-02  0.1312668E+00
        -11   -1    0    0    0    0  0.00000000000E+00  0.00000000000E+00  0.45593999997E+02  0.45594000000E+02  0.51100000000E-03 0. -1.
         11   -1    0    0    0    0 -0.00000000000E+00 -0.00000000000E+00 -0.45593999997E+02  0.45594000000E+02  0.51100000000E-03 0.  1.
    9900012    2    1    2    0    0 -0.40533365092E+01  0.38694235704E+02 -0.19234083522E+02  0.47787269793E+02  0.19999994293E+02 0.  0.
         12    1    1    2    0    0  0.40533365092E+01 -0.38694235704E+02  0.19234083522E+02  0.43400730207E+02  0.00000000000E+00 0. -1.
         11    1    3    3    0    0  0.75562067853E+00 -0.32172281691E-01  0.33745574855E+00  0.82817528874E+00  0.51100000000E-03 0. -1.
        -11    1    3    3    0    0 -0.15392876624E+01  0.37295208421E+02 -0.13082386446E+02  0.39553139105E+02  0.51100000000E-03 0.  1.
         12    1    3    3    0    0 -0.32696695253E+01  0.14311995653E+01 -0.64891528244E+01  0.74059553994E+01  0.00000000000E+00 0. -1.
</event>
<event>
 7    1  0.4519840E-010  0.4778727E+02  0.7816164E-02  0.1312668E+00
        -11   -1    0    0    0    0  0.00000000000E+00  0.00000000000E+00  0.45593999997E+02  0.45594000000E+02  0.51100000000E-03 0. -1.
         11   -1    0    0    0    0 -0.00000000000E+00 -0.00000000000E+00 -0.45593999997E+02  0.45594000000E+02  0.51100000000E-03 0.  1.
    9900012    2    1    2    0    0  0.61654989076E+01  0.15543380420E+02  0.40050134981E+02  0.47787270010E+02  0.19999995284E+02 0.  0.
        -12    1    1    2    0    0 -0.61654989076E+01 -0.15543380420E+02 -0.40050134981E+02  0.43400729990E+02  0.00000000000E+00 0.  1.
         11    1    3    3    0    0  0.21661144906E+01  0.46714407995E+01  0.31255468290E+02  0.31676785023E+02  0.51100000000E-03 0. -1.
        -11    1    3    3    0    0  0.32866289124E+01  0.12353586673E+01  0.40033233694E+01  0.53249074082E+01  0.51100000000E-03 0.  1.
        -12    1    3    3    0    0  0.71275550463E+00  0.96365809533E+01  0.47913433217E+01  0.10785577579E+02  0.00000000000E+00 0.  1.
</event>
<event>
 7    1  0.4519840E-010  0.4778727E+02  0.7816164E-02  0.1312668E+00
        -11   -1    0    0    0    0  0.00000000000E+00  0.00000000000E+00  0.45593999997E+02  0.45594000000E+02  0.51100000000E-03 0.  1.
         11   -1    0    0    0    0 -0.00000000000E+00 -0.00000000000E+00 -0.45593999997E+02  0.45594000000E+02  0.51100000000E-03 0. -1.
    9900012    2    1    2    0    0 -0.41781480758E+02  0.72335254971E+01  0.92524210267E+01  0.47787270510E+02  0.19999997563E+02 0.  0.
        -12    1    1    2    0    0  0.41781480758E+02 -0.72335254971E+01 -0.92524210267E+01  0.43400729490E+02  0.00000000000E+00 0.  1.
         11    1    3    3    0    0 -0.41067694609E+01  0.38122567643E+01  0.17889385071E+01  0.58821049196E+01  0.51100000000E-03 0. -1.
        -11    1    3    3    0    0 -0.31826722140E+02  0.29279099431E+01  0.12354181876E+02  0.34265707477E+02  0.51100000000E-03 0.  1.
        -12    1    3    3    0    0 -0.58479891568E+01  0.49335878977E+00 -0.48906993564E+01  0.76394581135E+01  0.00000000000E+00 0.  1.
</event>
<event>
 7    1  0.4519840E-010  0.4778727E+02  0.7816164E-02  0.1312668E+00
        -11   -1    0    0    0    0  0.00000000000E+00  0.00000000000E+00  0.45593999997E+02  0.45594000000E+02  0.51100000000E-03 0. -1.
         11   -1    0    0    0    0 -0.00000000000E+00 -0.00000000000E+00 -0.45593999997E+02  0.45594000000E+02  0.51100000000E-03 0.  1.
    9900012    2    1    2    0    0 -0.57123898748E+01 -0.79283011408E+01  0.42286335682E+02  0.47787267950E+02  0.19999985889E+02 0.  0.
        -12    1    1    2    0    0  0.57123898748E+01  0.79283011408E+01 -0.42286335682E+02  0.43400732050E+02  0.00000000000E+00 0.  1.
         11    1    3    3    0    0 -0.24545935115E+01  0.69298725877E+00  0.74189884695E+01  0.78451673544E+01  0.51100000000E-03 0. -1.
        -11    1    3    3    0    0  0.18177391913E+00 -0.10752333781E+02  0.97972283710E+01  0.14547556754E+02  0.51100000000E-03 0.  1.
        -12    1    3    3    0    0 -0.34395702825E+01  0.21310453815E+01  0.25070118842E+02  0.25394543841E+02  0.00000000000E+00 0.  1.
</event>
<event>
 7    1  0.4519840E-010  0.4778726E+02  0.7816164E-02  0.1312668E+00
        -11   -1    0    0    0    0  0.00000000000E+00  0.00000000000E+00  0.45593999997E+02  0.45594000000E+02  0.51100000000E-03 0. -1.
         11   -1    0    0    0    0 -0.00000000000E+00 -0.00000000000E+00 -0.45593999997E+02  0.45594000000E+02  0.51100000000E-03 0.  1.
    9900012    2    1    2    0    0 -0.13100453098E+02 -0.18025777141E+02 -0.37243436431E+02  0.47787261872E+02  0.19999958178E+02 0.  0.
         12    1    1    2    0    0  0.13100453098E+02  0.18025777141E+02  0.37243436431E+02  0.43400738128E+02  0.00000000000E+00 0. -1.
         11    1    3    3    0    0 -0.19752594423E+01 -0.71531796243E-01 -0.29091164973E+01  0.35170620862E+01  0.51100000000E-03 0. -1.
        -11    1    3    3    0    0 -0.47834888976E+01 -0.16771171571E+02 -0.33496827928E+02  0.37764949932E+02  0.51100000000E-03 0.  1.
         12    1    3    3    0    0 -0.63417047582E+01 -0.11830737735E+01 -0.83749200560E+00  0.65052498532E+01  0.00000000000E+00 0. -1.
</event>
<event>
 7    1  0.4519840E-010  0.4778727E+02  0.7816164E-02  0.1312668E+00
        -11   -1    0    0    0    0  0.00000000000E+00  0.00000000000E+00  0.45593999997E+02  0.45594000000E+02  0.51100000000E-03 0. -1.
         11   -1    0    0    0    0 -0.00000000000E+00 -0.00000000000E+00 -0.45593999997E+02  0.45594000000E+02  0.51100000000E-03 0.  1.
    9900012    2    1    2    0    0 -0.20433062929E+01  0.14513752678E+02  0.40850937635E+02  0.47787271630E+02  0.20000002668E+02 0.  0.
        -12    1    1    2    0    0  0.20433062929E+01 -0.14513752678E+02 -0.40850937635E+02  0.43400728370E+02  0.00000000000E+00 0.  1.
         11    1    3    3    0    0 -0.12591842388E+01  0.12045816708E+01  0.13173804034E+02  0.13288554283E+02  0.51100000000E-03 0. -1.
        -11    1    3    3    0    0  0.16603096384E+01  0.16102836244E+02  0.25472686430E+02  0.30181380310E+02  0.51100000000E-03 0.  1.
        -12    1    3    3    0    0 -0.24444316926E+01 -0.27936652369E+01  0.22044471713E+01  0.43173370365E+01  0.00000000000E+00 0.  1.
</event>
<event>
 7    1  0.4519840E-010  0.4778727E+02  0.7816164E-02  0.1312668E+00
        -11   -1    0    0    0    0  0.00000000000E+00  0.00000000000E+00  0.45593999997E+02  0.45594000000E+02  0.51100000000E-03 0. -1.
         11   -1    0    0    0    0 -0.00000000000E+00 -0.00000000000E+00 -0.45593999997E+02  0.45594000000E+02  0.51100000000E-03 0.  1.
    9900012    2    1    2    0    0 -0.16291176612E+02 -0.33649554767E+02 -0.22043781852E+02  0.47787270862E+02  0.19999999166E+02 0.  0.
         12    1    1    2    0    0  0.16291176612E+02  0.33649554767E+02  0.22043781852E+02  0.43400729138E+02  0.00000000000E+00 0. -1.
         11    1    3    3    0    0 -0.37491064154E+01 -0.92008720406E+01 -0.10836384400E+02  0.14701669033E+02  0.51100000000E-03 0. -1.
        -11    1    3    3    0    0 -0.15975215831E+01 -0.45422145389E+01 -0.90696223079E+01  0.10268487581E+02  0.51100000000E-03 0.  1.
         12    1    3    3    0    0 -0.10944548614E+02 -0.19906468187E+02 -0.21377751443E+01  0.22817114248E+02  0.00000000000E+00 0. -1.
</event>
<event>
 7    1  0.4519840E-010  0.4778727E+02  0.7816164E-02  0.1312668E+00
        -11   -1    0    0    0    0  0.00000000000E+00  0.00000000000E+00  0.45593999997E+02  0.45594000000E+02  0.51100000000E-03 0. -1.
         11   -1    0    0    0    0 -0.00000000000E+00 -0.00000000000E+00 -0.45593999997E+02  0.45594000000E+02  0.51100000000E-03 0.  1.
    9900012    2    1    2    0    0  0.27447476172E+02 -0.10744558703E+02  0.31856144871E+02  0.47787268947E+02  0.19999990436E+02 0.  0.
        -12    1    1    2    0    0 -0.27447476172E+02  0.10744558703E+02 -0.31856144871E+02  0.43400731053E+02  0.00000000000E+00 0.  1.
         11    1    3    3    0    0  0.21264453242E+02 -0.13203116917E+02  0.28114443062E+02  0.37642013455E+02  0.51100000000E-03 0. -1.
        -11    1    3    3    0    0  0.24455090642E+01 -0.22175704532E+01  0.21885771285E+01  0.39608084284E+01  0.51100000000E-03 0.  1.
        -12    1    3    3    0    0  0.37375138660E+01  0.46761286671E+01  0.15531246804E+01  0.61844470636E+01  0.00000000000E+00 0.  1.
</event>
<event>
 7    1  0.4519840E-010  0.4778727E+02  0.7816164E-02  0.1312668E+00
        -11   -1    0    0    0    0  0.00000000000E+00  0.00000000000E+00  0.45593999997E+02  0.45594000000E+02  0.51100000000E-03 0.  1.
         11   -1    0    0    0    0 -0.00000000000E+00 -0.00000000000E+00 -0.45593999997E+02  0.45594000000E+02  0.51100000000E-03 0. -1.
    9900012    2    1    2    0    0  0.22034079530E+01 -0.40842099121E+02  0.14515204696E+02  0.47787271497E+02  0.20000002062E+02 0.  0.
         12    1    1    2    0    0 -0.22034079530E+01  0.40842099121E+02 -0.14515204696E+02  0.43400728503E+02  0.00000000000E+00 0. -1.
         11    1    3    3    0    0  0.48537311691E+01 -0.11471146003E+02 -0.18582806071E+01  0.12593613618E+02  0.51100000000E-03 0. -1.
        -11    1    3    3    0    0 -0.19495804650E+01 -0.13854115324E+02  0.21927999396E+01  0.14161417557E+02  0.51100000000E-03 0.  1.
         12    1    3    3    0    0 -0.70074275118E+00 -0.15516837794E+02  0.14180685364E+02  0.21032240321E+02  0.00000000000E+00 0. -1.
</event>
<event>
 7    1  0.4519840E-010  0.4778727E+02  0.7816164E-02  0.1312668E+00
        -11   -1    0    0    0    0  0.00000000000E+00  0.00000000000E+00  0.45593999997E+02  0.45594000000E+02  0.51100000000E-03 0. -1.
         11   -1    0    0    0    0 -0.00000000000E+00 -0.00000000000E+00 -0.45593999997E+02  0.45594000000E+02  0.51100000000E-03 0.  1.
    9900012    2    1    2    0    0 -0.73165193573E+01 -0.14751077684E+02 -0.40155916015E+02  0.47787270290E+02  0.19999996560E+02 0.  0.
         12    1    1    2    0    0  0.73165193573E+01  0.14751077684E+02  0.40155916015E+02  0.43400729710E+02  0.00000000000E+00 0. -1.
         11    1    3    3    0    0 -0.42556963490E+01 -0.31977870585E+01 -0.50874164445E+00  0.53474864944E+01  0.51100000000E-03 0. -1.
        -11    1    3    3    0    0  0.24312465042E+01 -0.21106569761E+00 -0.83944402295E+01  0.87419754816E+01  0.51100000000E-03 0.  1.
        -12    1    3    3    0    0 -0.54920695126E+01 -0.11342224928E+02 -0.31252734141E+02  0.33697808314E+02  0.00000000000E+00 0.  1.
</event>
<event>
 7    1  0.4519840E-010  0.4778727E+02  0.7816164E-02  0.1312668E+00
        -11   -1    0    0    0    0  0.00000000000E+00  0.00000000000E+00  0.45593999997E+02  0.45594000000E+02  0.51100000000E-03 0. -1.
         11   -1    0    0    0    0 -0.00000000000E+00 -0.00000000000E+00 -0.45593999997E+02  0.45594000000E+02  0.51100000000E-03 0.  1.
    9900012    2    1    2    0    0  0.16775623021E+02 -0.40002194935E+02  0.14233271416E+01  0.47787274344E+02  0.20000015042E+02 0.  0.
        -12    1    1    2    0    0 -0.16775623021E+02  0.40002194935E+02 -0.14233271416E+01  0.43400725656E+02  0.00000000000E+00 0.  1.
         11    1    3    3    0    0  0.11387337331E+02 -0.28512550018E+02 -0.28965872809E+01  0.30838728543E+02  0.51100000000E-03 0. -1.
        -11    1    3    3    0    0 -0.31576866075E+00 -0.84504626966E+01 -0.10818077621E+01  0.85252764136E+01  0.51100000000E-03 0.  1.
         12    1    3    3    0    0  0.57040543508E+01 -0.30391822208E+01  0.54017221847E+01  0.84232693872E+01  0.00000000000E+00 0. -1.
</event>
<event>
 7    1  0.4519840E-010  0.4778725E+02  0.7816164E-02  0.1312668E+00
        -11   -1    0    0    0    0  0.00000000000E+00  0.00000000000E+00  0.45593999997E+02  0.45594000000E+02  0.51100000000E-03 0. -1.
         11   -1    0    0    0    0 -0.00000000000E+00 -0.00000000000E+00 -0.45593999997E+02  0.45594000000E+02  0.51100000000E-03 0.  1.
    9900012    2    1    2    0    0  0.26196789054E+02 -0.18843459598E+02 -0.29022013642E+02  0.47787251133E+02  0.19999909214E+02 0.  0.
         12    1    1    2    0    0 -0.26196789054E+02  0.18843459598E+02  0.29022013642E+02  0.43400748867E+02  0.00000000000E+00 0. -1.
         11    1    3    3    0    0  0.11274339984E+01 -0.30344569656E+01 -0.48025568750E+01  0.57916827689E+01  0.51100000000E-03 0. -1.
        -11    1    3    3    0    0  0.17507344722E+02 -0.18966246091E+02 -0.20659031979E+02  0.33060871322E+02  0.51100000000E-03 0.  1.
         12    1    3    3    0    0  0.75620103342E+01  0.31572434591E+01 -0.35604247889E+01  0.89346970420E+01  0.00000000000E+00 0. -1.
</event>
<event>
 7    1  0.4519840E-010  0.4778727E+02  0.7816164E-02  0.1312668E+00
        -11   -1    0    0    0    0  0.00000000000E+00  0.00000000000E+00  0.45593999997E+02  0.45594000000E+02  0.51100000000E-03 0. -1.
         11   -1    0    0    0    0 -0.00000000000E+00 -0.00000000000E+00 -0.45593999997E+02  0.45594000000E+02  0.51100000000E-03 0.  1.
    9900012    2    1    2    0    0  0.11481060685E+01 -0.50142214623E+01  0.43094808726E+02  0.47787273006E+02  0.20000008945E+02 0.  0.
        -12    1    1    2    0    0 -0.11481060685E+01  0.50142214623E+01 -0.43094808726E+02  0.43400726994E+02  0.00000000000E+00 0.  1.
         11    1    3    3    0    0  0.12664666653E+01 -0.45440661014E+01  0.13223795676E+02  0.14039987425E+02  0.51100000000E-03 0. -1.
        -11    1    3    3    0    0 -0.22588027444E+01 -0.72720430395E+01  0.95669828060E+01  0.12227508335E+02  0.51100000000E-03 0.  1.
        -12    1    3    3    0    0  0.21404421475E+01  0.68018876787E+01  0.20304030245E+02  0.21519777247E+02  0.00000000000E+00 0.  1.
</event>
<event>
 7    1  0.4519840E-010  0.4778727E+02  0.7816164E-02  0.1312668E+00
        -11   -1    0    0    0    0  0.00000000000E+00  0.00000000000E+00  0.45593999997E+02  0.45594000000E+02  0.51100000000E-03 0. -1.
         11   -1    0    0    0    0 -0.00000000000E+00 -0.00000000000E+00 -0.45593999997E+02  0.45594000000E+02  0.51100000000E-03 0.  1.
    9900012    2    1    2    0    0  0.75062402493E+01 -0.71274631502E+01  0.42148295541E+02  0.47787272004E+02  0.20000004373E+02 0.  0.
        -12    1    1    2    0    0 -0.75062402493E+01  0.71274631502E+01 -0.42148295541E+02  0.43400727996E+02  0.00000000000E+00 0.  1.
         11    1    3    3    0    0 -0.61055175069E+00 -0.11463556431E+01  0.53418750239E+01  0.54975024995E+01  0.51100000000E-03 0. -1.
        -11    1    3    3    0    0 -0.43361215760E+01  0.25218345562E+01  0.14683599608E+02  0.15516755381E+02  0.51100000000E-03 0.  1.
         12    1    3    3    0    0  0.12452913576E+02 -0.85029420633E+01  0.22122820909E+02  0.26773014123E+02  0.00000000000E+00 0. -1.
</event>
<event>
 7    1  0.4519840E-010  0.4778727E+02  0.7816164E-02  0.1312668E+00
        -11   -1    0    0    0    0  0.00000000000E+00  0.00000000000E+00  0.45593999997E+02  0.45594000000E+02  0.51100000000E-03 0. -1.
         11   -1    0    0    0    0 -0.00000000000E+00 -0.00000000000E+00 -0.45593999997E+02  0.45594000000E+02  0.51100000000E-03 0.  1.
    9900012    2    1    2    0    0  0.38154973328E+02  0.16110716254E+02 -0.12971754748E+02  0.47787267412E+02  0.19999983440E+02 0.  0.
         12    1    1    2    0    0 -0.38154973328E+02 -0.16110716254E+02  0.12971754748E+02  0.43400732588E+02  0.00000000000E+00 0. -1.
         11    1    3    3    0    0  0.11538990622E+02  0.10325169009E+02 -0.27785907168E+01  0.15731433065E+02  0.51100000000E-03 0. -1.
        -11    1    3    3    0    0  0.16805863720E+02  0.93953380159E+01 -0.97779919644E+01  0.21594410363E+02  0.51100000000E-03 0.  1.
         12    1    3    3    0    0  0.98101189859E+01 -0.36097907711E+01 -0.41517206645E+00  0.10461423984E+02  0.00000000000E+00 0. -1.
</event>
<event>
 7    1  0.4519840E-010  0.4778727E+02  0.7816164E-02  0.1312668E+00
        -11   -1    0    0    0    0  0.00000000000E+00  0.00000000000E+00  0.45593999997E+02  0.45594000000E+02  0.51100000000E-03 0. -1.
         11   -1    0    0    0    0 -0.00000000000E+00 -0.00000000000E+00 -0.45593999997E+02  0.45594000000E+02  0.51100000000E-03 0.  1.
    9900012    2    1    2    0    0  0.11258756696E+02  0.16299191913E+02 -0.38616057957E+02  0.47787271993E+02  0.20000004327E+02 0.  0.
         12    1    1    2    0    0 -0.11258756696E+02 -0.16299191913E+02  0.38616057957E+02  0.43400728007E+02  0.00000000000E+00 0. -1.
         11    1    3    3    0    0  0.70836950157E+00  0.11831168936E+02 -0.64434833238E+01  0.13490619828E+02  0.51100000000E-03 0. -1.
        -11    1    3    3    0    0  0.14327682108E+01 -0.23686500821E+00 -0.62727302696E+01  0.64386392254E+01  0.51100000000E-03 0.  1.
         12    1    3    3    0    0  0.91176189833E+01  0.47048879845E+01 -0.25899844364E+02  0.27858012940E+02  0.00000000000E+00 0. -1.
</event>
<event>
 7    1  0.4815091E-010  0.4778727E+02  0.7816164E-02  0.1312668E+00
        -11   -1    0    0    0    0  0.00000000000E+00  0.00000000000E+00  0.45593999997E+02  0.45594000000E+02  0.51100000000E-03 0. -1.
         11   -1    0    0    0    0 -0.00000000000E+00 -0.00000000000E+00 -0.45593999997E+02  0.45594000000E+02  0.51100000000E-03 0.  1.
    9900012    2    1    2    0    0 -0.36650374153E+02  0.45010210755E+01 -0.22806016009E+02  0.47787268642E+02  0.19999989044E+02 0.  0.
         12    1    1    2    0    0  0.36650374153E+02 -0.45010210755E+01  0.22806016009E+02  0.43400731358E+02  0.00000000000E+00 0. -1.
         11    1    3    3    0    0 -0.74093460668E+01 -0.49959878130E+01 -0.16504334843E+01  0.90874767847E+01  0.51100000000E-03 0. -1.
        -11    1    3    3    0    0 -0.53133371508E+01 -0.15842346286E+01 -0.64568070776E+01  0.85106820488E+01  0.51100000000E-03 0.  1.
        -12    1    3    3    0    0 -0.23927690935E+02  0.11081243517E+02 -0.14698775447E+02  0.30189109808E+02  0.00000000000E+00 0.  1.
</event>
<event>
 7    1  0.4519840E-010  0.4778727E+02  0.7816164E-02  0.1312668E+00
        -11   -1    0    0    0    0  0.00000000000E+00  0.00000000000E+00  0.45593999997E+02  0.45594000000E+02  0.51100000000E-03 0. -1.
         11   -1    0    0    0    0 -0.00000000000E+00 -0.00000000000E+00 -0.45593999997E+02  0.45594000000E+02  0.51100000000E-03 0.  1.
    9900012    2    1    2    0    0  0.85298443950E+01 -0.21170008439E+02  0.36914708682E+02  0.47787271667E+02  0.20000002840E+02 0.  0.
        -12    1    1    2    0    0 -0.85298443950E+01  0.21170008439E+02 -0.36914708682E+02  0.43400728333E+02  0.00000000000E+00 0.  1.
         11    1    3    3    0    0  0.41869682074E+01 -0.17634776608E+02  0.20608934733E+02  0.27445295405E+02  0.51100000000E-03 0. -1.
        -11    1    3    3    0    0  0.64589667404E+01 -0.53287095960E+01  0.15204043284E+02  0.17357313437E+02  0.51100000000E-03 0.  1.
        -12    1    3    3    0    0 -0.21160905528E+01  0.17934777648E+01  0.11017306653E+01  0.29846628251E+01  0.00000000000E+00 0.  1.
</event>
<event>
 7    1  0.4519840E-010  0.4778727E+02  0.7816164E-02  0.1312668E+00
        -11   -1    0    0    0    0  0.00000000000E+00  0.00000000000E+00  0.45593999997E+02  0.45594000000E+02  0.51100000000E-03 0. -1.
         11   -1    0    0    0    0 -0.00000000000E+00 -0.00000000000E+00 -0.45593999997E+02  0.45594000000E+02  0.51100000000E-03 0.  1.
    9900012    2    1    2    0    0  0.30445668791E+02 -0.96286387599E+01 -0.29393430315E+02  0.47787272147E+02  0.20000005027E+02 0.  0.
         12    1    1    2    0    0 -0.30445668791E+02  0.96286387599E+01  0.29393430315E+02  0.43400727853E+02  0.00000000000E+00 0. -1.
         11    1    3    3    0    0  0.14986141479E+02 -0.43621762880E+01 -0.38555643582E+01  0.16077263299E+02  0.51100000000E-03 0. -1.
        -11    1    3    3    0    0  0.13509034209E+02 -0.28916548216E+01 -0.13611368292E+02  0.19393942867E+02  0.51100000000E-03 0.  1.
         12    1    3    3    0    0  0.19504931026E+01 -0.23748076502E+01 -0.11926497664E+02  0.12316065981E+02  0.00000000000E+00 0. -1.
</event>
<event>
 7    1  0.4924351E-010  0.4778728E+02  0.7816164E-02  0.1312668E+00
        -11   -1    0    0    0    0  0.00000000000E+00  0.00000000000E+00  0.45593999997E+02  0.45594000000E+02  0.51100000000E-03 0. -1.
         11   -1    0    0    0    0 -0.00000000000E+00 -0.00000000000E+00 -0.45593999997E+02  0.45594000000E+02  0.51100000000E-03 0.  1.
    9900012    2    1    2    0    0  0.23227996859E+02 -0.30009652461E+02 -0.21059531043E+02  0.47787275045E+02  0.20000018238E+02 0.  0.
         12    1    1    2    0    0 -0.23227996859E+02  0.30009652461E+02  0.21059531043E+02  0.43400724955E+02  0.00000000000E+00 0. -1.
         11    1    3    3    0    0  0.35385080094E+01 -0.50251508567E+00 -0.62226056015E+01  0.71759585476E+01  0.51100000000E-03 0. -1.
        -11    1    3    3    0    0  0.49310963877E+01 -0.24874948926E+01  0.15472857363E+01  0.57356286348E+01  0.51100000000E-03 0.  1.
        -12    1    3    3    0    0  0.14758392462E+02 -0.27019642482E+02 -0.16384211178E+02  0.34875687862E+02  0.00000000000E+00 0.  1.
</event>
<event>
 7    1  0.4519840E-010  0.4778727E+02  0.7816164E-02  0.1312668E+00
        -11   -1    0    0    0    0  0.00000000000E+00  0.00000000000E+00  0.45593999997E+02  0.45594000000E+02  0.51100000000E-03 0. -1.
         11   -1    0    0    0    0 -0.00000000000E+00 -0.00000000000E+00 -0.45593999997E+02  0.45594000000E+02  0.51100000000E-03 0.  1.
    9900012    2    1    2    0    0  0.16673128743E+02 -0.49923064799E+01  0.39758103376E+02  0.47787272701E+02  0.20000007552E+02 0.  0.
        -12    1    1    2    0    0 -0.16673128743E+02  0.49923064799E+01 -0.39758103376E+02  0.43400727299E+02  0.00000000000E+00 0.  1.
         11    1    3    3    0    0  0.36521300763E+01 -0.57675573008E+01  0.45734144402E+01  0.82169879649E+01  0.51100000000E-03 0. -1.
        -11    1    3    3    0    0  0.53430297256E-01 -0.42121674512E+01  0.82954040672E+01  0.93037056237E+01  0.51100000000E-03 0.  1.
         12    1    3    3    0    0  0.12967568369E+02  0.49874182721E+01  0.26889284868E+02  0.30266579112E+02  0.00000000000E+00 0. -1.
</event>
<event>
 7    1  0.4519840E-010  0.4778728E+02  0.7816164E-02  0.1312668E+00
        -11   -1    0    0    0    0  0.00000000000E+00  0.00000000000E+00  0.45593999997E+02  0.45594000000E+02  0.51100000000E-03 0. -1.
         11   -1    0    0    0    0 -0.00000000000E+00 -0.00000000000E+00 -0.45593999997E+02  0.45594000000E+02  0.51100000000E-03 0.  1.
    9900012    2    1    2    0    0  0.14999266848E+02 -0.20366280937E+02 -0.35268391141E+02  0.47787276287E+02  0.20000023901E+02 0.  0.
         12    1    1    2    0    0 -0.14999266848E+02  0.20366280937E+02  0.35268391141E+02  0.43400723713E+02  0.00000000000E+00 0. -1.
         11    1    3    3    0    0  0.43407892873E+01 -0.26529507706E+01  0.36125731288E+00  0.51001084827E+01  0.51100000000E-03 0. -1.
        -11    1    3    3    0    0  0.68140226039E+01 -0.62889021978E+01 -0.69833692674E+01  0.11608128251E+02  0.51100000000E-03 0.  1.
         12    1    3    3    0    0  0.38444549571E+01 -0.11424427969E+02 -0.28646279186E+02  0.31079039553E+02  0.00000000000E+00 0. -1.
</event>
<event>
 7    1  0.4519840E-010  0.4778727E+02  0.7816164E-02  0.1312668E+00
        -11   -1    0    0    0    0  0.00000000000E+00  0.00000000000E+00  0.45593999997E+02  0.45594000000E+02  0.51100000000E-03 0. -1.
         11   -1    0    0    0    0 -0.00000000000E+00 -0.00000000000E+00 -0.45593999997E+02  0.45594000000E+02  0.51100000000E-03 0.  1.
    9900012    2    1    2    0    0 -0.17952375527E+02 -0.18334512137E+02 -0.35002585353E+02  0.47787273004E+02  0.20000008934E+02 0.  0.
         12    1    1    2    0    0  0.17952375527E+02  0.18334512137E+02  0.35002585353E+02  0.43400726996E+02  0.00000000000E+00 0. -1.
         11    1    3    3    0    0  0.10880566786E+01 -0.24639177346E+01 -0.85076579257E+01  0.89238445515E+01  0.51100000000E-03 0. -1.
        -11    1    3    3    0    0 -0.25338954440E+01 -0.94694113977E+01 -0.14408862188E+02  0.17427153760E+02  0.51100000000E-03 0.  1.
         12    1    3    3    0    0 -0.16506536762E+02 -0.64011830049E+01 -0.12086065240E+02  0.21436274693E+02  0.00000000000E+00 0. -1.
</event>
<event>
 7    1  0.4519840E-010  0.4778727E+02  0.7816164E-02  0.1312668E+00
        -11   -1    0    0    0    0  0.00000000000E+00  0.00000000000E+00  0.45593999997E+02  0.45594000000E+02  0.51100000000E-03 0. -1.
         11   -1    0    0    0    0 -0.00000000000E+00 -0.00000000000E+00 -0.45593999997E+02  0.45594000000E+02  0.51100000000E-03 0.  1.
    9900012    2    1    2    0    0 -0.94221510277E+01 -0.12332565991E+02 -0.40530901637E+02  0.47787273031E+02  0.20000009059E+02 0.  0.
         12    1    1    2    0    0  0.94221510277E+01  0.12332565991E+02  0.40530901637E+02  0.43400726969E+02  0.00000000000E+00 0. -1.
         11    1    3    3    0    0 -0.53485870893E+01 -0.43277338887E+01 -0.20093665503E+02  0.21238927894E+02  0.51100000000E-03 0. -1.
        -11    1    3    3    0    0  0.66507185522E+00 -0.22764635767E+01 -0.18783110164E+02  0.18932243256E+02  0.51100000000E-03 0.  1.
         12    1    3    3    0    0 -0.47386357937E+01 -0.57283685258E+01 -0.16541259695E+01  0.76161018819E+01  0.00000000000E+00 0. -1.
</event>
<event>
 7    1  0.4519840E-010  0.4778727E+02  0.7816164E-02  0.1312668E+00
        -11   -1    0    0    0    0  0.00000000000E+00  0.00000000000E+00  0.45593999997E+02  0.45594000000E+02  0.51100000000E-03 0. -1.
         11   -1    0    0    0    0 -0.00000000000E+00 -0.00000000000E+00 -0.45593999997E+02  0.45594000000E+02  0.51100000000E-03 0.  1.
    9900012    2    1    2    0    0  0.17580792184E+02  0.32690560863E+02  0.22491470805E+02  0.47787270948E+02  0.19999999558E+02 0.  0.
        -12    1    1    2    0    0 -0.17580792184E+02 -0.32690560863E+02 -0.22491470805E+02  0.43400729052E+02  0.00000000000E+00 0.  1.
         11    1    3    3    0    0  0.45950182072E+01  0.10754278414E+00  0.43046250960E+01  0.62972656966E+01  0.51100000000E-03 0. -1.
        -11    1    3    3    0    0 -0.64316599640E+00  0.71401205360E+01  0.83297500552E+01  0.10989982712E+02  0.51100000000E-03 0.  1.
         12    1    3    3    0    0  0.13628939973E+02  0.25442897542E+02  0.98570956534E+01  0.30500022539E+02  0.00000000000E+00 0. -1.
</event>
<event>
 7    1  0.4519840E-010  0.4778727E+02  0.7816164E-02  0.1312668E+00
        -11   -1    0    0    0    0  0.00000000000E+00  0.00000000000E+00  0.45593999997E+02  0.45594000000E+02  0.51100000000E-03 0.  1.
         11   -1    0    0    0    0 -0.00000000000E+00 -0.00000000000E+00 -0.45593999997E+02  0.45594000000E+02  0.51100000000E-03 0. -1.
    9900012    2    1    2    0    0 -0.32235680220E+02  0.25785171716E+02  0.13401824961E+02  0.47787273370E+02  0.20000010605E+02 0.  0.
        -12    1    1    2    0    0  0.32235680220E+02 -0.25785171716E+02 -0.13401824961E+02  0.43400726630E+02  0.00000000000E+00 0.  1.
         11    1    3    3    0    0 -0.18164231329E+02  0.11272975618E+02 -0.10455717086E+00  0.21378264933E+02  0.51100000000E-03 0. -1.
        -11    1    3    3    0    0 -0.93700072633E+01  0.26762653310E+01  0.40795165549E+01  0.10564179467E+02  0.51100000000E-03 0.  1.
        -12    1    3    3    0    0 -0.47014416277E+01  0.11835930767E+02  0.94268655767E+01  0.15844828970E+02  0.00000000000E+00 0.  1.
</event>
<event>
 7    1  0.4519840E-010  0.4778727E+02  0.7816164E-02  0.1312668E+00
        -11   -1    0    0    0    0  0.00000000000E+00  0.00000000000E+00  0.45593999997E+02  0.45594000000E+02  0.51100000000E-03 0. -1.
         11   -1    0    0    0    0 -0.00000000000E+00 -0.00000000000E+00 -0.45593999997E+02  0.45594000000E+02  0.51100000000E-03 0.  1.
    9900012    2    1    2    0    0  0.14988065971E+02  0.48053874973E+00  0.40727756607E+02  0.47787271927E+02  0.20000004025E+02 0.  0.
        -12    1    1    2    0    0 -0.14988065971E+02 -0.48053874973E+00 -0.40727756607E+02  0.43400728073E+02  0.00000000000E+00 0.  1.
         11    1    3    3    0    0  0.12391595947E+02  0.36285849117E+01  0.35196241708E+02  0.37489914767E+02  0.51100000000E-03 0. -1.
        -11    1    3    3    0    0 -0.69537626053E+00  0.20595282054E+01  0.26029139697E+00  0.21892821757E+01  0.51100000000E-03 0.  1.
        -12    1    3    3    0    0  0.32918462852E+01 -0.52075743674E+01  0.52712235014E+01  0.81080749847E+01  0.00000000000E+00 0.  1.
</event>
<event>
 7    1  0.4519840E-010  0.4778727E+02  0.7816164E-02  0.1312668E+00
        -11   -1    0    0    0    0  0.00000000000E+00  0.00000000000E+00  0.45593999997E+02  0.45594000000E+02  0.51100000000E-03 0. -1.
         11   -1    0    0    0    0 -0.00000000000E+00 -0.00000000000E+00 -0.45593999997E+02  0.45594000000E+02  0.51100000000E-03 0.  1.
    9900012    2    1    2    0    0  0.39069322401E+02 -0.37835384179E+01 -0.18517451409E+02  0.47787272788E+02  0.20000007951E+02 0.  0.
         12    1    1    2    0    0 -0.39069322401E+02  0.37835384179E+01  0.18517451409E+02  0.43400727212E+02  0.00000000000E+00 0. -1.
         11    1    3    3    0    0 -0.84856556876E+00 -0.17483183570E+01 -0.32277647475E+01  0.37676446393E+01  0.51100000000E-03 0. -1.
        -11    1    3    3    0    0  0.25800790889E+02 -0.12729089207E+01 -0.15015726679E+02  0.29879309825E+02  0.51100000000E-03 0.  1.
        -12    1    3    3    0    0  0.14117097080E+02 -0.76231114021E+00 -0.27395998262E+00  0.14140318325E+02  0.00000000000E+00 0.  1.
</event>
<event>
 7    1  0.4640219E-010  0.4778727E+02  0.7816164E-02  0.1312668E+00
        -11   -1    0    0    0    0  0.00000000000E+00  0.00000000000E+00  0.45593999997E+02  0.45594000000E+02  0.51100000000E-03 0.  1.
         11   -1    0    0    0    0 -0.00000000000E+00 -0.00000000000E+00 -0.45593999997E+02  0.45594000000E+02  0.51100000000E-03 0. -1.
    9900012    2    1    2    0    0 -0.21156947752E+02 -0.31861303865E+02 -0.20514977807E+02  0.47787269170E+02  0.19999991455E+02 0.  0.
         12    1    1    2    0    0  0.21156947752E+02  0.31861303865E+02  0.20514977807E+02  0.43400730830E+02  0.00000000000E+00 0. -1.
         11    1    3    3    0    0  0.91695282709E+00 -0.78980560531E+00  0.20442972467E+01  0.23756571460E+01  0.51100000000E-03 0. -1.
        -11    1    3    3    0    0 -0.12694145628E-01 -0.57129553740E+01 -0.22470946932E+01  0.61390109194E+01  0.51100000000E-03 0.  1.
        -12    1    3    3    0    0 -0.22061206433E+02 -0.25358542885E+02 -0.20312180360E+02  0.39272601105E+02  0.00000000000E+00 0.  1.
</event>
<event>
 7    1  0.4519840E-010  0.4778727E+02  0.7816164E-02  0.1312668E+00
        -11   -1    0    0    0    0  0.00000000000E+00  0.00000000000E+00  0.45593999997E+02  0.45594000000E+02  0.51100000000E-03 0. -1.
         11   -1    0    0    0    0 -0.00000000000E+00 -0.00000000000E+00 -0.45593999997E+02  0.45594000000E+02  0.51100000000E-03 0.  1.
    9900012    2    1    2    0    0  0.22487829599E+02 -0.37464948948E+01  0.36930805447E+02  0.47787273104E+02  0.20000009392E+02 0.  0.
        -12    1    1    2    0    0 -0.22487829599E+02  0.37464948948E+01 -0.36930805447E+02  0.43400726896E+02  0.00000000000E+00 0.  1.
         11    1    3    3    0    0  0.16875585549E+02 -0.87581084336E+01  0.27770633363E+02  0.33655577971E+02  0.51100000000E-03 0. -1.
        -11    1    3    3    0    0  0.75088269997E+00 -0.10488442070E+01 -0.78616757984E+00  0.15106153463E+01  0.51100000000E-03 0.  1.
         12    1    3    3    0    0  0.48613613504E+01  0.60604577458E+01  0.99463396646E+01  0.12621079787E+02  0.00000000000E+00 0. -1.
</event>
<event>
 7    1  0.4519840E-010  0.4778727E+02  0.7816164E-02  0.1312668E+00
        -11   -1    0    0    0    0  0.00000000000E+00  0.00000000000E+00  0.45593999997E+02  0.45594000000E+02  0.51100000000E-03 0. -1.
         11   -1    0    0    0    0 -0.00000000000E+00 -0.00000000000E+00 -0.45593999997E+02  0.45594000000E+02  0.51100000000E-03 0.  1.
    9900012    2    1    2    0    0  0.65866141947E+01  0.37319259449E+02  0.21154499534E+02  0.47787268867E+02  0.19999990072E+02 0.  0.
        -12    1    1    2    0    0 -0.65866141947E+01 -0.37319259449E+02 -0.21154499534E+02  0.43400731133E+02  0.00000000000E+00 0.  1.
         11    1    3    3    0    0 -0.27653817096E+01  0.32794516797E+01  0.53205657427E+01  0.68345123749E+01  0.51100000000E-03 0. -1.
        -11    1    3    3    0    0  0.56342055072E+01  0.42106659299E+01  0.62294141259E+01  0.93957213605E+01  0.51100000000E-03 0.  1.
         12    1    3    3    0    0  0.37177903972E+01  0.29829141839E+02  0.96045196652E+01  0.31557035132E+02  0.00000000000E+00 0. -1.
</event>
<event>
 7    1  0.4519840E-010  0.4778727E+02  0.7816164E-02  0.1312668E+00
        -11   -1    0    0    0    0  0.00000000000E+00  0.00000000000E+00  0.45593999997E+02  0.45594000000E+02  0.51100000000E-03 0. -1.
         11   -1    0    0    0    0 -0.00000000000E+00 -0.00000000000E+00 -0.45593999997E+02  0.45594000000E+02  0.51100000000E-03 0.  1.
    9900012    2    1    2    0    0 -0.35352494136E+01  0.18127188433E+02  0.39275060655E+02  0.47787270302E+02  0.19999996614E+02 0.  0.
        -12    1    1    2    0    0  0.35352494136E+01 -0.18127188433E+02 -0.39275060655E+02  0.43400729698E+02  0.00000000000E+00 0.  1.
         11    1    3    3    0    0  0.20098992069E+01  0.67289327276E+01  0.25728480097E+02  0.26669700389E+02  0.51100000000E-03 0.  1.
        -11    1    3    3    0    0 -0.32994910728E+01  0.76431775738E+01  0.14425029849E+02  0.16654917927E+02  0.51100000000E-03 0. -1.
        -12    1    3    3    0    0 -0.22456575477E+01  0.37550781311E+01 -0.87844929052E+00  0.44626519860E+01  0.00000000000E+00 0.  1.
</event>
<event>
 7    1  0.1021687E-009  0.4778727E+02  0.7816164E-02  0.1312668E+00
        -11   -1    0    0    0    0  0.00000000000E+00  0.00000000000E+00  0.45593999997E+02  0.45594000000E+02  0.51100000000E-03 0. -1.
         11   -1    0    0    0    0 -0.00000000000E+00 -0.00000000000E+00 -0.45593999997E+02  0.45594000000E+02  0.51100000000E-03 0.  1.
    9900012    2    1    2    0    0  0.45220367472E+01  0.55904177485E+01 -0.42800953957E+02  0.47787271359E+02  0.20000001435E+02 0.  0.
         12    1    1    2    0    0 -0.45220367472E+01 -0.55904177485E+01  0.42800953957E+02  0.43400728641E+02  0.00000000000E+00 0. -1.
         11    1    3    3    0    0  0.34870465178E+01  0.18671598236E+01 -0.17485783566E+01  0.43247318708E+01  0.51100000000E-03 0. -1.
        -11    1    3    3    0    0 -0.17178730791E+01 -0.51450204507E+00  0.28643879298E+00  0.18159977185E+01  0.51100000000E-03 0.  1.
        -12    1    3    3    0    0  0.27528633085E+01  0.42377599699E+01 -0.41338814393E+02  0.41646541770E+02  0.00000000000E+00 0.  1.
</event>
<event>
 7    1  0.4519840E-010  0.4778721E+02  0.7816164E-02  0.1312668E+00
        -11   -1    0    0    0    0  0.00000000000E+00  0.00000000000E+00  0.45593999997E+02  0.45594000000E+02  0.51100000000E-03 0. -1.
         11   -1    0    0    0    0 -0.00000000000E+00 -0.00000000000E+00 -0.45593999997E+02  0.45594000000E+02  0.51100000000E-03 0.  1.
    9900012    2    1    2    0    0 -0.18370885121E+02  0.25700530871E+02  0.29759405944E+02  0.47787205661E+02  0.19999701886E+02 0.  0.
        -12    1    1    2    0    0  0.18370885121E+02 -0.25700530871E+02 -0.29759405944E+02  0.43400794339E+02  0.00000000000E+00 0.  1.
         11    1    3    3    0    0 -0.82764408544E+01  0.12841193325E+02  0.83903235960E+01  0.17429665790E+02  0.51100000000E-03 0. -1.
        -11    1    3    3    0    0 -0.86424902512E+01  0.70355036900E+01  0.37722509983E+01  0.11765238109E+02  0.51100000000E-03 0.  1.
         12    1    3    3    0    0 -0.14519540149E+01  0.58238338557E+01  0.17596831350E+02  0.18592301761E+02  0.00000000000E+00 0. -1.
</event>
<event>
 7    1  0.4519840E-010  0.4778728E+02  0.7816164E-02  0.1312668E+00
        -11   -1    0    0    0    0  0.00000000000E+00  0.00000000000E+00  0.45593999997E+02  0.45594000000E+02  0.51100000000E-03 0. -1.
         11   -1    0    0    0    0 -0.00000000000E+00 -0.00000000000E+00 -0.45593999997E+02  0.45594000000E+02  0.51100000000E-03 0.  1.
    9900012    2    1    2    0    0  0.33303863168E+02 -0.98912115053E+01  0.26012284203E+02  0.47787282305E+02  0.20000051342E+02 0.  0.
        -12    1    1    2    0    0 -0.33303863168E+02  0.98912115053E+01 -0.26012284203E+02  0.43400717695E+02  0.00000000000E+00 0.  1.
         11    1    3    3    0    0  0.32712759023E+02 -0.76276576650E+01  0.26633586968E+02  0.42867863481E+02  0.51100000000E-03 0. -1.
        -11    1    3    3    0    0  0.23838166024E+01 -0.14152669741E+01 -0.90430495388E+00  0.29160469668E+01  0.51100000000E-03 0.  1.
         12    1    3    3    0    0 -0.17927124572E+01 -0.84828686622E+00  0.28300218907E+00  0.20033718578E+01  0.00000000000E+00 0. -1.
</event>
<event>
 7    1  0.4519840E-010  0.4778727E+02  0.7816164E-02  0.1312668E+00
        -11   -1    0    0    0    0  0.00000000000E+00  0.00000000000E+00  0.45593999997E+02  0.45594000000E+02  0.51100000000E-03 0. -1.
         11   -1    0    0    0    0 -0.00000000000E+00 -0.00000000000E+00 -0.45593999997E+02  0.45594000000E+02  0.51100000000E-03 0.  1.
    9900012    2    1    2    0    0 -0.14559498585E+01 -0.49966432079E+01  0.43087547563E+02  0.47787274334E+02  0.20000014999E+02 0.  0.
        -12    1    1    2    0    0  0.14559498585E+01  0.49966432079E+01 -0.43087547563E+02  0.43400725666E+02  0.00000000000E+00 0.  1.
         11    1    3    3    0    0  0.33228742607E+01  0.20490414308E+01  0.24439820214E+02  0.24749643967E+02  0.51100000000E-03 0. -1.
        -11    1    3    3    0    0  0.27622328389E+01 -0.12323334875E+01  0.13929031539E+01  0.33299783090E+01  0.51100000000E-03 0.  1.
         12    1    3    3    0    0 -0.75410569582E+01 -0.58133511512E+01  0.17254824195E+02  0.19707652059E+02  0.00000000000E+00 0. -1.
</event>
<event>
 7    1  0.4519840E-010  0.4778727E+02  0.7816164E-02  0.1312668E+00
        -11   -1    0    0    0    0  0.00000000000E+00  0.00000000000E+00  0.45593999997E+02  0.45594000000E+02  0.51100000000E-03 0. -1.
         11   -1    0    0    0    0 -0.00000000000E+00 -0.00000000000E+00 -0.45593999997E+02  0.45594000000E+02  0.51100000000E-03 0.  1.
    9900012    2    1    2    0    0 -0.16046832371E+02  0.28209046812E+02  0.28816181752E+02  0.47787268648E+02  0.19999989073E+02 0.  0.
        -12    1    1    2    0    0  0.16046832371E+02 -0.28209046812E+02 -0.28816181752E+02  0.43400731352E+02  0.00000000000E+00 0.  1.
         11    1    3    3    0    0 -0.10177756565E+02  0.11587685522E+02  0.47317454073E+01  0.16132284380E+02  0.51100000000E-03 0. -1.
        -11    1    3    3    0    0 -0.84492293936E+01  0.10520187808E+02  0.12968179442E+02  0.18714633503E+02  0.51100000000E-03 0.  1.
        -12    1    3    3    0    0  0.25801535881E+01  0.61011734821E+01  0.11116256902E+02  0.12940350765E+02  0.00000000000E+00 0.  1.
</event>
<event>
 7    1  0.4519840E-010  0.4778727E+02  0.7816164E-02  0.1312668E+00
        -11   -1    0    0    0    0  0.00000000000E+00  0.00000000000E+00  0.45593999997E+02  0.45594000000E+02  0.51100000000E-03 0.  1.
         11   -1    0    0    0    0 -0.00000000000E+00 -0.00000000000E+00 -0.45593999997E+02  0.45594000000E+02  0.51100000000E-03 0. -1.
    9900012    2    1    2    0    0  0.41177775567E+02 -0.13300567739E+02 -0.33330131960E+01  0.47787270976E+02  0.19999999689E+02 0.  0.
         12    1    1    2    0    0 -0.41177775567E+02  0.13300567739E+02  0.33330131960E+01  0.43400729024E+02  0.00000000000E+00 0. -1.
         11    1    3    3    0    0  0.19814909312E+02 -0.84900211227E+01  0.24118550745E+01  0.21691660491E+02  0.51100000000E-03 0. -1.
        -11    1    3    3    0    0  0.84973545871E+01  0.30394421075E+01  0.18600812671E+01  0.92142903083E+01  0.51100000000E-03 0.  1.
         12    1    3    3    0    0  0.12865511668E+02 -0.78499887237E+01 -0.76049495375E+01  0.16881320177E+02  0.00000000000E+00 0. -1.
</event>
<event>
 7    1  0.4519840E-010  0.4778726E+02  0.7816164E-02  0.1312668E+00
        -11   -1    0    0    0    0  0.00000000000E+00  0.00000000000E+00  0.45593999997E+02  0.45594000000E+02  0.51100000000E-03 0. -1.
         11   -1    0    0    0    0 -0.00000000000E+00 -0.00000000000E+00 -0.45593999997E+02  0.45594000000E+02  0.51100000000E-03 0.  1.
    9900012    2    1    2    0    0  0.49151008988E+01 -0.21394074695E+02  0.37440074559E+02  0.47787264616E+02  0.19999970688E+02 0.  0.
        -12    1    1    2    0    0 -0.49151008988E+01  0.21394074695E+02 -0.37440074559E+02  0.43400735384E+02  0.00000000000E+00 0.  1.
         11    1    3    3    0    0 -0.12888809569E+01 -0.11958441056E+01 -0.13005572499E+01  0.21869400237E+01  0.51100000000E-03 0. -1.
        -11    1    3    3    0    0  0.28132647063E+01 -0.73368581320E+01  0.49518569692E+01  0.92878863721E+01  0.51100000000E-03 0.  1.
         12    1    3    3    0    0  0.33907171494E+01 -0.12861372457E+02  0.33788774840E+02  0.36312438220E+02  0.00000000000E+00 0. -1.
</event>
<event>
 7    1  0.4519840E-010  0.4778727E+02  0.7816164E-02  0.1312668E+00
        -11   -1    0    0    0    0  0.00000000000E+00  0.00000000000E+00  0.45593999997E+02  0.45594000000E+02  0.51100000000E-03 0. -1.
         11   -1    0    0    0    0 -0.00000000000E+00 -0.00000000000E+00 -0.45593999997E+02  0.45594000000E+02  0.51100000000E-03 0.  1.
    9900012    2    1    2    0    0  0.58012696083E+01 -0.23617507659E+01  0.42946370225E+02  0.47787270614E+02  0.19999998039E+02 0.  0.
        -12    1    1    2    0    0 -0.58012696083E+01  0.23617507659E+01 -0.42946370225E+02  0.43400729386E+02  0.00000000000E+00 0.  1.
         11    1    3    3    0    0  0.48429478962E+00  0.33508677229E+01  0.13007097136E+01  0.36269411299E+01  0.51100000000E-03 0. -1.
        -11    1    3    3    0    0  0.69351975759E+01  0.14217334362E+01  0.16098123968E+02  0.17586013958E+02  0.51100000000E-03 0.  1.
        -12    1    3    3    0    0 -0.16182227573E+01 -0.71343519249E+01  0.25547536543E+02  0.26574315527E+02  0.00000000000E+00 0.  1.
</event>
<event>
 7    1  0.4519840E-010  0.4778727E+02  0.7816164E-02  0.1312668E+00
        -11   -1    0    0    0    0  0.00000000000E+00  0.00000000000E+00  0.45593999997E+02  0.45594000000E+02  0.51100000000E-03 0.  1.
         11   -1    0    0    0    0 -0.00000000000E+00 -0.00000000000E+00 -0.45593999997E+02  0.45594000000E+02  0.51100000000E-03 0. -1.
    9900012    2    1    2    0    0  0.25964279782E+02 -0.34057690738E+02  0.70394142467E+01  0.47787268716E+02  0.19999989386E+02 0.  0.
        -12    1    1    2    0    0 -0.25964279782E+02  0.34057690738E+02 -0.70394142467E+01  0.43400731284E+02  0.00000000000E+00 0.  1.
         11    1    3    3    0    0  0.11140767548E+02 -0.12145701984E+02 -0.43035924727E+01  0.17033956870E+02  0.51100000000E-03 0. -1.
        -11    1    3    3    0    0 -0.14759174037E+01 -0.46717875978E+00  0.12451385728E+01  0.19866953724E+01  0.51100000000E-03 0.  1.
         12    1    3    3    0    0  0.16299429638E+02 -0.21444809995E+02  0.10097868147E+02  0.28766616474E+02  0.00000000000E+00 0. -1.
</event>
<event>
 7    1  0.4519840E-010  0.4778727E+02  0.7816164E-02  0.1312668E+00
        -11   -1    0    0    0    0  0.00000000000E+00  0.00000000000E+00  0.45593999997E+02  0.45594000000E+02  0.51100000000E-03 0. -1.
         11   -1    0    0    0    0 -0.00000000000E+00 -0.00000000000E+00 -0.45593999997E+02  0.45594000000E+02  0.51100000000E-03 0.  1.
    9900012    2    1    2    0    0  0.12876285809E+02  0.45406687838E+00  0.41444158943E+02  0.47787271626E+02  0.20000002650E+02 0.  0.
        -12    1    1    2    0    0 -0.12876285809E+02 -0.45406687838E+00 -0.41444158943E+02  0.43400728374E+02  0.00000000000E+00 0.  1.
         11    1    3    3    0    0  0.12118421076E+02 -0.29412188701E+01  0.19209269889E+02  0.22902029337E+02  0.51100000000E-03 0. -1.
        -11    1    3    3    0    0  0.33504415268E+01  0.80188994433E+00  0.20572554071E+02  0.20859014051E+02  0.51100000000E-03 0.  1.
        -12    1    3    3    0    0 -0.25925767941E+01  0.25933958042E+01  0.16623349832E+01  0.40262282383E+01  0.00000000000E+00 0.  1.
</event>
<event>
 7    1  0.4519840E-010  0.4778727E+02  0.7816164E-02  0.1312668E+00
        -11   -1    0    0    0    0  0.00000000000E+00  0.00000000000E+00  0.45593999997E+02  0.45594000000E+02  0.51100000000E-03 0. -1.
         11   -1    0    0    0    0 -0.00000000000E+00 -0.00000000000E+00 -0.45593999997E+02  0.45594000000E+02  0.51100000000E-03 0.  1.
    9900012    2    1    2    0    0  0.36073822091E+02 -0.27382825240E+01  0.23975087844E+02  0.47787266498E+02  0.19999979269E+02 0.  0.
        -12    1    1    2    0    0 -0.36073822091E+02  0.27382825240E+01 -0.23975087844E+02  0.43400733502E+02  0.00000000000E+00 0.  1.
         11    1    3    3    0    0 -0.19876701330E+01  0.61201690837E-01  0.36103534086E+01  0.41217993887E+01  0.51100000000E-03 0.  1.
        -11    1    3    3    0    0  0.21157000967E+01  0.10604235475E+01  0.20866998010E+01  0.31551547220E+01  0.51100000000E-03 0. -1.
        -12    1    3    3    0    0  0.35945792127E+02 -0.38599077624E+01  0.18278034634E+02  0.40510312387E+02  0.00000000000E+00 0.  1.
</event>
<event>
 7    1  0.4519840E-010  0.4778727E+02  0.7816164E-02  0.1312668E+00
        -11   -1    0    0    0    0  0.00000000000E+00  0.00000000000E+00  0.45593999997E+02  0.45594000000E+02  0.51100000000E-03 0.  1.
         11   -1    0    0    0    0 -0.00000000000E+00 -0.00000000000E+00 -0.45593999997E+02  0.45594000000E+02  0.51100000000E-03 0. -1.
    9900012    2    1    2    0    0  0.98685987444E+01 -0.41530216553E+02  0.78405924986E+01  0.47787273983E+02  0.20000013398E+02 0.  0.
        -12    1    1    2    0    0 -0.98685987444E+01  0.41530216553E+02 -0.78405924986E+01  0.43400726017E+02  0.00000000000E+00 0.  1.
         11    1    3    3    0    0  0.70198467343E+01 -0.21499410041E+02  0.10638454715E+02  0.24993591164E+02  0.51100000000E-03 0. -1.
        -11    1    3    3    0    0  0.55934843236E+01 -0.12538504471E+02  0.13588642019E+01  0.13796654428E+02  0.51100000000E-03 0.  1.
        -12    1    3    3    0    0 -0.27447323135E+01 -0.74923020413E+01 -0.41567264183E+01  0.89970283910E+01  0.00000000000E+00 0.  1.
</event>
<event>
 7    1  0.4519840E-010  0.4778728E+02  0.7816164E-02  0.1312668E+00
        -11   -1    0    0    0    0  0.00000000000E+00  0.00000000000E+00  0.45593999997E+02  0.45594000000E+02  0.51100000000E-03 0. -1.
         11   -1    0    0    0    0 -0.00000000000E+00 -0.00000000000E+00 -0.45593999997E+02  0.45594000000E+02  0.51100000000E-03 0.  1.
    9900012    2    1    2    0    0 -0.27170517875E+02  0.41129307431E+01  0.33592700531E+02  0.47787276851E+02  0.20000026474E+02 0.  0.
        -12    1    1    2    0    0  0.27170517875E+02 -0.41129307431E+01 -0.33592700531E+02  0.43400723149E+02  0.00000000000E+00 0.  1.
         11    1    3    3    0    0 -0.80719323668E+01 -0.47100764473E+01  0.55275397804E+01  0.10857928373E+02  0.51100000000E-03 0. -1.
        -11    1    3    3    0    0 -0.55441874655E-01 -0.17850640329E+01  0.64179824699E+00  0.18977440961E+01  0.51100000000E-03 0.  1.
        -12    1    3    3    0    0 -0.19043143633E+02  0.10608071223E+02  0.27423362504E+02  0.35031604381E+02  0.00000000000E+00 0.  1.
</event>
<event>
 7    1  0.4519840E-010  0.4778727E+02  0.7816164E-02  0.1312668E+00
        -11   -1    0    0    0    0  0.00000000000E+00  0.00000000000E+00  0.45593999997E+02  0.45594000000E+02  0.51100000000E-03 0. -1.
         11   -1    0    0    0    0 -0.00000000000E+00 -0.00000000000E+00 -0.45593999997E+02  0.45594000000E+02  0.51100000000E-03 0.  1.
    9900012    2    1    2    0    0  0.67064918626E+01 -0.22827795520E+02  0.36297902849E+02  0.47787273824E+02  0.20000012671E+02 0.  0.
        -12    1    1    2    0    0 -0.67064918626E+01  0.22827795520E+02 -0.36297902849E+02  0.43400726176E+02  0.00000000000E+00 0.  1.
         11    1    3    3    0    0 -0.49530633738E+01 -0.73182496405E+01  0.36671506625E+01  0.95675288779E+01  0.51100000000E-03 0. -1.
        -11    1    3    3    0    0  0.16074162911E+01 -0.15534921387E+01  0.16269110185E+01  0.27647720849E+01  0.51100000000E-03 0.  1.
        -12    1    3    3    0    0  0.10052138945E+02 -0.13956053741E+02  0.31003841168E+02  0.35454972861E+02  0.00000000000E+00 0.  1.
</event>
<event>
 7    1  0.4519840E-010  0.4778727E+02  0.7816164E-02  0.1312668E+00
        -11   -1    0    0    0    0  0.00000000000E+00  0.00000000000E+00  0.45593999997E+02  0.45594000000E+02  0.51100000000E-03 0. -1.
         11   -1    0    0    0    0 -0.00000000000E+00 -0.00000000000E+00 -0.45593999997E+02  0.45594000000E+02  0.51100000000E-03 0.  1.
    9900012    2    1    2    0    0 -0.24698993763E+02  0.34131190697E+02 -0.10423286471E+02  0.47787269913E+02  0.19999994840E+02 0.  0.
         12    1    1    2    0    0  0.24698993763E+02 -0.34131190697E+02  0.10423286471E+02  0.43400730087E+02  0.00000000000E+00 0. -1.
         11    1    3    3    0    0 -0.14152300424E+02  0.12812222270E+02 -0.98460455623E+01  0.21479880359E+02  0.51100000000E-03 0. -1.
        -11    1    3    3    0    0 -0.12681890387E+02  0.15141132453E+02 -0.61325095367E-01  0.19750645477E+02  0.51100000000E-03 0.  1.
         12    1    3    3    0    0  0.21351970478E+01  0.61778359746E+01 -0.51591581290E+00  0.65567440767E+01  0.00000000000E+00 0. -1.
</event>
<event>
 7    1  0.4519840E-010  0.4778727E+02  0.7816164E-02  0.1312668E+00
        -11   -1    0    0    0    0  0.00000000000E+00  0.00000000000E+00  0.45593999997E+02  0.45594000000E+02  0.51100000000E-03 0. -1.
         11   -1    0    0    0    0 -0.00000000000E+00 -0.00000000000E+00 -0.45593999997E+02  0.45594000000E+02  0.51100000000E-03 0.  1.
    9900012    2    1    2    0    0 -0.35747141677E+01  0.24197271320E+02  0.35851595256E+02  0.47787269555E+02  0.19999993211E+02 0.  0.
        -12    1    1    2    0    0  0.35747141677E+01 -0.24197271320E+02 -0.35851595256E+02  0.43400730445E+02  0.00000000000E+00 0.  1.
         11    1    3    3    0    0 -0.65769361311E+01  0.84405010499E+01  0.19506206390E+02  0.22248376005E+02  0.51100000000E-03 0. -1.
        -11    1    3    3    0    0  0.39226050545E+01  0.79367434447E+01  0.15188486758E+02  0.17580354296E+02  0.51100000000E-03 0.  1.
        -12    1    3    3    0    0 -0.92038309104E+00  0.78200268249E+01  0.11569021081E+01  0.79585392544E+01  0.00000000000E+00 0.  1.
</event>
<event>
 7    1  0.4519840E-010  0.4778732E+02  0.7816164E-02  0.1312668E+00
        -11   -1    0    0    0    0  0.00000000000E+00  0.00000000000E+00  0.45593999997E+02  0.45594000000E+02  0.51100000000E-03 0. -1.
         11   -1    0    0    0    0 -0.00000000000E+00 -0.00000000000E+00 -0.45593999997E+02  0.45594000000E+02  0.51100000000E-03 0.  1.
    9900012    2    1    2    0    0  0.98575360168E+01 -0.52473970262E+01  0.41939391059E+02  0.47787323574E+02  0.20000239501E+02 0.  0.
        -12    1    1    2    0    0 -0.98575360168E+01  0.52473970262E+01 -0.41939391059E+02  0.43400676426E+02  0.00000000000E+00 0.  1.
         11    1    3    3    0    0  0.75182056376E+01  0.54293593288E+01  0.23504387550E+02  0.25267718399E+02  0.51100000000E-03 0. -1.
        -11    1    3    3    0    0  0.21644865085E+01 -0.51330853539E+00  0.12454102945E+01  0.25494184750E+01  0.51100000000E-03 0.  1.
         12    1    3    3    0    0  0.17484387073E+00 -0.10163447820E+02  0.17189593214E+02  0.19970186700E+02  0.00000000000E+00 0. -1.
</event>
<event>
 7    1  0.4519840E-010  0.4778727E+02  0.7816164E-02  0.1312668E+00
        -11   -1    0    0    0    0  0.00000000000E+00  0.00000000000E+00  0.45593999997E+02  0.45594000000E+02  0.51100000000E-03 0. -1.
         11   -1    0    0    0    0 -0.00000000000E+00 -0.00000000000E+00 -0.45593999997E+02  0.45594000000E+02  0.51100000000E-03 0.  1.
    9900012    2    1    2    0    0 -0.17952444810E+02 -0.68646679295E+01  0.38912844422E+02  0.47787269575E+02  0.19999993299E+02 0.  0.
        -12    1    1    2    0    0  0.17952444810E+02  0.68646679295E+01 -0.38912844422E+02  0.43400730425E+02  0.00000000000E+00 0.  1.
         11    1    3    3    0    0 -0.75819993923E+01  0.26613050346E+00  0.15188094052E+02  0.16977506926E+02  0.51100000000E-03 0. -1.
        -11    1    3    3    0    0 -0.51811389971E+01  0.39698892497E+01  0.12909666820E+02  0.14465950353E+02  0.51100000000E-03 0.  1.
         12    1    3    3    0    0 -0.51893064210E+01 -0.11100687683E+02  0.10815083550E+02  0.16343812296E+02  0.00000000000E+00 0. -1.
</event>
<event>
 7    1  0.4519840E-010  0.4778727E+02  0.7816164E-02  0.1312668E+00
        -11   -1    0    0    0    0  0.00000000000E+00  0.00000000000E+00  0.45593999997E+02  0.45594000000E+02  0.51100000000E-03 0. -1.
         11   -1    0    0    0    0 -0.00000000000E+00 -0.00000000000E+00 -0.45593999997E+02  0.45594000000E+02  0.51100000000E-03 0.  1.
    9900012    2    1    2    0    0  0.26828496915E+01 -0.25143610121E+02  0.35273566871E+02  0.47787270373E+02  0.19999996937E+02 0.  0.
        -12    1    1    2    0    0 -0.26828496915E+01  0.25143610121E+02 -0.35273566871E+02  0.43400729627E+02  0.00000000000E+00 0.  1.
         11    1    3    3    0    0  0.30912051577E+01 -0.84905401563E+01  0.50478410119E+01  0.10350145922E+02  0.51100000000E-03 0. -1.
        -11    1    3    3    0    0 -0.36116622624E+01 -0.15588126508E+02  0.15315184345E+02  0.22149236197E+02  0.51100000000E-03 0.  1.
         12    1    3    3    0    0  0.32033067961E+01 -0.10649434565E+01  0.14910541514E+02  0.15287888253E+02  0.00000000000E+00 0. -1.
</event>
<event>
 7    1  0.4519840E-010  0.4778727E+02  0.7816164E-02  0.1312668E+00
        -11   -1    0    0    0    0  0.00000000000E+00  0.00000000000E+00  0.45593999997E+02  0.45594000000E+02  0.51100000000E-03 0.  1.
         11   -1    0    0    0    0 -0.00000000000E+00 -0.00000000000E+00 -0.45593999997E+02  0.45594000000E+02  0.51100000000E-03 0. -1.
    9900012    2    1    2    0    0 -0.41791743279E+02  0.38120451766E+01  0.11069865248E+02  0.47787269461E+02  0.19999992781E+02 0.  0.
         12    1    1    2    0    0  0.41791743279E+02 -0.38120451766E+01 -0.11069865248E+02  0.43400730539E+02  0.00000000000E+00 0. -1.
         11    1    3    3    0    0 -0.37236029343E+01 -0.21288172192E+01  0.13601195811E+01  0.44996674434E+01  0.51100000000E-03 0. -1.
        -11    1    3    3    0    0 -0.27991670061E+02 -0.37042211276E+01  0.65734243560E+01  0.28990770169E+02  0.51100000000E-03 0.  1.
         12    1    3    3    0    0 -0.10076470283E+02  0.96450835233E+01  0.31363213110E+01  0.14296831848E+02  0.00000000000E+00 0. -1.
</event>
<event>
 7    1  0.4519840E-010  0.4778728E+02  0.7816164E-02  0.1312668E+00
        -11   -1    0    0    0    0  0.00000000000E+00  0.00000000000E+00  0.45593999997E+02  0.45594000000E+02  0.51100000000E-03 0. -1.
         11   -1    0    0    0    0 -0.00000000000E+00 -0.00000000000E+00 -0.45593999997E+02  0.45594000000E+02  0.51100000000E-03 0.  1.
    9900012    2    1    2    0    0 -0.32062128148E+02 -0.19268932685E+01  0.29187838449E+02  0.47787275440E+02  0.20000020039E+02 0.  0.
        -12    1    1    2    0    0  0.32062128148E+02  0.19268932685E+01 -0.29187838449E+02  0.43400724560E+02  0.00000000000E+00 0.  1.
         11    1    3    3    0    0 -0.26088912413E+02 -0.24290715443E+01  0.19253437202E+02  0.32515020895E+02  0.51100000000E-03 0. -1.
        -11    1    3    3    0    0 -0.58469139567E+01 -0.30350177798E+01  0.96993886153E+01  0.11725010683E+02  0.51100000000E-03 0.  1.
        -12    1    3    3    0    0 -0.12630177806E+00  0.35371960556E+01  0.23501263135E+00  0.35472438613E+01  0.00000000000E+00 0.  1.
</event>
<event>
 7    1  0.4519840E-010  0.4778727E+02  0.7816164E-02  0.1312668E+00
        -11   -1    0    0    0    0  0.00000000000E+00  0.00000000000E+00  0.45593999997E+02  0.45594000000E+02  0.51100000000E-03 0. -1.
         11   -1    0    0    0    0 -0.00000000000E+00 -0.00000000000E+00 -0.45593999997E+02  0.45594000000E+02  0.51100000000E-03 0.  1.
    9900012    2    1    2    0    0  0.68454129182E+01  0.13902938177E+02 -0.40539755391E+02  0.47787272643E+02  0.20000007288E+02 0.  0.
         12    1    1    2    0    0 -0.68454129182E+01 -0.13902938177E+02  0.40539755391E+02  0.43400727357E+02  0.00000000000E+00 0. -1.
         11    1    3    3    0    0 -0.16894085155E+01  0.52773330555E+01 -0.30653006122E+01  0.63324887221E+01  0.51100000000E-03 0. -1.
        -11    1    3    3    0    0 -0.17424269918E+01  0.58825309241E+01 -0.20717394097E+02  0.21606726738E+02  0.51100000000E-03 0.  1.
         12    1    3    3    0    0  0.10277248425E+02  0.27430741974E+01 -0.16757060682E+02  0.19848057183E+02  0.00000000000E+00 0. -1.
</event>
<event>
 7    1  0.4519840E-010  0.4778727E+02  0.7816164E-02  0.1312668E+00
        -11   -1    0    0    0    0  0.00000000000E+00  0.00000000000E+00  0.45593999997E+02  0.45594000000E+02  0.51100000000E-03 0. -1.
         11   -1    0    0    0    0 -0.00000000000E+00 -0.00000000000E+00 -0.45593999997E+02  0.45594000000E+02  0.51100000000E-03 0.  1.
    9900012    2    1    2    0    0 -0.27887687169E+02 -0.13192799093E+02  0.30526221306E+02  0.47787271541E+02  0.20000002263E+02 0.  0.
        -12    1    1    2    0    0  0.27887687169E+02  0.13192799093E+02 -0.30526221306E+02  0.43400728459E+02  0.00000000000E+00 0.  1.
         11    1    3    3    0    0 -0.62952960588E+01 -0.20835445538E+01 -0.59853793910E+00  0.66580896886E+01  0.51100000000E-03 0. -1.
        -11    1    3    3    0    0 -0.16017522416E+02 -0.12470676537E+02  0.19418386856E+02  0.28091859069E+02  0.51100000000E-03 0.  1.
         12    1    3    3    0    0 -0.55748686949E+01  0.13614219979E+01  0.11706372389E+02  0.13037322783E+02  0.00000000000E+00 0. -1.
</event>
<event>
 7    1  0.4519840E-010  0.4778728E+02  0.7816164E-02  0.1312668E+00
        -11   -1    0    0    0    0  0.00000000000E+00  0.00000000000E+00  0.45593999997E+02  0.45594000000E+02  0.51100000000E-03 0. -1.
         11   -1    0    0    0    0 -0.00000000000E+00 -0.00000000000E+00 -0.45593999997E+02  0.45594000000E+02  0.51100000000E-03 0.  1.
    9900012    2    1    2    0    0  0.81478701788E+01 -0.10615575002E+02 -0.41286132019E+02  0.47787275143E+02  0.20000018686E+02 0.  0.
         12    1    1    2    0    0 -0.81478701788E+01  0.10615575002E+02  0.41286132019E+02  0.43400724857E+02  0.00000000000E+00 0. -1.
         11    1    3    3    0    0  0.64467575599E+00 -0.34119398780E+01 -0.18021817829E+02  0.18353279235E+02  0.51100000000E-03 0. -1.
        -11    1    3    3    0    0  0.10716243006E+02 -0.78753785382E+01 -0.22382195900E+02  0.26035017665E+02  0.51100000000E-03 0.  1.
         12    1    3    3    0    0 -0.32130485835E+01  0.67174341387E+00 -0.88211829015E+00  0.33989782423E+01  0.00000000000E+00 0. -1.
</event>
<event>
 7    1  0.4519840E-010  0.4778728E+02  0.7816164E-02  0.1312668E+00
        -11   -1    0    0    0    0  0.00000000000E+00  0.00000000000E+00  0.45593999997E+02  0.45594000000E+02  0.51100000000E-03 0. -1.
         11   -1    0    0    0    0 -0.00000000000E+00 -0.00000000000E+00 -0.45593999997E+02  0.45594000000E+02  0.51100000000E-03 0.  1.
    9900012    2    1    2    0    0  0.21996679836E+02 -0.15220168219E+02 -0.34177698087E+02  0.47787280064E+02  0.20000041123E+02 0.  0.
         12    1    1    2    0    0 -0.21996679836E+02  0.15220168219E+02  0.34177698087E+02  0.43400719936E+02  0.00000000000E+00 0. -1.
         11    1    3    3    0    0  0.37525865960E+01  0.12287641912E+01 -0.35293181767E+01  0.52960225313E+01  0.51100000000E-03 0. -1.
        -11    1    3    3    0    0  0.10083364352E+02 -0.15337348260E+02 -0.11534414679E+02  0.21678358114E+02  0.51100000000E-03 0.  1.
        -12    1    3    3    0    0  0.81607288881E+01 -0.11115841507E+01 -0.19113965232E+02  0.20812899418E+02  0.00000000000E+00 0.  1.
</event>
<event>
 7    1  0.4519840E-010  0.4778727E+02  0.7816164E-02  0.1312668E+00
        -11   -1    0    0    0    0  0.00000000000E+00  0.00000000000E+00  0.45593999997E+02  0.45594000000E+02  0.51100000000E-03 0.  1.
         11   -1    0    0    0    0 -0.00000000000E+00 -0.00000000000E+00 -0.45593999997E+02  0.45594000000E+02  0.51100000000E-03 0. -1.
    9900012    2    1    2    0    0 -0.38052357540E+02  0.16289255559E+02  0.13049964801E+02  0.47787270256E+02  0.19999996404E+02 0.  0.
         12    1    1    2    0    0  0.38052357540E+02 -0.16289255559E+02 -0.13049964801E+02  0.43400729744E+02  0.00000000000E+00 0. -1.
         11    1    3    3    0    0 -0.72651448574E+01 -0.18533778048E+01 -0.11569849829E+01  0.75865640179E+01  0.51100000000E-03 0. -1.
        -11    1    3    3    0    0 -0.57940026764E+01  0.40125138062E+01 -0.18744686006E+01  0.72927612641E+01  0.51100000000E-03 0.  1.
        -12    1    3    3    0    0 -0.24993210006E+02  0.14130119558E+02  0.16081418385E+02  0.32907944974E+02  0.00000000000E+00 0.  1.
</event>
<event>
 7    1  0.4519840E-010  0.4778727E+02  0.7816164E-02  0.1312668E+00
        -11   -1    0    0    0    0  0.00000000000E+00  0.00000000000E+00  0.45593999997E+02  0.45594000000E+02  0.51100000000E-03 0. -1.
         11   -1    0    0    0    0 -0.00000000000E+00 -0.00000000000E+00 -0.45593999997E+02  0.45594000000E+02  0.51100000000E-03 0.  1.
    9900012    2    1    2    0    0  0.32335155770E+02  0.58852520671E+00  0.28943297516E+02  0.47787272683E+02  0.20000007471E+02 0.  0.
        -12    1    1    2    0    0 -0.32335155770E+02 -0.58852520671E+00 -0.28943297516E+02  0.43400727317E+02  0.00000000000E+00 0.  1.
         11    1    3    3    0    0  0.10495952267E+02  0.36137183788E+01  0.12895341800E+02  0.17015105492E+02  0.51100000000E-03 0. -1.
        -11    1    3    3    0    0  0.16340920249E+02  0.39185177005E+01  0.13501943618E+02  0.21556505684E+02  0.51100000000E-03 0.  1.
        -12    1    3    3    0    0  0.54982832529E+01 -0.69437108726E+01  0.25460120983E+01  0.92156615072E+01  0.00000000000E+00 0.  1.
</event>
<event>
 7    1  0.4519840E-010  0.4778727E+02  0.7816164E-02  0.1312668E+00
        -11   -1    0    0    0    0  0.00000000000E+00  0.00000000000E+00  0.45593999997E+02  0.45594000000E+02  0.51100000000E-03 0. -1.
         11   -1    0    0    0    0 -0.00000000000E+00 -0.00000000000E+00 -0.45593999997E+02  0.45594000000E+02  0.51100000000E-03 0.  1.
    9900012    2    1    2    0    0 -0.10094894055E+02  0.40193342122E+01  0.42018582717E+02  0.47787271584E+02  0.20000002459E+02 0.  0.
        -12    1    1    2    0    0  0.10094894055E+02 -0.40193342122E+01 -0.42018582717E+02  0.43400728416E+02  0.00000000000E+00 0.  1.
         11    1    3    3    0    0  0.27573838820E+01  0.65161414839E+01  0.17801317899E+02  0.19155943853E+02  0.51100000000E-03 0. -1.
        -11    1    3    3    0    0 -0.80440104811E+01  0.21353688054E+01  0.10705313737E+02  0.13559854241E+02  0.51100000000E-03 0.  1.
        -12    1    3    3    0    0 -0.48082674563E+01 -0.46321760771E+01  0.13511951081E+02  0.15071473490E+02  0.00000000000E+00 0.  1.
</event>
<event>
 7    1  0.4519840E-010  0.4778727E+02  0.7816164E-02  0.1312668E+00
        -11   -1    0    0    0    0  0.00000000000E+00  0.00000000000E+00  0.45593999997E+02  0.45594000000E+02  0.51100000000E-03 0. -1.
         11   -1    0    0    0    0 -0.00000000000E+00 -0.00000000000E+00 -0.45593999997E+02  0.45594000000E+02  0.51100000000E-03 0.  1.
    9900012    2    1    2    0    0 -0.17506389808E+02 -0.19270222526E+02 -0.34724746383E+02  0.47787272222E+02  0.20000005368E+02 0.  0.
         12    1    1    2    0    0  0.17506389808E+02  0.19270222526E+02  0.34724746383E+02  0.43400727778E+02  0.00000000000E+00 0. -1.
         11    1    3    3    0    0 -0.26214660254E+01  0.59770412914E+00 -0.18397782152E+01  0.32579316277E+01  0.51100000000E-03 0. -1.
        -11    1    3    3    0    0 -0.92742216874E+01 -0.16768226484E+02 -0.32952575396E+02  0.38118982578E+02  0.51100000000E-03 0.  1.
        -12    1    3    3    0    0 -0.56107020954E+01 -0.30997001713E+01  0.67607227721E-01  0.64103580159E+01  0.00000000000E+00 0.  1.
</event>
<event>
 7    1  0.4519840E-010  0.4778727E+02  0.7816164E-02  0.1312668E+00
        -11   -1    0    0    0    0  0.00000000000E+00  0.00000000000E+00  0.45593999997E+02  0.45594000000E+02  0.51100000000E-03 0. -1.
         11   -1    0    0    0    0 -0.00000000000E+00 -0.00000000000E+00 -0.45593999997E+02  0.45594000000E+02  0.51100000000E-03 0.  1.
    9900012    2    1    2    0    0  0.60020815308E+01 -0.28778660711E+02 -0.31927838340E+02  0.47787272402E+02  0.20000006189E+02 0.  0.
         12    1    1    2    0    0 -0.60020815308E+01  0.28778660711E+02  0.31927838340E+02  0.43400727598E+02  0.00000000000E+00 0. -1.
         11    1    3    3    0    0 -0.20908710197E+01  0.95868798078E+00 -0.15990606393E+01  0.28013959832E+01  0.51100000000E-03 0. -1.
        -11    1    3    3    0    0  0.68694137538E+01 -0.80719275315E+01 -0.52695528950E+01  0.11836935725E+02  0.51100000000E-03 0.  1.
        -12    1    3    3    0    0  0.12235387967E+01 -0.21665421160E+02 -0.25059224805E+02  0.33148940693E+02  0.00000000000E+00 0.  1.
</event>
<event>
 7    1  0.4519840E-010  0.4778728E+02  0.7816164E-02  0.1312668E+00
        -11   -1    0    0    0    0  0.00000000000E+00  0.00000000000E+00  0.45593999997E+02  0.45594000000E+02  0.51100000000E-03 0. -1.
         11   -1    0    0    0    0 -0.00000000000E+00 -0.00000000000E+00 -0.45593999997E+02  0.45594000000E+02  0.51100000000E-03 0.  1.
    9900012    2    1    2    0    0 -0.77125878522E+01 -0.13190918844E+02 -0.40621895547E+02  0.47787277089E+02  0.20000027560E+02 0.  0.
         12    1    1    2    0    0  0.77125878522E+01  0.13190918844E+02  0.40621895547E+02  0.43400722911E+02  0.00000000000E+00 0. -1.
         11    1    3    3    0    0 -0.47039190694E+01 -0.13744501690E+01 -0.60247420468E+01  0.77661756914E+01  0.51100000000E-03 0. -1.
        -11    1    3    3    0    0 -0.27897584013E+01  0.32382444343E+01 -0.37104763640E+01  0.56600895808E+01  0.51100000000E-03 0.  1.
         12    1    3    3    0    0 -0.21891038156E+00 -0.15054713109E+02 -0.30886677137E+02  0.34361011817E+02  0.00000000000E+00 0. -1.
</event>
<event>
 7    1  0.4519840E-010  0.4778727E+02  0.7816164E-02  0.1312668E+00
        -11   -1    0    0    0    0  0.00000000000E+00  0.00000000000E+00  0.45593999997E+02  0.45594000000E+02  0.51100000000E-03 0. -1.
         11   -1    0    0    0    0 -0.00000000000E+00 -0.00000000000E+00 -0.45593999997E+02  0.45594000000E+02  0.51100000000E-03 0.  1.
    9900012    2    1    2    0    0 -0.27344102218E+02 -0.26537950206E+02 -0.20776449017E+02  0.47787267736E+02  0.19999984917E+02 0.  0.
         12    1    1    2    0    0  0.27344102218E+02  0.26537950206E+02  0.20776449017E+02  0.43400732264E+02  0.00000000000E+00 0. -1.
         11    1    3    3    0    0 -0.29083834532E+01  0.21355932189E+01 -0.16486006244E+01  0.39670312561E+01  0.51100000000E-03 0. -1.
        -11    1    3    3    0    0 -0.16965061711E+02 -0.10952148621E+02 -0.97185122431E+01  0.22410095018E+02  0.51100000000E-03 0.  1.
         12    1    3    3    0    0 -0.74706570546E+01 -0.17721394805E+02 -0.94093361492E+01  0.21410141462E+02  0.00000000000E+00 0. -1.
</event>
<event>
 7    1  0.4519840E-010  0.4778727E+02  0.7816164E-02  0.1312668E+00
        -11   -1    0    0    0    0  0.00000000000E+00  0.00000000000E+00  0.45593999997E+02  0.45594000000E+02  0.51100000000E-03 0. -1.
         11   -1    0    0    0    0 -0.00000000000E+00 -0.00000000000E+00 -0.45593999997E+02  0.45594000000E+02  0.51100000000E-03 0.  1.
    9900012    2    1    2    0    0 -0.25159422856E+02  0.31798520753E+01  0.35220946267E+02  0.47787273352E+02  0.20000010520E+02 0.  0.
        -12    1    1    2    0    0  0.25159422856E+02 -0.31798520753E+01 -0.35220946267E+02  0.43400726648E+02  0.00000000000E+00 0.  1.
         11    1    3    3    0    0 -0.89045800537E+01  0.92872320250E+01  0.22984709751E+02  0.26340863828E+02  0.51100000000E-03 0. -1.
        -11    1    3    3    0    0 -0.29383574725E+01 -0.12520377928E+01  0.96317760510E+00  0.33360537512E+01  0.51100000000E-03 0.  1.
         12    1    3    3    0    0 -0.13316485330E+02 -0.48553421569E+01  0.11273058911E+02  0.18110355773E+02  0.00000000000E+00 0. -1.
</event>
<event>
 7    1  0.4519840E-010  0.4778724E+02  0.7816164E-02  0.1312668E+00
        -11   -1    0    0    0    0  0.00000000000E+00  0.00000000000E+00  0.45593999997E+02  0.45594000000E+02  0.51100000000E-03 0. -1.
         11   -1    0    0    0    0 -0.00000000000E+00 -0.00000000000E+00 -0.45593999997E+02  0.45594000000E+02  0.51100000000E-03 0.  1.
    9900012    2    1    2    0    0  0.67877290198E+01  0.17705194060E+02 -0.39039451981E+02  0.47787239951E+02  0.19999858230E+02 0.  0.
         12    1    1    2    0    0 -0.67877290198E+01 -0.17705194060E+02  0.39039451981E+02  0.43400760049E+02  0.00000000000E+00 0. -1.
         11    1    3    3    0    0  0.19931361276E+01  0.67651497014E+01 -0.12237796435E+02  0.14124570929E+02  0.51100000000E-03 0. -1.
        -11    1    3    3    0    0  0.91422112398E+01  0.10513785488E+02 -0.25577255544E+02  0.29125859869E+02  0.51100000000E-03 0.  1.
         12    1    3    3    0    0 -0.43476183476E+01  0.42625886970E+00 -0.12244000015E+01  0.45368091523E+01  0.00000000000E+00 0. -1.
</event>
<event>
 7    1  0.4519840E-010  0.4778727E+02  0.7816164E-02  0.1312668E+00
        -11   -1    0    0    0    0  0.00000000000E+00  0.00000000000E+00  0.45593999997E+02  0.45594000000E+02  0.51100000000E-03 0. -1.
         11   -1    0    0    0    0 -0.00000000000E+00 -0.00000000000E+00 -0.45593999997E+02  0.45594000000E+02  0.51100000000E-03 0.  1.
    9900012    2    1    2    0    0  0.27583429451E+01  0.27859773599E+02 -0.33163952301E+02  0.47787272206E+02  0.20000005298E+02 0.  0.
         12    1    1    2    0    0 -0.27583429451E+01 -0.27859773599E+02  0.33163952301E+02  0.43400727794E+02  0.00000000000E+00 0. -1.
         11    1    3    3    0    0 -0.48303897000E+01  0.11193946930E+02 -0.10282218105E+02  0.15948702829E+02  0.51100000000E-03 0. -1.
        -11    1    3    3    0    0 -0.54310726111E-01 -0.18371214344E+01 -0.36079733301E+01  0.40491278853E+01  0.51100000000E-03 0.  1.
        -12    1    3    3    0    0  0.76430433712E+01  0.18502948103E+02 -0.19273760866E+02  0.27789441492E+02  0.00000000000E+00 0.  1.
</event>
<event>
 7    1  0.4519840E-010  0.4778727E+02  0.7816164E-02  0.1312668E+00
        -11   -1    0    0    0    0  0.00000000000E+00  0.00000000000E+00  0.45593999997E+02  0.45594000000E+02  0.51100000000E-03 0. -1.
         11   -1    0    0    0    0 -0.00000000000E+00 -0.00000000000E+00 -0.45593999997E+02  0.45594000000E+02  0.51100000000E-03 0.  1.
    9900012    2    1    2    0    0  0.22307629681E+02 -0.19082532205E+02  0.31966387641E+02  0.47787270558E+02  0.19999997781E+02 0.  0.
        -12    1    1    2    0    0 -0.22307629681E+02  0.19082532205E+02 -0.31966387641E+02  0.43400729442E+02  0.00000000000E+00 0.  1.
         11    1    3    3    0    0  0.71686495873E+01 -0.10685071708E+02  0.13596875947E+02  0.18719918005E+02  0.51100000000E-03 0. -1.
        -11    1    3    3    0    0  0.10948733524E+02 -0.15498088516E+01  0.25810686269E+01  0.11355112892E+02  0.51100000000E-03 0.  1.
         12    1    3    3    0    0  0.41902465692E+01 -0.68476516452E+01  0.15788443067E+02  0.17712239662E+02  0.00000000000E+00 0. -1.
</event>
<event>
 7    1  0.4519840E-010  0.4778727E+02  0.7816164E-02  0.1312668E+00
        -11   -1    0    0    0    0  0.00000000000E+00  0.00000000000E+00  0.45593999997E+02  0.45594000000E+02  0.51100000000E-03 0. -1.
         11   -1    0    0    0    0 -0.00000000000E+00 -0.00000000000E+00 -0.45593999997E+02  0.45594000000E+02  0.51100000000E-03 0.  1.
    9900012    2    1    2    0    0 -0.17437388826E+02 -0.10061084969E+02  0.38449126012E+02  0.47787271309E+02  0.20000001208E+02 0.  0.
        -12    1    1    2    0    0  0.17437388826E+02  0.10061084969E+02 -0.38449126012E+02  0.43400728691E+02  0.00000000000E+00 0.  1.
         11    1    3    3    0    0  0.18977020548E+01 -0.24051664327E+01  0.37244114861E+01  0.48225864260E+01  0.51100000000E-03 0. -1.
        -11    1    3    3    0    0  0.23482410077E+01 -0.13923780795E+01  0.36046094053E+01  0.45217432227E+01  0.51100000000E-03 0.  1.
         12    1    3    3    0    0 -0.21683331888E+02 -0.62635404563E+01  0.31120105120E+02  0.38442941661E+02  0.00000000000E+00 0. -1.
</event>
<event>
 7    1  0.4519840E-010  0.4778727E+02  0.7816164E-02  0.1312668E+00
        -11   -1    0    0    0    0  0.00000000000E+00  0.00000000000E+00  0.45593999997E+02  0.45594000000E+02  0.51100000000E-03 0. -1.
         11   -1    0    0    0    0 -0.00000000000E+00 -0.00000000000E+00 -0.45593999997E+02  0.45594000000E+02  0.51100000000E-03 0.  1.
    9900012    2    1    2    0    0  0.24559925854E+02  0.27780901213E+02 -0.22553378217E+02  0.47787270753E+02  0.19999998672E+02 0.  0.
         12    1    1    2    0    0 -0.24559925854E+02 -0.27780901213E+02  0.22553378217E+02  0.43400729247E+02  0.00000000000E+00 0. -1.
         11    1    3    3    0    0  0.61373652760E+01  0.31678215866E+01 -0.13251588315E+01  0.70326660894E+01  0.51100000000E-03 0. -1.
        -11    1    3    3    0    0  0.10496594948E+02  0.33178944089E+01 -0.24519023678E+01  0.11278242518E+02  0.51100000000E-03 0.  1.
        -12    1    3    3    0    0  0.79259656303E+01  0.21295185218E+02 -0.18776317018E+02  0.29476362146E+02  0.00000000000E+00 0.  1.
</event>
<event>
 7    1  0.4519840E-010  0.4778727E+02  0.7816164E-02  0.1312668E+00
        -11   -1    0    0    0    0  0.00000000000E+00  0.00000000000E+00  0.45593999997E+02  0.45594000000E+02  0.51100000000E-03 0. -1.
         11   -1    0    0    0    0 -0.00000000000E+00 -0.00000000000E+00 -0.45593999997E+02  0.45594000000E+02  0.51100000000E-03 0.  1.
    9900012    2    1    2    0    0  0.18975670568E+00 -0.38929314879E+01 -0.43225366636E+02  0.47787271389E+02  0.20000001569E+02 0.  0.
         12    1    1    2    0    0 -0.18975670568E+00  0.38929314879E+01  0.43225366636E+02  0.43400728611E+02  0.00000000000E+00 0. -1.
         11    1    3    3    0    0 -0.27512990130E+01  0.10520598849E+01 -0.20900964716E+02  0.21107505835E+02  0.51100000000E-03 0. -1.
        -11    1    3    3    0    0 -0.44755595634E+01 -0.39306847087E+01 -0.15283041010E+02  0.16402812517E+02  0.51100000000E-03 0.  1.
         12    1    3    3    0    0  0.74166152822E+01 -0.10143066641E+01 -0.70413609101E+01  0.10276953037E+02  0.00000000000E+00 0. -1.
</event>
<event>
 7    1  0.4519840E-010  0.4778727E+02  0.7816164E-02  0.1312668E+00
        -11   -1    0    0    0    0  0.00000000000E+00  0.00000000000E+00  0.45593999997E+02  0.45594000000E+02  0.51100000000E-03 0. -1.
         11   -1    0    0    0    0 -0.00000000000E+00 -0.00000000000E+00 -0.45593999997E+02  0.45594000000E+02  0.51100000000E-03 0.  1.
    9900012    2    1    2    0    0  0.99212656398E+01 -0.19104969611E+02  0.37685429895E+02  0.47787274176E+02  0.20000014276E+02 0.  0.
        -12    1    1    2    0    0 -0.99212656398E+01  0.19104969611E+02 -0.37685429895E+02  0.43400725824E+02  0.00000000000E+00 0.  1.
         11    1    3    3    0    0  0.64829196763E+00  0.15060525553E+01  0.65085394650E+01  0.67118971240E+01  0.51100000000E-03 0.  1.
        -11    1    3    3    0    0  0.60863880408E+01 -0.20413798674E+01  0.14720512015E+02  0.16059415475E+02  0.51100000000E-03 0. -1.
        -12    1    3    3    0    0  0.31865856313E+01 -0.18569642298E+02  0.16456378415E+02  0.25015961577E+02  0.00000000000E+00 0.  1.
</event>
<event>
 7    1  0.4519840E-010  0.4778725E+02  0.7816164E-02  0.1312668E+00
        -11   -1    0    0    0    0  0.00000000000E+00  0.00000000000E+00  0.45593999997E+02  0.45594000000E+02  0.51100000000E-03 0. -1.
         11   -1    0    0    0    0 -0.00000000000E+00 -0.00000000000E+00 -0.45593999997E+02  0.45594000000E+02  0.51100000000E-03 0.  1.
    9900012    2    1    2    0    0 -0.35181851328E+01 -0.51418946961E+01  0.42951228882E+02  0.47787253806E+02  0.19999921403E+02 0.  0.
        -12    1    1    2    0    0  0.35181851328E+01  0.51418946961E+01 -0.42951228882E+02  0.43400746194E+02  0.00000000000E+00 0.  1.
         11    1    3    3    0    0  0.48329803580E+00  0.17395003504E+01  0.22047143913E+02  0.22120940157E+02  0.51100000000E-03 0. -1.
        -11    1    3    3    0    0  0.32799737422E+01 -0.62036171113E+01  0.13743830467E+02  0.15431654778E+02  0.51100000000E-03 0.  1.
        -12    1    3    3    0    0 -0.72814569107E+01 -0.67777793519E+00  0.71602545023E+01  0.10234658871E+02  0.00000000000E+00 0.  1.
</event>
<event>
 7    1  0.4519840E-010  0.4778727E+02  0.7816164E-02  0.1312668E+00
        -11   -1    0    0    0    0  0.00000000000E+00  0.00000000000E+00  0.45593999997E+02  0.45594000000E+02  0.51100000000E-03 0. -1.
         11   -1    0    0    0    0 -0.00000000000E+00 -0.00000000000E+00 -0.45593999997E+02  0.45594000000E+02  0.51100000000E-03 0.  1.
    9900012    2    1    2    0    0 -0.48533701510E+01 -0.23033584223E+02  0.36462608578E+02  0.47787273874E+02  0.20000012900E+02 0.  0.
        -12    1    1    2    0    0  0.48533701510E+01  0.23033584223E+02 -0.36462608578E+02  0.43400726126E+02  0.00000000000E+00 0.  1.
         11    1    3    3    0    0 -0.38662331063E+01 -0.37907819559E+01  0.61404126960E+01  0.81867242905E+01  0.51100000000E-03 0. -1.
        -11    1    3    3    0    0  0.55476761168E+01 -0.45894270416E+00  0.60583678485E+01  0.82274637617E+01  0.51100000000E-03 0.  1.
         12    1    3    3    0    0 -0.65348131615E+01 -0.18783859563E+02  0.24263828033E+02  0.31373085822E+02  0.00000000000E+00 0. -1.
</event>
<event>
 7    1  0.4519840E-010  0.4778731E+02  0.7816164E-02  0.1312668E+00
        -11   -1    0    0    0    0  0.00000000000E+00  0.00000000000E+00  0.45593999997E+02  0.45594000000E+02  0.51100000000E-03 0. -1.
         11   -1    0    0    0    0 -0.00000000000E+00 -0.00000000000E+00 -0.45593999997E+02  0.45594000000E+02  0.51100000000E-03 0.  1.
    9900012    2    1    2    0    0  0.27686502267E+02 -0.15633072774E+02 -0.29541239550E+02  0.47787306385E+02  0.20000161130E+02 0.  0.
         12    1    1    2    0    0 -0.27686502267E+02  0.15633072774E+02  0.29541239550E+02  0.43400693615E+02  0.00000000000E+00 0. -1.
         11    1    3    3    0    0  0.10884970011E+02 -0.59635944863E+00 -0.12233197537E+02  0.16385644295E+02  0.51100000000E-03 0. -1.
        -11    1    3    3    0    0  0.14789251339E+02 -0.55000246507E+01 -0.14042183816E+02  0.21122385114E+02  0.51100000000E-03 0.  1.
         12    1    3    3    0    0  0.20122809161E+01 -0.95366886746E+01 -0.32658581977E+01  0.10279276975E+02  0.00000000000E+00 0. -1.
</event>
<event>
 7    1  0.4519840E-010  0.4778727E+02  0.7816164E-02  0.1312668E+00
        -11   -1    0    0    0    0  0.00000000000E+00  0.00000000000E+00  0.45593999997E+02  0.45594000000E+02  0.51100000000E-03 0. -1.
         11   -1    0    0    0    0 -0.00000000000E+00 -0.00000000000E+00 -0.45593999997E+02  0.45594000000E+02  0.51100000000E-03 0.  1.
    9900012    2    1    2    0    0 -0.33140165372E+02  0.15853279262E+02  0.23109009965E+02  0.47787269985E+02  0.19999995172E+02 0.  0.
        -12    1    1    2    0    0  0.33140165372E+02 -0.15853279262E+02 -0.23109009965E+02  0.43400730015E+02  0.00000000000E+00 0.  1.
         11    1    3    3    0    0 -0.14357108772E+02  0.84385416891E+01  0.10183986321E+02  0.19520479906E+02  0.51100000000E-03 0. -1.
        -11    1    3    3    0    0 -0.15291900121E+02  0.56658883478E+01  0.16335558746E+02  0.23082352131E+02  0.51100000000E-03 0.  1.
        -12    1    3    3    0    0 -0.34911564780E+01  0.17488492249E+01 -0.34105351009E+01  0.51844379483E+01  0.00000000000E+00 0.  1.
</event>
<event>
 7    1  0.4519840E-010  0.4778727E+02  0.7816164E-02  0.1312668E+00
        -11   -1    0    0    0    0  0.00000000000E+00  0.00000000000E+00  0.45593999997E+02  0.45594000000E+02  0.51100000000E-03 0. -1.
         11   -1    0    0    0    0 -0.00000000000E+00 -0.00000000000E+00 -0.45593999997E+02  0.45594000000E+02  0.51100000000E-03 0.  1.
    9900012    2    1    2    0    0 -0.78117473930E+01  0.91651977804E+01  0.41696507099E+02  0.47787274754E+02  0.20000016912E+02 0.  0.
        -12    1    1    2    0    0  0.78117473930E+01 -0.91651977804E+01 -0.41696507099E+02  0.43400725246E+02  0.00000000000E+00 0.  1.
         11    1    3    3    0    0 -0.49752989749E+01  0.48785826235E+01  0.21068084597E+02  0.22190501507E+02  0.51100000000E-03 0. -1.
        -11    1    3    3    0    0 -0.13626866504E+01  0.50649983551E+01  0.22492662122E+02  0.23096124628E+02  0.51100000000E-03 0.  1.
        -12    1    3    3    0    0 -0.14737617677E+01 -0.77838319816E+00 -0.18642396201E+01  0.25006486183E+01  0.00000000000E+00 0.  1.
</event>
<event>
 7    1  0.4519840E-010  0.4778726E+02  0.7816164E-02  0.1312668E+00
        -11   -1    0    0    0    0  0.00000000000E+00  0.00000000000E+00  0.45593999997E+02  0.45594000000E+02  0.51100000000E-03 0. -1.
         11   -1    0    0    0    0 -0.00000000000E+00 -0.00000000000E+00 -0.45593999997E+02  0.45594000000E+02  0.51100000000E-03 0.  1.
    9900012    2    1    2    0    0  0.37720225177E+01  0.38686480342E+02 -0.19306788458E+02  0.47787262729E+02  0.19999962085E+02 0.  0.
         12    1    1    2    0    0 -0.37720225177E+01 -0.38686480342E+02  0.19306788458E+02  0.43400737271E+02  0.00000000000E+00 0. -1.
         11    1    3    3    0    0 -0.34555010192E+01  0.16361595159E+02  0.27338173685E+00  0.16724742786E+02  0.51100000000E-03 0. -1.
        -11    1    3    3    0    0 -0.37165073558E-01  0.77387095703E+01 -0.75118446985E+01  0.10785027496E+02  0.51100000000E-03 0.  1.
        -12    1    3    3    0    0  0.72646886105E+01  0.14586175613E+02 -0.12068325497E+02  0.20277492446E+02  0.00000000000E+00 0.  1.
</event>
<event>
 7    1  0.4519840E-010  0.4778727E+02  0.7816164E-02  0.1312668E+00
        -11   -1    0    0    0    0  0.00000000000E+00  0.00000000000E+00  0.45593999997E+02  0.45594000000E+02  0.51100000000E-03 0. -1.
         11   -1    0    0    0    0 -0.00000000000E+00 -0.00000000000E+00 -0.45593999997E+02  0.45594000000E+02  0.51100000000E-03 0.  1.
    9900012    2    1    2    0    0  0.34294851444E+02 -0.21845838911E+02 -0.15173856075E+02  0.47787269344E+02  0.19999992248E+02 0.  0.
         12    1    1    2    0    0 -0.34294851444E+02  0.21845838911E+02  0.15173856075E+02  0.43400730656E+02  0.00000000000E+00 0. -1.
         11    1    3    3    0    0  0.13945852382E+02 -0.38607088704E+01 -0.15969555929E+01  0.14558232691E+02  0.51100000000E-03 0. -1.
        -11    1    3    3    0    0  0.98357703273E+01 -0.17480577942E+01 -0.87794629975E+01  0.13299513328E+02  0.51100000000E-03 0.  1.
         12    1    3    3    0    0  0.10513228734E+02 -0.16237072246E+02 -0.47974374846E+01  0.19929523325E+02  0.00000000000E+00 0. -1.
</event>
<event>
 7    1  0.4519840E-010  0.4778727E+02  0.7816164E-02  0.1312668E+00
        -11   -1    0    0    0    0  0.00000000000E+00  0.00000000000E+00  0.45593999997E+02  0.45594000000E+02  0.51100000000E-03 0.  1.
         11   -1    0    0    0    0 -0.00000000000E+00 -0.00000000000E+00 -0.45593999997E+02  0.45594000000E+02  0.51100000000E-03 0. -1.
    9900012    2    1    2    0    0 -0.37547219572E+02 -0.20281877114E+02  0.79041199758E+01  0.47787270174E+02  0.19999996031E+02 0.  0.
         12    1    1    2    0    0  0.37547219572E+02  0.20281877114E+02 -0.79041199758E+01  0.43400729826E+02  0.00000000000E+00 0. -1.
         11    1    3    3    0    0 -0.60662484997E+01 -0.36331757493E+00 -0.53670753937E+01  0.81078276414E+01  0.51100000000E-03 0. -1.
        -11    1    3    3    0    0 -0.17059588966E+02 -0.89474697350E+01  0.73083647747E+01  0.20603373177E+02  0.51100000000E-03 0.  1.
        -12    1    3    3    0    0 -0.14421382106E+02 -0.10971089804E+02  0.59628305948E+01  0.19076069355E+02  0.00000000000E+00 0.  1.
</event>
<event>
 7    1  0.4519840E-010  0.4778727E+02  0.7816164E-02  0.1312668E+00
        -11   -1    0    0    0    0  0.00000000000E+00  0.00000000000E+00  0.45593999997E+02  0.45594000000E+02  0.51100000000E-03 0. -1.
         11   -1    0    0    0    0 -0.00000000000E+00 -0.00000000000E+00 -0.45593999997E+02  0.45594000000E+02  0.51100000000E-03 0.  1.
    9900012    2    1    2    0    0 -0.14821847816E+02 -0.22465029577E+02 -0.34047886276E+02  0.47787270899E+02  0.19999999339E+02 0.  0.
         12    1    1    2    0    0  0.14821847816E+02  0.22465029577E+02  0.34047886276E+02  0.43400729101E+02  0.00000000000E+00 0. -1.
         11    1    3    3    0    0  0.44787189344E+00 -0.65744242599E+01 -0.93279884677E+01  0.11420814888E+02  0.51100000000E-03 0. -1.
        -11    1    3    3    0    0 -0.10017336685E+02 -0.18217684119E+02 -0.17770599337E+02  0.27350050273E+02  0.51100000000E-03 0.  1.
         12    1    3    3    0    0 -0.52523830244E+01  0.23270788018E+01 -0.69492984721E+01  0.90164057384E+01  0.00000000000E+00 0. -1.
</event>
<event>
 7    1  0.4519840E-010  0.4778727E+02  0.7816164E-02  0.1312668E+00
        -11   -1    0    0    0    0  0.00000000000E+00  0.00000000000E+00  0.45593999997E+02  0.45594000000E+02  0.51100000000E-03 0. -1.
         11   -1    0    0    0    0 -0.00000000000E+00 -0.00000000000E+00 -0.45593999997E+02  0.45594000000E+02  0.51100000000E-03 0.  1.
    9900012    2    1    2    0    0 -0.52787297041E+01  0.25002177460E+02 -0.35080616113E+02  0.47787268533E+02  0.19999988548E+02 0.  0.
         12    1    1    2    0    0  0.52787297041E+01 -0.25002177460E+02  0.35080616113E+02  0.43400731467E+02  0.00000000000E+00 0. -1.
         11    1    3    3    0    0 -0.16871115791E+01  0.14520220706E+01 -0.13129867729E+01  0.25843080507E+01  0.51100000000E-03 0. -1.
        -11    1    3    3    0    0  0.22100265355E+01  0.24644933474E+01 -0.17849632371E+02  0.18153989115E+02  0.51100000000E-03 0.  1.
        -12    1    3    3    0    0 -0.58016446605E+01  0.21085662042E+02 -0.15917996969E+02  0.27048971367E+02  0.00000000000E+00 0.  1.
</event>
<event>
 7    1  0.4519840E-010  0.4778727E+02  0.7816164E-02  0.1312668E+00
        -11   -1    0    0    0    0  0.00000000000E+00  0.00000000000E+00  0.45593999997E+02  0.45594000000E+02  0.51100000000E-03 0. -1.
         11   -1    0    0    0    0 -0.00000000000E+00 -0.00000000000E+00 -0.45593999997E+02  0.45594000000E+02  0.51100000000E-03 0.  1.
    9900012    2    1    2    0    0 -0.10953344069E+01 -0.15607156245E+02  0.40482594417E+02  0.47787268045E+02  0.19999986325E+02 0.  0.
        -12    1    1    2    0    0  0.10953344069E+01  0.15607156245E+02 -0.40482594417E+02  0.43400731955E+02  0.00000000000E+00 0.  1.
         11    1    3    3    0    0  0.24071122431E+01 -0.10034177584E+02  0.13109577780E+02  0.16683522979E+02  0.51100000000E-03 0. -1.
        -11    1    3    3    0    0 -0.66569670371E+01 -0.81315647359E+01  0.21872717419E+02  0.24266300145E+02  0.51100000000E-03 0.  1.
        -12    1    3    3    0    0  0.31545203871E+01  0.25585860747E+01  0.55002992176E+01  0.68374449217E+01  0.00000000000E+00 0.  1.
</event>
<event>
 7    1  0.4519840E-010  0.4778728E+02  0.7816164E-02  0.1312668E+00
        -11   -1    0    0    0    0  0.00000000000E+00  0.00000000000E+00  0.45593999997E+02  0.45594000000E+02  0.51100000000E-03 0. -1.
         11   -1    0    0    0    0 -0.00000000000E+00 -0.00000000000E+00 -0.45593999997E+02  0.45594000000E+02  0.51100000000E-03 0.  1.
    9900012    2    1    2    0    0  0.30848348915E+02  0.22375334041E+02  0.20768874989E+02  0.47787281428E+02  0.20000047344E+02 0.  0.
        -12    1    1    2    0    0 -0.30848348915E+02 -0.22375334041E+02 -0.20768874989E+02  0.43400718572E+02  0.00000000000E+00 0.  1.
         11    1    3    3    0    0  0.35968899462E-02  0.36747158248E+01 -0.15626415514E+01  0.39931689434E+01  0.51100000000E-03 0. -1.
        -11    1    3    3    0    0  0.88322861636E+01  0.11423320860E+02  0.96615368429E+01  0.17373739746E+02  0.51100000000E-03 0.  1.
         12    1    3    3    0    0  0.22012465862E+02  0.72772973562E+01  0.12669979697E+02  0.26420372739E+02  0.00000000000E+00 0. -1.
</event>
<event>
 7    1  0.4519840E-010  0.4778727E+02  0.7816164E-02  0.1312668E+00
        -11   -1    0    0    0    0  0.00000000000E+00  0.00000000000E+00  0.45593999997E+02  0.45594000000E+02  0.51100000000E-03 0. -1.
         11   -1    0    0    0    0 -0.00000000000E+00 -0.00000000000E+00 -0.45593999997E+02  0.45594000000E+02  0.51100000000E-03 0.  1.
    9900012    2    1    2    0    0 -0.10536845184E+02 -0.15311718360E+01 -0.42074378888E+02  0.47787274748E+02  0.20000016884E+02 0.  0.
         12    1    1    2    0    0  0.10536845184E+02  0.15311718360E+01  0.42074378888E+02  0.43400725252E+02  0.00000000000E+00 0. -1.
         11    1    3    3    0    0 -0.60518991786E+01  0.69185478460E+01 -0.23269801663E+02  0.25019501547E+02  0.51100000000E-03 0. -1.
        -11    1    3    3    0    0 -0.58837161168E+01 -0.27145248560E+01 -0.68155498185E+01  0.94041735483E+01  0.51100000000E-03 0.  1.
         12    1    3    3    0    0  0.13987701111E+01 -0.57351948260E+01 -0.11989027407E+02  0.13363599653E+02  0.00000000000E+00 0. -1.
</event>
<event>
 7    1  0.4519840E-010  0.4778727E+02  0.7816164E-02  0.1312668E+00
        -11   -1    0    0    0    0  0.00000000000E+00  0.00000000000E+00  0.45593999997E+02  0.45594000000E+02  0.51100000000E-03 0. -1.
         11   -1    0    0    0    0 -0.00000000000E+00 -0.00000000000E+00 -0.45593999997E+02  0.45594000000E+02  0.51100000000E-03 0.  1.
    9900012    2    1    2    0    0  0.18567465211E+02 -0.21854034966E+02  0.32577195298E+02  0.47787271180E+02  0.20000000618E+02 0.  0.
        -12    1    1    2    0    0 -0.18567465211E+02  0.21854034966E+02 -0.32577195298E+02  0.43400728820E+02  0.00000000000E+00 0.  1.
         11    1    3    3    0    0 -0.28873543527E+01 -0.16566877146E+01  0.83599809876E+01  0.89983727260E+01  0.51100000000E-03 0. -1.
        -11    1    3    3    0    0  0.13920055597E+02 -0.85054645006E+01  0.14452010671E+02  0.21793840572E+02  0.51100000000E-03 0.  1.
        -12    1    3    3    0    0  0.75347639667E+01 -0.11691882751E+02  0.97652036394E+01  0.16995057882E+02  0.00000000000E+00 0.  1.
</event>
<event>
 7    1  0.4519840E-010  0.4778725E+02  0.7816164E-02  0.1312668E+00
        -11   -1    0    0    0    0  0.00000000000E+00  0.00000000000E+00  0.45593999997E+02  0.45594000000E+02  0.51100000000E-03 0. -1.
         11   -1    0    0    0    0 -0.00000000000E+00 -0.00000000000E+00 -0.45593999997E+02  0.45594000000E+02  0.51100000000E-03 0.  1.
    9900012    2    1    2    0    0  0.71446730458E+01  0.45007286785E+01  0.42571373923E+02  0.47787253586E+02  0.19999920402E+02 0.  0.
        -12    1    1    2    0    0 -0.71446730458E+01 -0.45007286785E+01 -0.42571373923E+02  0.43400746414E+02  0.00000000000E+00 0.  1.
         11    1    3    3    0    0 -0.17577697414E+01 -0.18413811801E+01  0.92510783515E+01  0.95949408566E+01  0.51100000000E-03 0.  1.
        -11    1    3    3    0    0 -0.24375597913E+01  0.33630207626E+00  0.18179051125E+02  0.18344827524E+02  0.51100000000E-03 0. -1.
        -12    1    3    3    0    0  0.11340002579E+02  0.60058077824E+01  0.15141244446E+02  0.19847485205E+02  0.00000000000E+00 0.  1.
</event>
<event>
 7    1  0.4519840E-010  0.4778726E+02  0.7816164E-02  0.1312668E+00
        -11   -1    0    0    0    0  0.00000000000E+00  0.00000000000E+00  0.45593999997E+02  0.45594000000E+02  0.51100000000E-03 0. -1.
         11   -1    0    0    0    0 -0.00000000000E+00 -0.00000000000E+00 -0.45593999997E+02  0.45594000000E+02  0.51100000000E-03 0.  1.
    9900012    2    1    2    0    0  0.12804641955E+02  0.52671907578E+01  0.41132976132E+02  0.47787264066E+02  0.19999968185E+02 0.  0.
        -12    1    1    2    0    0 -0.12804641955E+02 -0.52671907578E+01 -0.41132976132E+02  0.43400735934E+02  0.00000000000E+00 0.  1.
         11    1    3    3    0    0  0.38263807030E+01 -0.11790779477E+01  0.13786528154E+02  0.14356175427E+02  0.51100000000E-03 0. -1.
        -11    1    3    3    0    0 -0.17421027668E+01 -0.39372019407E+01  0.60262080138E+01  0.74061909548E+01  0.51100000000E-03 0.  1.
         12    1    3    3    0    0  0.10720364019E+02  0.10383470646E+02  0.21320239965E+02  0.26024897685E+02  0.00000000000E+00 0. -1.
</event>
<event>
 7    1  0.4519840E-010  0.4778727E+02  0.7816164E-02  0.1312668E+00
        -11   -1    0    0    0    0  0.00000000000E+00  0.00000000000E+00  0.45593999997E+02  0.45594000000E+02  0.51100000000E-03 0. -1.
         11   -1    0    0    0    0 -0.00000000000E+00 -0.00000000000E+00 -0.45593999997E+02  0.45594000000E+02  0.51100000000E-03 0.  1.
    9900012    2    1    2    0    0  0.29814975849E+02  0.26670839411E+02 -0.16833205939E+02  0.47787270952E+02  0.19999999577E+02 0.  0.
         12    1    1    2    0    0 -0.29814975849E+02 -0.26670839411E+02  0.16833205939E+02  0.43400729048E+02  0.00000000000E+00 0. -1.
         11    1    3    3    0    0 -0.17782379938E+01  0.33835451730E+01 -0.50447111132E+01  0.63292668436E+01  0.51100000000E-03 0. -1.
        -11    1    3    3    0    0  0.37128654301E+00  0.75706656229E+00 -0.13056243024E+01  0.15542388995E+01  0.51100000000E-03 0.  1.
        -12    1    3    3    0    0  0.31221927299E+02  0.22530227676E+02 -0.10482870523E+02  0.39903765209E+02  0.00000000000E+00 0.  1.
</event>
<event>
 7    1  0.4519840E-010  0.4778727E+02  0.7816164E-02  0.1312668E+00
        -11   -1    0    0    0    0  0.00000000000E+00  0.00000000000E+00  0.45593999997E+02  0.45594000000E+02  0.51100000000E-03 0. -1.
         11   -1    0    0    0    0 -0.00000000000E+00 -0.00000000000E+00 -0.45593999997E+02  0.45594000000E+02  0.51100000000E-03 0.  1.
    9900012    2    1    2    0    0  0.26329768788E+02  0.92095091729E+01 -0.33249832893E+02  0.47787272229E+02  0.20000005402E+02 0.  0.
         12    1    1    2    0    0 -0.26329768788E+02 -0.92095091729E+01  0.33249832893E+02  0.43400727771E+02  0.00000000000E+00 0. -1.
         11    1    3    3    0    0  0.13718459806E+02 -0.41649736308E+00 -0.84818417589E+01  0.16134164043E+02  0.51100000000E-03 0. -1.
        -11    1    3    3    0    0  0.89786876732E+01  0.81615925651E+01 -0.82395000072E+01  0.14666894223E+02  0.51100000000E-03 0.  1.
        -12    1    3    3    0    0  0.36326213091E+01  0.14644139708E+01 -0.16528491127E+02  0.16986213962E+02  0.00000000000E+00 0.  1.
</event>
<event>
 7    1  0.4519840E-010  0.4778727E+02  0.7816164E-02  0.1312668E+00
        -11   -1    0    0    0    0  0.00000000000E+00  0.00000000000E+00  0.45593999997E+02  0.45594000000E+02  0.51100000000E-03 0. -1.
         11   -1    0    0    0    0 -0.00000000000E+00 -0.00000000000E+00 -0.45593999997E+02  0.45594000000E+02  0.51100000000E-03 0.  1.
    9900012    2    1    2    0    0  0.25221690033E+02 -0.12091648254E+02 -0.33185570551E+02  0.47787266154E+02  0.19999977701E+02 0.  0.
         12    1    1    2    0    0 -0.25221690033E+02  0.12091648254E+02  0.33185570551E+02  0.43400733846E+02  0.00000000000E+00 0. -1.
         11    1    3    3    0    0  0.39227411989E+01 -0.21870252816E+01 -0.23233004564E+01  0.50565505405E+01  0.51100000000E-03 0. -1.
        -11    1    3    3    0    0  0.71641573740E+01 -0.11885439022E+02 -0.21739557777E+02  0.25791416871E+02  0.51100000000E-03 0.  1.
        -12    1    3    3    0    0  0.14134791460E+02  0.19808160497E+01 -0.91227123178E+01  0.16939298742E+02  0.00000000000E+00 0.  1.
</event>
<event>
 7    1  0.4519840E-010  0.4778727E+02  0.7816164E-02  0.1312668E+00
        -11   -1    0    0    0    0  0.00000000000E+00  0.00000000000E+00  0.45593999997E+02  0.45594000000E+02  0.51100000000E-03 0. -1.
         11   -1    0    0    0    0 -0.00000000000E+00 -0.00000000000E+00 -0.45593999997E+02  0.45594000000E+02  0.51100000000E-03 0.  1.
    9900012    2    1    2    0    0 -0.18307527271E+02 -0.38168517484E+02  0.95719564414E+01  0.47787266921E+02  0.19999981200E+02 0.  0.
        -12    1    1    2    0    0  0.18307527271E+02  0.38168517484E+02 -0.95719564414E+01  0.43400733079E+02  0.00000000000E+00 0.  1.
         11    1    3    3    0    0 -0.58571184744E+01 -0.16277411847E+02 -0.13336828361E+01  0.17350466375E+02  0.51100000000E-03 0. -1.
        -11    1    3    3    0    0 -0.71856636251E+01 -0.26086498901E+01 -0.46555066639E-01  0.76446702753E+01  0.51100000000E-03 0.  1.
         12    1    3    3    0    0 -0.52647451714E+01 -0.19282455746E+02  0.10952194344E+02  0.22792130271E+02  0.00000000000E+00 0. -1.
</event>
<event>
 7    1  0.4519840E-010  0.4778729E+02  0.7816164E-02  0.1312668E+00
        -11   -1    0    0    0    0  0.00000000000E+00  0.00000000000E+00  0.45593999997E+02  0.45594000000E+02  0.51100000000E-03 0. -1.
         11   -1    0    0    0    0 -0.00000000000E+00 -0.00000000000E+00 -0.45593999997E+02  0.45594000000E+02  0.51100000000E-03 0.  1.
    9900012    2    1    2    0    0 -0.53622133571E+01  0.28367490149E+02 -0.32406076825E+02  0.47787289814E+02  0.20000085578E+02 0.  0.
         12    1    1    2    0    0  0.53622133571E+01 -0.28367490149E+02  0.32406076825E+02  0.43400710186E+02  0.00000000000E+00 0. -1.
         11    1    3    3    0    0  0.44811164931E+01  0.13189013391E+02 -0.96915190530E+01  0.16969266958E+02  0.51100000000E-03 0. -1.
        -11    1    3    3    0    0 -0.12108899997E+01  0.63077992171E+01 -0.14780435216E+02  0.16115702001E+02  0.51100000000E-03 0.  1.
         12    1    3    3    0    0 -0.86324398505E+01  0.88706775408E+01 -0.79341225560E+01  0.14702320856E+02  0.00000000000E+00 0. -1.
</event>
<event>
 7    1  0.4519840E-010  0.4778727E+02  0.7816164E-02  0.1312668E+00
        -11   -1    0    0    0    0  0.00000000000E+00  0.00000000000E+00  0.45593999997E+02  0.45594000000E+02  0.51100000000E-03 0. -1.
         11   -1    0    0    0    0 -0.00000000000E+00 -0.00000000000E+00 -0.45593999997E+02  0.45594000000E+02  0.51100000000E-03 0.  1.
    9900012    2    1    2    0    0  0.19032489125E+02  0.30300900798E+02  0.24561008996E+02  0.47787269657E+02  0.19999993672E+02 0.  0.
        -12    1    1    2    0    0 -0.19032489125E+02 -0.30300900798E+02 -0.24561008996E+02  0.43400730343E+02  0.00000000000E+00 0.  1.
         11    1    3    3    0    0  0.18426132735E+02  0.14383363264E+02  0.90902429586E+01  0.25080590577E+02  0.51100000000E-03 0. -1.
        -11    1    3    3    0    0 -0.11592768782E+00  0.74607662626E+01  0.40887831668E+01  0.85085028354E+01  0.51100000000E-03 0.  1.
         12    1    3    3    0    0  0.72228407820E+00  0.84567712705E+01  0.11381982870E+02  0.14198176245E+02  0.00000000000E+00 0. -1.
</event>
<event>
 7    1  0.4519840E-010  0.4778728E+02  0.7816164E-02  0.1312668E+00
        -11   -1    0    0    0    0  0.00000000000E+00  0.00000000000E+00  0.45593999997E+02  0.45594000000E+02  0.51100000000E-03 0.  1.
         11   -1    0    0    0    0 -0.00000000000E+00 -0.00000000000E+00 -0.45593999997E+02  0.45594000000E+02  0.51100000000E-03 0. -1.
    9900012    2    1    2    0    0  0.69850937618E+01 -0.38420751650E+02  0.18938768249E+02  0.47787278405E+02  0.20000033560E+02 0.  0.
        -12    1    1    2    0    0 -0.69850937618E+01  0.38420751650E+02 -0.18938768249E+02  0.43400721595E+02  0.00000000000E+00 0.  1.
         11    1    3    3    0    0  0.80349600306E+00 -0.17934000590E+02  0.41189868047E+01  0.18418469956E+02  0.51100000000E-03 0. -1.
        -11    1    3    3    0    0  0.77733461110E+01 -0.15364730668E+02  0.45936049906E+01  0.17821365417E+02  0.51100000000E-03 0.  1.
         12    1    3    3    0    0 -0.15917483523E+01 -0.51220203920E+01  0.10226176453E+02  0.11547443031E+02  0.00000000000E+00 0. -1.
</event>
<event>
 7    1  0.4519840E-010  0.4778726E+02  0.7816164E-02  0.1312668E+00
        -11   -1    0    0    0    0  0.00000000000E+00  0.00000000000E+00  0.45593999997E+02  0.45594000000E+02  0.51100000000E-03 0. -1.
         11   -1    0    0    0    0 -0.00000000000E+00 -0.00000000000E+00 -0.45593999997E+02  0.45594000000E+02  0.51100000000E-03 0.  1.
    9900012    2    1    2    0    0  0.14421578437E+02 -0.14573572625E+02  0.38252490433E+02  0.47787263048E+02  0.19999963540E+02 0.  0.
        -12    1    1    2    0    0 -0.14421578437E+02  0.14573572625E+02 -0.38252490433E+02  0.43400736952E+02  0.00000000000E+00 0.  1.
         11    1    3    3    0    0 -0.11221157353E+01 -0.88912394145E+00  0.82033011011E+01  0.83272945380E+01  0.51100000000E-03 0. -1.
        -11    1    3    3    0    0 -0.66468471092E+00  0.25090883578E+01  0.40007721011E+01  0.47690153929E+01  0.51100000000E-03 0.  1.
         12    1    3    3    0    0  0.16208378883E+02 -0.16193537041E+02  0.26048417231E+02  0.34690953117E+02  0.00000000000E+00 0. -1.
</event>
<event>
 7    1  0.4519840E-010  0.4778727E+02  0.7816164E-02  0.1312668E+00
        -11   -1    0    0    0    0  0.00000000000E+00  0.00000000000E+00  0.45593999997E+02  0.45594000000E+02  0.51100000000E-03 0. -1.
         11   -1    0    0    0    0 -0.00000000000E+00 -0.00000000000E+00 -0.45593999997E+02  0.45594000000E+02  0.51100000000E-03 0.  1.
    9900012    2    1    2    0    0 -0.13146710670E+02  0.24037664140E+02 -0.33659734842E+02  0.47787273643E+02  0.20000011846E+02 0.  0.
         12    1    1    2    0    0  0.13146710670E+02 -0.24037664140E+02  0.33659734842E+02  0.43400726357E+02  0.00000000000E+00 0. -1.
         11    1    3    3    0    0 -0.40210590445E+01  0.44736856101E+01 -0.14057994316E+01  0.61773012781E+01  0.51100000000E-03 0. -1.
        -11    1    3    3    0    0 -0.18740126879E+01  0.18083180702E+02 -0.26932642734E+02  0.32494316314E+02  0.51100000000E-03 0.  1.
        -12    1    3    3    0    0 -0.72516389372E+01  0.14807978286E+01 -0.53212926760E+01  0.91156560503E+01  0.00000000000E+00 0.  1.
</event>
<event>
 7    1  0.4519840E-010  0.4778728E+02  0.7816164E-02  0.1312668E+00
        -11   -1    0    0    0    0  0.00000000000E+00  0.00000000000E+00  0.45593999997E+02  0.45594000000E+02  0.51100000000E-03 0. -1.
         11   -1    0    0    0    0 -0.00000000000E+00 -0.00000000000E+00 -0.45593999997E+02  0.45594000000E+02  0.51100000000E-03 0.  1.
    9900012    2    1    2    0    0 -0.13002197124E+02 -0.23121137042E+02  0.34350815632E+02  0.47787278315E+02  0.20000033150E+02 0.  0.
        -12    1    1    2    0    0  0.13002197124E+02  0.23121137042E+02 -0.34350815632E+02  0.43400721685E+02  0.00000000000E+00 0.  1.
         11    1    3    3    0    0 -0.60911417527E+01 -0.62767892525E+01  0.21290079639E+02  0.23016680527E+02  0.51100000000E-03 0. -1.
        -11    1    3    3    0    0 -0.63940609174E+01 -0.33914776388E+01  0.67700790832E+01  0.99106057657E+01  0.51100000000E-03 0.  1.
         12    1    3    3    0    0 -0.51699445370E+00 -0.13452870150E+02  0.62906569098E+01  0.14859992022E+02  0.00000000000E+00 0. -1.
</event>
<event>
 7    1  0.4519840E-010  0.4778727E+02  0.7816164E-02  0.1312668E+00
        -11   -1    0    0    0    0  0.00000000000E+00  0.00000000000E+00  0.45593999997E+02  0.45594000000E+02  0.51100000000E-03 0.  1.
         11   -1    0    0    0    0 -0.00000000000E+00 -0.00000000000E+00 -0.45593999997E+02  0.45594000000E+02  0.51100000000E-03 0. -1.
    9900012    2    1    2    0    0 -0.39144847104E+02 -0.18430359231E+02 -0.34097330908E+01  0.47787268716E+02  0.19999989386E+02 0.  0.
         12    1    1    2    0    0  0.39144847104E+02  0.18430359231E+02  0.34097330908E+01  0.43400731284E+02  0.00000000000E+00 0. -1.
         11    1    3    3    0    0 -0.24664832718E+02 -0.10867952952E+02  0.10011388199E+01  0.26971626824E+02  0.51100000000E-03 0.  1.
        -11    1    3    3    0    0  0.21514676400E+00 -0.53554981959E+01 -0.21929345221E+01  0.57910803082E+01  0.51100000000E-03 0. -1.
         12    1    3    3    0    0 -0.14695161151E+02 -0.22069080835E+01 -0.22179373885E+01  0.15024561584E+02  0.00000000000E+00 0. -1.
</event>
<event>
 7    1  0.4519840E-010  0.4778727E+02  0.7816164E-02  0.1312668E+00
        -11   -1    0    0    0    0  0.00000000000E+00  0.00000000000E+00  0.45593999997E+02  0.45594000000E+02  0.51100000000E-03 0. -1.
         11   -1    0    0    0    0 -0.00000000000E+00 -0.00000000000E+00 -0.45593999997E+02  0.45594000000E+02  0.51100000000E-03 0.  1.
    9900012    2    1    2    0    0 -0.31731307879E+02 -0.25576588741E+02  0.14919303054E+02  0.47787269649E+02  0.19999993640E+02 0.  0.
        -12    1    1    2    0    0  0.31731307879E+02  0.25576588741E+02 -0.14919303054E+02  0.43400730351E+02  0.00000000000E+00 0.  1.
         11    1    3    3    0    0 -0.29645911265E+02 -0.27041386725E+02  0.17068121050E+02  0.43605474509E+02  0.51100000000E-03 0. -1.
        -11    1    3    3    0    0 -0.18754081391E+01  0.47526541276E+00 -0.14866752648E+00  0.19403956286E+01  0.51100000000E-03 0.  1.
         12    1    3    3    0    0 -0.20998847505E+00  0.98953257098E+00 -0.20001504699E+01  0.22413995117E+01  0.00000000000E+00 0. -1.
</event>
<event>
 7    1  0.4519840E-010  0.4778727E+02  0.7816164E-02  0.1312668E+00
        -11   -1    0    0    0    0  0.00000000000E+00  0.00000000000E+00  0.45593999997E+02  0.45594000000E+02  0.51100000000E-03 0. -1.
         11   -1    0    0    0    0 -0.00000000000E+00 -0.00000000000E+00 -0.45593999997E+02  0.45594000000E+02  0.51100000000E-03 0.  1.
    9900012    2    1    2    0    0  0.18151086140E+02  0.10114501583E+02  0.38103255662E+02  0.47787272329E+02  0.20000005859E+02 0.  0.
        -12    1    1    2    0    0 -0.18151086140E+02 -0.10114501583E+02 -0.38103255662E+02  0.43400727671E+02  0.00000000000E+00 0.  1.
         11    1    3    3    0    0  0.41677956846E+01  0.38267303138E+01  0.12099329674E+02  0.13356951919E+02  0.51100000000E-03 0. -1.
        -11    1    3    3    0    0  0.22774653183E+01 -0.28109906584E+01  0.16333025854E+02  0.16728904643E+02  0.51100000000E-03 0.  1.
         12    1    3    3    0    0  0.11705825137E+02  0.90987619272E+01  0.96709001341E+01  0.17701415767E+02  0.00000000000E+00 0. -1.
</event>
<event>
 7    1  0.4519840E-010  0.4778727E+02  0.7816164E-02  0.1312668E+00
        -11   -1    0    0    0    0  0.00000000000E+00  0.00000000000E+00  0.45593999997E+02  0.45594000000E+02  0.51100000000E-03 0. -1.
         11   -1    0    0    0    0 -0.00000000000E+00 -0.00000000000E+00 -0.45593999997E+02  0.45594000000E+02  0.51100000000E-03 0.  1.
    9900012    2    1    2    0    0 -0.32487804642E+02 -0.17078390615E+02  0.23162349419E+02  0.47787270662E+02  0.19999998258E+02 0.  0.
        -12    1    1    2    0    0  0.32487804642E+02  0.17078390615E+02 -0.23162349419E+02  0.43400729338E+02  0.00000000000E+00 0.  1.
         11    1    3    3    0    0 -0.33625025669E+01  0.10377460001E+01  0.95995422633E+00  0.36475817538E+01  0.51100000000E-03 0. -1.
        -11    1    3    3    0    0 -0.23685300353E+02 -0.18141189351E+02  0.11202976100E+02  0.31868524874E+02  0.51100000000E-03 0.  1.
         12    1    3    3    0    0 -0.54400017213E+01  0.25052736824E-01  0.10999419093E+02  0.12271164034E+02  0.00000000000E+00 0. -1.
</event>
<event>
 7    1  0.4519840E-010  0.4778727E+02  0.7816164E-02  0.1312668E+00
        -11   -1    0    0    0    0  0.00000000000E+00  0.00000000000E+00  0.45593999997E+02  0.45594000000E+02  0.51100000000E-03 0. -1.
         11   -1    0    0    0    0 -0.00000000000E+00 -0.00000000000E+00 -0.45593999997E+02  0.45594000000E+02  0.51100000000E-03 0.  1.
    9900012    2    1    2    0    0 -0.87148179492E+00  0.68283622807E+01 -0.42851341657E+02  0.47787268511E+02  0.19999988450E+02 0.  0.
         12    1    1    2    0    0  0.87148179492E+00 -0.68283622807E+01  0.42851341657E+02  0.43400731489E+02  0.00000000000E+00 0. -1.
         11    1    3    3    0    0  0.28196824347E+01  0.50199502619E+01 -0.19865481380E+02  0.20683033152E+02  0.51100000000E-03 0. -1.
        -11    1    3    3    0    0 -0.11722937137E+01  0.77790521245E+01 -0.11971105265E+02  0.14324639124E+02  0.51100000000E-03 0.  1.
        -12    1    3    3    0    0 -0.25188705159E+01 -0.59706401057E+01 -0.11014755012E+02  0.12779596234E+02  0.00000000000E+00 0.  1.
</event>
<event>
 7    1  0.4519840E-010  0.4778727E+02  0.7816164E-02  0.1312668E+00
        -11   -1    0    0    0    0  0.00000000000E+00  0.00000000000E+00  0.45593999997E+02  0.45594000000E+02  0.51100000000E-03 0. -1.
         11   -1    0    0    0    0 -0.00000000000E+00 -0.00000000000E+00 -0.45593999997E+02  0.45594000000E+02  0.51100000000E-03 0.  1.
    9900012    2    1    2    0    0  0.13868665368E+02  0.37419638872E+01 -0.40954620762E+02  0.47787272650E+02  0.20000007318E+02 0.  0.
         12    1    1    2    0    0 -0.13868665368E+02 -0.37419638872E+01  0.40954620762E+02  0.43400727350E+02  0.00000000000E+00 0. -1.
         11    1    3    3    0    0  0.39239508878E+00  0.30576600873E+01 -0.25017885219E+01  0.39701643775E+01  0.51100000000E-03 0. -1.
        -11    1    3    3    0    0  0.67965919683E+01  0.78744154465E+01 -0.13789017505E+02  0.17272437148E+02  0.51100000000E-03 0.  1.
        -12    1    3    3    0    0  0.66796783104E+01 -0.71901116466E+01 -0.24663814735E+02  0.26544671124E+02  0.00000000000E+00 0.  1.
</event>
<event>
 7    1  0.4519840E-010  0.4778727E+02  0.7816164E-02  0.1312668E+00
        -11   -1    0    0    0    0  0.00000000000E+00  0.00000000000E+00  0.45593999997E+02  0.45594000000E+02  0.51100000000E-03 0. -1.
         11   -1    0    0    0    0 -0.00000000000E+00 -0.00000000000E+00 -0.45593999997E+02  0.45594000000E+02  0.51100000000E-03 0.  1.
    9900012    2    1    2    0    0  0.86742701942E+01  0.14347927990E+02  0.40031452597E+02  0.47787271918E+02  0.20000003984E+02 0.  0.
        -12    1    1    2    0    0 -0.86742701942E+01 -0.14347927990E+02 -0.40031452597E+02  0.43400728082E+02  0.00000000000E+00 0.  1.
         11    1    3    3    0    0  0.63683454439E+01  0.72076014067E+01  0.31957651820E+02  0.33373595129E+02  0.51100000000E-03 0. -1.
        -11    1    3    3    0    0  0.47069479269E+01  0.47527040378E+01  0.86958333854E+01  0.10970919423E+02  0.51100000000E-03 0.  1.
        -12    1    3    3    0    0 -0.24010231766E+01  0.23876225454E+01 -0.62203260860E+00  0.34427573658E+01  0.00000000000E+00 0.  1.
</event>
<event>
 7    1  0.4519840E-010  0.4778724E+02  0.7816164E-02  0.1312668E+00
        -11   -1    0    0    0    0  0.00000000000E+00  0.00000000000E+00  0.45593999997E+02  0.45594000000E+02  0.51100000000E-03 0.  1.
         11   -1    0    0    0    0 -0.00000000000E+00 -0.00000000000E+00 -0.45593999997E+02  0.45594000000E+02  0.51100000000E-03 0. -1.
    9900012    2    1    2    0    0 -0.14170377641E+02 -0.40856561681E+02  0.36834478712E+01  0.47787239372E+02  0.19999855590E+02 0.  0.
        -12    1    1    2    0    0  0.14170377641E+02  0.40856561681E+02 -0.36834478712E+01  0.43400760628E+02  0.00000000000E+00 0.  1.
         11    1    3    3    0    0 -0.47707400999E+01 -0.19211278130E+02 -0.10752196103E+00  0.19795068318E+02  0.51100000000E-03 0. -1.
        -11    1    3    3    0    0 -0.10125815130E+02 -0.12099168046E+02 -0.32494802854E+01  0.16108417733E+02  0.51100000000E-03 0.  1.
         12    1    3    3    0    0  0.72617758927E+00 -0.95461155050E+01  0.70404501176E+01  0.11883753321E+02  0.00000000000E+00 0. -1.
</event>
<event>
 7    1  0.4519840E-010  0.4778727E+02  0.7816164E-02  0.1312668E+00
        -11   -1    0    0    0    0  0.00000000000E+00  0.00000000000E+00  0.45593999997E+02  0.45594000000E+02  0.51100000000E-03 0. -1.
         11   -1    0    0    0    0 -0.00000000000E+00 -0.00000000000E+00 -0.45593999997E+02  0.45594000000E+02  0.51100000000E-03 0.  1.
    9900012    2    1    2    0    0 -0.24956031854E+02 -0.75345614050E+01  0.34699425641E+02  0.47787270959E+02  0.19999999611E+02 0.  0.
        -12    1    1    2    0    0  0.24956031854E+02  0.75345614050E+01 -0.34699425641E+02  0.43400729041E+02  0.00000000000E+00 0.  1.
         11    1    3    3    0    0 -0.52895923566E+01  0.22920739851E+01  0.12026021609E+01  0.58889424069E+01  0.51100000000E-03 0. -1.
        -11    1    3    3    0    0  0.70879361927E+00  0.14102151593E+01  0.41916058761E+01  0.44789122867E+01  0.51100000000E-03 0.  1.
         12    1    3    3    0    0 -0.20375233116E+02 -0.11236850549E+02  0.29305217604E+02  0.37419416265E+02  0.00000000000E+00 0. -1.
</event>
<event>
 7    1  0.4519840E-010  0.4778727E+02  0.7816164E-02  0.1312668E+00
        -11   -1    0    0    0    0  0.00000000000E+00  0.00000000000E+00  0.45593999997E+02  0.45594000000E+02  0.51100000000E-03 0.  1.
         11   -1    0    0    0    0 -0.00000000000E+00 -0.00000000000E+00 -0.45593999997E+02  0.45594000000E+02  0.51100000000E-03 0. -1.
    9900012    2    1    2    0    0  0.30614430320E+02  0.18202296843E+02 -0.24800333426E+02  0.47787268529E+02  0.19999988529E+02 0.  0.
         12    1    1    2    0    0 -0.30614430320E+02 -0.18202296843E+02  0.24800333426E+02  0.43400731471E+02  0.00000000000E+00 0. -1.
         11    1    3    3    0    0  0.74397051132E+01  0.12126576745E+01 -0.13445455032E+02  0.15414279487E+02  0.51100000000E-03 0. -1.
        -11    1    3    3    0    0  0.74014859812E+01  0.51957815942E+00 -0.17203450857E+01  0.76165309471E+01  0.51100000000E-03 0.  1.
         12    1    3    3    0    0  0.15773239226E+02  0.16470061010E+02 -0.96345333084E+01  0.24756458095E+02  0.00000000000E+00 0. -1.
</event>
<event>
 7    1  0.4519840E-010  0.4778722E+02  0.7816164E-02  0.1312668E+00
        -11   -1    0    0    0    0  0.00000000000E+00  0.00000000000E+00  0.45593999997E+02  0.45594000000E+02  0.51100000000E-03 0. -1.
         11   -1    0    0    0    0 -0.00000000000E+00 -0.00000000000E+00 -0.45593999997E+02  0.45594000000E+02  0.51100000000E-03 0.  1.
    9900012    2    1    2    0    0  0.34126787061E+02  0.14711540360E+02 -0.22417857824E+02  0.47787223920E+02  0.19999785142E+02 0.  0.
         12    1    1    2    0    0 -0.34126787061E+02 -0.14711540360E+02  0.22417857824E+02  0.43400776080E+02  0.00000000000E+00 0. -1.
         11    1    3    3    0    0  0.79531949027E+01  0.13030152978E+01  0.26463234645E+00  0.80635717004E+01  0.51100000000E-03 0. -1.
        -11    1    3    3    0    0  0.15269063447E+02  0.11864940094E+02 -0.70098162398E+01  0.20568388998E+02  0.51100000000E-03 0.  1.
         12    1    3    3    0    0  0.10904528711E+02  0.15435849680E+01 -0.15672673931E+02  0.19155263222E+02  0.00000000000E+00 0. -1.
</event>
<event>
 7    1  0.4519840E-010  0.4778727E+02  0.7816164E-02  0.1312668E+00
        -11   -1    0    0    0    0  0.00000000000E+00  0.00000000000E+00  0.45593999997E+02  0.45594000000E+02  0.51100000000E-03 0. -1.
         11   -1    0    0    0    0 -0.00000000000E+00 -0.00000000000E+00 -0.45593999997E+02  0.45594000000E+02  0.51100000000E-03 0.  1.
    9900012    2    1    2    0    0 -0.57454696999E+01 -0.73657381768E+01 -0.42383470673E+02  0.47787272964E+02  0.20000008752E+02 0.  0.
         12    1    1    2    0    0  0.57454696999E+01  0.73657381768E+01  0.42383470673E+02  0.43400727036E+02  0.00000000000E+00 0. -1.
         11    1    3    3    0    0 -0.73924917624E+01 -0.12121434402E+02 -0.37099713066E+02  0.39723630451E+02  0.51100000000E-03 0. -1.
        -11    1    3    3    0    0 -0.10105255815E+01  0.11447765158E+01 -0.19492424395E+01  0.24761303623E+01  0.51100000000E-03 0.  1.
         12    1    3    3    0    0  0.26575476440E+01  0.36109197092E+01 -0.33345151679E+01  0.55875121504E+01  0.00000000000E+00 0. -1.
</event>
<event>
 7    1  0.4519840E-010  0.4778727E+02  0.7816164E-02  0.1312668E+00
        -11   -1    0    0    0    0  0.00000000000E+00  0.00000000000E+00  0.45593999997E+02  0.45594000000E+02  0.51100000000E-03 0. -1.
         11   -1    0    0    0    0 -0.00000000000E+00 -0.00000000000E+00 -0.45593999997E+02  0.45594000000E+02  0.51100000000E-03 0.  1.
    9900012    2    1    2    0    0 -0.26217816668E+01  0.11963324420E+02 -0.41636866886E+02  0.47787267813E+02  0.19999985267E+02 0.  0.
         12    1    1    2    0    0  0.26217816668E+01 -0.11963324420E+02  0.41636866886E+02  0.43400732187E+02  0.00000000000E+00 0. -1.
         11    1    3    3    0    0  0.48326177913E+01  0.82258741068E+01 -0.76504052942E+01  0.12228977920E+02  0.51100000000E-03 0. -1.
        -11    1    3    3    0    0 -0.18075011592E+01  0.42955948465E+01 -0.12685739656E+02  0.13514702602E+02  0.51100000000E-03 0.  1.
        -12    1    3    3    0    0 -0.56468982988E+01 -0.55814453285E+00 -0.21300721935E+02  0.22043587292E+02  0.00000000000E+00 0.  1.
</event>
<event>
 7    1  0.4519840E-010  0.4778727E+02  0.7816164E-02  0.1312668E+00
        -11   -1    0    0    0    0  0.00000000000E+00  0.00000000000E+00  0.45593999997E+02  0.45594000000E+02  0.51100000000E-03 0. -1.
         11   -1    0    0    0    0 -0.00000000000E+00 -0.00000000000E+00 -0.45593999997E+02  0.45594000000E+02  0.51100000000E-03 0.  1.
    9900012    2    1    2    0    0 -0.34359999075E+02 -0.36524274553E+01 -0.26261636956E+02  0.47787270302E+02  0.19999996614E+02 0.  0.
         12    1    1    2    0    0  0.34359999075E+02  0.36524274553E+01  0.26261636956E+02  0.43400729698E+02  0.00000000000E+00 0. -1.
         11    1    3    3    0    0 -0.11868976618E+02 -0.82596663240E+00 -0.19687784508E+01  0.12059474104E+02  0.51100000000E-03 0. -1.
        -11    1    3    3    0    0 -0.23789141430E+02 -0.28992909064E+01 -0.19911555770E+02  0.31157650604E+02  0.51100000000E-03 0.  1.
        -12    1    3    3    0    0  0.12981189725E+01  0.72830083482E-01 -0.43813027346E+01  0.45701455929E+01  0.00000000000E+00 0.  1.
</event>
<event>
 7    1  0.4519840E-010  0.4778727E+02  0.7816164E-02  0.1312668E+00
        -11   -1    0    0    0    0  0.00000000000E+00  0.00000000000E+00  0.45593999997E+02  0.45594000000E+02  0.51100000000E-03 0. -1.
         11   -1    0    0    0    0 -0.00000000000E+00 -0.00000000000E+00 -0.45593999997E+02  0.45594000000E+02  0.51100000000E-03 0.  1.
    9900012    2    1    2    0    0 -0.24810884149E+02  0.23843220761E+00  0.35608794664E+02  0.47787273282E+02  0.20000010203E+02 0.  0.
        -12    1    1    2    0    0  0.24810884149E+02 -0.23843220761E+00 -0.35608794664E+02  0.43400726718E+02  0.00000000000E+00 0.  1.
         11    1    3    3    0    0 -0.82427803276E+01  0.36902021162E+01  0.41516698689E+01  0.99396872259E+01  0.51100000000E-03 0. -1.
        -11    1    3    3    0    0 -0.72375662941E+00 -0.13583259481E+01 -0.88264081078E+00  0.17742401478E+01  0.51100000000E-03 0.  1.
         12    1    3    3    0    0 -0.15844347192E+02 -0.20934439604E+01  0.32339765606E+02  0.36073345908E+02  0.00000000000E+00 0. -1.
</event>
<event>
 7    1  0.4519840E-010  0.4778727E+02  0.7816164E-02  0.1312668E+00
        -11   -1    0    0    0    0  0.00000000000E+00  0.00000000000E+00  0.45593999997E+02  0.45594000000E+02  0.51100000000E-03 0. -1.
         11   -1    0    0    0    0 -0.00000000000E+00 -0.00000000000E+00 -0.45593999997E+02  0.45594000000E+02  0.51100000000E-03 0.  1.
    9900012    2    1    2    0    0 -0.58976849778E+01  0.26438215173E+02 -0.33909606762E+02  0.47787270278E+02  0.19999996505E+02 0.  0.
         12    1    1    2    0    0  0.58976849778E+01 -0.26438215173E+02  0.33909606762E+02  0.43400729722E+02  0.00000000000E+00 0. -1.
         11    1    3    3    0    0  0.29566032697E+01  0.20350464552E+02 -0.15215637159E+02  0.25581214295E+02  0.51100000000E-03 0. -1.
        -11    1    3    3    0    0 -0.39175690361E+01  0.35647169891E+01 -0.44386006836E+01  0.69105521237E+01  0.51100000000E-03 0.  1.
         12    1    3    3    0    0 -0.49367192114E+01  0.25230336317E+01 -0.14255368920E+02  0.15295503859E+02  0.00000000000E+00 0. -1.
</event>
<event>
 7    1  0.4519840E-010  0.4778728E+02  0.7816164E-02  0.1312668E+00
        -11   -1    0    0    0    0  0.00000000000E+00  0.00000000000E+00  0.45593999997E+02  0.45594000000E+02  0.51100000000E-03 0. -1.
         11   -1    0    0    0    0 -0.00000000000E+00 -0.00000000000E+00 -0.45593999997E+02  0.45594000000E+02  0.51100000000E-03 0.  1.
    9900012    2    1    2    0    0 -0.19125234465E+02  0.49912022302E+01  0.38638527962E+02  0.47787279544E+02  0.20000038753E+02 0.  0.
        -12    1    1    2    0    0  0.19125234465E+02 -0.49912022302E+01 -0.38638527962E+02  0.43400720456E+02  0.00000000000E+00 0.  1.
         11    1    3    3    0    0  0.13830764817E+01 -0.44143317870E+00  0.11876726974E+01  0.18757213287E+01  0.51100000000E-03 0. -1.
        -11    1    3    3    0    0 -0.30923430888E+01  0.81239142081E+01  0.95724878971E+01  0.12930316804E+02  0.51100000000E-03 0.  1.
         12    1    3    3    0    0 -0.17415967858E+02 -0.26912787992E+01  0.27878367367E+02  0.32981241412E+02  0.00000000000E+00 0. -1.
</event>
<event>
 7    1  0.4519840E-010  0.4778728E+02  0.7816164E-02  0.1312668E+00
        -11   -1    0    0    0    0  0.00000000000E+00  0.00000000000E+00  0.45593999997E+02  0.45594000000E+02  0.51100000000E-03 0. -1.
         11   -1    0    0    0    0 -0.00000000000E+00 -0.00000000000E+00 -0.45593999997E+02  0.45594000000E+02  0.51100000000E-03 0.  1.
    9900012    2    1    2    0    0  0.28972361292E+02  0.10145314322E+01  0.32298536043E+02  0.47787280843E+02  0.20000044676E+02 0.  0.
        -12    1    1    2    0    0 -0.28972361292E+02 -0.10145314322E+01 -0.32298536043E+02  0.43400719157E+02  0.00000000000E+00 0.  1.
         11    1    3    3    0    0  0.12742788560E+02 -0.31547532520E+01  0.24691816922E+02  0.27964565999E+02  0.51100000000E-03 0. -1.
        -11    1    3    3    0    0  0.61517651305E+01 -0.20195574956E+01  0.28882525842E+01  0.70897693863E+01  0.51100000000E-03 0.  1.
        -12    1    3    3    0    0  0.10077807601E+02  0.61888421797E+01  0.47184665364E+01  0.12732945457E+02  0.00000000000E+00 0.  1.
</event>
<event>
 7    1  0.4519840E-010  0.4778729E+02  0.7816164E-02  0.1312668E+00
        -11   -1    0    0    0    0  0.00000000000E+00  0.00000000000E+00  0.45593999997E+02  0.45594000000E+02  0.51100000000E-03 0. -1.
         11   -1    0    0    0    0 -0.00000000000E+00 -0.00000000000E+00 -0.45593999997E+02  0.45594000000E+02  0.51100000000E-03 0.  1.
    9900012    2    1    2    0    0 -0.75484037978E+01  0.30999918045E+02 -0.29421906349E+02  0.47787286966E+02  0.20000072593E+02 0.  0.
         12    1    1    2    0    0  0.75484037978E+01 -0.30999918045E+02  0.29421906349E+02  0.43400713034E+02  0.00000000000E+00 0. -1.
         11    1    3    3    0    0 -0.14686320072E+00  0.18580161065E+02 -0.12973489117E+02  0.22661760173E+02  0.51100000000E-03 0. -1.
        -11    1    3    3    0    0 -0.32928320233E+01  0.91189300428E+01 -0.17256508096E+02  0.19793551975E+02  0.51100000000E-03 0.  1.
        -12    1    3    3    0    0 -0.41087085738E+01  0.33008269372E+01  0.80809086484E+00  0.53319748180E+01  0.00000000000E+00 0.  1.
</event>
<event>
 7    1  0.4519840E-010  0.4778727E+02  0.7816164E-02  0.1312668E+00
        -11   -1    0    0    0    0  0.00000000000E+00  0.00000000000E+00  0.45593999997E+02  0.45594000000E+02  0.51100000000E-03 0. -1.
         11   -1    0    0    0    0 -0.00000000000E+00 -0.00000000000E+00 -0.45593999997E+02  0.45594000000E+02  0.51100000000E-03 0.  1.
    9900012    2    1    2    0    0 -0.17309549396E+01 -0.24525982927E+02  0.35764552722E+02  0.47787271032E+02  0.19999999943E+02 0.  0.
        -12    1    1    2    0    0  0.17309549396E+01  0.24525982927E+02 -0.35764552722E+02  0.43400728968E+02  0.00000000000E+00 0.  1.
         11    1    3    3    0    0  0.36539731019E+01 -0.13998368547E+02  0.13615990561E+02  0.19867084351E+02  0.51100000000E-03 0. -1.
        -11    1    3    3    0    0  0.36547347487E+01 -0.35532430242E+01  0.10146747334E+02  0.11355135569E+02  0.51100000000E-03 0.  1.
        -12    1    3    3    0    0 -0.90396627903E+01 -0.69743713558E+01  0.12001814827E+02  0.16565051111E+02  0.00000000000E+00 0.  1.
</event>
<event>
 7    1  0.4519840E-010  0.4778727E+02  0.7816164E-02  0.1312668E+00
        -11   -1    0    0    0    0  0.00000000000E+00  0.00000000000E+00  0.45593999997E+02  0.45594000000E+02  0.51100000000E-03 0. -1.
         11   -1    0    0    0    0 -0.00000000000E+00 -0.00000000000E+00 -0.45593999997E+02  0.45594000000E+02  0.51100000000E-03 0.  1.
    9900012    2    1    2    0    0 -0.69698492440E+01 -0.39007885997E+02  0.17703929946E+02  0.47787273002E+02  0.20000008924E+02 0.  0.
        -12    1    1    2    0    0  0.69698492440E+01  0.39007885997E+02 -0.17703929946E+02  0.43400726998E+02  0.00000000000E+00 0.  1.
         11    1    3    3    0    0 -0.52069562224E+01 -0.93676604273E+01 -0.26721605216E+01  0.11045627963E+02  0.51100000000E-03 0. -1.
        -11    1    3    3    0    0 -0.25964313783E+01 -0.14342924296E+02  0.60997958913E+01  0.15800900083E+02  0.51100000000E-03 0.  1.
         12    1    3    3    0    0  0.83353835671E+00 -0.15297301274E+02  0.14276294576E+02  0.20940744955E+02  0.00000000000E+00 0. -1.
</event>
<event>
 7    1  0.4519840E-010  0.4778727E+02  0.7816164E-02  0.1312668E+00
        -11   -1    0    0    0    0  0.00000000000E+00  0.00000000000E+00  0.45593999997E+02  0.45594000000E+02  0.51100000000E-03 0. -1.
         11   -1    0    0    0    0 -0.00000000000E+00 -0.00000000000E+00 -0.45593999997E+02  0.45594000000E+02  0.51100000000E-03 0.  1.
    9900012    2    1    2    0    0  0.33930083239E+02 -0.23653234185E+02  0.13149037324E+02  0.47787271682E+02  0.20000002906E+02 0.  0.
        -12    1    1    2    0    0 -0.33930083239E+02  0.23653234185E+02 -0.13149037324E+02  0.43400728318E+02  0.00000000000E+00 0.  1.
         11    1    3    3    0    0  0.29054514172E+02 -0.12717833114E+02  0.94027193089E+01  0.33080495818E+02  0.51100000000E-03 0. -1.
        -11    1    3    3    0    0  0.18107424623E+00  0.88565540816E+00 -0.79241293784E+00  0.12021197569E+01  0.51100000000E-03 0.  1.
         12    1    3    3    0    0  0.46944948204E+01 -0.11821056480E+02  0.45387309528E+01  0.13504656107E+02  0.00000000000E+00 0. -1.
</event>
<event>
 7    1  0.4519840E-010  0.4778728E+02  0.7816164E-02  0.1312668E+00
        -11   -1    0    0    0    0  0.00000000000E+00  0.00000000000E+00  0.45593999997E+02  0.45594000000E+02  0.51100000000E-03 0. -1.
         11   -1    0    0    0    0 -0.00000000000E+00 -0.00000000000E+00 -0.45593999997E+02  0.45594000000E+02  0.51100000000E-03 0.  1.
    9900012    2    1    2    0    0  0.12454004145E+02 -0.38189417642E+01 -0.41399710740E+02  0.47787278983E+02  0.20000036196E+02 0.  0.
         12    1    1    2    0    0 -0.12454004145E+02  0.38189417642E+01  0.41399710740E+02  0.43400721017E+02  0.00000000000E+00 0. -1.
         11    1    3    3    0    0  0.22241773249E+01 -0.98964089761E+00 -0.19019189111E+02  0.19174355493E+02  0.51100000000E-03 0. -1.
        -11    1    3    3    0    0  0.12223289692E+02  0.21189169926E+01 -0.16902995408E+02  0.20966875641E+02  0.51100000000E-03 0.  1.
         12    1    3    3    0    0 -0.19934628725E+01 -0.49482178592E+01 -0.54775262204E+01  0.76460478485E+01  0.00000000000E+00 0. -1.
</event>
<event>
 7    1  0.4519840E-010  0.4778727E+02  0.7816164E-02  0.1312668E+00
        -11   -1    0    0    0    0  0.00000000000E+00  0.00000000000E+00  0.45593999997E+02  0.45594000000E+02  0.51100000000E-03 0. -1.
         11   -1    0    0    0    0 -0.00000000000E+00 -0.00000000000E+00 -0.45593999997E+02  0.45594000000E+02  0.51100000000E-03 0.  1.
    9900012    2    1    2    0    0 -0.17561480234E+02 -0.23312871725E+02  0.32120517416E+02  0.47787271721E+02  0.20000003084E+02 0.  0.
        -12    1    1    2    0    0  0.17561480234E+02  0.23312871725E+02 -0.32120517416E+02  0.43400728279E+02  0.00000000000E+00 0.  1.
         11    1    3    3    0    0  0.19659388820E+00 -0.29816072122E+01  0.35879234168E+01  0.46692424901E+01  0.51100000000E-03 0. -1.
        -11    1    3    3    0    0 -0.16304670484E+02 -0.64335312366E+01  0.10982611259E+02  0.20684543845E+02  0.51100000000E-03 0.  1.
        -12    1    3    3    0    0 -0.14534036382E+01 -0.13897733276E+02  0.17549982741E+02  0.22433485386E+02  0.00000000000E+00 0.  1.
</event>
<event>
 7    1  0.4519840E-010  0.4778727E+02  0.7816164E-02  0.1312668E+00
        -11   -1    0    0    0    0  0.00000000000E+00  0.00000000000E+00  0.45593999997E+02  0.45594000000E+02  0.51100000000E-03 0. -1.
         11   -1    0    0    0    0 -0.00000000000E+00 -0.00000000000E+00 -0.45593999997E+02  0.45594000000E+02  0.51100000000E-03 0.  1.
    9900012    2    1    2    0    0  0.34907759958E+02  0.17370589684E+02  0.19061326749E+02  0.47787271104E+02  0.20000000271E+02 0.  0.
        -12    1    1    2    0    0 -0.34907759958E+02 -0.17370589684E+02 -0.19061326749E+02  0.43400728896E+02  0.00000000000E+00 0.  1.
         11    1    3    3    0    0  0.25865697366E+02  0.14940044768E+02  0.89688178443E+01  0.31187801007E+02  0.51100000000E-03 0. -1.
        -11    1    3    3    0    0  0.67324363385E+00  0.41119290035E+01  0.13478203606E+01  0.43792507471E+01  0.51100000000E-03 0.  1.
        -12    1    3    3    0    0  0.83688189589E+01 -0.16813840876E+01  0.87446885440E+01  0.12220219349E+02  0.00000000000E+00 0.  1.
</event>
<event>
 7    1  0.4519840E-010  0.4778727E+02  0.7816164E-02  0.1312668E+00
        -11   -1    0    0    0    0  0.00000000000E+00  0.00000000000E+00  0.45593999997E+02  0.45594000000E+02  0.51100000000E-03 0. -1.
         11   -1    0    0    0    0 -0.00000000000E+00 -0.00000000000E+00 -0.45593999997E+02  0.45594000000E+02  0.51100000000E-03 0.  1.
    9900012    2    1    2    0    0  0.15225337234E+02  0.35038367283E+02 -0.20594298229E+02  0.47787271950E+02  0.20000004128E+02 0.  0.
         12    1    1    2    0    0 -0.15225337234E+02 -0.35038367283E+02  0.20594298229E+02  0.43400728050E+02  0.00000000000E+00 0. -1.
         11    1    3    3    0    0  0.43537868017E+01  0.17878923413E+02 -0.81178075129E+01  0.20112437968E+02  0.51100000000E-03 0. -1.
        -11    1    3    3    0    0  0.10285834312E+02  0.10652122819E+02 -0.14768914358E+01  0.14881106028E+02  0.51100000000E-03 0.  1.
         12    1    3    3    0    0  0.58571612007E+00  0.65073210502E+01 -0.10999599280E+02  0.12793727954E+02  0.00000000000E+00 0. -1.
</event>
<event>
 7    1  0.4519840E-010  0.4778727E+02  0.7816164E-02  0.1312668E+00
        -11   -1    0    0    0    0  0.00000000000E+00  0.00000000000E+00  0.45593999997E+02  0.45594000000E+02  0.51100000000E-03 0. -1.
         11   -1    0    0    0    0 -0.00000000000E+00 -0.00000000000E+00 -0.45593999997E+02  0.45594000000E+02  0.51100000000E-03 0.  1.
    9900012    2    1    2    0    0  0.56303790266E+01  0.98615248573E-01  0.43033851932E+02  0.47787270685E+02  0.19999998362E+02 0.  0.
        -12    1    1    2    0    0 -0.56303790266E+01 -0.98615248573E-01 -0.43033851932E+02  0.43400729315E+02  0.00000000000E+00 0.  1.
         11    1    3    3    0    0 -0.41020102849E+01 -0.20092700373E+01  0.33077329807E+02  0.33391217436E+02  0.51100000000E-03 0. -1.
        -11    1    3    3    0    0  0.10336742299E+01 -0.53858125170E+00  0.47269490268E+00  0.12577729963E+01  0.51100000000E-03 0.  1.
        -12    1    3    3    0    0  0.86987150816E+01  0.26464665376E+01  0.94838272225E+01  0.13138280252E+02  0.00000000000E+00 0.  1.
</event>
<event>
 7    1  0.4519840E-010  0.4778727E+02  0.7816164E-02  0.1312668E+00
        -11   -1    0    0    0    0  0.00000000000E+00  0.00000000000E+00  0.45593999997E+02  0.45594000000E+02  0.51100000000E-03 0. -1.
         11   -1    0    0    0    0 -0.00000000000E+00 -0.00000000000E+00 -0.45593999997E+02  0.45594000000E+02  0.51100000000E-03 0.  1.
    9900012    2    1    2    0    0 -0.37095352036E+02 -0.12992418266E+02  0.18405306042E+02  0.47787269989E+02  0.19999995186E+02 0.  0.
        -12    1    1    2    0    0  0.37095352036E+02  0.12992418266E+02 -0.18405306042E+02  0.43400730011E+02  0.00000000000E+00 0.  1.
         11    1    3    3    0    0 -0.20589825045E+02 -0.14003342454E+02  0.15777369817E+02  0.29478125684E+02  0.51100000000E-03 0. -1.
        -11    1    3    3    0    0 -0.99695420316E+01 -0.19930209185E+01  0.41077040338E+01  0.10965269417E+02  0.51100000000E-03 0.  1.
        -12    1    3    3    0    0 -0.65359849590E+01  0.30039451062E+01 -0.14797678095E+01  0.73438748870E+01  0.00000000000E+00 0.  1.
</event>
<event>
 7    1  0.4519840E-010  0.4778728E+02  0.7816164E-02  0.1312668E+00
        -11   -1    0    0    0    0  0.00000000000E+00  0.00000000000E+00  0.45593999997E+02  0.45594000000E+02  0.51100000000E-03 0. -1.
         11   -1    0    0    0    0 -0.00000000000E+00 -0.00000000000E+00 -0.45593999997E+02  0.45594000000E+02  0.51100000000E-03 0.  1.
    9900012    2    1    2    0    0  0.18513379134E+02 -0.57806921058E+01  0.38826036975E+02  0.47787277018E+02  0.20000027235E+02 0.  0.
        -12    1    1    2    0    0 -0.18513379134E+02  0.57806921058E+01 -0.38826036975E+02  0.43400722982E+02  0.00000000000E+00 0.  1.
         11    1    3    3    0    0  0.68173809931E+01 -0.97865455542E+01  0.12078230919E+02  0.16974593365E+02  0.51100000000E-03 0. -1.
        -11    1    3    3    0    0 -0.14895242158E+01  0.14812032672E+00  0.18885849367E+01  0.24098496519E+01  0.51100000000E-03 0.  1.
        -12    1    3    3    0    0  0.13185522357E+02  0.38577331217E+01  0.24859221119E+02  0.28402834001E+02  0.00000000000E+00 0.  1.
</event>
<event>
 7    1  0.4519840E-010  0.4778727E+02  0.7816164E-02  0.1312668E+00
        -11   -1    0    0    0    0  0.00000000000E+00  0.00000000000E+00  0.45593999997E+02  0.45594000000E+02  0.51100000000E-03 0. -1.
         11   -1    0    0    0    0 -0.00000000000E+00 -0.00000000000E+00 -0.45593999997E+02  0.45594000000E+02  0.51100000000E-03 0.  1.
    9900012    2    1    2    0    0  0.24763345801E+02 -0.10696872317E+02  0.33999656015E+02  0.47787274410E+02  0.20000015346E+02 0.  0.
        -12    1    1    2    0    0 -0.24763345801E+02  0.10696872317E+02 -0.33999656015E+02  0.43400725590E+02  0.00000000000E+00 0.  1.
         11    1    3    3    0    0  0.12480367102E+01  0.82501440159E+00  0.27298268220E+01  0.31129084683E+01  0.51100000000E-03 0. -1.
        -11    1    3    3    0    0  0.15703983589E+02  0.47467969087E+00  0.87327121995E+01  0.17975001641E+02  0.51100000000E-03 0.  1.
         12    1    3    3    0    0  0.78113255009E+01 -0.11996566409E+02  0.22537116993E+02  0.26699364301E+02  0.00000000000E+00 0. -1.
</event>
<event>
 7    1  0.4519840E-010  0.4778727E+02  0.7816164E-02  0.1312668E+00
        -11   -1    0    0    0    0  0.00000000000E+00  0.00000000000E+00  0.45593999997E+02  0.45594000000E+02  0.51100000000E-03 0.  1.
         11   -1    0    0    0    0 -0.00000000000E+00 -0.00000000000E+00 -0.45593999997E+02  0.45594000000E+02  0.51100000000E-03 0. -1.
    9900012    2    1    2    0    0  0.34377615795E+02 -0.20692537426E+02 -0.16541518603E+02  0.47787269470E+02  0.19999992820E+02 0.  0.
         12    1    1    2    0    0 -0.34377615795E+02  0.20692537426E+02  0.16541518603E+02  0.43400730530E+02  0.00000000000E+00 0. -1.
         11    1    3    3    0    0  0.95468870671E+01 -0.82511039984E+00 -0.22259825104E+01  0.98376246240E+01  0.51100000000E-03 0. -1.
        -11    1    3    3    0    0 -0.11278904201E+01 -0.15663387439E+01 -0.41902988453E+01  0.46134757542E+01  0.51100000000E-03 0.  1.
        -12    1    3    3    0    0  0.25958619148E+02 -0.18301088282E+02 -0.10125237248E+02  0.33336169091E+02  0.00000000000E+00 0.  1.
</event>
<event>
 7    1  0.4519840E-010  0.4778727E+02  0.7816164E-02  0.1312668E+00
        -11   -1    0    0    0    0  0.00000000000E+00  0.00000000000E+00  0.45593999997E+02  0.45594000000E+02  0.51100000000E-03 0. -1.
         11   -1    0    0    0    0 -0.00000000000E+00 -0.00000000000E+00 -0.45593999997E+02  0.45594000000E+02  0.51100000000E-03 0.  1.
    9900012    2    1    2    0    0 -0.21066830461E+02  0.34909198804E+01  0.37783934724E+02  0.47787267397E+02  0.19999983368E+02 0.  0.
        -12    1    1    2    0    0  0.21066830461E+02 -0.34909198804E+01 -0.37783934724E+02  0.43400732603E+02  0.00000000000E+00 0.  1.
         11    1    3    3    0    0 -0.38983889141E+01  0.66992851527E+01  0.68988898838E+01  0.10376537938E+02  0.51100000000E-03 0. -1.
        -11    1    3    3    0    0  0.17042416593E+01 -0.11272041578E+01  0.40702606036E+01  0.45543441338E+01  0.51100000000E-03 0.  1.
        -12    1    3    3    0    0 -0.18872683206E+02 -0.20811611145E+01  0.26814784237E+02  0.32856385325E+02  0.00000000000E+00 0.  1.
</event>
<event>
 7    1  0.4519840E-010  0.4778727E+02  0.7816164E-02  0.1312668E+00
        -11   -1    0    0    0    0  0.00000000000E+00  0.00000000000E+00  0.45593999997E+02  0.45594000000E+02  0.51100000000E-03 0.  1.
         11   -1    0    0    0    0 -0.00000000000E+00 -0.00000000000E+00 -0.45593999997E+02  0.45594000000E+02  0.51100000000E-03 0. -1.
    9900012    2    1    2    0    0  0.39004668802E+02 -0.18690686795E+02  0.35940833616E+01  0.47787269632E+02  0.19999993561E+02 0.  0.
        -12    1    1    2    0    0 -0.39004668802E+02  0.18690686795E+02 -0.35940833616E+01  0.43400730368E+02  0.00000000000E+00 0.  1.
         11    1    3    3    0    0  0.12132212048E+02 -0.78651400502E+01 -0.19474616104E+01  0.14589160502E+02  0.51100000000E-03 0. -1.
        -11    1    3    3    0    0  0.62825907701E+01 -0.10306312968E+02  0.10358427667E+01  0.12114619444E+02  0.51100000000E-03 0.  1.
        -12    1    3    3    0    0  0.20589865984E+02 -0.51923377698E+00  0.45057022054E+01  0.21083489686E+02  0.00000000000E+00 0.  1.
</event>
<event>
 7    1  0.4519840E-010  0.4778727E+02  0.7816164E-02  0.1312668E+00
        -11   -1    0    0    0    0  0.00000000000E+00  0.00000000000E+00  0.45593999997E+02  0.45594000000E+02  0.51100000000E-03 0. -1.
         11   -1    0    0    0    0 -0.00000000000E+00 -0.00000000000E+00 -0.45593999997E+02  0.45594000000E+02  0.51100000000E-03 0.  1.
    9900012    2    1    2    0    0 -0.73133329571E+01 -0.36962583164E+01 -0.42620134892E+02  0.47787273478E+02  0.20000011094E+02 0.  0.
         12    1    1    2    0    0  0.73133329571E+01  0.36962583164E+01  0.42620134892E+02  0.43400726522E+02  0.00000000000E+00 0. -1.
         11    1    3    3    0    0  0.42537140828E+01  0.19066573935E+01 -0.81982548258E+01  0.94308434599E+01  0.51100000000E-03 0. -1.
        -11    1    3    3    0    0 -0.37172651742E+01  0.26990813992E+01 -0.16286838713E+02  0.16922299380E+02  0.51100000000E-03 0.  1.
        -12    1    3    3    0    0 -0.78497818657E+01 -0.83019971091E+01 -0.18135041352E+02  0.21434130638E+02  0.00000000000E+00 0.  1.
</event>
<event>
 7    1 -0.1186020E-009  0.4778727E+02  0.7816164E-02  0.1312668E+00
        -11   -1    0    0    0    0  0.00000000000E+00  0.00000000000E+00  0.45593999997E+02  0.45594000000E+02  0.51100000000E-03 0.  1.
         11   -1    0    0    0    0 -0.00000000000E+00 -0.00000000000E+00 -0.45593999997E+02  0.45594000000E+02  0.51100000000E-03 0. -1.
    9900012    2    1    2    0    0 -0.20713044468E+02  0.31981306660E+02 -0.20779536720E+02  0.47787270362E+02  0.19999996888E+02 0.  0.
         12    1    1    2    0    0  0.20713044468E+02 -0.31981306660E+02  0.20779536720E+02  0.43400729638E+02  0.00000000000E+00 0. -1.
         11    1    3    3    0    0 -0.19742793078E+02  0.23733354752E+02 -0.14943296107E+02  0.34297989812E+02  0.51100000000E-03 0. -1.
        -11    1    3    3    0    0 -0.17547173518E+01  0.74257231508E+01 -0.88984213619E-01  0.76307480465E+01  0.51100000000E-03 0.  1.
         12    1    3    3    0    0  0.78446596236E+00  0.82222875743E+00 -0.57472563995E+01  0.58585325038E+01  0.00000000000E+00 0. -1.
</event>
<event>
 7    1  0.4519840E-010  0.4778727E+02  0.7816164E-02  0.1312668E+00
        -11   -1    0    0    0    0  0.00000000000E+00  0.00000000000E+00  0.45593999997E+02  0.45594000000E+02  0.51100000000E-03 0. -1.
         11   -1    0    0    0    0 -0.00000000000E+00 -0.00000000000E+00 -0.45593999997E+02  0.45594000000E+02  0.51100000000E-03 0.  1.
    9900012    2    1    2    0    0 -0.38012742844E+02 -0.63750653380E+01 -0.19950274895E+02  0.47787267922E+02  0.19999985762E+02 0.  0.
         12    1    1    2    0    0  0.38012742844E+02  0.63750653380E+01  0.19950274895E+02  0.43400732078E+02  0.00000000000E+00 0. -1.
         11    1    3    3    0    0 -0.25839297573E+01 -0.34273464288E+01 -0.32960712896E+01  0.54117910844E+01  0.51100000000E-03 0. -1.
        -11    1    3    3    0    0 -0.27808501249E+02 -0.70636776653E+01 -0.17605613204E+02  0.33662529620E+02  0.51100000000E-03 0.  1.
         12    1    3    3    0    0 -0.76203118378E+01  0.41159587562E+01  0.95140959898E+00  0.87129472174E+01  0.00000000000E+00 0. -1.
</event>
<event>
 7    1  0.4519840E-010  0.4778726E+02  0.7816164E-02  0.1312668E+00
        -11   -1    0    0    0    0  0.00000000000E+00  0.00000000000E+00  0.45593999997E+02  0.45594000000E+02  0.51100000000E-03 0. -1.
         11   -1    0    0    0    0 -0.00000000000E+00 -0.00000000000E+00 -0.45593999997E+02  0.45594000000E+02  0.51100000000E-03 0.  1.
    9900012    2    1    2    0    0 -0.43299559775E+01 -0.94745639568E+01  0.42132032225E+02  0.47787262445E+02  0.19999960791E+02 0.  0.
        -12    1    1    2    0    0  0.43299559775E+01  0.94745639568E+01 -0.42132032225E+02  0.43400737555E+02  0.00000000000E+00 0.  1.
         11    1    3    3    0    0 -0.51029013805E+01 -0.39760425456E+01  0.14083604413E+02  0.15498271850E+02  0.51100000000E-03 0. -1.
        -11    1    3    3    0    0 -0.25828043471E+00 -0.15017380443E+01 -0.16841950506E+01  0.22712197530E+01  0.51100000000E-03 0.  1.
         12    1    3    3    0    0  0.10312258377E+01 -0.39967833668E+01  0.29732622862E+02  0.30017770841E+02  0.00000000000E+00 0. -1.
</event>
<event>
 7    1  0.4519840E-010  0.4778727E+02  0.7816164E-02  0.1312668E+00
        -11   -1    0    0    0    0  0.00000000000E+00  0.00000000000E+00  0.45593999997E+02  0.45594000000E+02  0.51100000000E-03 0. -1.
         11   -1    0    0    0    0 -0.00000000000E+00 -0.00000000000E+00 -0.45593999997E+02  0.45594000000E+02  0.51100000000E-03 0.  1.
    9900012    2    1    2    0    0  0.29713950449E+02  0.17968422802E+02 -0.26035362084E+02  0.47787272493E+02  0.20000006605E+02 0.  0.
         12    1    1    2    0    0 -0.29713950449E+02 -0.17968422802E+02  0.26035362084E+02  0.43400727507E+02  0.00000000000E+00 0. -1.
         11    1    3    3    0    0  0.24652072495E+02  0.10642278628E+02 -0.15688747897E+02  0.31098546325E+02  0.51100000000E-03 0. -1.
        -11    1    3    3    0    0  0.63560609934E+01  0.60831268714E+01 -0.32665317816E+01  0.93847841758E+01  0.51100000000E-03 0.  1.
        -12    1    3    3    0    0 -0.12941830393E+01  0.12430173026E+01 -0.70800824056E+01  0.73039419921E+01  0.00000000000E+00 0.  1.
</event>
<event>
 7    1  0.4519840E-010  0.4778727E+02  0.7816164E-02  0.1312668E+00
        -11   -1    0    0    0    0  0.00000000000E+00  0.00000000000E+00  0.45593999997E+02  0.45594000000E+02  0.51100000000E-03 0. -1.
         11   -1    0    0    0    0 -0.00000000000E+00 -0.00000000000E+00 -0.45593999997E+02  0.45594000000E+02  0.51100000000E-03 0.  1.
    9900012    2    1    2    0    0 -0.21878701920E+02 -0.72036614665E+01 -0.36783864737E+02  0.47787273725E+02  0.20000012222E+02 0.  0.
         12    1    1    2    0    0  0.21878701920E+02  0.72036614665E+01  0.36783864737E+02  0.43400726275E+02  0.00000000000E+00 0. -1.
         11    1    3    3    0    0 -0.61818018305E+01  0.31725321798E+01 -0.19436699886E+01  0.72150874970E+01  0.51100000000E-03 0. -1.
        -11    1    3    3    0    0  0.29564122506E+00  0.97296379890E+00 -0.82697715248E+00  0.13107073509E+01  0.51100000000E-03 0.  1.
        -12    1    3    3    0    0 -0.15992541315E+02 -0.11349157445E+02 -0.34013217595E+02  0.39261478877E+02  0.00000000000E+00 0.  1.
</event>
<event>
 7    1  0.4519840E-010  0.4778726E+02  0.7816164E-02  0.1312668E+00
        -11   -1    0    0    0    0  0.00000000000E+00  0.00000000000E+00  0.45593999997E+02  0.45594000000E+02  0.51100000000E-03 0. -1.
         11   -1    0    0    0    0 -0.00000000000E+00 -0.00000000000E+00 -0.45593999997E+02  0.45594000000E+02  0.51100000000E-03 0.  1.
    9900012    2    1    2    0    0 -0.39267442262E+02  0.12486509864E+02  0.13630075005E+02  0.47787263888E+02  0.19999967372E+02 0.  0.
        -12    1    1    2    0    0  0.39267442262E+02 -0.12486509864E+02 -0.13630075005E+02  0.43400736112E+02  0.00000000000E+00 0.  1.
         11    1    3    3    0    0 -0.58149301169E+00  0.54162688402E+01  0.50423941259E+01  0.74229267175E+01  0.51100000000E-03 0.  1.
        -11    1    3    3    0    0 -0.64684450882E+01  0.76531855740E+00  0.24952710578E+01  0.69751610925E+01  0.51100000000E-03 0. -1.
         12    1    3    3    0    0 -0.32217504162E+02  0.63049224667E+01  0.60924098215E+01  0.33389176078E+02  0.00000000000E+00 0. -1.
</event>
<event>
 7    1  0.4519840E-010  0.4778728E+02  0.7816164E-02  0.1312668E+00
        -11   -1    0    0    0    0  0.00000000000E+00  0.00000000000E+00  0.45593999997E+02  0.45594000000E+02  0.51100000000E-03 0. -1.
         11   -1    0    0    0    0 -0.00000000000E+00 -0.00000000000E+00 -0.45593999997E+02  0.45594000000E+02  0.51100000000E-03 0.  1.
    9900012    2    1    2    0    0 -0.46029991499E+01  0.10255784297E+02 -0.41919615151E+02  0.47787275961E+02  0.20000022416E+02 0.  0.
         12    1    1    2    0    0  0.46029991499E+01 -0.10255784297E+02  0.41919615151E+02  0.43400724039E+02  0.00000000000E+00 0. -1.
         11    1    3    3    0    0 -0.54624948310E+01  0.15267046786E+01 -0.20059880020E+02  0.20846305755E+02  0.51100000000E-03 0. -1.
        -11    1    3    3    0    0 -0.47868988862E+01 -0.46919347270E+00 -0.51331299601E+01  0.70344556940E+01  0.51100000000E-03 0.  1.
         12    1    3    3    0    0  0.56463945673E+01  0.91982730913E+01 -0.16726605171E+02  0.19906514512E+02  0.00000000000E+00 0. -1.
</event>
<event>
 7    1  0.4519840E-010  0.4778727E+02  0.7816164E-02  0.1312668E+00
        -11   -1    0    0    0    0  0.00000000000E+00  0.00000000000E+00  0.45593999997E+02  0.45594000000E+02  0.51100000000E-03 0. -1.
         11   -1    0    0    0    0 -0.00000000000E+00 -0.00000000000E+00 -0.45593999997E+02  0.45594000000E+02  0.51100000000E-03 0.  1.
    9900012    2    1    2    0    0  0.27662068857E+02  0.10161232980E+02 -0.31861926668E+02  0.47787273277E+02  0.20000010178E+02 0.  0.
         12    1    1    2    0    0 -0.27662068857E+02 -0.10161232980E+02  0.31861926668E+02  0.43400726723E+02  0.00000000000E+00 0. -1.
         11    1    3    3    0    0  0.46348629801E+01  0.45904958029E+01 -0.25953204989E+01  0.70207047590E+01  0.51100000000E-03 0. -1.
        -11    1    3    3    0    0  0.81646830847E+01  0.88632390180E+01 -0.74625106216E+01  0.14174206179E+02  0.51100000000E-03 0.  1.
         12    1    3    3    0    0  0.14862522792E+02 -0.32925018408E+01 -0.21804095548E+02  0.26592362339E+02  0.00000000000E+00 0. -1.
</event>
<event>
 7    1  0.4519840E-010  0.4778727E+02  0.7816164E-02  0.1312668E+00
        -11   -1    0    0    0    0  0.00000000000E+00  0.00000000000E+00  0.45593999997E+02  0.45594000000E+02  0.51100000000E-03 0. -1.
         11   -1    0    0    0    0 -0.00000000000E+00 -0.00000000000E+00 -0.45593999997E+02  0.45594000000E+02  0.51100000000E-03 0.  1.
    9900012    2    1    2    0    0  0.25299703989E+02 -0.10711374626E+02 -0.33597841187E+02  0.47787268431E+02  0.19999988085E+02 0.  0.
         12    1    1    2    0    0 -0.25299703989E+02  0.10711374626E+02  0.33597841187E+02  0.43400731569E+02  0.00000000000E+00 0. -1.
         11    1    3    3    0    0  0.94164665462E+01 -0.19906138005E+01 -0.11016128490E+02  0.14628310657E+02  0.51100000000E-03 0. -1.
        -11    1    3    3    0    0  0.36527537525E+01 -0.50762229904E+01 -0.18853382062E+02  0.19863551174E+02  0.51100000000E-03 0.  1.
         12    1    3    3    0    0  0.12230483690E+02 -0.36445378354E+01 -0.37283306354E+01  0.13295406600E+02  0.00000000000E+00 0. -1.
</event>
<event>
 7    1  0.4519840E-010  0.4778729E+02  0.7816164E-02  0.1312668E+00
        -11   -1    0    0    0    0  0.00000000000E+00  0.00000000000E+00  0.45593999997E+02  0.45594000000E+02  0.51100000000E-03 0. -1.
         11   -1    0    0    0    0 -0.00000000000E+00 -0.00000000000E+00 -0.45593999997E+02  0.45594000000E+02  0.51100000000E-03 0.  1.
    9900012    2    1    2    0    0 -0.12330409424E+02 -0.12283360012E+02  0.39758039951E+02  0.47787289516E+02  0.20000084221E+02 0.  0.
        -12    1    1    2    0    0  0.12330409424E+02  0.12283360012E+02 -0.39758039951E+02  0.43400710484E+02  0.00000000000E+00 0.  1.
         11    1    3    3    0    0 -0.47493890743E+01 -0.32425792970E+01  0.22834488212E+02  0.23547502399E+02  0.51100000000E-03 0. -1.
        -11    1    3    3    0    0 -0.10389476499E+02 -0.37499479890E+01  0.13092526452E+02  0.17129436097E+02  0.51100000000E-03 0.  1.
        -12    1    3    3    0    0  0.28084561495E+01 -0.52908327261E+01  0.38310252868E+01  0.71103510201E+01  0.00000000000E+00 0.  1.
</event>
<event>
 7    1  0.4519840E-010  0.4778727E+02  0.7816164E-02  0.1312668E+00
        -11   -1    0    0    0    0  0.00000000000E+00  0.00000000000E+00  0.45593999997E+02  0.45594000000E+02  0.51100000000E-03 0. -1.
         11   -1    0    0    0    0 -0.00000000000E+00 -0.00000000000E+00 -0.45593999997E+02  0.45594000000E+02  0.51100000000E-03 0.  1.
    9900012    2    1    2    0    0 -0.90641416255E+01  0.25520649189E+02  0.33914026565E+02  0.47787269634E+02  0.19999993571E+02 0.  0.
        -12    1    1    2    0    0  0.90641416255E+01 -0.25520649189E+02 -0.33914026565E+02  0.43400730366E+02  0.00000000000E+00 0.  1.
         11    1    3    3    0    0 -0.59033867866E+01  0.21380578883E+02  0.23905452080E+02  0.32610577553E+02  0.51100000000E-03 0. -1.
        -11    1    3    3    0    0 -0.27196844217E+01  0.73296614316E+01  0.87119172681E+01  0.11705474053E+02  0.51100000000E-03 0.  1.
        -12    1    3    3    0    0 -0.44107041724E+00 -0.31895911258E+01  0.12966572167E+01  0.34712180284E+01  0.00000000000E+00 0.  1.
</event>
<event>
 7    1  0.4519840E-010  0.4778727E+02  0.7816164E-02  0.1312668E+00
        -11   -1    0    0    0    0  0.00000000000E+00  0.00000000000E+00  0.45593999997E+02  0.45594000000E+02  0.51100000000E-03 0. -1.
         11   -1    0    0    0    0 -0.00000000000E+00 -0.00000000000E+00 -0.45593999997E+02  0.45594000000E+02  0.51100000000E-03 0.  1.
    9900012    2    1    2    0    0  0.24521269303E+02 -0.26215577501E+02  0.24394137853E+02  0.47787272891E+02  0.20000008421E+02 0.  0.
        -12    1    1    2    0    0 -0.24521269303E+02  0.26215577501E+02 -0.24394137853E+02  0.43400727109E+02  0.00000000000E+00 0.  1.
         11    1    3    3    0    0  0.66259673214E+01 -0.80657864361E+01  0.55165493458E+01  0.11806467326E+02  0.51100000000E-03 0. -1.
        -11    1    3    3    0    0  0.12969267794E+02 -0.21091153482E+02  0.16592107968E+02  0.29804977930E+02  0.51100000000E-03 0.  1.
        -12    1    3    3    0    0  0.49260341868E+01  0.29413624174E+01  0.22854805395E+01  0.61758276349E+01  0.00000000000E+00 0.  1.
</event>
<event>
 7    1  0.4519840E-010  0.4778726E+02  0.7816164E-02  0.1312668E+00
        -11   -1    0    0    0    0  0.00000000000E+00  0.00000000000E+00  0.45593999997E+02  0.45594000000E+02  0.51100000000E-03 0.  1.
         11   -1    0    0    0    0 -0.00000000000E+00 -0.00000000000E+00 -0.45593999997E+02  0.45594000000E+02  0.51100000000E-03 0. -1.
    9900012    2    1    2    0    0 -0.39283694163E+02  0.12034290612E+02 -0.13985388817E+02  0.47787264084E+02  0.19999968267E+02 0.  0.
         12    1    1    2    0    0  0.39283694163E+02 -0.12034290612E+02  0.13985388817E+02  0.43400735916E+02  0.00000000000E+00 0. -1.
         11    1    3    3    0    0 -0.11323701968E+02 -0.45295811146E+01 -0.16359451327E+00  0.12197134695E+02  0.51100000000E-03 0. -1.
        -11    1    3    3    0    0 -0.22596018292E+01  0.12165873834E+01 -0.25109595731E+01  0.35903765160E+01  0.51100000000E-03 0.  1.
        -12    1    3    3    0    0 -0.25700390366E+02  0.15347284343E+02 -0.11310834730E+02  0.31999752873E+02  0.00000000000E+00 0.  1.
</event>
<event>
 7    1  0.4519840E-010  0.4778726E+02  0.7816164E-02  0.1312668E+00
        -11   -1    0    0    0    0  0.00000000000E+00  0.00000000000E+00  0.45593999997E+02  0.45594000000E+02  0.51100000000E-03 0. -1.
         11   -1    0    0    0    0 -0.00000000000E+00 -0.00000000000E+00 -0.45593999997E+02  0.45594000000E+02  0.51100000000E-03 0.  1.
    9900012    2    1    2    0    0  0.32977451293E+02  0.38479030356E+01 -0.27951851482E+02  0.47787255158E+02  0.19999927569E+02 0.  0.
         12    1    1    2    0    0 -0.32977451293E+02 -0.38479030356E+01  0.27951851482E+02  0.43400744842E+02  0.00000000000E+00 0. -1.
         11    1    3    3    0    0  0.18584438499E+02  0.58707249628E+01 -0.18712959224E+02  0.27018912063E+02  0.51100000000E-03 0.  1.
        -11    1    3    3    0    0  0.11769691034E+02 -0.61117661291E+00 -0.11918452468E+02  0.16761523599E+02  0.51100000000E-03 0. -1.
         12    1    3    3    0    0  0.26233217603E+01 -0.14116453143E+01  0.26795602099E+01  0.40068194956E+01  0.00000000000E+00 0. -1.
</event>
<event>
 7    1  0.5057482E-010  0.4778727E+02  0.7816164E-02  0.1312668E+00
        -11   -1    0    0    0    0  0.00000000000E+00  0.00000000000E+00  0.45593999997E+02  0.45594000000E+02  0.51100000000E-03 0. -1.
         11   -1    0    0    0    0 -0.00000000000E+00 -0.00000000000E+00 -0.45593999997E+02  0.45594000000E+02  0.51100000000E-03 0.  1.
    9900012    2    1    2    0    0 -0.17539260920E+02  0.27441610122E+02 -0.28687205231E+02  0.47787269779E+02  0.19999994230E+02 0.  0.
         12    1    1    2    0    0  0.17539260920E+02 -0.27441610122E+02  0.28687205231E+02  0.43400730221E+02  0.00000000000E+00 0. -1.
         11    1    3    3    0    0 -0.22155000864E+01  0.51929560322E+01  0.13763837083E+00  0.56474930338E+01  0.51100000000E-03 0. -1.
        -11    1    3    3    0    0 -0.84822917658E+01  0.28975024756E+01 -0.37002651529E+01  0.96972551095E+01  0.51100000000E-03 0.  1.
        -12    1    3    3    0    0 -0.68414690682E+01  0.19351151615E+02 -0.25124578449E+02  0.32442521636E+02  0.00000000000E+00 0.  1.
</event>
<event>
 7    1  0.4519840E-010  0.4778729E+02  0.7816164E-02  0.1312668E+00
        -11   -1    0    0    0    0  0.00000000000E+00  0.00000000000E+00  0.45593999997E+02  0.45594000000E+02  0.51100000000E-03 0. -1.
         11   -1    0    0    0    0 -0.00000000000E+00 -0.00000000000E+00 -0.45593999997E+02  0.45594000000E+02  0.51100000000E-03 0.  1.
    9900012    2    1    2    0    0  0.31209193850E+02 -0.75804180129E+01 -0.29191525691E+02  0.47787289289E+02  0.20000083186E+02 0.  0.
         12    1    1    2    0    0 -0.31209193850E+02  0.75804180129E+01  0.29191525691E+02  0.43400710711E+02  0.00000000000E+00 0. -1.
         11    1    3    3    0    0 -0.99182909509E+00 -0.15936921445E+01 -0.46097456306E+01  0.49772818532E+01  0.51100000000E-03 0. -1.
        -11    1    3    3    0    0  0.88756380245E+01 -0.66529875354E+01 -0.11835080353E+02  0.16220614067E+02  0.51100000000E-03 0.  1.
        -12    1    3    3    0    0  0.23325384921E+02  0.66626166707E+00 -0.12746699707E+02  0.26589393369E+02  0.00000000000E+00 0.  1.
</event>
<event>
 7    1  0.4519840E-010  0.4778727E+02  0.7816164E-02  0.1312668E+00
        -11   -1    0    0    0    0  0.00000000000E+00  0.00000000000E+00  0.45593999997E+02  0.45594000000E+02  0.51100000000E-03 0. -1.
         11   -1    0    0    0    0 -0.00000000000E+00 -0.00000000000E+00 -0.45593999997E+02  0.45594000000E+02  0.51100000000E-03 0.  1.
    9900012    2    1    2    0    0  0.36362737893E+01 -0.25237506221E+02  0.35120776254E+02  0.47787272679E+02  0.20000007454E+02 0.  0.
        -12    1    1    2    0    0 -0.36362737893E+01  0.25237506221E+02 -0.35120776254E+02  0.43400727321E+02  0.00000000000E+00 0.  1.
         11    1    3    3    0    0  0.75920352307E+01 -0.86738656188E+01  0.15108362382E+02  0.19003619598E+02  0.51100000000E-03 0. -1.
        -11    1    3    3    0    0  0.37819484216E+01 -0.81259489044E+01  0.11149644807E+02  0.14305549939E+02  0.51100000000E-03 0.  1.
        -12    1    3    3    0    0 -0.77377098631E+01 -0.84376916974E+01  0.88627690643E+01  0.14478103142E+02  0.00000000000E+00 0.  1.
</event>
<event>
 7    1  0.4519840E-010  0.4778727E+02  0.7816164E-02  0.1312668E+00
        -11   -1    0    0    0    0  0.00000000000E+00  0.00000000000E+00  0.45593999997E+02  0.45594000000E+02  0.51100000000E-03 0. -1.
         11   -1    0    0    0    0 -0.00000000000E+00 -0.00000000000E+00 -0.45593999997E+02  0.45594000000E+02  0.51100000000E-03 0.  1.
    9900012    2    1    2    0    0 -0.43864655444E+01 -0.23502071087E+02 -0.36222016867E+02  0.47787274992E+02  0.20000017998E+02 0.  0.
         12    1    1    2    0    0  0.43864655444E+01  0.23502071087E+02  0.36222016867E+02  0.43400725008E+02  0.00000000000E+00 0. -1.
         11    1    3    3    0    0 -0.37222683360E+01 -0.25815277430E+01 -0.83682011061E+01  0.95155849566E+01  0.51100000000E-03 0. -1.
        -11    1    3    3    0    0  0.26673237781E+01 -0.17573436830E+02 -0.28414478652E+02  0.33516009540E+02  0.51100000000E-03 0.  1.
         12    1    3    3    0    0 -0.33315209864E+01 -0.33471065141E+01  0.56066289112E+00  0.47556804957E+01  0.00000000000E+00 0. -1.
</event>
<event>
 7    1  0.4519840E-010  0.4778727E+02  0.7816164E-02  0.1312668E+00
        -11   -1    0    0    0    0  0.00000000000E+00  0.00000000000E+00  0.45593999997E+02  0.45594000000E+02  0.51100000000E-03 0. -1.
         11   -1    0    0    0    0 -0.00000000000E+00 -0.00000000000E+00 -0.45593999997E+02  0.45594000000E+02  0.51100000000E-03 0.  1.
    9900012    2    1    2    0    0 -0.12406490173E+01 -0.57198867174E+01  0.43004265947E+02  0.47787271853E+02  0.20000003685E+02 0.  0.
        -12    1    1    2    0    0  0.12406490173E+01  0.57198867174E+01 -0.43004265947E+02  0.43400728147E+02  0.00000000000E+00 0.  1.
         11    1    3    3    0    0  0.12768854898E+01  0.28389638787E-01  0.74139962430E+00  0.14767925344E+01  0.51100000000E-03 0. -1.
        -11    1    3    3    0    0  0.25398883716E+00 -0.62804348291E+01  0.30327161039E+01  0.69789497204E+01  0.51100000000E-03 0.  1.
         12    1    3    3    0    0 -0.27715233443E+01  0.53215847289E+00  0.39230150219E+02  0.39331529598E+02  0.00000000000E+00 0. -1.
</event>
<event>
 7    1  0.4519840E-010  0.4778726E+02  0.7816164E-02  0.1312668E+00
        -11   -1    0    0    0    0  0.00000000000E+00  0.00000000000E+00  0.45593999997E+02  0.45594000000E+02  0.51100000000E-03 0. -1.
         11   -1    0    0    0    0 -0.00000000000E+00 -0.00000000000E+00 -0.45593999997E+02  0.45594000000E+02  0.51100000000E-03 0.  1.
    9900012    2    1    2    0    0  0.20961068350E+02 -0.15563417081E+02 -0.34670412646E+02  0.47787264400E+02  0.19999969704E+02 0.  0.
         12    1    1    2    0    0 -0.20961068350E+02  0.15563417081E+02  0.34670412646E+02  0.43400735600E+02  0.00000000000E+00 0. -1.
         11    1    3    3    0    0 -0.11052980122E+01 -0.36821231964E+00 -0.11779127776E+01  0.16567265256E+01  0.51100000000E-03 0.  1.
        -11    1    3    3    0    0  0.75369950254E+01 -0.10177760154E+02 -0.26235284523E+02  0.29132168646E+02  0.51100000000E-03 0. -1.
         12    1    3    3    0    0  0.14529371337E+02 -0.50174446078E+01 -0.72572153448E+01  0.16998369228E+02  0.00000000000E+00 0. -1.
</event>
<event>
 7    1  0.4519840E-010  0.4778728E+02  0.7816164E-02  0.1312668E+00
        -11   -1    0    0    0    0  0.00000000000E+00  0.00000000000E+00  0.45593999997E+02  0.45594000000E+02  0.51100000000E-03 0. -1.
         11   -1    0    0    0    0 -0.00000000000E+00 -0.00000000000E+00 -0.45593999997E+02  0.45594000000E+02  0.51100000000E-03 0.  1.
    9900012    2    1    2    0    0 -0.80046166887E+01 -0.29419970053E+02  0.30887123087E+02  0.47787275365E+02  0.20000019701E+02 0.  0.
        -12    1    1    2    0    0  0.80046166887E+01  0.29419970053E+02 -0.30887123087E+02  0.43400724635E+02  0.00000000000E+00 0.  1.
         11    1    3    3    0    0 -0.34167753487E+01 -0.43818715461E+01  0.81103820752E+01  0.98312486337E+01  0.51100000000E-03 0. -1.
        -11    1    3    3    0    0 -0.33753711012E+01 -0.22586207449E+01  0.12111383804E+02  0.12774197260E+02  0.51100000000E-03 0.  1.
         12    1    3    3    0    0 -0.12124702388E+01 -0.22779477762E+02  0.10665357208E+02  0.25181829472E+02  0.00000000000E+00 0. -1.
</event>
<event>
 7    1  0.4519840E-010  0.4778727E+02  0.7816164E-02  0.1312668E+00
        -11   -1    0    0    0    0  0.00000000000E+00  0.00000000000E+00  0.45593999997E+02  0.45594000000E+02  0.51100000000E-03 0. -1.
         11   -1    0    0    0    0 -0.00000000000E+00 -0.00000000000E+00 -0.45593999997E+02  0.45594000000E+02  0.51100000000E-03 0.  1.
    9900012    2    1    2    0    0 -0.30958848563E+02 -0.27966027413E+02  0.11961363759E+02  0.47787271704E+02  0.20000003008E+02 0.  0.
        -12    1    1    2    0    0  0.30958848563E+02  0.27966027413E+02 -0.11961363759E+02  0.43400728296E+02  0.00000000000E+00 0.  1.
         11    1    3    3    0    0 -0.68118173161E+01 -0.10076661603E+02  0.59089694517E+01  0.13522421545E+02  0.51100000000E-03 0. -1.
        -11    1    3    3    0    0  0.19307102908E+01 -0.13863775373E+01  0.20626307598E+01  0.31470829058E+01  0.51100000000E-03 0.  1.
         12    1    3    3    0    0 -0.26077741538E+02 -0.16502988273E+02  0.39897635477E+01  0.31117767253E+02  0.00000000000E+00 0. -1.
</event>
<event>
 7    1  0.4519840E-010  0.4778727E+02  0.7816164E-02  0.1312668E+00
        -11   -1    0    0    0    0  0.00000000000E+00  0.00000000000E+00  0.45593999997E+02  0.45594000000E+02  0.51100000000E-03 0. -1.
         11   -1    0    0    0    0 -0.00000000000E+00 -0.00000000000E+00 -0.45593999997E+02  0.45594000000E+02  0.51100000000E-03 0.  1.
    9900012    2    1    2    0    0  0.36047583362E+02 -0.23792025119E+02 -0.42584985296E+01  0.47787268033E+02  0.19999986270E+02 0.  0.
         12    1    1    2    0    0 -0.36047583362E+02  0.23792025119E+02  0.42584985296E+01  0.43400731967E+02  0.00000000000E+00 0. -1.
         11    1    3    3    0    0  0.22777797619E+01 -0.69653044745E+01 -0.66244915815E+01  0.98786454558E+01  0.51100000000E-03 0. -1.
        -11    1    3    3    0    0  0.41698748588E+01 -0.30796818712E+01 -0.35268195474E-01  0.51839696057E+01  0.51100000000E-03 0.  1.
         12    1    3    3    0    0  0.29599928742E+02 -0.13747038773E+02  0.24012612473E+01  0.32724652972E+02  0.00000000000E+00 0. -1.
</event>
<event>
 7    1  0.4519840E-010  0.4778729E+02  0.7816164E-02  0.1312668E+00
        -11   -1    0    0    0    0  0.00000000000E+00  0.00000000000E+00  0.45593999997E+02  0.45594000000E+02  0.51100000000E-03 0. -1.
         11   -1    0    0    0    0 -0.00000000000E+00 -0.00000000000E+00 -0.45593999997E+02  0.45594000000E+02  0.51100000000E-03 0.  1.
    9900012    2    1    2    0    0  0.17787112382E+02  0.95544137497E+01  0.38418141952E+02  0.47787287794E+02  0.20000076367E+02 0.  0.
        -12    1    1    2    0    0 -0.17787112382E+02 -0.95544137497E+01 -0.38418141952E+02  0.43400712206E+02  0.00000000000E+00 0.  1.
         11    1    3    3    0    0  0.56790983766E+01  0.73085575699E+01  0.51389049608E+01  0.10586572466E+02  0.51100000000E-03 0. -1.
        -11    1    3    3    0    0  0.79280289791E+01  0.49993958132E+01  0.11410305264E+02  0.14766267926E+02  0.51100000000E-03 0.  1.
         12    1    3    3    0    0  0.41799850266E+01 -0.27535396334E+01  0.21868931727E+02  0.22434447401E+02  0.00000000000E+00 0. -1.
</event>
<event>
 7    1  0.4519840E-010  0.4778727E+02  0.7816164E-02  0.1312668E+00
        -11   -1    0    0    0    0  0.00000000000E+00  0.00000000000E+00  0.45593999997E+02  0.45594000000E+02  0.51100000000E-03 0. -1.
         11   -1    0    0    0    0 -0.00000000000E+00 -0.00000000000E+00 -0.45593999997E+02  0.45594000000E+02  0.51100000000E-03 0.  1.
    9900012    2    1    2    0    0  0.30556474166E+02 -0.10323538501E+02 -0.29040486632E+02  0.47787269310E+02  0.19999992090E+02 0.  0.
         12    1    1    2    0    0 -0.30556474166E+02  0.10323538501E+02  0.29040486632E+02  0.43400730690E+02  0.00000000000E+00 0. -1.
         11    1    3    3    0    0  0.57711623742E+01 -0.68497569657E+01 -0.14836293314E+02  0.17330351560E+02  0.51100000000E-03 0. -1.
        -11    1    3    3    0    0  0.55447324075E+01  0.30705096025E+01 -0.53277986054E+01  0.82799471574E+01  0.51100000000E-03 0.  1.
        -12    1    3    3    0    0  0.19240579385E+02 -0.65442911378E+01 -0.88763947127E+01  0.22176970592E+02  0.00000000000E+00 0.  1.
</event>
<event>
 7    1  0.4519840E-010  0.4778727E+02  0.7816164E-02  0.1312668E+00
        -11   -1    0    0    0    0  0.00000000000E+00  0.00000000000E+00  0.45593999997E+02  0.45594000000E+02  0.51100000000E-03 0. -1.
         11   -1    0    0    0    0 -0.00000000000E+00 -0.00000000000E+00 -0.45593999997E+02  0.45594000000E+02  0.51100000000E-03 0.  1.
    9900012    2    1    2    0    0  0.34717591887E+02  0.41436110644E+01 -0.25712690894E+02  0.47787272217E+02  0.20000005346E+02 0.  0.
         12    1    1    2    0    0 -0.34717591887E+02 -0.41436110644E+01  0.25712690894E+02  0.43400727783E+02  0.00000000000E+00 0. -1.
         11    1    3    3    0    0  0.16165559020E+02  0.13726482234E+01 -0.91714764414E+01  0.18636669283E+02  0.51100000000E-03 0. -1.
        -11    1    3    3    0    0  0.20609404536E+02  0.23222659078E+01 -0.11563080137E+02  0.23745426860E+02  0.51100000000E-03 0.  1.
        -12    1    3    3    0    0 -0.20573716689E+01  0.44869693317E+00 -0.49781343158E+01  0.54051760738E+01  0.00000000000E+00 0.  1.
</event>
<event>
 7    1  0.4519840E-010  0.4778727E+02  0.7816164E-02  0.1312668E+00
        -11   -1    0    0    0    0  0.00000000000E+00  0.00000000000E+00  0.45593999997E+02  0.45594000000E+02  0.51100000000E-03 0.  1.
         11   -1    0    0    0    0 -0.00000000000E+00 -0.00000000000E+00 -0.45593999997E+02  0.45594000000E+02  0.51100000000E-03 0. -1.
    9900012    2    1    2    0    0  0.34614588001E+02  0.25630238864E+02  0.53427096679E+01  0.47787269668E+02  0.19999993725E+02 0.  0.
         12    1    1    2    0    0 -0.34614588001E+02 -0.25630238864E+02 -0.53427096679E+01  0.43400730332E+02  0.00000000000E+00 0. -1.
         11    1    3    3    0    0  0.72977409720E+01  0.10176016848E+01 -0.25825186226E+01  0.78078127014E+01  0.51100000000E-03 0. -1.
        -11    1    3    3    0    0  0.15692681206E+02  0.12716430175E+02  0.11099026250E+02  0.23046826761E+02  0.51100000000E-03 0.  1.
         12    1    3    3    0    0  0.11624165824E+02  0.11896207004E+02 -0.31737979591E+01  0.16932630205E+02  0.00000000000E+00 0. -1.
</event>
<event>
 7    1  0.4519840E-010  0.4778727E+02  0.7816164E-02  0.1312668E+00
        -11   -1    0    0    0    0  0.00000000000E+00  0.00000000000E+00  0.45593999997E+02  0.45594000000E+02  0.51100000000E-03 0. -1.
         11   -1    0    0    0    0 -0.00000000000E+00 -0.00000000000E+00 -0.45593999997E+02  0.45594000000E+02  0.51100000000E-03 0.  1.
    9900012    2    1    2    0    0 -0.23417671506E+02  0.24198680332E+01  0.36460661921E+02  0.47787274571E+02  0.20000016081E+02 0.  0.
        -12    1    1    2    0    0  0.23417671506E+02 -0.24198680332E+01 -0.36460661921E+02  0.43400725429E+02  0.00000000000E+00 0.  1.
         11    1    3    3    0    0 -0.27236790273E+01  0.17919673777E+01  0.72427688298E+01  0.79427498456E+01  0.51100000000E-03 0. -1.
        -11    1    3    3    0    0 -0.19963366505E+02 -0.30400599319E+01  0.15032745998E+02  0.25174618549E+02  0.51100000000E-03 0.  1.
        -12    1    3    3    0    0 -0.73062597323E+00  0.36679605874E+01  0.14185147093E+02  0.14669906176E+02  0.00000000000E+00 0.  1.
</event>
<event>
 7    1  0.7454084E-010  0.4778727E+02  0.7816164E-02  0.1312668E+00
        -11   -1    0    0    0    0  0.00000000000E+00  0.00000000000E+00  0.45593999997E+02  0.45594000000E+02  0.51100000000E-03 0. -1.
         11   -1    0    0    0    0 -0.00000000000E+00 -0.00000000000E+00 -0.45593999997E+02  0.45594000000E+02  0.51100000000E-03 0.  1.
    9900012    2    1    2    0    0  0.80334637191E+01  0.25109299623E+02 -0.34476219675E+02  0.47787272011E+02  0.20000004407E+02 0.  0.
         12    1    1    2    0    0 -0.80334637191E+01 -0.25109299623E+02  0.34476219675E+02  0.43400727989E+02  0.00000000000E+00 0. -1.
         11    1    3    3    0    0 -0.31625129368E+01  0.43589046282E+01 -0.90137123750E+01  0.10499930889E+02  0.51100000000E-03 0. -1.
        -11    1    3    3    0    0 -0.47927117064E+00 -0.61647971354E+00  0.10383152617E+01  0.12991716345E+01  0.51100000000E-03 0.  1.
        -12    1    3    3    0    0  0.11675247827E+02  0.21366874709E+02 -0.26500822562E+02  0.35988169488E+02  0.00000000000E+00 0.  1.
</event>
<event>
 7    1  0.4519840E-010  0.4778727E+02  0.7816164E-02  0.1312668E+00
        -11   -1    0    0    0    0  0.00000000000E+00  0.00000000000E+00  0.45593999997E+02  0.45594000000E+02  0.51100000000E-03 0. -1.
         11   -1    0    0    0    0 -0.00000000000E+00 -0.00000000000E+00 -0.45593999997E+02  0.45594000000E+02  0.51100000000E-03 0.  1.
    9900012    2    1    2    0    0  0.43390241325E+01 -0.15613362408E+02 -0.40261881663E+02  0.47787270384E+02  0.19999996991E+02 0.  0.
         12    1    1    2    0    0 -0.43390241325E+01  0.15613362408E+02  0.40261881663E+02  0.43400729616E+02  0.00000000000E+00 0. -1.
         11    1    3    3    0    0 -0.30508538052E+01  0.29530284426E+01 -0.28469810198E+01  0.51120824633E+01  0.51100000000E-03 0. -1.
        -11    1    3    3    0    0  0.35332273195E+01 -0.86931272665E+01 -0.22491063533E+02  0.24370106607E+02  0.51100000000E-03 0.  1.
         12    1    3    3    0    0  0.38566506182E+01 -0.98732635844E+01 -0.14923837111E+02  0.18305081314E+02  0.00000000000E+00 0. -1.
</event>
<event>
 7    1  0.4519840E-010  0.4778727E+02  0.7816164E-02  0.1312668E+00
        -11   -1    0    0    0    0  0.00000000000E+00  0.00000000000E+00  0.45593999997E+02  0.45594000000E+02  0.51100000000E-03 0. -1.
         11   -1    0    0    0    0 -0.00000000000E+00 -0.00000000000E+00 -0.45593999997E+02  0.45594000000E+02  0.51100000000E-03 0.  1.
    9900012    2    1    2    0    0 -0.67369733929E+01  0.36479148907E+02 -0.22527944008E+02  0.47787269860E+02  0.19999994597E+02 0.  0.
         12    1    1    2    0    0  0.67369733929E+01 -0.36479148907E+02  0.22527944008E+02  0.43400730140E+02  0.00000000000E+00 0. -1.
         11    1    3    3    0    0 -0.47391867418E+01  0.13462383041E+01 -0.66784232926E+01  0.82990111749E+01  0.51100000000E-03 0. -1.
        -11    1    3    3    0    0  0.29423925958E+01  0.69599587058E+01 -0.36665564884E+01  0.83989485127E+01  0.51100000000E-03 0.  1.
        -12    1    3    3    0    0 -0.49401792469E+01  0.28172951898E+02 -0.12182964227E+02  0.31089310172E+02  0.00000000000E+00 0.  1.
</event>
<event>
 7    1  0.4519840E-010  0.4778727E+02  0.7816164E-02  0.1312668E+00
        -11   -1    0    0    0    0  0.00000000000E+00  0.00000000000E+00  0.45593999997E+02  0.45594000000E+02  0.51100000000E-03 0. -1.
         11   -1    0    0    0    0 -0.00000000000E+00 -0.00000000000E+00 -0.45593999997E+02  0.45594000000E+02  0.51100000000E-03 0.  1.
    9900012    2    1    2    0    0  0.11602065722E+02  0.52681749953E+01  0.41488091940E+02  0.47787269941E+02  0.19999994970E+02 0.  0.
        -12    1    1    2    0    0 -0.11602065722E+02 -0.52681749953E+01 -0.41488091940E+02  0.43400730059E+02  0.00000000000E+00 0.  1.
         11    1    3    3    0    0  0.37217289295E+01  0.10471480962E+01  0.21890827262E+02  0.22229622216E+02  0.51100000000E-03 0. -1.
        -11    1    3    3    0    0  0.77007176959E+01  0.77491802523E+01  0.19081327446E+02  0.21987448805E+02  0.51100000000E-03 0.  1.
        -12    1    3    3    0    0  0.17961909664E+00 -0.35281533532E+01  0.51593723227E+00  0.35701989204E+01  0.00000000000E+00 0.  1.
</event>
<event>
 7    1  0.4519840E-010  0.4778728E+02  0.7816164E-02  0.1312668E+00
        -11   -1    0    0    0    0  0.00000000000E+00  0.00000000000E+00  0.45593999997E+02  0.45594000000E+02  0.51100000000E-03 0. -1.
         11   -1    0    0    0    0 -0.00000000000E+00 -0.00000000000E+00 -0.45593999997E+02  0.45594000000E+02  0.51100000000E-03 0.  1.
    9900012    2    1    2    0    0 -0.61727424052E+01 -0.24396033962E+01 -0.42890189754E+02  0.47787276611E+02  0.20000025380E+02 0.  0.
         12    1    1    2    0    0  0.61727424052E+01  0.24396033962E+01  0.42890189754E+02  0.43400723389E+02  0.00000000000E+00 0. -1.
         11    1    3    3    0    0 -0.63599494247E+01 -0.64693106527E+01 -0.12451887821E+02  0.15406182122E+02  0.51100000000E-03 0. -1.
        -11    1    3    3    0    0 -0.45893972722E+01 -0.50152911704E-01 -0.15768972632E+02  0.16423324291E+02  0.51100000000E-03 0.  1.
         12    1    3    3    0    0  0.47766042917E+01  0.40798601682E+01 -0.14669329300E+02  0.15957770197E+02  0.00000000000E+00 0. -1.
</event>
<event>
 7    1  0.4519840E-010  0.4778726E+02  0.7816164E-02  0.1312668E+00
        -11   -1    0    0    0    0  0.00000000000E+00  0.00000000000E+00  0.45593999997E+02  0.45594000000E+02  0.51100000000E-03 0.  1.
         11   -1    0    0    0    0 -0.00000000000E+00 -0.00000000000E+00 -0.45593999997E+02  0.45594000000E+02  0.51100000000E-03 0. -1.
    9900012    2    1    2    0    0  0.43276410917E+01  0.14018648310E+02 -0.40845721944E+02  0.47787262922E+02  0.19999962965E+02 0.  0.
         12    1    1    2    0    0 -0.43276410917E+01 -0.14018648310E+02  0.40845721944E+02  0.43400737078E+02  0.00000000000E+00 0. -1.
         11    1    3    3    0    0 -0.32775665093E+01  0.22220250784E+01 -0.12007518407E+02  0.12643588740E+02  0.51100000000E-03 0. -1.
        -11    1    3    3    0    0  0.42240108525E+01  0.54098253924E+01 -0.26757121222E+02  0.27623396149E+02  0.51100000000E-03 0.  1.
        -12    1    3    3    0    0  0.33811967485E+01  0.63867978391E+01 -0.20810823148E+01  0.75202780327E+01  0.00000000000E+00 0.  1.
</event>
<event>
 7    1  0.4519840E-010  0.4778727E+02  0.7816164E-02  0.1312668E+00
        -11   -1    0    0    0    0  0.00000000000E+00  0.00000000000E+00  0.45593999997E+02  0.45594000000E+02  0.51100000000E-03 0.  1.
         11   -1    0    0    0    0 -0.00000000000E+00 -0.00000000000E+00 -0.45593999997E+02  0.45594000000E+02  0.51100000000E-03 0. -1.
    9900012    2    1    2    0    0  0.34032146195E+02 -0.90552460956E+01  0.25366090461E+02  0.47787274179E+02  0.20000014293E+02 0.  0.
        -12    1    1    2    0    0 -0.34032146195E+02  0.90552460956E+01 -0.25366090461E+02  0.43400725821E+02  0.00000000000E+00 0.  1.
         11    1    3    3    0    0  0.67390929516E+01  0.45239844475E+00 -0.95328590102E-01  0.67549334537E+01  0.51100000000E-03 0. -1.
        -11    1    3    3    0    0  0.91660146317E+01 -0.44768589597E+01  0.11104932667E+01  0.10261154220E+02  0.51100000000E-03 0.  1.
        -12    1    3    3    0    0  0.18127038612E+02 -0.50307855807E+01  0.24350925784E+02  0.30771186505E+02  0.00000000000E+00 0.  1.
</event>
<event>
 7    1  0.4519840E-010  0.4778728E+02  0.7816164E-02  0.1312668E+00
        -11   -1    0    0    0    0  0.00000000000E+00  0.00000000000E+00  0.45593999997E+02  0.45594000000E+02  0.51100000000E-03 0. -1.
         11   -1    0    0    0    0 -0.00000000000E+00 -0.00000000000E+00 -0.45593999997E+02  0.45594000000E+02  0.51100000000E-03 0.  1.
    9900012    2    1    2    0    0 -0.12122374577E+02  0.36995370556E+02  0.19183678149E+02  0.47787275175E+02  0.20000018834E+02 0.  0.
        -12    1    1    2    0    0  0.12122374577E+02 -0.36995370556E+02 -0.19183678149E+02  0.43400724825E+02  0.00000000000E+00 0.  1.
         11    1    3    3    0    0  0.47061382465E+00  0.32242749428E+01 -0.34915328478E+01  0.47757960768E+01  0.51100000000E-03 0.  1.
        -11    1    3    3    0    0 -0.14932978743E+01  0.79719108082E+01  0.76971491610E+01  0.11181565451E+02  0.51100000000E-03 0. -1.
        -12    1    3    3    0    0 -0.11099690528E+02  0.25799184805E+02  0.14978061836E+02  0.31829913647E+02  0.00000000000E+00 0.  1.
</event>
<event>
 7    1  0.4519840E-010  0.4778727E+02  0.7816164E-02  0.1312668E+00
        -11   -1    0    0    0    0  0.00000000000E+00  0.00000000000E+00  0.45593999997E+02  0.45594000000E+02  0.51100000000E-03 0. -1.
         11   -1    0    0    0    0 -0.00000000000E+00 -0.00000000000E+00 -0.45593999997E+02  0.45594000000E+02  0.51100000000E-03 0.  1.
    9900012    2    1    2    0    0 -0.64862013817E+01  0.22033527185E+02 -0.36824936488E+02  0.47787273325E+02  0.20000010399E+02 0.  0.
         12    1    1    2    0    0  0.64862013817E+01 -0.22033527185E+02  0.36824936488E+02  0.43400726675E+02  0.00000000000E+00 0. -1.
         11    1    3    3    0    0 -0.20203001469E+01  0.12878172926E+02 -0.10687370359E+02  0.16856714865E+02  0.51100000000E-03 0. -1.
        -11    1    3    3    0    0 -0.88928470419E+01  0.51263525285E+01 -0.13614378995E+02  0.17050323587E+02  0.51100000000E-03 0.  1.
         12    1    3    3    0    0  0.44269458071E+01  0.40290017303E+01 -0.12523187134E+02  0.13880234872E+02  0.00000000000E+00 0. -1.
</event>
<event>
 7    1  0.4519840E-010  0.4778727E+02  0.7816164E-02  0.1312668E+00
        -11   -1    0    0    0    0  0.00000000000E+00  0.00000000000E+00  0.45593999997E+02  0.45594000000E+02  0.51100000000E-03 0. -1.
         11   -1    0    0    0    0 -0.00000000000E+00 -0.00000000000E+00 -0.45593999997E+02  0.45594000000E+02  0.51100000000E-03 0.  1.
    9900012    2    1    2    0    0  0.48257038175E+01  0.24466221814E+02 -0.35520972874E+02  0.47787274878E+02  0.20000017478E+02 0.  0.
         12    1    1    2    0    0 -0.48257038175E+01 -0.24466221814E+02  0.35520972874E+02  0.43400725122E+02  0.00000000000E+00 0. -1.
         11    1    3    3    0    0  0.35803381996E+01  0.39750232623E+01 -0.37406043249E+01  0.65277678065E+01  0.51100000000E-03 0.  1.
        -11    1    3    3    0    0 -0.70459886556E+00  0.23013294618E+02 -0.29007316749E+02  0.37034208699E+02  0.51100000000E-03 0. -1.
         12    1    3    3    0    0  0.19499644835E+01 -0.25220960655E+01 -0.27730518003E+01  0.42252983726E+01  0.00000000000E+00 0. -1.
</event>
<event>
 7    1  0.4519840E-010  0.4778726E+02  0.7816164E-02  0.1312668E+00
        -11   -1    0    0    0    0  0.00000000000E+00  0.00000000000E+00  0.45593999997E+02  0.45594000000E+02  0.51100000000E-03 0. -1.
         11   -1    0    0    0    0 -0.00000000000E+00 -0.00000000000E+00 -0.45593999997E+02  0.45594000000E+02  0.51100000000E-03 0.  1.
    9900012    2    1    2    0    0  0.16653258319E+02  0.82757457200E+01  0.39214863908E+02  0.47787256559E+02  0.19999933956E+02 0.  0.
        -12    1    1    2    0    0 -0.16653258319E+02 -0.82757457200E+01 -0.39214863908E+02  0.43400743441E+02  0.00000000000E+00 0.  1.
         11    1    3    3    0    0  0.15657662030E+01  0.11851034478E+01  0.16523809305E+02  0.16640083178E+02  0.51100000000E-03 0. -1.
        -11    1    3    3    0    0  0.11922761422E+02  0.39745160605E+01  0.23484116270E+02  0.26635553966E+02  0.51100000000E-03 0.  1.
        -12    1    3    3    0    0  0.31647306946E+01  0.31161262117E+01 -0.79306166658E+00  0.45116194148E+01  0.00000000000E+00 0.  1.
</event>
<event>
 7    1  0.4519840E-010  0.4778727E+02  0.7816164E-02  0.1312668E+00
        -11   -1    0    0    0    0  0.00000000000E+00  0.00000000000E+00  0.45593999997E+02  0.45594000000E+02  0.51100000000E-03 0. -1.
         11   -1    0    0    0    0 -0.00000000000E+00 -0.00000000000E+00 -0.45593999997E+02  0.45594000000E+02  0.51100000000E-03 0.  1.
    9900012    2    1    2    0    0  0.11486751326E+02 -0.10357090108E+02 -0.40551306612E+02  0.47787271441E+02  0.20000001808E+02 0.  0.
         12    1    1    2    0    0 -0.11486751326E+02  0.10357090108E+02  0.40551306612E+02  0.43400728559E+02  0.00000000000E+00 0. -1.
         11    1    3    3    0    0 -0.37939356128E+01 -0.36002030663E-01 -0.58161237831E+01  0.69442450779E+01  0.51100000000E-03 0. -1.
        -11    1    3    3    0    0  0.47076059091E+01 -0.40685189236E+01 -0.23101585855E+02  0.23924833728E+02  0.51100000000E-03 0.  1.
         12    1    3    3    0    0  0.10573081030E+02 -0.62525691539E+01 -0.11633596973E+02  0.16918192635E+02  0.00000000000E+00 0. -1.
</event>
<event>
 7    1  0.4519840E-010  0.4778729E+02  0.7816164E-02  0.1312668E+00
        -11   -1    0    0    0    0  0.00000000000E+00  0.00000000000E+00  0.45593999997E+02  0.45594000000E+02  0.51100000000E-03 0. -1.
         11   -1    0    0    0    0 -0.00000000000E+00 -0.00000000000E+00 -0.45593999997E+02  0.45594000000E+02  0.51100000000E-03 0.  1.
    9900012    2    1    2    0    0  0.24451309465E+01 -0.23011335265E+02  0.36716778347E+02  0.47787285395E+02  0.20000065431E+02 0.  0.
        -12    1    1    2    0    0 -0.24451309465E+01  0.23011335265E+02 -0.36716778347E+02  0.43400714605E+02  0.00000000000E+00 0.  1.
         11    1    3    3    0    0  0.22999089889E-02 -0.13995605298E+01  0.35879720303E+01  0.38512749210E+01  0.51100000000E-03 0. -1.
        -11    1    3    3    0    0  0.12318133740E+01  0.24954086785E+00  0.16229039725E+02  0.16277633903E+02  0.51100000000E-03 0.  1.
         12    1    3    3    0    0  0.12110176635E+01 -0.21861315603E+02  0.16899766592E+02  0.27658376571E+02  0.00000000000E+00 0. -1.
</event>
<event>
 7    1  0.4519840E-010  0.4778726E+02  0.7816164E-02  0.1312668E+00
        -11   -1    0    0    0    0  0.00000000000E+00  0.00000000000E+00  0.45593999997E+02  0.45594000000E+02  0.51100000000E-03 0. -1.
         11   -1    0    0    0    0 -0.00000000000E+00 -0.00000000000E+00 -0.45593999997E+02  0.45594000000E+02  0.51100000000E-03 0.  1.
    9900012    2    1    2    0    0  0.29249280312E+02  0.25086311500E+02 -0.19969486218E+02  0.47787264945E+02  0.19999972192E+02 0.  0.
         12    1    1    2    0    0 -0.29249280312E+02 -0.25086311500E+02  0.19969486218E+02  0.43400735055E+02  0.00000000000E+00 0. -1.
         11    1    3    3    0    0  0.16427041462E+02  0.78685469792E+01 -0.94185693564E+01  0.20505393723E+02  0.51100000000E-03 0. -1.
        -11    1    3    3    0    0  0.14301480098E+02  0.11874177413E+02 -0.11196276200E+02  0.21699885328E+02  0.51100000000E-03 0.  1.
         12    1    3    3    0    0 -0.14792412482E+01  0.53435871076E+01  0.64535933828E+00  0.55819858941E+01  0.00000000000E+00 0. -1.
</event>
<event>
 7    1  0.4519840E-010  0.4778728E+02  0.7816164E-02  0.1312668E+00
        -11   -1    0    0    0    0  0.00000000000E+00  0.00000000000E+00  0.45593999997E+02  0.45594000000E+02  0.51100000000E-03 0. -1.
         11   -1    0    0    0    0 -0.00000000000E+00 -0.00000000000E+00 -0.45593999997E+02  0.45594000000E+02  0.51100000000E-03 0.  1.
    9900012    2    1    2    0    0  0.14811187274E+02 -0.35449989740E+02 -0.20187849245E+02  0.47787282285E+02  0.20000051249E+02 0.  0.
         12    1    1    2    0    0 -0.14811187274E+02  0.35449989740E+02  0.20187849245E+02  0.43400717715E+02  0.00000000000E+00 0. -1.
         11    1    3    3    0    0  0.17676121874E+01 -0.83717820586E+01 -0.86670174737E+01  0.12179013911E+02  0.51100000000E-03 0. -1.
        -11    1    3    3    0    0 -0.70891464023E+00 -0.16032459571E+02 -0.58167564649E+01  0.17069767892E+02  0.51100000000E-03 0.  1.
         12    1    3    3    0    0  0.13752489727E+02 -0.11045748111E+02 -0.57040753066E+01  0.18538500482E+02  0.00000000000E+00 0. -1.
</event>
<event>
 7    1  0.4519840E-010  0.4778727E+02  0.7816164E-02  0.1312668E+00
        -11   -1    0    0    0    0  0.00000000000E+00  0.00000000000E+00  0.45593999997E+02  0.45594000000E+02  0.51100000000E-03 0. -1.
         11   -1    0    0    0    0 -0.00000000000E+00 -0.00000000000E+00 -0.45593999997E+02  0.45594000000E+02  0.51100000000E-03 0.  1.
    9900012    2    1    2    0    0  0.30564462232E+02  0.30811463004E+02  0.30106517022E+00  0.47787271386E+02  0.20000001557E+02 0.  0.
         12    1    1    2    0    0 -0.30564462232E+02 -0.30811463004E+02 -0.30106517022E+00  0.43400728614E+02  0.00000000000E+00 0. -1.
         11    1    3    3    0    0  0.11474930676E+02  0.18172163934E+02 -0.19308123117E+01  0.21578452505E+02  0.51100000000E-03 0. -1.
        -11    1    3    3    0    0  0.12869978477E+01  0.62480128276E+01 -0.22600811335E+01  0.67677170999E+01  0.51100000000E-03 0.  1.
         12    1    3    3    0    0  0.17802533708E+02  0.63912862425E+01  0.44919586154E+01  0.19441101781E+02  0.00000000000E+00 0. -1.
</event>
<event>
 7    1  0.4519840E-010  0.4778727E+02  0.7816164E-02  0.1312668E+00
        -11   -1    0    0    0    0  0.00000000000E+00  0.00000000000E+00  0.45593999997E+02  0.45594000000E+02  0.51100000000E-03 0. -1.
         11   -1    0    0    0    0 -0.00000000000E+00 -0.00000000000E+00 -0.45593999997E+02  0.45594000000E+02  0.51100000000E-03 0.  1.
    9900012    2    1    2    0    0 -0.43194945617E+01 -0.87827723925E+01 -0.42282717376E+02  0.47787270595E+02  0.19999997950E+02 0.  0.
         12    1    1    2    0    0  0.43194945617E+01  0.87827723925E+01  0.42282717376E+02  0.43400729405E+02  0.00000000000E+00 0. -1.
         11    1    3    3    0    0 -0.73164294172E+00  0.11383806013E+01  0.25297018105E+00  0.13766647962E+01  0.51100000000E-03 0. -1.
        -11    1    3    3    0    0  0.50791756616E+01 -0.14723392785E+01 -0.21504472482E+02  0.22145160766E+02  0.51100000000E-03 0.  1.
         12    1    3    3    0    0 -0.86670272817E+01 -0.84488137153E+01 -0.21031215076E+02  0.24265445033E+02  0.00000000000E+00 0. -1.
</event>
<event>
 7    1  0.4519840E-010  0.4778727E+02  0.7816164E-02  0.1312668E+00
        -11   -1    0    0    0    0  0.00000000000E+00  0.00000000000E+00  0.45593999997E+02  0.45594000000E+02  0.51100000000E-03 0.  1.
         11   -1    0    0    0    0 -0.00000000000E+00 -0.00000000000E+00 -0.45593999997E+02  0.45594000000E+02  0.51100000000E-03 0. -1.
    9900012    2    1    2    0    0 -0.24282910083E+02  0.23938744922E+02 -0.26849579978E+02  0.47787272177E+02  0.20000005165E+02 0.  0.
         12    1    1    2    0    0  0.24282910083E+02 -0.23938744922E+02  0.26849579978E+02  0.43400727823E+02  0.00000000000E+00 0. -1.
         11    1    3    3    0    0 -0.26528640571E+01  0.55254037396E+01  0.13009844466E+01  0.62658068102E+01  0.51100000000E-03 0. -1.
        -11    1    3    3    0    0 -0.90554652913E+01  0.13925173462E+02 -0.11615977411E+02  0.20269258473E+02  0.51100000000E-03 0.  1.
        -12    1    3    3    0    0 -0.12574580734E+02  0.44881677205E+01 -0.16534587014E+02  0.21252206894E+02  0.00000000000E+00 0.  1.
</event>
<event>
 7    1  0.4519840E-010  0.4778728E+02  0.7816164E-02  0.1312668E+00
        -11   -1    0    0    0    0  0.00000000000E+00  0.00000000000E+00  0.45593999997E+02  0.45594000000E+02  0.51100000000E-03 0.  1.
         11   -1    0    0    0    0 -0.00000000000E+00 -0.00000000000E+00 -0.45593999997E+02  0.45594000000E+02  0.51100000000E-03 0. -1.
    9900012    2    1    2    0    0 -0.32101300349E+00 -0.43026873271E+02  0.56751971427E+01  0.47787277248E+02  0.20000028284E+02 0.  0.
         12    1    1    2    0    0  0.32101300349E+00  0.43026873271E+02 -0.56751971427E+01  0.43400722752E+02  0.00000000000E+00 0. -1.
         11    1    3    3    0    0 -0.60192382771E+00 -0.25679093816E+02  0.76217550657E+00  0.25697452856E+02  0.51100000000E-03 0. -1.
        -11    1    3    3    0    0  0.55078087397E+01 -0.14586146461E+02  0.30084752816E+01  0.15878997118E+02  0.51100000000E-03 0.  1.
         12    1    3    3    0    0 -0.52268979155E+01 -0.27616329933E+01  0.19045463546E+01  0.62108272738E+01  0.00000000000E+00 0. -1.
</event>
<event>
 7    1  0.4519840E-010  0.4778727E+02  0.7816164E-02  0.1312668E+00
        -11   -1    0    0    0    0  0.00000000000E+00  0.00000000000E+00  0.45593999997E+02  0.45594000000E+02  0.51100000000E-03 0.  1.
         11   -1    0    0    0    0 -0.00000000000E+00 -0.00000000000E+00 -0.45593999997E+02  0.45594000000E+02  0.51100000000E-03 0. -1.
    9900012    2    1    2    0    0  0.25003053353E+02  0.34715774826E+02 -0.72996973876E+01  0.47787270966E+02  0.19999999642E+02 0.  0.
         12    1    1    2    0    0 -0.25003053353E+02 -0.34715774826E+02  0.72996973876E+01  0.43400729034E+02  0.00000000000E+00 0. -1.
         11    1    3    3    0    0  0.47303433832E+01  0.89959488822E+01 -0.94817453390E+00  0.10207951804E+02  0.51100000000E-03 0.  1.
        -11    1    3    3    0    0  0.19480780966E+02  0.11148848617E+02 -0.39663121675E+01  0.22793185056E+02  0.51100000000E-03 0. -1.
         12    1    3    3    0    0  0.79192900419E+00  0.14570977327E+02 -0.23852106862E+01  0.14786134107E+02  0.00000000000E+00 0. -1.
</event>
<event>
 7    1  0.4519840E-010  0.4778726E+02  0.7816164E-02  0.1312668E+00
        -11   -1    0    0    0    0  0.00000000000E+00  0.00000000000E+00  0.45593999997E+02  0.45594000000E+02  0.51100000000E-03 0. -1.
         11   -1    0    0    0    0 -0.00000000000E+00 -0.00000000000E+00 -0.45593999997E+02  0.45594000000E+02  0.51100000000E-03 0.  1.
    9900012    2    1    2    0    0  0.87316672411E+01  0.38514649532E+02  0.18000109536E+02  0.47787260552E+02  0.19999952159E+02 0.  0.
        -12    1    1    2    0    0 -0.87316672411E+01 -0.38514649532E+02 -0.18000109536E+02  0.43400739448E+02  0.00000000000E+00 0.  1.
         11    1    3    3    0    0  0.62356114146E+01  0.42686192548E+01  0.17712027134E+00  0.75587916964E+01  0.51100000000E-03 0.  1.
        -11    1    3    3    0    0  0.63705706880E+01  0.13307021625E+02  0.79035432572E+01  0.16736994703E+02  0.51100000000E-03 0. -1.
        -12    1    3    3    0    0 -0.38745148615E+01  0.20939008652E+02  0.99194460074E+01  0.23491474152E+02  0.00000000000E+00 0.  1.
</event>
<event>
 7    1  0.4519840E-010  0.4778727E+02  0.7816164E-02  0.1312668E+00
        -11   -1    0    0    0    0  0.00000000000E+00  0.00000000000E+00  0.45593999997E+02  0.45594000000E+02  0.51100000000E-03 0.  1.
         11   -1    0    0    0    0 -0.00000000000E+00 -0.00000000000E+00 -0.45593999997E+02  0.45594000000E+02  0.51100000000E-03 0. -1.
    9900012    2    1    2    0    0 -0.24838740372E+02 -0.18872075113E+02 -0.30174570937E+02  0.47787274504E+02  0.20000015775E+02 0.  0.
         12    1    1    2    0    0  0.24838740372E+02  0.18872075113E+02  0.30174570937E+02  0.43400725496E+02  0.00000000000E+00 0. -1.
         11    1    3    3    0    0  0.27644089892E+01 -0.41735968047E+00 -0.96788316961E+00  0.29585375194E+01  0.51100000000E-03 0. -1.
        -11    1    3    3    0    0 -0.86121826282E+01 -0.27983090273E+01 -0.51761079254E+01  0.10430355533E+02  0.51100000000E-03 0.  1.
        -12    1    3    3    0    0 -0.18990966733E+02 -0.15656406405E+02 -0.24030579842E+02  0.34398381452E+02  0.00000000000E+00 0.  1.
</event>
<event>
 7    1  0.4519840E-010  0.4778727E+02  0.7816164E-02  0.1312668E+00
        -11   -1    0    0    0    0  0.00000000000E+00  0.00000000000E+00  0.45593999997E+02  0.45594000000E+02  0.51100000000E-03 0. -1.
         11   -1    0    0    0    0 -0.00000000000E+00 -0.00000000000E+00 -0.45593999997E+02  0.45594000000E+02  0.51100000000E-03 0.  1.
    9900012    2    1    2    0    0 -0.18225455282E+02 -0.11594403257E+02  0.37643403844E+02  0.47787271204E+02  0.20000000726E+02 0.  0.
        -12    1    1    2    0    0  0.18225455282E+02  0.11594403257E+02 -0.37643403844E+02  0.43400728796E+02  0.00000000000E+00 0.  1.
         11    1    3    3    0    0  0.17023861737E+01 -0.46272437775E+01  0.94150976221E+01  0.10627961571E+02  0.51100000000E-03 0. -1.
        -11    1    3    3    0    0 -0.38707532545E+01  0.32246470167E+01  0.45467576857E+01  0.67863160001E+01  0.51100000000E-03 0.  1.
        -12    1    3    3    0    0 -0.16057088201E+02 -0.10191806496E+02  0.23681548536E+02  0.30372993633E+02  0.00000000000E+00 0.  1.
</event>
<event>
 7    1  0.4519840E-010  0.4778727E+02  0.7816164E-02  0.1312668E+00
        -11   -1    0    0    0    0  0.00000000000E+00  0.00000000000E+00  0.45593999997E+02  0.45594000000E+02  0.51100000000E-03 0. -1.
         11   -1    0    0    0    0 -0.00000000000E+00 -0.00000000000E+00 -0.45593999997E+02  0.45594000000E+02  0.51100000000E-03 0.  1.
    9900012    2    1    2    0    0  0.45073197552E+01 -0.35687324876E+01 -0.43018268141E+02  0.47787272163E+02  0.20000005100E+02 0.  0.
         12    1    1    2    0    0 -0.45073197552E+01  0.35687324876E+01  0.43018268141E+02  0.43400727837E+02  0.00000000000E+00 0. -1.
         11    1    3    3    0    0  0.45713101725E+01 -0.31368098989E+00 -0.18210783069E+02  0.18778388981E+02  0.51100000000E-03 0. -1.
        -11    1    3    3    0    0  0.43266909745E+01  0.17565027557E+01 -0.20613816689E+02  0.21136106441E+02  0.51100000000E-03 0.  1.
         12    1    3    3    0    0 -0.43906813917E+01 -0.50115542534E+01 -0.41936683823E+01  0.78727767414E+01  0.00000000000E+00 0. -1.
</event>
<event>
 7    1  0.4519840E-010  0.4778727E+02  0.7816164E-02  0.1312668E+00
        -11   -1    0    0    0    0  0.00000000000E+00  0.00000000000E+00  0.45593999997E+02  0.45594000000E+02  0.51100000000E-03 0. -1.
         11   -1    0    0    0    0 -0.00000000000E+00 -0.00000000000E+00 -0.45593999997E+02  0.45594000000E+02  0.51100000000E-03 0.  1.
    9900012    2    1    2    0    0  0.45273452554E+00  0.25627720621E+02  0.35023393184E+02  0.47787273014E+02  0.20000008981E+02 0.  0.
        -12    1    1    2    0    0 -0.45273452554E+00 -0.25627720621E+02 -0.35023393184E+02  0.43400726986E+02  0.00000000000E+00 0.  1.
         11    1    3    3    0    0  0.57335196940E+00  0.17463485105E+01 -0.26215631562E+00  0.18566614651E+01  0.51100000000E-03 0. -1.
        -11    1    3    3    0    0 -0.42839358264E+01  0.22086531420E+01  0.65250897447E+00  0.48637457879E+01  0.51100000000E-03 0.  1.
         12    1    3    3    0    0  0.41633183825E+01  0.21672718969E+02  0.34633040525E+02  0.41066865761E+02  0.00000000000E+00 0. -1.
</event>
<event>
 7    1  0.4519840E-010  0.4778727E+02  0.7816164E-02  0.1312668E+00
        -11   -1    0    0    0    0  0.00000000000E+00  0.00000000000E+00  0.45593999997E+02  0.45594000000E+02  0.51100000000E-03 0. -1.
         11   -1    0    0    0    0 -0.00000000000E+00 -0.00000000000E+00 -0.45593999997E+02  0.45594000000E+02  0.51100000000E-03 0.  1.
    9900012    2    1    2    0    0 -0.32427893246E+02 -0.20105701940E+02  0.20683701284E+02  0.47787274088E+02  0.20000013876E+02 0.  0.
        -12    1    1    2    0    0  0.32427893246E+02  0.20105701940E+02 -0.20683701284E+02  0.43400725912E+02  0.00000000000E+00 0.  1.
         11    1    3    3    0    0 -0.47657070629E+01  0.19248868767E+01  0.58429130802E+01  0.77818241320E+01  0.51100000000E-03 0. -1.
        -11    1    3    3    0    0 -0.26309897195E+01  0.12819875382E+01  0.83662705449E+00  0.30439356172E+01  0.51100000000E-03 0.  1.
         12    1    3    3    0    0 -0.25031196464E+02 -0.23312576355E+02  0.14004161150E+02  0.36961514339E+02  0.00000000000E+00 0. -1.
</event>
<event>
 7    1  0.4519840E-010  0.4778726E+02  0.7816164E-02  0.1312668E+00
        -11   -1    0    0    0    0  0.00000000000E+00  0.00000000000E+00  0.45593999997E+02  0.45594000000E+02  0.51100000000E-03 0. -1.
         11   -1    0    0    0    0 -0.00000000000E+00 -0.00000000000E+00 -0.45593999997E+02  0.45594000000E+02  0.51100000000E-03 0.  1.
    9900012    2    1    2    0    0 -0.32348306891E+02  0.25623539590E+02  0.13440450392E+02  0.47787257534E+02  0.19999938402E+02 0.  0.
        -12    1    1    2    0    0  0.32348306891E+02 -0.25623539590E+02 -0.13440450392E+02  0.43400742466E+02  0.00000000000E+00 0.  1.
         11    1    3    3    0    0 -0.25541384247E+02  0.17054408229E+02  0.11599695396E+02  0.32829378350E+02  0.51100000000E-03 0. -1.
        -11    1    3    3    0    0 -0.85506597695E+01  0.45949045817E+01 -0.10190816322E+01  0.97604025656E+01  0.51100000000E-03 0.  1.
         12    1    3    3    0    0  0.17437371263E+01  0.39742267796E+01  0.28598366283E+01  0.51974766187E+01  0.00000000000E+00 0. -1.
</event>
<event>
 7    1  0.4519840E-010  0.4778726E+02  0.7816164E-02  0.1312668E+00
        -11   -1    0    0    0    0  0.00000000000E+00  0.00000000000E+00  0.45593999997E+02  0.45594000000E+02  0.51100000000E-03 0. -1.
         11   -1    0    0    0    0 -0.00000000000E+00 -0.00000000000E+00 -0.45593999997E+02  0.45594000000E+02  0.51100000000E-03 0.  1.
    9900012    2    1    2    0    0 -0.83170370638E+01  0.15414641142E+02  0.39709446542E+02  0.47787257936E+02  0.19999940232E+02 0.  0.
        -12    1    1    2    0    0  0.83170370638E+01 -0.15414641142E+02 -0.39709446542E+02  0.43400742064E+02  0.00000000000E+00 0.  1.
         11    1    3    3    0    0 -0.23603277507E+01 -0.33772427461E+01  0.59906571512E+01  0.72708245077E+01  0.51100000000E-03 0. -1.
        -11    1    3    3    0    0 -0.24075933627E+01 -0.75970275997E+00  0.48819153253E+01  0.54960669199E+01  0.51100000000E-03 0.  1.
        -12    1    3    3    0    0 -0.35491159504E+01  0.19551586648E+02  0.28836874065E+02  0.35020366508E+02  0.00000000000E+00 0.  1.
</event>
<event>
 7    1  0.4519840E-010  0.4778727E+02  0.7816164E-02  0.1312668E+00
        -11   -1    0    0    0    0  0.00000000000E+00  0.00000000000E+00  0.45593999997E+02  0.45594000000E+02  0.51100000000E-03 0. -1.
         11   -1    0    0    0    0 -0.00000000000E+00 -0.00000000000E+00 -0.45593999997E+02  0.45594000000E+02  0.51100000000E-03 0.  1.
    9900012    2    1    2    0    0 -0.13728137374E+02  0.34818775242E+02 -0.21973035271E+02  0.47787272539E+02  0.20000006815E+02 0.  0.
         12    1    1    2    0    0  0.13728137374E+02 -0.34818775242E+02  0.21973035271E+02  0.43400727461E+02  0.00000000000E+00 0. -1.
         11    1    3    3    0    0  0.25535278933E+01  0.25959143032E+00 -0.12482073014E+01  0.28541047881E+01  0.51100000000E-03 0. -1.
        -11    1    3    3    0    0 -0.87168538721E+01  0.14788305748E+02 -0.15501635032E+02  0.23129596133E+02  0.51100000000E-03 0.  1.
        -12    1    3    3    0    0 -0.75648113949E+01  0.19770878064E+02 -0.52231929372E+01  0.21803571618E+02  0.00000000000E+00 0.  1.
</event>
<event>
 7    1  0.4519840E-010  0.4778727E+02  0.7816164E-02  0.1312668E+00
        -11   -1    0    0    0    0  0.00000000000E+00  0.00000000000E+00  0.45593999997E+02  0.45594000000E+02  0.51100000000E-03 0. -1.
         11   -1    0    0    0    0 -0.00000000000E+00 -0.00000000000E+00 -0.45593999997E+02  0.45594000000E+02  0.51100000000E-03 0.  1.
    9900012    2    1    2    0    0  0.24450596443E+02 -0.27279966688E+02  0.23272189432E+02  0.47787273625E+02  0.20000011766E+02 0.  0.
        -12    1    1    2    0    0 -0.24450596443E+02  0.27279966688E+02 -0.23272189432E+02  0.43400726375E+02  0.00000000000E+00 0.  1.
         11    1    3    3    0    0  0.19387223545E+02 -0.20764251242E+02  0.14840091290E+02  0.32050692288E+02  0.51100000000E-03 0. -1.
        -11    1    3    3    0    0  0.71581417801E+01 -0.56569824364E+01  0.95534153240E+01  0.13210154755E+02  0.51100000000E-03 0.  1.
        -12    1    3    3    0    0 -0.20947688820E+01 -0.85873300967E+00 -0.11213171820E+01  0.25264265819E+01  0.00000000000E+00 0.  1.
</event>
<event>
 7    1  0.4519840E-010  0.4778727E+02  0.7816164E-02  0.1312668E+00
        -11   -1    0    0    0    0  0.00000000000E+00  0.00000000000E+00  0.45593999997E+02  0.45594000000E+02  0.51100000000E-03 0. -1.
         11   -1    0    0    0    0 -0.00000000000E+00 -0.00000000000E+00 -0.45593999997E+02  0.45594000000E+02  0.51100000000E-03 0.  1.
    9900012    2    1    2    0    0 -0.42834738950E+01 -0.46837875986E+01 -0.42934104505E+02  0.47787270231E+02  0.19999996289E+02 0.  0.
         12    1    1    2    0    0  0.42834738950E+01  0.46837875986E+01  0.42934104505E+02  0.43400729769E+02  0.00000000000E+00 0. -1.
         11    1    3    3    0    0 -0.12025399050E+01  0.75262281590E+01 -0.10646342507E+02  0.13093312093E+02  0.51100000000E-03 0. -1.
        -11    1    3    3    0    0 -0.62585096276E+00 -0.28831752709E+01 -0.58481101315E+01  0.65501741535E+01  0.51100000000E-03 0.  1.
         12    1    3    3    0    0 -0.24550830273E+01 -0.93268404867E+01 -0.26439651866E+02  0.28143783984E+02  0.00000000000E+00 0. -1.
</event>
<event>
 7    1  0.4519840E-010  0.4778726E+02  0.7816164E-02  0.1312668E+00
        -11   -1    0    0    0    0  0.00000000000E+00  0.00000000000E+00  0.45593999997E+02  0.45594000000E+02  0.51100000000E-03 0. -1.
         11   -1    0    0    0    0 -0.00000000000E+00 -0.00000000000E+00 -0.45593999997E+02  0.45594000000E+02  0.51100000000E-03 0.  1.
    9900012    2    1    2    0    0 -0.11861880994E+02 -0.12948439240E+02  0.39689520228E+02  0.47787259045E+02  0.19999945291E+02 0.  0.
        -12    1    1    2    0    0  0.11861880994E+02  0.12948439240E+02 -0.39689520228E+02  0.43400740955E+02  0.00000000000E+00 0.  1.
         11    1    3    3    0    0 -0.79584915855E+01 -0.10037821714E+01  0.95264659268E+01  0.12453863669E+02  0.51100000000E-03 0. -1.
        -11    1    3    3    0    0 -0.88749692466E+00 -0.87614542377E+01  0.57217871023E+01  0.10501884548E+02  0.51100000000E-03 0.  1.
        -12    1    3    3    0    0 -0.30158924837E+01 -0.31832028306E+01  0.24441267199E+02  0.24831510829E+02  0.00000000000E+00 0.  1.
</event>
<event>
 7    1  0.4519840E-010  0.4778727E+02  0.7816164E-02  0.1312668E+00
        -11   -1    0    0    0    0  0.00000000000E+00  0.00000000000E+00  0.45593999997E+02  0.45594000000E+02  0.51100000000E-03 0. -1.
         11   -1    0    0    0    0 -0.00000000000E+00 -0.00000000000E+00 -0.45593999997E+02  0.45594000000E+02  0.51100000000E-03 0.  1.
    9900012    2    1    2    0    0  0.26869052486E+02 -0.33462283565E+02  0.64770944264E+01  0.47787272413E+02  0.20000006240E+02 0.  0.
         12    1    1    2    0    0 -0.26869052486E+02  0.33462283565E+02 -0.64770944264E+01  0.43400727587E+02  0.00000000000E+00 0. -1.
         11    1    3    3    0    0  0.40754918992E+01 -0.64879140528E+01  0.50215856035E+01  0.91607306047E+01  0.51100000000E-03 0. -1.
        -11    1    3    3    0    0  0.19206688684E+01 -0.55717393792E+01  0.59735016070E+01  0.83914224254E+01  0.51100000000E-03 0.  1.
        -12    1    3    3    0    0  0.20872891719E+02 -0.21402630133E+02 -0.45179927841E+01  0.30235119383E+02  0.00000000000E+00 0.  1.
</event>
<event>
 7    1  0.4519840E-010  0.4778727E+02  0.7816164E-02  0.1312668E+00
        -11   -1    0    0    0    0  0.00000000000E+00  0.00000000000E+00  0.45593999997E+02  0.45594000000E+02  0.51100000000E-03 0.  1.
         11   -1    0    0    0    0 -0.00000000000E+00 -0.00000000000E+00 -0.45593999997E+02  0.45594000000E+02  0.51100000000E-03 0. -1.
    9900012    2    1    2    0    0 -0.33209855562E+01  0.33151546519E+02 -0.27813117447E+02  0.47787268626E+02  0.19999988976E+02 0.  0.
         12    1    1    2    0    0  0.33209855562E+01 -0.33151546519E+02  0.27813117447E+02  0.43400731374E+02  0.00000000000E+00 0. -1.
         11    1    3    3    0    0  0.63381662463E-01  0.61204328987E+01 -0.10493143628E+02  0.12147830240E+02  0.51100000000E-03 0. -1.
        -11    1    3    3    0    0 -0.79894671703E+00  0.23185904043E+02 -0.19695415169E+02  0.30432447175E+02  0.51100000000E-03 0.  1.
        -12    1    3    3    0    0 -0.25854205016E+01  0.38452095774E+01  0.23754413496E+01  0.52069912109E+01  0.00000000000E+00 0.  1.
</event>
<event>
 7    1  0.4519840E-010  0.4778727E+02  0.7816164E-02  0.1312668E+00
        -11   -1    0    0    0    0  0.00000000000E+00  0.00000000000E+00  0.45593999997E+02  0.45594000000E+02  0.51100000000E-03 0. -1.
         11   -1    0    0    0    0 -0.00000000000E+00 -0.00000000000E+00 -0.45593999997E+02  0.45594000000E+02  0.51100000000E-03 0.  1.
    9900012    2    1    2    0    0  0.30806586082E+02  0.11998539309E+02  0.28117831251E+02  0.47787272750E+02  0.20000007778E+02 0.  0.
        -12    1    1    2    0    0 -0.30806586082E+02 -0.11998539309E+02 -0.28117831251E+02  0.43400727250E+02  0.00000000000E+00 0.  1.
         11    1    3    3    0    0  0.11031841019E+02  0.54724955941E+01  0.49725712441E+01  0.13280669763E+02  0.51100000000E-03 0. -1.
        -11    1    3    3    0    0  0.18346502263E+02  0.96833174639E+01  0.23090590671E+02  0.31040878856E+02  0.51100000000E-03 0.  1.
        -12    1    3    3    0    0  0.14282427994E+01 -0.31572737489E+01  0.54669335709E-01  0.34657241315E+01  0.00000000000E+00 0.  1.
</event>
<event>
 7    1  0.4519840E-010  0.4778727E+02  0.7816164E-02  0.1312668E+00
        -11   -1    0    0    0    0  0.00000000000E+00  0.00000000000E+00  0.45593999997E+02  0.45594000000E+02  0.51100000000E-03 0.  1.
         11   -1    0    0    0    0 -0.00000000000E+00 -0.00000000000E+00 -0.45593999997E+02  0.45594000000E+02  0.51100000000E-03 0. -1.
    9900012    2    1    2    0    0  0.11458849098E+02 -0.41854604057E+02  0.71425754584E+00  0.47787271120E+02  0.20000000347E+02 0.  0.
        -12    1    1    2    0    0 -0.11458849098E+02  0.41854604057E+02 -0.71425754584E+00  0.43400728880E+02  0.00000000000E+00 0.  1.
         11    1    3    3    0    0  0.74327281744E+01 -0.37648519668E+01 -0.10628758344E+01  0.83993609130E+01  0.51100000000E-03 0. -1.
        -11    1    3    3    0    0 -0.71598047765E+00 -0.36266908429E+00  0.10952658319E+01  0.13578528686E+01  0.51100000000E-03 0.  1.
        -12    1    3    3    0    0  0.47421014013E+01 -0.37727083006E+02  0.68186754835E+00  0.38030057339E+02  0.00000000000E+00 0.  1.
</event>
<event>
 7    1  0.4519840E-010  0.4778727E+02  0.7816164E-02  0.1312668E+00
        -11   -1    0    0    0    0  0.00000000000E+00  0.00000000000E+00  0.45593999997E+02  0.45594000000E+02  0.51100000000E-03 0. -1.
         11   -1    0    0    0    0 -0.00000000000E+00 -0.00000000000E+00 -0.45593999997E+02  0.45594000000E+02  0.51100000000E-03 0.  1.
    9900012    2    1    2    0    0 -0.22347389897E+02 -0.27084229778E+02 -0.25508077050E+02  0.47787270367E+02  0.19999996913E+02 0.  0.
         12    1    1    2    0    0  0.22347389897E+02  0.27084229778E+02  0.25508077050E+02  0.43400729633E+02  0.00000000000E+00 0. -1.
         11    1    3    3    0    0 -0.34782705849E+01 -0.85419675624E+01 -0.86871348814E+01  0.12670039022E+02  0.51100000000E-03 0. -1.
        -11    1    3    3    0    0 -0.14457144061E+02 -0.15523843894E+02 -0.19782525766E+02  0.29005983341E+02  0.51100000000E-03 0.  1.
         12    1    3    3    0    0 -0.44119752509E+01 -0.30184183212E+01  0.29615835970E+01  0.61112480050E+01  0.00000000000E+00 0. -1.
</event>
<event>
 7    1  0.4519840E-010  0.4778727E+02  0.7816164E-02  0.1312668E+00
        -11   -1    0    0    0    0  0.00000000000E+00  0.00000000000E+00  0.45593999997E+02  0.45594000000E+02  0.51100000000E-03 0.  1.
         11   -1    0    0    0    0 -0.00000000000E+00 -0.00000000000E+00 -0.45593999997E+02  0.45594000000E+02  0.51100000000E-03 0. -1.
    9900012    2    1    2    0    0  0.41031009510E+02  0.39116187204E+01  0.13593336222E+02  0.47787270835E+02  0.19999999044E+02 0.  0.
        -12    1    1    2    0    0 -0.41031009510E+02 -0.39116187204E+01 -0.13593336222E+02  0.43400729165E+02  0.00000000000E+00 0.  1.
         11    1    3    3    0    0  0.25037125731E+02  0.30851299686E+01  0.51324296170E+01  0.25743300601E+02  0.51100000000E-03 0.  1.
        -11    1    3    3    0    0  0.16269224549E+02  0.35427510809E+01  0.45259867732E+01  0.17254660506E+02  0.51100000000E-03 0. -1.
        -12    1    3    3    0    0 -0.27534077027E+00 -0.27162623291E+01  0.39349198321E+01  0.47893097274E+01  0.00000000000E+00 0.  1.
</event>
<event>
 7    1  0.4519840E-010  0.4778727E+02  0.7816164E-02  0.1312668E+00
        -11   -1    0    0    0    0  0.00000000000E+00  0.00000000000E+00  0.45593999997E+02  0.45594000000E+02  0.51100000000E-03 0. -1.
         11   -1    0    0    0    0 -0.00000000000E+00 -0.00000000000E+00 -0.45593999997E+02  0.45594000000E+02  0.51100000000E-03 0.  1.
    9900012    2    1    2    0    0  0.31299839349E+02 -0.55051729297E+01  0.29557345347E+02  0.47787268022E+02  0.19999986219E+02 0.  0.
        -12    1    1    2    0    0 -0.31299839349E+02  0.55051729297E+01 -0.29557345347E+02  0.43400731978E+02  0.00000000000E+00 0.  1.
         11    1    3    3    0    0  0.76114901764E+01  0.26823909759E+01  0.61314529473E+01  0.10135320397E+02  0.51100000000E-03 0. -1.
        -11    1    3    3    0    0  0.32455447443E+01  0.10969826051E+01  0.11960549391E+02  0.12441530192E+02  0.51100000000E-03 0.  1.
        -12    1    3    3    0    0  0.20442804428E+02 -0.92845465107E+01  0.11465343009E+02  0.25210417432E+02  0.00000000000E+00 0.  1.
</event>
<event>
 7    1  0.4519840E-010  0.4778727E+02  0.7816164E-02  0.1312668E+00
        -11   -1    0    0    0    0  0.00000000000E+00  0.00000000000E+00  0.45593999997E+02  0.45594000000E+02  0.51100000000E-03 0.  1.
         11   -1    0    0    0    0 -0.00000000000E+00 -0.00000000000E+00 -0.45593999997E+02  0.45594000000E+02  0.51100000000E-03 0. -1.
    9900012    2    1    2    0    0 -0.28362036446E+02 -0.11972267905E+02  0.30592201544E+02  0.47787272984E+02  0.20000008844E+02 0.  0.
        -12    1    1    2    0    0  0.28362036446E+02  0.11972267905E+02 -0.30592201544E+02  0.43400727016E+02  0.00000000000E+00 0.  1.
         11    1    3    3    0    0 -0.70329461619E+01 -0.85466499109E+01  0.61826783469E+01  0.12678054591E+02  0.51100000000E-03 0. -1.
        -11    1    3    3    0    0 -0.14461953347E+02 -0.73145948728E+01  0.11125489004E+02  0.19657769421E+02  0.51100000000E-03 0.  1.
        -12    1    3    3    0    0 -0.68671369373E+01  0.38889768790E+01  0.13284034193E+02  0.15451448972E+02  0.00000000000E+00 0.  1.
</event>
<event>
 7    1  0.4519840E-010  0.4778729E+02  0.7816164E-02  0.1312668E+00
        -11   -1    0    0    0    0  0.00000000000E+00  0.00000000000E+00  0.45593999997E+02  0.45594000000E+02  0.51100000000E-03 0. -1.
         11   -1    0    0    0    0 -0.00000000000E+00 -0.00000000000E+00 -0.45593999997E+02  0.45594000000E+02  0.51100000000E-03 0.  1.
    9900012    2    1    2    0    0 -0.13282252901E+02  0.24098865337E+02  0.33562604048E+02  0.47787286375E+02  0.20000069900E+02 0.  0.
        -12    1    1    2    0    0  0.13282252901E+02 -0.24098865337E+02 -0.33562604048E+02  0.43400713625E+02  0.00000000000E+00 0.  1.
         11    1    3    3    0    0 -0.30076213060E+01 -0.15356046469E+01  0.22305993379E+01  0.40471522357E+01  0.51100000000E-03 0. -1.
        -11    1    3    3    0    0 -0.18647831467E+01  0.98295265300E+01  0.34071842339E+01  0.10569101790E+02  0.51100000000E-03 0.  1.
         12    1    3    3    0    0 -0.84098484484E+01  0.15804943454E+02  0.27924820476E+02  0.33171032349E+02  0.00000000000E+00 0. -1.
</event>
<event>
 7    1  0.4519840E-010  0.4778727E+02  0.7816164E-02  0.1312668E+00
        -11   -1    0    0    0    0  0.00000000000E+00  0.00000000000E+00  0.45593999997E+02  0.45594000000E+02  0.51100000000E-03 0. -1.
         11   -1    0    0    0    0 -0.00000000000E+00 -0.00000000000E+00 -0.45593999997E+02  0.45594000000E+02  0.51100000000E-03 0.  1.
    9900012    2    1    2    0    0 -0.17643735248E+02 -0.26141548038E+02  0.29815119276E+02  0.47787271149E+02  0.20000000478E+02 0.  0.
        -12    1    1    2    0    0  0.17643735248E+02  0.26141548038E+02 -0.29815119276E+02  0.43400728851E+02  0.00000000000E+00 0.  1.
         11    1    3    3    0    0 -0.29268782522E+01 -0.36992515129E+01  0.98984422662E+00  0.48198412747E+01  0.51100000000E-03 0. -1.
        -11    1    3    3    0    0 -0.33114783828E+01  0.26816474084E+01  0.34767449905E+01  0.54995343342E+01  0.51100000000E-03 0.  1.
         12    1    3    3    0    0 -0.11405378613E+02 -0.25123943933E+02  0.25348530059E+02  0.37467895540E+02  0.00000000000E+00 0. -1.
</event>
<event>
 7    1  0.4519840E-010  0.4778727E+02  0.7816164E-02  0.1312668E+00
        -11   -1    0    0    0    0  0.00000000000E+00  0.00000000000E+00  0.45593999997E+02  0.45594000000E+02  0.51100000000E-03 0. -1.
         11   -1    0    0    0    0 -0.00000000000E+00 -0.00000000000E+00 -0.45593999997E+02  0.45594000000E+02  0.51100000000E-03 0.  1.
    9900012    2    1    2    0    0 -0.62260956276E+01  0.13185345928E+01  0.42931579021E+02  0.47787271003E+02  0.19999999813E+02 0.  0.
        -12    1    1    2    0    0  0.62260956276E+01 -0.13185345928E+01 -0.42931579021E+02  0.43400728997E+02  0.00000000000E+00 0.  1.
         11    1    3    3    0    0 -0.91223023011E+00 -0.47454138152E+01  0.26371507895E+02  0.26810586438E+02  0.51100000000E-03 0. -1.
        -11    1    3    3    0    0 -0.51807389052E+01 -0.11608826769E+00  0.12629745058E+02  0.13651519790E+02  0.51100000000E-03 0.  1.
        -12    1    3    3    0    0 -0.13312649223E+00  0.61800366757E+01  0.39303260678E+01  0.73251647746E+01  0.00000000000E+00 0.  1.
</event>
<event>
 7    1  0.4519840E-010  0.4778728E+02  0.7816164E-02  0.1312668E+00
        -11   -1    0    0    0    0  0.00000000000E+00  0.00000000000E+00  0.45593999997E+02  0.45594000000E+02  0.51100000000E-03 0. -1.
         11   -1    0    0    0    0 -0.00000000000E+00 -0.00000000000E+00 -0.45593999997E+02  0.45594000000E+02  0.51100000000E-03 0.  1.
    9900012    2    1    2    0    0  0.23043919581E+02  0.28428757254E+02 -0.23332515353E+02  0.47787277180E+02  0.20000027973E+02 0.  0.
         12    1    1    2    0    0 -0.23043919581E+02 -0.28428757254E+02  0.23332515353E+02  0.43400722820E+02  0.00000000000E+00 0. -1.
         11    1    3    3    0    0 -0.12806785975E+01  0.10552606750E+01 -0.98922741992E+00  0.19319119835E+01  0.51100000000E-03 0. -1.
        -11    1    3    3    0    0  0.15924101339E+02  0.77153587865E+01 -0.15166407101E+02  0.23305013822E+02  0.51100000000E-03 0.  1.
        -12    1    3    3    0    0  0.84004968394E+01  0.19658137792E+02 -0.71768808326E+01  0.22550351374E+02  0.00000000000E+00 0.  1.
</event>
<event>
 7    1  0.4519840E-010  0.4778728E+02  0.7816164E-02  0.1312668E+00
        -11   -1    0    0    0    0  0.00000000000E+00  0.00000000000E+00  0.45593999997E+02  0.45594000000E+02  0.51100000000E-03 0. -1.
         11   -1    0    0    0    0 -0.00000000000E+00 -0.00000000000E+00 -0.45593999997E+02  0.45594000000E+02  0.51100000000E-03 0.  1.
    9900012    2    1    2    0    0  0.23518029854E+02  0.29064518213E+01 -0.36360381262E+02  0.47787279776E+02  0.20000039812E+02 0.  0.
         12    1    1    2    0    0 -0.23518029854E+02 -0.29064518213E+01  0.36360381262E+02  0.43400720224E+02  0.00000000000E+00 0. -1.
         11    1    3    3    0    0 -0.76355039340E+00  0.17580619750E+01 -0.43129809517E+01  0.47197029633E+01  0.51100000000E-03 0. -1.
        -11    1    3    3    0    0  0.59478163140E+00 -0.43118751052E+01 -0.35945112363E+01  0.56450459166E+01  0.51100000000E-03 0.  1.
        -12    1    3    3    0    0  0.23686798616E+02  0.54602649515E+01 -0.28452889074E+02  0.37422530896E+02  0.00000000000E+00 0.  1.
</event>
<event>
 7    1  0.4519840E-010  0.4778728E+02  0.7816164E-02  0.1312668E+00
        -11   -1    0    0    0    0  0.00000000000E+00  0.00000000000E+00  0.45593999997E+02  0.45594000000E+02  0.51100000000E-03 0. -1.
         11   -1    0    0    0    0 -0.00000000000E+00 -0.00000000000E+00 -0.45593999997E+02  0.45594000000E+02  0.51100000000E-03 0.  1.
    9900012    2    1    2    0    0  0.17270022815E+02 -0.50527099673E+01 -0.39494801067E+02  0.47787275612E+02  0.20000020826E+02 0.  0.
         12    1    1    2    0    0 -0.17270022815E+02  0.50527099673E+01  0.39494801067E+02  0.43400724388E+02  0.00000000000E+00 0. -1.
         11    1    3    3    0    0  0.56391517880E+01  0.16863729609E+01 -0.87358369161E+01  0.10533695151E+02  0.51100000000E-03 0. -1.
        -11    1    3    3    0    0  0.15826207555E+01  0.13273006669E+01 -0.20970209235E+02  0.21071689328E+02  0.51100000000E-03 0.  1.
         12    1    3    3    0    0  0.10048250272E+02 -0.80663835951E+01 -0.97887549155E+01  0.16181891133E+02  0.00000000000E+00 0. -1.
</event>
<event>
 7    1  0.4519840E-010  0.4778728E+02  0.7816164E-02  0.1312668E+00
        -11   -1    0    0    0    0  0.00000000000E+00  0.00000000000E+00  0.45593999997E+02  0.45594000000E+02  0.51100000000E-03 0. -1.
         11   -1    0    0    0    0 -0.00000000000E+00 -0.00000000000E+00 -0.45593999997E+02  0.45594000000E+02  0.51100000000E-03 0.  1.
    9900012    2    1    2    0    0 -0.40534114376E+02 -0.56160739238E+01  0.14459179099E+02  0.47787279098E+02  0.20000036720E+02 0.  0.
        -12    1    1    2    0    0  0.40534114376E+02  0.56160739238E+01 -0.14459179099E+02  0.43400720902E+02  0.00000000000E+00 0.  1.
         11    1    3    3    0    0 -0.15159605648E+02  0.72271948052E-01  0.20803226805E+01  0.15301849867E+02  0.51100000000E-03 0. -1.
        -11    1    3    3    0    0 -0.51005426634E+01 -0.57690068538E+01 -0.15926425047E+01  0.78634271123E+01  0.51100000000E-03 0.  1.
         12    1    3    3    0    0 -0.20273966065E+02  0.80660981961E-01  0.13971498923E+02  0.24622002119E+02  0.00000000000E+00 0. -1.
</event>
<event>
 7    1  0.4519840E-010  0.4778727E+02  0.7816164E-02  0.1312668E+00
        -11   -1    0    0    0    0  0.00000000000E+00  0.00000000000E+00  0.45593999997E+02  0.45594000000E+02  0.51100000000E-03 0. -1.
         11   -1    0    0    0    0 -0.00000000000E+00 -0.00000000000E+00 -0.45593999997E+02  0.45594000000E+02  0.51100000000E-03 0.  1.
    9900012    2    1    2    0    0 -0.24712315601E+02 -0.13542216993E+02 -0.33008080026E+02  0.47787268089E+02  0.19999986523E+02 0.  0.
         12    1    1    2    0    0  0.24712315601E+02  0.13542216993E+02  0.33008080026E+02  0.43400731911E+02  0.00000000000E+00 0. -1.
         11    1    3    3    0    0 -0.17833439498E+01 -0.20222286243E+01 -0.13360142467E+01  0.30090959739E+01  0.51100000000E-03 0. -1.
        -11    1    3    3    0    0 -0.21650158252E+02 -0.13831970085E+02 -0.19316079208E+02  0.32142863360E+02  0.51100000000E-03 0.  1.
         12    1    3    3    0    0 -0.12788133990E+01  0.23119817158E+01 -0.12355986572E+02  0.12635308755E+02  0.00000000000E+00 0. -1.
</event>
<event>
 7    1  0.4519840E-010  0.4778727E+02  0.7816164E-02  0.1312668E+00
        -11   -1    0    0    0    0  0.00000000000E+00  0.00000000000E+00  0.45593999997E+02  0.45594000000E+02  0.51100000000E-03 0. -1.
         11   -1    0    0    0    0 -0.00000000000E+00 -0.00000000000E+00 -0.45593999997E+02  0.45594000000E+02  0.51100000000E-03 0.  1.
    9900012    2    1    2    0    0 -0.19895887648E+02  0.37744206483E+02  0.79468094595E+01  0.47787271332E+02  0.20000001311E+02 0.  0.
        -12    1    1    2    0    0  0.19895887648E+02 -0.37744206483E+02 -0.79468094595E+01  0.43400728668E+02  0.00000000000E+00 0.  1.
         11    1    3    3    0    0 -0.15894949420E+02  0.12221265706E+02  0.40844307144E+01  0.20461948271E+02  0.51100000000E-03 0. -1.
        -11    1    3    3    0    0  0.96075800960E+00  0.38101520446E+00  0.11642710134E+01  0.15568416081E+01  0.51100000000E-03 0.  1.
         12    1    3    3    0    0 -0.49616962376E+01  0.25141925573E+02  0.26981077317E+01  0.25768481453E+02  0.00000000000E+00 0. -1.
</event>
<event>
 7    1  0.4519840E-010  0.4778727E+02  0.7816164E-02  0.1312668E+00
        -11   -1    0    0    0    0  0.00000000000E+00  0.00000000000E+00  0.45593999997E+02  0.45594000000E+02  0.51100000000E-03 0. -1.
         11   -1    0    0    0    0 -0.00000000000E+00 -0.00000000000E+00 -0.45593999997E+02  0.45594000000E+02  0.51100000000E-03 0.  1.
    9900012    2    1    2    0    0  0.19522644689E+02  0.27254980767E+02 -0.27561859494E+02  0.47787265777E+02  0.19999975985E+02 0.  0.
         12    1    1    2    0    0 -0.19522644689E+02 -0.27254980767E+02  0.27561859494E+02  0.43400734223E+02  0.00000000000E+00 0. -1.
         11    1    3    3    0    0  0.35834069274E+00  0.11647056625E+02 -0.79162014627E+01  0.14087177927E+02  0.51100000000E-03 0. -1.
        -11    1    3    3    0    0  0.10754786935E+02  0.12518674480E+02 -0.18296130087E+02  0.24640029001E+02  0.51100000000E-03 0.  1.
         12    1    3    3    0    0  0.84095170615E+01  0.30892496626E+01 -0.13495279441E+01  0.90600588496E+01  0.00000000000E+00 0. -1.
</event>
<event>
 7    1  0.4519840E-010  0.4778727E+02  0.7816164E-02  0.1312668E+00
        -11   -1    0    0    0    0  0.00000000000E+00  0.00000000000E+00  0.45593999997E+02  0.45594000000E+02  0.51100000000E-03 0. -1.
         11   -1    0    0    0    0 -0.00000000000E+00 -0.00000000000E+00 -0.45593999997E+02  0.45594000000E+02  0.51100000000E-03 0.  1.
    9900012    2    1    2    0    0 -0.36925425810E+01  0.38235274150E+02  0.20200303945E+02  0.47787270288E+02  0.19999996551E+02 0.  0.
        -12    1    1    2    0    0  0.36925425810E+01 -0.38235274150E+02 -0.20200303945E+02  0.43400729712E+02  0.00000000000E+00 0.  1.
         11    1    3    3    0    0 -0.15509328346E+01  0.32607433799E+00 -0.22399952398E-01  0.15849981547E+01  0.51100000000E-03 0. -1.
        -11    1    3    3    0    0  0.29514785424E+01  0.18941942119E+02  0.17663714187E+01  0.19251713303E+02  0.51100000000E-03 0.  1.
         12    1    3    3    0    0 -0.50930882888E+01  0.18967257693E+02  0.18456332479E+02  0.26950558831E+02  0.00000000000E+00 0. -1.
</event>
<event>
 7    1  0.4519840E-010  0.4778727E+02  0.7816164E-02  0.1312668E+00
        -11   -1    0    0    0    0  0.00000000000E+00  0.00000000000E+00  0.45593999997E+02  0.45594000000E+02  0.51100000000E-03 0. -1.
         11   -1    0    0    0    0 -0.00000000000E+00 -0.00000000000E+00 -0.45593999997E+02  0.45594000000E+02  0.51100000000E-03 0.  1.
    9900012    2    1    2    0    0  0.88286120061E+01  0.19348367845E+02  0.37832783147E+02  0.47787271793E+02  0.20000003413E+02 0.  0.
        -12    1    1    2    0    0 -0.88286120061E+01 -0.19348367845E+02 -0.37832783147E+02  0.43400728207E+02  0.00000000000E+00 0.  1.
         11    1    3    3    0    0  0.70422566122E-01  0.23834939227E-01 -0.14487884115E+01  0.14506948557E+01  0.51100000000E-03 0. -1.
        -11    1    3    3    0    0  0.72899759868E+01  0.63461680738E+01  0.83956967995E+01  0.12802551469E+02  0.51100000000E-03 0.  1.
         12    1    3    3    0    0  0.14682134532E+01  0.12978364832E+02  0.30885874759E+02  0.33534025468E+02  0.00000000000E+00 0. -1.
</event>
<event>
 7    1  0.4519840E-010  0.4778727E+02  0.7816164E-02  0.1312668E+00
        -11   -1    0    0    0    0  0.00000000000E+00  0.00000000000E+00  0.45593999997E+02  0.45594000000E+02  0.51100000000E-03 0. -1.
         11   -1    0    0    0    0 -0.00000000000E+00 -0.00000000000E+00 -0.45593999997E+02  0.45594000000E+02  0.51100000000E-03 0.  1.
    9900012    2    1    2    0    0  0.64590923644E+01  0.10960366687E+02 -0.41494259911E+02  0.47787272844E+02  0.20000008206E+02 0.  0.
         12    1    1    2    0    0 -0.64590923644E+01 -0.10960366687E+02  0.41494259911E+02  0.43400727156E+02  0.00000000000E+00 0. -1.
         11    1    3    3    0    0  0.54435074012E+01 -0.20423354398E+01 -0.13147805711E+02  0.14375941783E+02  0.51100000000E-03 0. -1.
        -11    1    3    3    0    0  0.96683925949E+00 -0.17210094187E+01 -0.83426581086E+01  0.85730155810E+01  0.51100000000E-03 0.  1.
         12    1    3    3    0    0  0.48745703710E-01  0.14723711546E+02 -0.20003796091E+02  0.24838315480E+02  0.00000000000E+00 0. -1.
</event>
<event>
 7    1  0.4519840E-010  0.4778727E+02  0.7816164E-02  0.1312668E+00
        -11   -1    0    0    0    0  0.00000000000E+00  0.00000000000E+00  0.45593999997E+02  0.45594000000E+02  0.51100000000E-03 0.  1.
         11   -1    0    0    0    0 -0.00000000000E+00 -0.00000000000E+00 -0.45593999997E+02  0.45594000000E+02  0.51100000000E-03 0. -1.
    9900012    2    1    2    0    0  0.20033527387E+02  0.38500126409E+02 -0.14531502250E+00  0.47787273398E+02  0.20000010731E+02 0.  0.
         12    1    1    2    0    0 -0.20033527387E+02 -0.38500126409E+02  0.14531502250E+00  0.43400726602E+02  0.00000000000E+00 0. -1.
         11    1    3    3    0    0  0.40424349643E+00  0.10877516106E+02 -0.35586550326E+01  0.11451977792E+02  0.51100000000E-03 0. -1.
        -11    1    3    3    0    0 -0.69577199490E+00  0.25733611823E+01 -0.23653557864E+01  0.35638735529E+01  0.51100000000E-03 0.  1.
        -12    1    3    3    0    0  0.20325055886E+02  0.25049249121E+02  0.57786957965E+01  0.32771422053E+02  0.00000000000E+00 0.  1.
</event>
<event>
 7    1  0.4519840E-010  0.4778727E+02  0.7816164E-02  0.1312668E+00
        -11   -1    0    0    0    0  0.00000000000E+00  0.00000000000E+00  0.45593999997E+02  0.45594000000E+02  0.51100000000E-03 0. -1.
         11   -1    0    0    0    0 -0.00000000000E+00 -0.00000000000E+00 -0.45593999997E+02  0.45594000000E+02  0.51100000000E-03 0.  1.
    9900012    2    1    2    0    0  0.53564294015E+01  0.24270999689E+02 -0.35578791861E+02  0.47787271986E+02  0.20000004294E+02 0.  0.
         12    1    1    2    0    0 -0.53564294015E+01 -0.24270999689E+02  0.35578791861E+02  0.43400728014E+02  0.00000000000E+00 0. -1.
         11    1    3    3    0    0 -0.34328053538E+01  0.41215872814E+01 -0.14076849647E+01  0.55455578201E+01  0.51100000000E-03 0. -1.
        -11    1    3    3    0    0  0.94663509240E+00  0.16353307341E+01 -0.12646550195E+02  0.12786933045E+02  0.51100000000E-03 0.  1.
         12    1    3    3    0    0  0.78425996630E+01  0.18514081673E+02 -0.21524556702E+02  0.29454781121E+02  0.00000000000E+00 0. -1.
</event>
<event>
 7    1  0.4519840E-010  0.4778727E+02  0.7816164E-02  0.1312668E+00
        -11   -1    0    0    0    0  0.00000000000E+00  0.00000000000E+00  0.45593999997E+02  0.45594000000E+02  0.51100000000E-03 0.  1.
         11   -1    0    0    0    0 -0.00000000000E+00 -0.00000000000E+00 -0.45593999997E+02  0.45594000000E+02  0.51100000000E-03 0. -1.
    9900012    2    1    2    0    0  0.10330194073E+02 -0.37723155100E+02 -0.18811538941E+02  0.47787270310E+02  0.19999996652E+02 0.  0.
         12    1    1    2    0    0 -0.10330194073E+02  0.37723155100E+02  0.18811538941E+02  0.43400729690E+02  0.00000000000E+00 0. -1.
         11    1    3    3    0    0  0.84653836570E+01 -0.13996054212E+02 -0.18957372510E+01  0.16466513716E+02  0.51100000000E-03 0. -1.
        -11    1    3    3    0    0  0.23824679283E+01 -0.97844974375E+01 -0.94609032960E+00  0.10114723462E+02  0.51100000000E-03 0.  1.
         12    1    3    3    0    0 -0.51765751262E+00 -0.13942603450E+02 -0.15969711361E+02  0.21206033132E+02  0.00000000000E+00 0. -1.
</event>
<event>
 7    1  0.4519840E-010  0.4778726E+02  0.7816164E-02  0.1312668E+00
        -11   -1    0    0    0    0  0.00000000000E+00  0.00000000000E+00  0.45593999997E+02  0.45594000000E+02  0.51100000000E-03 0.  1.
         11   -1    0    0    0    0 -0.00000000000E+00 -0.00000000000E+00 -0.45593999997E+02  0.45594000000E+02  0.51100000000E-03 0. -1.
    9900012    2    1    2    0    0 -0.39245502067E+02  0.12379562044E+02 -0.13789891684E+02  0.47787261509E+02  0.19999956525E+02 0.  0.
         12    1    1    2    0    0  0.39245502067E+02 -0.12379562044E+02  0.13789891684E+02  0.43400738491E+02  0.00000000000E+00 0. -1.
         11    1    3    3    0    0 -0.96163744019E+01  0.19356825098E+01 -0.78175981191E+01  0.12543379291E+02  0.51100000000E-03 0. -1.
        -11    1    3    3    0    0 -0.22244237190E+02  0.77598488454E+00 -0.60962360161E+01  0.23077528778E+02  0.51100000000E-03 0.  1.
        -12    1    3    3    0    0 -0.73848904754E+01  0.96678946501E+01  0.12394245128E+00  0.12166353440E+02  0.00000000000E+00 0.  1.
</event>
<event>
 7    1  0.4519840E-010  0.4778726E+02  0.7816164E-02  0.1312668E+00
        -11   -1    0    0    0    0  0.00000000000E+00  0.00000000000E+00  0.45593999997E+02  0.45594000000E+02  0.51100000000E-03 0. -1.
         11   -1    0    0    0    0 -0.00000000000E+00 -0.00000000000E+00 -0.45593999997E+02  0.45594000000E+02  0.51100000000E-03 0.  1.
    9900012    2    1    2    0    0 -0.14540524958E+02  0.79189087229E+01 -0.40118423525E+02  0.47787263975E+02  0.19999967765E+02 0.  0.
         12    1    1    2    0    0  0.14540524958E+02 -0.79189087229E+01  0.40118423525E+02  0.43400736025E+02  0.00000000000E+00 0. -1.
         11    1    3    3    0    0 -0.57507178218E+01  0.37392149801E+01 -0.43569027446E+01  0.81261975068E+01  0.51100000000E-03 0. -1.
        -11    1    3    3    0    0 -0.11916099508E+02  0.61223351105E+01 -0.29465976056E+02  0.32368505679E+02  0.51100000000E-03 0.  1.
        -12    1    3    3    0    0  0.31262923721E+01 -0.19426413677E+01 -0.62955447244E+01  0.72925607887E+01  0.00000000000E+00 0.  1.
</event>
<event>
 7    1  0.4519840E-010  0.4778727E+02  0.7816164E-02  0.1312668E+00
        -11   -1    0    0    0    0  0.00000000000E+00  0.00000000000E+00  0.45593999997E+02  0.45594000000E+02  0.51100000000E-03 0. -1.
         11   -1    0    0    0    0 -0.00000000000E+00 -0.00000000000E+00 -0.45593999997E+02  0.45594000000E+02  0.51100000000E-03 0.  1.
    9900012    2    1    2    0    0 -0.47158028428E+01  0.39661659643E+02  0.16980488596E+02  0.47787273796E+02  0.20000012545E+02 0.  0.
        -12    1    1    2    0    0  0.47158028428E+01 -0.39661659643E+02 -0.16980488596E+02  0.43400726204E+02  0.00000000000E+00 0.  1.
         11    1    3    3    0    0  0.12477592666E+01  0.12079541013E+02  0.16115886301E+01  0.12250282954E+02  0.51100000000E-03 0. -1.
        -11    1    3    3    0    0  0.48248924202E+01  0.12394502038E+02  0.78737185428E+01  0.15456348585E+02  0.51100000000E-03 0.  1.
         12    1    3    3    0    0 -0.10788454530E+02  0.15187616592E+02  0.74951814232E+01  0.20080642257E+02  0.00000000000E+00 0. -1.
</event>
<event>
 7    1  0.4519840E-010  0.4778727E+02  0.7816164E-02  0.1312668E+00
        -11   -1    0    0    0    0  0.00000000000E+00  0.00000000000E+00  0.45593999997E+02  0.45594000000E+02  0.51100000000E-03 0.  1.
         11   -1    0    0    0    0 -0.00000000000E+00 -0.00000000000E+00 -0.45593999997E+02  0.45594000000E+02  0.51100000000E-03 0. -1.
    9900012    2    1    2    0    0  0.24392139975E+02 -0.25457132311E+02 -0.25309698811E+02  0.47787274983E+02  0.20000017959E+02 0.  0.
         12    1    1    2    0    0 -0.24392139975E+02  0.25457132311E+02  0.25309698811E+02  0.43400725017E+02  0.00000000000E+00 0. -1.
         11    1    3    3    0    0  0.96944424974E+01 -0.16342834646E+01 -0.41691828348E+01  0.10678725746E+02  0.51100000000E-03 0. -1.
        -11    1    3    3    0    0  0.10568899615E+02 -0.14280830817E+02 -0.60203011550E+01  0.18758672505E+02  0.51100000000E-03 0.  1.
        -12    1    3    3    0    0  0.41287978631E+01 -0.95420180294E+01 -0.15120214822E+02  0.18349876733E+02  0.00000000000E+00 0.  1.
</event>
<event>
 7    1  0.4519840E-010  0.4778727E+02  0.7816164E-02  0.1312668E+00
        -11   -1    0    0    0    0  0.00000000000E+00  0.00000000000E+00  0.45593999997E+02  0.45594000000E+02  0.51100000000E-03 0. -1.
         11   -1    0    0    0    0 -0.00000000000E+00 -0.00000000000E+00 -0.45593999997E+02  0.45594000000E+02  0.51100000000E-03 0.  1.
    9900012    2    1    2    0    0 -0.36810921337E+02  0.12067322093E+02  0.19569338386E+02  0.47787271930E+02  0.20000004039E+02 0.  0.
        -12    1    1    2    0    0  0.36810921337E+02 -0.12067322093E+02 -0.19569338386E+02  0.43400728070E+02  0.00000000000E+00 0.  1.
         11    1    3    3    0    0 -0.16074130907E+02  0.56116620275E+01  0.76509611165E+01  0.18665627270E+02  0.51100000000E-03 0. -1.
        -11    1    3    3    0    0 -0.13071413641E+02  0.77276258697E+01  0.35355420174E+00  0.15188912304E+02  0.51100000000E-03 0.  1.
         12    1    3    3    0    0 -0.76653767895E+01 -0.12719658046E+01  0.11564823067E+02  0.13932732356E+02  0.00000000000E+00 0. -1.
</event>
<event>
 7    1  0.4519840E-010  0.4778726E+02  0.7816164E-02  0.1312668E+00
        -11   -1    0    0    0    0  0.00000000000E+00  0.00000000000E+00  0.45593999997E+02  0.45594000000E+02  0.51100000000E-03 0. -1.
         11   -1    0    0    0    0 -0.00000000000E+00 -0.00000000000E+00 -0.45593999997E+02  0.45594000000E+02  0.51100000000E-03 0.  1.
    9900012    2    1    2    0    0  0.77770230454E+01  0.17100154891E+02  0.39124503974E+02  0.47787260422E+02  0.19999951566E+02 0.  0.
        -12    1    1    2    0    0 -0.77770230454E+01 -0.17100154891E+02 -0.39124503974E+02  0.43400739578E+02  0.00000000000E+00 0.  1.
         11    1    3    3    0    0  0.67480622677E+01  0.86106510094E+01  0.21552933517E+02  0.24170407498E+02  0.51100000000E-03 0. -1.
        -11    1    3    3    0    0  0.99541040805E+00  0.28494885521E+01  0.17719562183E+02  0.17974796552E+02  0.51100000000E-03 0.  1.
        -12    1    3    3    0    0  0.33550369639E-01  0.56400153297E+01 -0.14799172560E+00  0.56420563714E+01  0.00000000000E+00 0.  1.
</event>
<event>
 7    1  0.4519840E-010  0.4778727E+02  0.7816164E-02  0.1312668E+00
        -11   -1    0    0    0    0  0.00000000000E+00  0.00000000000E+00  0.45593999997E+02  0.45594000000E+02  0.51100000000E-03 0. -1.
         11   -1    0    0    0    0 -0.00000000000E+00 -0.00000000000E+00 -0.45593999997E+02  0.45594000000E+02  0.51100000000E-03 0.  1.
    9900012    2    1    2    0    0  0.50533095984E+01 -0.11319151647E+02 -0.41592839210E+02  0.47787269529E+02  0.19999993089E+02 0.  0.
         12    1    1    2    0    0 -0.50533095984E+01  0.11319151647E+02  0.41592839210E+02  0.43400730471E+02  0.00000000000E+00 0. -1.
         11    1    3    3    0    0  0.44604381441E+01 -0.28385489043E+01 -0.10475974564E+02  0.11734517955E+02  0.51100000000E-03 0. -1.
        -11    1    3    3    0    0  0.81125362095E+01 -0.22651674204E+01 -0.13396988492E+02  0.15824775768E+02  0.51100000000E-03 0.  1.
         12    1    3    3    0    0 -0.75196647551E+01 -0.62154353227E+01 -0.17719876154E+02  0.20227975805E+02  0.00000000000E+00 0. -1.
</event>
<event>
 7    1  0.4991938E-010  0.4778727E+02  0.7816164E-02  0.1312668E+00
        -11   -1    0    0    0    0  0.00000000000E+00  0.00000000000E+00  0.45593999997E+02  0.45594000000E+02  0.51100000000E-03 0. -1.
         11   -1    0    0    0    0 -0.00000000000E+00 -0.00000000000E+00 -0.45593999997E+02  0.45594000000E+02  0.51100000000E-03 0.  1.
    9900012    2    1    2    0    0  0.10818135751E+02 -0.20369054695E+02 -0.36765374254E+02  0.47787271961E+02  0.20000004177E+02 0.  0.
         12    1    1    2    0    0 -0.10818135751E+02  0.20369054695E+02  0.36765374254E+02  0.43400728039E+02  0.00000000000E+00 0. -1.
         11    1    3    3    0    0  0.53274923517E+00  0.17768799168E+01 -0.91031819621E+01  0.92902662008E+01  0.51100000000E-03 0. -1.
        -11    1    3    3    0    0  0.50414235775E+00 -0.50616958878E+01 -0.73271987472E+00  0.51392415251E+01  0.51100000000E-03 0.  1.
        -12    1    3    3    0    0  0.97812441576E+01 -0.17084238724E+02 -0.26929472418E+02  0.33357764235E+02  0.00000000000E+00 0.  1.
</event>
<event>
 7    1  0.4519840E-010  0.4778727E+02  0.7816164E-02  0.1312668E+00
        -11   -1    0    0    0    0  0.00000000000E+00  0.00000000000E+00  0.45593999997E+02  0.45594000000E+02  0.51100000000E-03 0. -1.
         11   -1    0    0    0    0 -0.00000000000E+00 -0.00000000000E+00 -0.45593999997E+02  0.45594000000E+02  0.51100000000E-03 0.  1.
    9900012    2    1    2    0    0 -0.71497911950E+01 -0.36525010824E+01 -0.42651648123E+02  0.47787269984E+02  0.19999995166E+02 0.  0.
         12    1    1    2    0    0  0.71497911950E+01  0.36525010824E+01  0.42651648123E+02  0.43400730016E+02  0.00000000000E+00 0. -1.
         11    1    3    3    0    0 -0.58072820579E+00 -0.17911067326E+01 -0.18338150351E+00  0.18918080277E+01  0.51100000000E-03 0. -1.
        -11    1    3    3    0    0 -0.84766597121E+00 -0.82818859788E+01 -0.15571156114E+02  0.17656983773E+02  0.51100000000E-03 0.  1.
         12    1    3    3    0    0 -0.57213970180E+01  0.64204916290E+01 -0.26897110506E+02  0.28238478184E+02  0.00000000000E+00 0. -1.
</event>
<event>
 7    1  0.4519840E-010  0.4778727E+02  0.7816164E-02  0.1312668E+00
        -11   -1    0    0    0    0  0.00000000000E+00  0.00000000000E+00  0.45593999997E+02  0.45594000000E+02  0.51100000000E-03 0. -1.
         11   -1    0    0    0    0 -0.00000000000E+00 -0.00000000000E+00 -0.45593999997E+02  0.45594000000E+02  0.51100000000E-03 0.  1.
    9900012    2    1    2    0    0 -0.21214614920E+02  0.10001913641E+02 -0.36517465412E+02  0.47787269099E+02  0.19999991128E+02 0.  0.
         12    1    1    2    0    0  0.21214614920E+02 -0.10001913641E+02  0.36517465412E+02  0.43400730901E+02  0.00000000000E+00 0. -1.
         11    1    3    3    0    0  0.33285236041E+00  0.36347437228E+01  0.13580667915E+00  0.36524781094E+01  0.51100000000E-03 0. -1.
        -11    1    3    3    0    0  0.24534336921E+00 -0.13295855179E+01 -0.32024830124E+01  0.34761888217E+01  0.51100000000E-03 0.  1.
        -12    1    3    3    0    0 -0.21792810650E+02  0.76967554361E+01 -0.33450789078E+02  0.40658602168E+02  0.00000000000E+00 0.  1.
</event>
<event>
 7    1  0.4519840E-010  0.4778726E+02  0.7816164E-02  0.1312668E+00
        -11   -1    0    0    0    0  0.00000000000E+00  0.00000000000E+00  0.45593999997E+02  0.45594000000E+02  0.51100000000E-03 0. -1.
         11   -1    0    0    0    0 -0.00000000000E+00 -0.00000000000E+00 -0.45593999997E+02  0.45594000000E+02  0.51100000000E-03 0.  1.
    9900012    2    1    2    0    0  0.20327683777E+02  0.19671953010E+01 -0.38295426874E+02  0.47787259171E+02  0.19999945862E+02 0.  0.
         12    1    1    2    0    0 -0.20327683777E+02 -0.19671953010E+01  0.38295426874E+02  0.43400740829E+02  0.00000000000E+00 0. -1.
         11    1    3    3    0    0  0.83525807220E+01 -0.12947015381E+01 -0.95147167880E+01  0.12726809993E+02  0.51100000000E-03 0.  1.
        -11    1    3    3    0    0  0.11693968658E+02  0.82226096974E+01 -0.25068777320E+02  0.28858340385E+02  0.51100000000E-03 0. -1.
         12    1    3    3    0    0  0.28113439724E+00 -0.49607128582E+01 -0.37119327660E+01  0.62021087922E+01  0.00000000000E+00 0. -1.
</event>
<event>
 7    1  0.4519840E-010  0.4778727E+02  0.7816164E-02  0.1312668E+00
        -11   -1    0    0    0    0  0.00000000000E+00  0.00000000000E+00  0.45593999997E+02  0.45594000000E+02  0.51100000000E-03 0. -1.
         11   -1    0    0    0    0 -0.00000000000E+00 -0.00000000000E+00 -0.45593999997E+02  0.45594000000E+02  0.51100000000E-03 0.  1.
    9900012    2    1    2    0    0  0.17858705965E+01 -0.29475568493E+02 -0.31806048971E+02  0.47787271632E+02  0.20000002677E+02 0.  0.
         12    1    1    2    0    0 -0.17858705965E+01  0.29475568493E+02  0.31806048971E+02  0.43400728368E+02  0.00000000000E+00 0. -1.
         11    1    3    3    0    0 -0.19560564704E+01 -0.94425231244E+00 -0.86591414674E+00  0.23382850372E+01  0.51100000000E-03 0. -1.
        -11    1    3    3    0    0 -0.48636558688E+01 -0.16888734957E+02 -0.22969917414E+02  0.28922337788E+02  0.51100000000E-03 0.  1.
         12    1    3    3    0    0  0.86055829357E+01 -0.11642581223E+02 -0.79702174107E+01  0.16526648806E+02  0.00000000000E+00 0. -1.
</event>
<event>
 7    1  0.4519840E-010  0.4778727E+02  0.7816164E-02  0.1312668E+00
        -11   -1    0    0    0    0  0.00000000000E+00  0.00000000000E+00  0.45593999997E+02  0.45594000000E+02  0.51100000000E-03 0. -1.
         11   -1    0    0    0    0 -0.00000000000E+00 -0.00000000000E+00 -0.45593999997E+02  0.45594000000E+02  0.51100000000E-03 0.  1.
    9900012    2    1    2    0    0 -0.12383201018E+02 -0.67760563858E+00 -0.41591114695E+02  0.47787266844E+02  0.19999980850E+02 0.  0.
         12    1    1    2    0    0  0.12383201018E+02  0.67760563858E+00  0.41591114695E+02  0.43400733156E+02  0.00000000000E+00 0. -1.
         11    1    3    3    0    0 -0.88431815279E+01 -0.30261629903E+01 -0.12627351652E+02  0.15710172882E+02  0.51100000000E-03 0. -1.
        -11    1    3    3    0    0 -0.81794415151E+01  0.79342215138E+00 -0.22612973809E+02  0.24059912031E+02  0.51100000000E-03 0.  1.
         12    1    3    3    0    0  0.46394220250E+01  0.15551352004E+01 -0.63507892347E+01  0.80171819314E+01  0.00000000000E+00 0. -1.
</event>
<event>
 7    1  0.4519840E-010  0.4778729E+02  0.7816164E-02  0.1312668E+00
        -11   -1    0    0    0    0  0.00000000000E+00  0.00000000000E+00  0.45593999997E+02  0.45594000000E+02  0.51100000000E-03 0. -1.
         11   -1    0    0    0    0 -0.00000000000E+00 -0.00000000000E+00 -0.45593999997E+02  0.45594000000E+02  0.51100000000E-03 0.  1.
    9900012    2    1    2    0    0 -0.12109658311E+02  0.35589750986E+02  0.21687502977E+02  0.47787285893E+02  0.20000067699E+02 0.  0.
        -12    1    1    2    0    0  0.12109658311E+02 -0.35589750986E+02 -0.21687502977E+02  0.43400714107E+02  0.00000000000E+00 0.  1.
         11    1    3    3    0    0 -0.94992024505E+01  0.21114199809E+02  0.11441774360E+02  0.25825539327E+02  0.51100000000E-03 0. -1.
        -11    1    3    3    0    0 -0.52416532869E+01  0.51948500383E+01  0.98490406345E+01  0.12307111675E+02  0.51100000000E-03 0.  1.
         12    1    3    3    0    0  0.26311974261E+01  0.92807011386E+01  0.39668798259E+00  0.96546348908E+01  0.00000000000E+00 0. -1.
</event>
<event>
 7    1  0.4519840E-010  0.4778727E+02  0.7816164E-02  0.1312668E+00
        -11   -1    0    0    0    0  0.00000000000E+00  0.00000000000E+00  0.45593999997E+02  0.45594000000E+02  0.51100000000E-03 0.  1.
         11   -1    0    0    0    0 -0.00000000000E+00 -0.00000000000E+00 -0.45593999997E+02  0.45594000000E+02  0.51100000000E-03 0. -1.
    9900012    2    1    2    0    0  0.33190731035E+02  0.27945867238E+02  0.10136305339E+01  0.47787267643E+02  0.19999984490E+02 0.  0.
         12    1    1    2    0    0 -0.33190731035E+02 -0.27945867238E+02 -0.10136305339E+01  0.43400732357E+02  0.00000000000E+00 0. -1.
         11    1    3    3    0    0  0.33368732517E+01 -0.69258454848E-01 -0.28350915210E+01  0.43791853153E+01  0.51100000000E-03 0. -1.
        -11    1    3    3    0    0  0.25487048384E+01  0.87404409322E+01 -0.23786731706E+01  0.94100632494E+01  0.51100000000E-03 0.  1.
         12    1    3    3    0    0  0.27305152945E+02  0.19274684760E+02  0.62273952256E+01  0.33998019078E+02  0.00000000000E+00 0. -1.
</event>
<event>
 7    1  0.4519840E-010  0.4778727E+02  0.7816164E-02  0.1312668E+00
        -11   -1    0    0    0    0  0.00000000000E+00  0.00000000000E+00  0.45593999997E+02  0.45594000000E+02  0.51100000000E-03 0. -1.
         11   -1    0    0    0    0 -0.00000000000E+00 -0.00000000000E+00 -0.45593999997E+02  0.45594000000E+02  0.51100000000E-03 0.  1.
    9900012    2    1    2    0    0  0.12179788444E+01  0.22595303729E+02 -0.37035012076E+02  0.47787270253E+02  0.19999996393E+02 0.  0.
         12    1    1    2    0    0 -0.12179788444E+01 -0.22595303729E+02  0.37035012076E+02  0.43400729747E+02  0.00000000000E+00 0. -1.
         11    1    3    3    0    0 -0.58501644631E+00  0.70158852269E+01 -0.65167539382E+01  0.95933816724E+01  0.51100000000E-03 0. -1.
        -11    1    3    3    0    0 -0.55860784472E+00 -0.34975843333E+01 -0.67726145042E+01  0.76428689885E+01  0.51100000000E-03 0.  1.
        -12    1    3    3    0    0  0.23616031354E+01  0.19077002835E+02 -0.23745643634E+02  0.30551019592E+02  0.00000000000E+00 0.  1.
</event>
<event>
 7    1  0.4519840E-010  0.4778729E+02  0.7816164E-02  0.1312668E+00
        -11   -1    0    0    0    0  0.00000000000E+00  0.00000000000E+00  0.45593999997E+02  0.45594000000E+02  0.51100000000E-03 0. -1.
         11   -1    0    0    0    0 -0.00000000000E+00 -0.00000000000E+00 -0.45593999997E+02  0.45594000000E+02  0.51100000000E-03 0.  1.
    9900012    2    1    2    0    0  0.16301407097E+01 -0.13208801151E+02 -0.41309709795E+02  0.47787286758E+02  0.20000071644E+02 0.  0.
         12    1    1    2    0    0 -0.16301407097E+01  0.13208801151E+02  0.41309709795E+02  0.43400713242E+02  0.00000000000E+00 0. -1.
         11    1    3    3    0    0 -0.73894675355E+00 -0.84373072199E+01 -0.22864704976E+02  0.24382963916E+02  0.51100000000E-03 0. -1.
        -11    1    3    3    0    0  0.56557530390E+01 -0.74558390472E+01 -0.15918670271E+02  0.18465674691E+02  0.51100000000E-03 0.  1.
         12    1    3    3    0    0 -0.32866655757E+01  0.26843451162E+01 -0.25263345477E+01  0.49386481507E+01  0.00000000000E+00 0. -1.
</event>
<event>
 7    1  0.4519840E-010  0.4778727E+02  0.7816164E-02  0.1312668E+00
        -11   -1    0    0    0    0  0.00000000000E+00  0.00000000000E+00  0.45593999997E+02  0.45594000000E+02  0.51100000000E-03 0. -1.
         11   -1    0    0    0    0 -0.00000000000E+00 -0.00000000000E+00 -0.45593999997E+02  0.45594000000E+02  0.51100000000E-03 0.  1.
    9900012    2    1    2    0    0  0.10736652679E+02  0.12776476507E+02  0.40063816352E+02  0.47787269092E+02  0.19999991098E+02 0.  0.
        -12    1    1    2    0    0 -0.10736652679E+02 -0.12776476507E+02 -0.40063816352E+02  0.43400730908E+02  0.00000000000E+00 0.  1.
         11    1    3    3    0    0  0.77655068354E+01  0.13966057816E+02  0.28642578193E+02  0.32798645599E+02  0.51100000000E-03 0. -1.
        -11    1    3    3    0    0  0.42767920662E+01  0.17849214405E+01  0.20447314817E+01  0.50653550734E+01  0.51100000000E-03 0.  1.
        -12    1    3    3    0    0 -0.13056462225E+01 -0.29745027492E+01  0.93765066767E+01  0.99232684193E+01  0.00000000000E+00 0.  1.
</event>
<event>
 7    1  0.4519840E-010  0.4778727E+02  0.7816164E-02  0.1312668E+00
        -11   -1    0    0    0    0  0.00000000000E+00  0.00000000000E+00  0.45593999997E+02  0.45594000000E+02  0.51100000000E-03 0.  1.
         11   -1    0    0    0    0 -0.00000000000E+00 -0.00000000000E+00 -0.45593999997E+02  0.45594000000E+02  0.51100000000E-03 0. -1.
    9900012    2    1    2    0    0 -0.27411676157E+02  0.32964651762E+02 -0.67494806194E+01  0.47787265626E+02  0.19999975297E+02 0.  0.
        -12    1    1    2    0    0  0.27411676157E+02 -0.32964651762E+02  0.67494806194E+01  0.43400734374E+02  0.00000000000E+00 0.  1.
         11    1    3    3    0    0  0.48444649372E+00 -0.19015468190E+00 -0.20155808914E+01  0.20816853267E+01  0.51100000000E-03 0.  1.
        -11    1    3    3    0    0 -0.56835514095E+01  0.37923518036E+00  0.70777198764E+00  0.57399928044E+01  0.51100000000E-03 0. -1.
         12    1    3    3    0    0 -0.22212571242E+02  0.32775571263E+02 -0.54416717157E+01  0.39965587495E+02  0.00000000000E+00 0. -1.
</event>
<event>
 7    1  0.4519840E-010  0.4778727E+02  0.7816164E-02  0.1312668E+00
        -11   -1    0    0    0    0  0.00000000000E+00  0.00000000000E+00  0.45593999997E+02  0.45594000000E+02  0.51100000000E-03 0. -1.
         11   -1    0    0    0    0 -0.00000000000E+00 -0.00000000000E+00 -0.45593999997E+02  0.45594000000E+02  0.51100000000E-03 0.  1.
    9900012    2    1    2    0    0  0.39511280613E+01  0.10780095600E+02  0.41854529862E+02  0.47787267931E+02  0.19999985807E+02 0.  0.
        -12    1    1    2    0    0 -0.39511280613E+01 -0.10780095600E+02 -0.41854529862E+02  0.43400732069E+02  0.00000000000E+00 0.  1.
         11    1    3    3    0    0  0.18023358618E+01  0.10204947638E+02  0.13169772014E+02  0.16758050782E+02  0.51100000000E-03 0.  1.
        -11    1    3    3    0    0 -0.25872082114E+01  0.43090044496E+01  0.77010860853E+01  0.91960802971E+01  0.51100000000E-03 0. -1.
         12    1    3    3    0    0  0.47360004108E+01 -0.37338564875E+01  0.20983671763E+02  0.21833136853E+02  0.00000000000E+00 0. -1.
</event>
<event>
 7    1  0.4519840E-010  0.4778727E+02  0.7816164E-02  0.1312668E+00
        -11   -1    0    0    0    0  0.00000000000E+00  0.00000000000E+00  0.45593999997E+02  0.45594000000E+02  0.51100000000E-03 0. -1.
         11   -1    0    0    0    0 -0.00000000000E+00 -0.00000000000E+00 -0.45593999997E+02  0.45594000000E+02  0.51100000000E-03 0.  1.
    9900012    2    1    2    0    0  0.30797139322E+02 -0.26269261569E+02 -0.15655205367E+02  0.47787270181E+02  0.19999996061E+02 0.  0.
         12    1    1    2    0    0 -0.30797139322E+02  0.26269261569E+02  0.15655205367E+02  0.43400729819E+02  0.00000000000E+00 0. -1.
         11    1    3    3    0    0  0.11188966756E+02 -0.78625576878E+01 -0.13136748261E+02  0.18962777898E+02  0.51100000000E-03 0. -1.
        -11    1    3    3    0    0  0.47437541082E+01 -0.56043913404E+01 -0.52378868238E+01  0.90193050716E+01  0.51100000000E-03 0.  1.
        -12    1    3    3    0    0  0.14864418458E+02 -0.12802312541E+02  0.27194297185E+01  0.19805187211E+02  0.00000000000E+00 0.  1.
</event>
<event>
 7    1  0.4519840E-010  0.4778727E+02  0.7816164E-02  0.1312668E+00
        -11   -1    0    0    0    0  0.00000000000E+00  0.00000000000E+00  0.45593999997E+02  0.45594000000E+02  0.51100000000E-03 0. -1.
         11   -1    0    0    0    0 -0.00000000000E+00 -0.00000000000E+00 -0.45593999997E+02  0.45594000000E+02  0.51100000000E-03 0.  1.
    9900012    2    1    2    0    0  0.10324275172E+02  0.24280765745E+02  0.34459785074E+02  0.47787273850E+02  0.20000012792E+02 0.  0.
        -12    1    1    2    0    0 -0.10324275172E+02 -0.24280765745E+02 -0.34459785074E+02  0.43400726150E+02  0.00000000000E+00 0.  1.
         11    1    3    3    0    0  0.60319301041E+01  0.13386799611E+02  0.61165304261E+01  0.15906053229E+02  0.51100000000E-03 0.  1.
        -11    1    3    3    0    0 -0.22970180671E+01  0.43780296134E+01  0.66075189536E+01  0.82524385656E+01  0.51100000000E-03 0. -1.
         12    1    3    3    0    0  0.65893631347E+01  0.65159365211E+01  0.21735735694E+02  0.23628782056E+02  0.00000000000E+00 0. -1.
</event>
<event>
 7    1  0.4519840E-010  0.4778727E+02  0.7816164E-02  0.1312668E+00
        -11   -1    0    0    0    0  0.00000000000E+00  0.00000000000E+00  0.45593999997E+02  0.45594000000E+02  0.51100000000E-03 0. -1.
         11   -1    0    0    0    0 -0.00000000000E+00 -0.00000000000E+00 -0.45593999997E+02  0.45594000000E+02  0.51100000000E-03 0.  1.
    9900012    2    1    2    0    0  0.13901849792E+02 -0.21933673986E+02 -0.34774649130E+02  0.47787266086E+02  0.19999977392E+02 0.  0.
         12    1    1    2    0    0 -0.13901849792E+02  0.21933673986E+02  0.34774649130E+02  0.43400733914E+02  0.00000000000E+00 0. -1.
         11    1    3    3    0    0  0.38828097592E+01 -0.23006624542E+01  0.21658656527E+00  0.45184255394E+01  0.51100000000E-03 0. -1.
        -11    1    3    3    0    0  0.46856067644E+01 -0.81180049172E-01 -0.10368883430E+02  0.11378718944E+02  0.51100000000E-03 0.  1.
         12    1    3    3    0    0  0.53334332685E+01 -0.19551831483E+02 -0.24622352265E+02  0.31890121603E+02  0.00000000000E+00 0. -1.
</event>
<event>
 7    1  0.4519840E-010  0.4778727E+02  0.7816164E-02  0.1312668E+00
        -11   -1    0    0    0    0  0.00000000000E+00  0.00000000000E+00  0.45593999997E+02  0.45594000000E+02  0.51100000000E-03 0. -1.
         11   -1    0    0    0    0 -0.00000000000E+00 -0.00000000000E+00 -0.45593999997E+02  0.45594000000E+02  0.51100000000E-03 0.  1.
    9900012    2    1    2    0    0 -0.38775498244E+02  0.11076782197E+02 -0.16043360165E+02  0.47787265291E+02  0.19999973769E+02 0.  0.
         12    1    1    2    0    0  0.38775498244E+02 -0.11076782197E+02  0.16043360165E+02  0.43400734709E+02  0.00000000000E+00 0. -1.
         11    1    3    3    0    0 -0.32932639705E+01  0.15481693342E+01 -0.46737478338E+01  0.59233719233E+01  0.51100000000E-03 0. -1.
        -11    1    3    3    0    0 -0.26183316399E+02 -0.49334151437E+00 -0.45296272476E+01  0.26576812577E+02  0.51100000000E-03 0.  1.
         12    1    3    3    0    0 -0.92989178743E+01  0.10021954377E+02 -0.68399850832E+01  0.15287080791E+02  0.00000000000E+00 0. -1.
</event>
<event>
 7    1  0.4519840E-010  0.4778727E+02  0.7816164E-02  0.1312668E+00
        -11   -1    0    0    0    0  0.00000000000E+00  0.00000000000E+00  0.45593999997E+02  0.45594000000E+02  0.51100000000E-03 0. -1.
         11   -1    0    0    0    0 -0.00000000000E+00 -0.00000000000E+00 -0.45593999997E+02  0.45594000000E+02  0.51100000000E-03 0.  1.
    9900012    2    1    2    0    0  0.17851151206E+02 -0.10377794309E+02  0.38174085522E+02  0.47787273975E+02  0.20000013360E+02 0.  0.
        -12    1    1    2    0    0 -0.17851151206E+02  0.10377794309E+02 -0.38174085522E+02  0.43400726025E+02  0.00000000000E+00 0.  1.
         11    1    3    3    0    0  0.13968523081E+02 -0.39236136727E+01  0.14857628615E+02  0.20766884929E+02  0.51100000000E-03 0. -1.
        -11    1    3    3    0    0  0.29922984740E+01 -0.33903213733E+01  0.12047782497E+01  0.46797029889E+01  0.51100000000E-03 0.  1.
         12    1    3    3    0    0  0.89032965103E+00 -0.30638592628E+01  0.22111678657E+02  0.22340686057E+02  0.00000000000E+00 0. -1.
</event>
<event>
 7    1  0.4519840E-010  0.4778727E+02  0.7816164E-02  0.1312668E+00
        -11   -1    0    0    0    0  0.00000000000E+00  0.00000000000E+00  0.45593999997E+02  0.45594000000E+02  0.51100000000E-03 0. -1.
         11   -1    0    0    0    0 -0.00000000000E+00 -0.00000000000E+00 -0.45593999997E+02  0.45594000000E+02  0.51100000000E-03 0.  1.
    9900012    2    1    2    0    0 -0.58018676266E+01 -0.16465599750E+01  0.42979651414E+02  0.47787271165E+02  0.20000000552E+02 0.  0.
        -12    1    1    2    0    0  0.58018676266E+01  0.16465599750E+01 -0.42979651414E+02  0.43400728835E+02  0.00000000000E+00 0.  1.
         11    1    3    3    0    0  0.10649439581E+01  0.28410921472E+01  0.39056067875E+01  0.49456723367E+01  0.51100000000E-03 0. -1.
        -11    1    3    3    0    0 -0.73927112309E+01 -0.10634064768E+01  0.59830208154E+01  0.95697205297E+01  0.51100000000E-03 0.  1.
        -12    1    3    3    0    0  0.52589964617E+00 -0.34242456454E+01  0.33091023811E+02  0.33271878299E+02  0.00000000000E+00 0.  1.
</event>
<event>
 7    1  0.4519840E-010  0.4778727E+02  0.7816164E-02  0.1312668E+00
        -11   -1    0    0    0    0  0.00000000000E+00  0.00000000000E+00  0.45593999997E+02  0.45594000000E+02  0.51100000000E-03 0. -1.
         11   -1    0    0    0    0 -0.00000000000E+00 -0.00000000000E+00 -0.45593999997E+02  0.45594000000E+02  0.51100000000E-03 0.  1.
    9900012    2    1    2    0    0  0.20190994039E+02 -0.16321434579E+02  0.34778693839E+02  0.47787274060E+02  0.20000013749E+02 0.  0.
        -12    1    1    2    0    0 -0.20190994039E+02  0.16321434579E+02 -0.34778693839E+02  0.43400725940E+02  0.00000000000E+00 0.  1.
         11    1    3    3    0    0  0.93132075867E+01 -0.12540807576E+02  0.21684930168E+02  0.26725341660E+02  0.51100000000E-03 0. -1.
        -11    1    3    3    0    0 -0.12399822392E+01 -0.14444841853E+01  0.70842982092E+01  0.73356234836E+01  0.51100000000E-03 0.  1.
         12    1    3    3    0    0  0.12117768692E+02 -0.23361428174E+01  0.60094654618E+01  0.13726308916E+02  0.00000000000E+00 0. -1.
</event>
<event>
 7    1  0.4519840E-010  0.4778727E+02  0.7816164E-02  0.1312668E+00
        -11   -1    0    0    0    0  0.00000000000E+00  0.00000000000E+00  0.45593999997E+02  0.45594000000E+02  0.51100000000E-03 0. -1.
         11   -1    0    0    0    0 -0.00000000000E+00 -0.00000000000E+00 -0.45593999997E+02  0.45594000000E+02  0.51100000000E-03 0.  1.
    9900012    2    1    2    0    0 -0.26857094324E+02  0.13676676726E+02 -0.31229287962E+02  0.47787269265E+02  0.19999991885E+02 0.  0.
         12    1    1    2    0    0  0.26857094324E+02 -0.13676676726E+02  0.31229287962E+02  0.43400730735E+02  0.00000000000E+00 0. -1.
         11    1    3    3    0    0 -0.13903946183E+01  0.54877910964E+01 -0.67796376271E+01  0.88324704884E+01  0.51100000000E-03 0. -1.
        -11    1    3    3    0    0 -0.14584405466E+02  0.81881169703E+01 -0.22278151421E+02  0.27857964271E+02  0.51100000000E-03 0.  1.
         12    1    3    3    0    0 -0.10882294239E+02  0.76865901341E-03 -0.21714989137E+01  0.11096834505E+02  0.00000000000E+00 0. -1.
</event>
<event>
 7    1  0.4519840E-010  0.4778729E+02  0.7816164E-02  0.1312668E+00
        -11   -1    0    0    0    0  0.00000000000E+00  0.00000000000E+00  0.45593999997E+02  0.45594000000E+02  0.51100000000E-03 0. -1.
         11   -1    0    0    0    0 -0.00000000000E+00 -0.00000000000E+00 -0.45593999997E+02  0.45594000000E+02  0.51100000000E-03 0.  1.
    9900012    2    1    2    0    0  0.25566778524E+02  0.18291321963E+02  0.29923049585E+02  0.47787291253E+02  0.20000092140E+02 0.  0.
        -12    1    1    2    0    0 -0.25566778524E+02 -0.18291321963E+02 -0.29923049585E+02  0.43400708747E+02  0.00000000000E+00 0.  1.
         11    1    3    3    0    0  0.24204910579E+01 -0.21912364323E+00  0.47431480309E+01  0.53295633627E+01  0.51100000000E-03 0. -1.
        -11    1    3    3    0    0 -0.24682617662E+01  0.22915659826E+00  0.66440233167E+00  0.25663709031E+01  0.51100000000E-03 0.  1.
         12    1    3    3    0    0  0.25614549232E+02  0.18281289008E+02  0.24515499223E+02  0.39891356987E+02  0.00000000000E+00 0. -1.
</event>
<event>
 7    1  0.4519840E-010  0.4778728E+02  0.7816164E-02  0.1312668E+00
        -11   -1    0    0    0    0  0.00000000000E+00  0.00000000000E+00  0.45593999997E+02  0.45594000000E+02  0.51100000000E-03 0. -1.
         11   -1    0    0    0    0 -0.00000000000E+00 -0.00000000000E+00 -0.45593999997E+02  0.45594000000E+02  0.51100000000E-03 0.  1.
    9900012    2    1    2    0    0 -0.12632878604E+02  0.22455162304E+01  0.41460710051E+02  0.47787280618E+02  0.20000043651E+02 0.  0.
        -12    1    1    2    0    0  0.12632878604E+02 -0.22455162304E+01 -0.41460710051E+02  0.43400719382E+02  0.00000000000E+00 0.  1.
         11    1    3    3    0    0  0.25197334988E+01  0.21735953637E+01  0.78362594034E+01  0.85135501061E+01  0.51100000000E-03 0.  1.
        -11    1    3    3    0    0 -0.10378637151E+02  0.59985402753E+01  0.25291962518E+02  0.27988961446E+02  0.51100000000E-03 0. -1.
         12    1    3    3    0    0 -0.47739749518E+01 -0.59266194086E+01  0.83324881287E+01  0.11284769066E+02  0.00000000000E+00 0. -1.
</event>
<event>
 7    1  0.4519840E-010  0.4778727E+02  0.7816164E-02  0.1312668E+00
        -11   -1    0    0    0    0  0.00000000000E+00  0.00000000000E+00  0.45593999997E+02  0.45594000000E+02  0.51100000000E-03 0. -1.
         11   -1    0    0    0    0 -0.00000000000E+00 -0.00000000000E+00 -0.45593999997E+02  0.45594000000E+02  0.51100000000E-03 0.  1.
    9900012    2    1    2    0    0  0.49970819551E+01  0.54426881690E+01 -0.42767159803E+02  0.47787266824E+02  0.19999980757E+02 0.  0.
         12    1    1    2    0    0 -0.49970819551E+01 -0.54426881690E+01  0.42767159803E+02  0.43400733176E+02  0.00000000000E+00 0. -1.
         11    1    3    3    0    0 -0.26188493028E+01 -0.26992349944E+01 -0.67538165513E+01  0.77303479543E+01  0.51100000000E-03 0. -1.
        -11    1    3    3    0    0  0.89742696667E+00  0.63507945245E+01 -0.46245845747E+01  0.79072592598E+01  0.51100000000E-03 0.  1.
         12    1    3    3    0    0  0.67185042912E+01  0.17911286389E+01 -0.31388758677E+02  0.32149659610E+02  0.00000000000E+00 0. -1.
</event>
<event>
 7    1  0.4519840E-010  0.4778727E+02  0.7816164E-02  0.1312668E+00
        -11   -1    0    0    0    0  0.00000000000E+00  0.00000000000E+00  0.45593999997E+02  0.45594000000E+02  0.51100000000E-03 0. -1.
         11   -1    0    0    0    0 -0.00000000000E+00 -0.00000000000E+00 -0.45593999997E+02  0.45594000000E+02  0.51100000000E-03 0.  1.
    9900012    2    1    2    0    0  0.21246262416E+02  0.33677015754E+02  0.17264942383E+02  0.47787270833E+02  0.19999999034E+02 0.  0.
        -12    1    1    2    0    0 -0.21246262416E+02 -0.33677015754E+02 -0.17264942383E+02  0.43400729167E+02  0.00000000000E+00 0.  1.
         11    1    3    3    0    0 -0.10523220898E+01  0.38593873149E+00  0.30260623990E+01  0.32269775935E+01  0.51100000000E-03 0. -1.
        -11    1    3    3    0    0  0.85728378277E+01  0.43986973503E+01  0.22477408222E+00  0.96380812639E+01  0.51100000000E-03 0.  1.
         12    1    3    3    0    0  0.13725746678E+02  0.28892379672E+02  0.14014105902E+02  0.34922211975E+02  0.00000000000E+00 0. -1.
</event>
<event>
 7    1  0.4519840E-010  0.4778727E+02  0.7816164E-02  0.1312668E+00
        -11   -1    0    0    0    0  0.00000000000E+00  0.00000000000E+00  0.45593999997E+02  0.45594000000E+02  0.51100000000E-03 0. -1.
         11   -1    0    0    0    0 -0.00000000000E+00 -0.00000000000E+00 -0.45593999997E+02  0.45594000000E+02  0.51100000000E-03 0.  1.
    9900012    2    1    2    0    0 -0.38045893194E+02  0.41951887202E+01 -0.20458091490E+02  0.47787272993E+02  0.20000008886E+02 0.  0.
         12    1    1    2    0    0  0.38045893194E+02 -0.41951887202E+01  0.20458091490E+02  0.43400727007E+02  0.00000000000E+00 0. -1.
         11    1    3    3    0    0 -0.56563135044E+01  0.48742550013E+01  0.18137104625E+01  0.76838655754E+01  0.51100000000E-03 0.  1.
        -11    1    3    3    0    0 -0.10739230299E+02  0.34865972723E+01 -0.80530422693E+01  0.13868630719E+02  0.51100000000E-03 0. -1.
         12    1    3    3    0    0 -0.21650349390E+02 -0.41656635534E+01 -0.14218759683E+02  0.26234776699E+02  0.00000000000E+00 0. -1.
</event>
<event>
 7    1  0.4519840E-010  0.4778728E+02  0.7816164E-02  0.1312668E+00
        -11   -1    0    0    0    0  0.00000000000E+00  0.00000000000E+00  0.45593999997E+02  0.45594000000E+02  0.51100000000E-03 0. -1.
         11   -1    0    0    0    0 -0.00000000000E+00 -0.00000000000E+00 -0.45593999997E+02  0.45594000000E+02  0.51100000000E-03 0.  1.
    9900012    2    1    2    0    0 -0.28260053740E+02  0.23894682392E+02 -0.22672368641E+02  0.47787276690E+02  0.20000025740E+02 0.  0.
         12    1    1    2    0    0  0.28260053740E+02 -0.23894682392E+02  0.22672368641E+02  0.43400723310E+02  0.00000000000E+00 0. -1.
         11    1    3    3    0    0 -0.16599342735E+02  0.69393877541E+01 -0.10876240304E+02  0.21023460349E+02  0.51100000000E-03 0. -1.
        -11    1    3    3    0    0 -0.11578768155E+02  0.90041230763E+01 -0.11779514404E+02  0.18812205193E+02  0.51100000000E-03 0.  1.
         12    1    3    3    0    0 -0.81942850317E-01  0.79511715615E+01 -0.16613933853E-01  0.79516111483E+01  0.00000000000E+00 0. -1.
</event>
<event>
 7    1  0.4519840E-010  0.4778724E+02  0.7816164E-02  0.1312668E+00
        -11   -1    0    0    0    0  0.00000000000E+00  0.00000000000E+00  0.45593999997E+02  0.45594000000E+02  0.51100000000E-03 0. -1.
         11   -1    0    0    0    0 -0.00000000000E+00 -0.00000000000E+00 -0.45593999997E+02  0.45594000000E+02  0.51100000000E-03 0.  1.
    9900012    2    1    2    0    0  0.87008134731E+01  0.33239100122E+02 -0.26515726739E+02  0.47787243134E+02  0.19999872747E+02 0.  0.
         12    1    1    2    0    0 -0.87008134731E+01 -0.33239100122E+02  0.26515726739E+02  0.43400756866E+02  0.00000000000E+00 0. -1.
         11    1    3    3    0    0 -0.14422307122E+01  0.93868102702E+01 -0.46737395113E+01  0.10584709621E+02  0.51100000000E-03 0. -1.
        -11    1    3    3    0    0  0.23340531453E+01 -0.19732418839E+01 -0.14503153196E+01  0.33830315406E+01  0.51100000000E-03 0.  1.
         12    1    3    3    0    0  0.78089910400E+01  0.25825531736E+02 -0.20391671908E+02  0.33819501973E+02  0.00000000000E+00 0. -1.
</event>
<event>
 7    1  0.4519840E-010  0.4778727E+02  0.7816164E-02  0.1312668E+00
        -11   -1    0    0    0    0  0.00000000000E+00  0.00000000000E+00  0.45593999997E+02  0.45594000000E+02  0.51100000000E-03 0. -1.
         11   -1    0    0    0    0 -0.00000000000E+00 -0.00000000000E+00 -0.45593999997E+02  0.45594000000E+02  0.51100000000E-03 0.  1.
    9900012    2    1    2    0    0 -0.14976559946E+02 -0.63827680239E+01  0.40231660028E+02  0.47787267932E+02  0.19999985808E+02 0.  0.
        -12    1    1    2    0    0  0.14976559946E+02  0.63827680239E+01 -0.40231660028E+02  0.43400732068E+02  0.00000000000E+00 0.  1.
         11    1    3    3    0    0 -0.18414378167E+02 -0.74620645159E+01  0.34110226736E+02  0.39475046527E+02  0.51100000000E-03 0. -1.
        -11    1    3    3    0    0  0.13571503049E+00 -0.12734976822E+01  0.48611334311E+00  0.13698618030E+01  0.51100000000E-03 0.  1.
         12    1    3    3    0    0  0.33021031905E+01  0.23527941741E+01  0.56353199492E+01  0.69423596015E+01  0.00000000000E+00 0. -1.
</event>
<event>
 7    1  0.4519840E-010  0.4778728E+02  0.7816164E-02  0.1312668E+00
        -11   -1    0    0    0    0  0.00000000000E+00  0.00000000000E+00  0.45593999997E+02  0.45594000000E+02  0.51100000000E-03 0. -1.
         11   -1    0    0    0    0 -0.00000000000E+00 -0.00000000000E+00 -0.45593999997E+02  0.45594000000E+02  0.51100000000E-03 0.  1.
    9900012    2    1    2    0    0 -0.18758062221E+02 -0.16241696043E+02  0.35608498572E+02  0.47787276974E+02  0.20000027034E+02 0.  0.
        -12    1    1    2    0    0  0.18758062221E+02  0.16241696043E+02 -0.35608498572E+02  0.43400723026E+02  0.00000000000E+00 0.  1.
         11    1    3    3    0    0 -0.12230414260E+02 -0.63452683442E+01  0.23438039200E+02  0.27187996343E+02  0.51100000000E-03 0. -1.
        -11    1    3    3    0    0 -0.31620337026E+00  0.25308994537E+01  0.30681936030E+01  0.39898933398E+01  0.51100000000E-03 0.  1.
        -12    1    3    3    0    0 -0.62114445906E+01 -0.12427327152E+02  0.91022657687E+01  0.16609387291E+02  0.00000000000E+00 0.  1.
</event>
<event>
 7    1  0.4519840E-010  0.4778727E+02  0.7816164E-02  0.1312668E+00
        -11   -1    0    0    0    0  0.00000000000E+00  0.00000000000E+00  0.45593999997E+02  0.45594000000E+02  0.51100000000E-03 0. -1.
         11   -1    0    0    0    0 -0.00000000000E+00 -0.00000000000E+00 -0.45593999997E+02  0.45594000000E+02  0.51100000000E-03 0.  1.
    9900012    2    1    2    0    0  0.49828982245E+01  0.21589865913E+02 -0.37318516789E+02  0.47787270972E+02  0.19999999668E+02 0.  0.
         12    1    1    2    0    0 -0.49828982245E+01 -0.21589865913E+02  0.37318516789E+02  0.43400729028E+02  0.00000000000E+00 0. -1.
         11    1    3    3    0    0  0.16258551807E+01  0.71312527677E+00 -0.52832855120E+01  0.55736037526E+01  0.51100000000E-03 0. -1.
        -11    1    3    3    0    0 -0.62399079166E+01  0.14695862511E+02 -0.16799611167E+02  0.23176103240E+02  0.51100000000E-03 0.  1.
         12    1    3    3    0    0  0.95969509604E+01  0.61808781260E+01 -0.15235620110E+02  0.19037563979E+02  0.00000000000E+00 0. -1.
</event>
<event>
 7    1  0.4519840E-010  0.4778727E+02  0.7816164E-02  0.1312668E+00
        -11   -1    0    0    0    0  0.00000000000E+00  0.00000000000E+00  0.45593999997E+02  0.45594000000E+02  0.51100000000E-03 0. -1.
         11   -1    0    0    0    0 -0.00000000000E+00 -0.00000000000E+00 -0.45593999997E+02  0.45594000000E+02  0.51100000000E-03 0.  1.
    9900012    2    1    2    0    0  0.23314497071E+02 -0.30296612078E+02 -0.20546841937E+02  0.47787272003E+02  0.20000004369E+02 0.  0.
         12    1    1    2    0    0 -0.23314497071E+02  0.30296612078E+02  0.20546841937E+02  0.43400727997E+02  0.00000000000E+00 0. -1.
         11    1    3    3    0    0  0.85618709021E+01 -0.91588766002E+01 -0.98645055482E+01  0.15953028675E+02  0.51100000000E-03 0. -1.
        -11    1    3    3    0    0  0.17486260290E+02 -0.14409538735E+02 -0.89944076240E+01  0.24378340269E+02  0.51100000000E-03 0.  1.
         12    1    3    3    0    0 -0.27336341206E+01 -0.67281967426E+01 -0.16879287652E+01  0.74559030593E+01  0.00000000000E+00 0. -1.
</event>
<event>
 7    1  0.4519840E-010  0.4778727E+02  0.7816164E-02  0.1312668E+00
        -11   -1    0    0    0    0  0.00000000000E+00  0.00000000000E+00  0.45593999997E+02  0.45594000000E+02  0.51100000000E-03 0. -1.
         11   -1    0    0    0    0 -0.00000000000E+00 -0.00000000000E+00 -0.45593999997E+02  0.45594000000E+02  0.51100000000E-03 0.  1.
    9900012    2    1    2    0    0  0.24545369063E+02 -0.22554082844E+02 -0.27793198491E+02  0.47787266392E+02  0.19999978788E+02 0.  0.
         12    1    1    2    0    0 -0.24545369063E+02  0.22554082844E+02  0.27793198491E+02  0.43400733608E+02  0.00000000000E+00 0. -1.
         11    1    3    3    0    0  0.11182414907E+02 -0.58388639531E+01 -0.55669166728E+01  0.13788738046E+02  0.51100000000E-03 0. -1.
        -11    1    3    3    0    0  0.16057672794E+02 -0.15573455931E+02 -0.17340454606E+02  0.28303228639E+02  0.51100000000E-03 0.  1.
        -12    1    3    3    0    0 -0.26947186384E+01 -0.11417629598E+01 -0.48858272121E+01  0.56952997061E+01  0.00000000000E+00 0.  1.
</event>
<event>
 7    1  0.4519840E-010  0.4778727E+02  0.7816164E-02  0.1312668E+00
        -11   -1    0    0    0    0  0.00000000000E+00  0.00000000000E+00  0.45593999997E+02  0.45594000000E+02  0.51100000000E-03 0. -1.
         11   -1    0    0    0    0 -0.00000000000E+00 -0.00000000000E+00 -0.45593999997E+02  0.45594000000E+02  0.51100000000E-03 0.  1.
    9900012    2    1    2    0    0  0.21033851903E+02 -0.33021411330E+01  0.37819253929E+02  0.47787273858E+02  0.20000012827E+02 0.  0.
        -12    1    1    2    0    0 -0.21033851903E+02  0.33021411330E+01 -0.37819253929E+02  0.43400726142E+02  0.00000000000E+00 0.  1.
         11    1    3    3    0    0  0.42363289795E+01  0.24520303203E+01  0.25416217388E+01  0.55153220431E+01  0.51100000000E-03 0. -1.
        -11    1    3    3    0    0  0.16870679897E+02 -0.17750635486E+01  0.18807046988E+02  0.25327370718E+02  0.51100000000E-03 0.  1.
         12    1    3    3    0    0 -0.73156973906E-01 -0.39791079047E+01  0.16470585202E+02  0.16944581097E+02  0.00000000000E+00 0. -1.
</event>
<event>
 7    1  0.4519840E-010  0.4778727E+02  0.7816164E-02  0.1312668E+00
        -11   -1    0    0    0    0  0.00000000000E+00  0.00000000000E+00  0.45593999997E+02  0.45594000000E+02  0.51100000000E-03 0. -1.
         11   -1    0    0    0    0 -0.00000000000E+00 -0.00000000000E+00 -0.45593999997E+02  0.45594000000E+02  0.51100000000E-03 0.  1.
    9900012    2    1    2    0    0  0.14449606582E+02  0.27946148423E+02  0.29897236246E+02  0.47787273310E+02  0.20000010328E+02 0.  0.
        -12    1    1    2    0    0 -0.14449606582E+02 -0.27946148423E+02 -0.29897236246E+02  0.43400726690E+02  0.00000000000E+00 0.  1.
         11    1    3    3    0    0  0.45184911647E+01  0.12428248385E+01  0.72847799795E+00  0.47425790916E+01  0.51100000000E-03 0.  1.
        -11    1    3    3    0    0  0.11063120320E+02  0.21632073104E+02  0.16549948833E+02  0.29397959532E+02  0.51100000000E-03 0. -1.
        -12    1    3    3    0    0 -0.11320049025E+01  0.50712504809E+01  0.12618809415E+02  0.13646734686E+02  0.00000000000E+00 0.  1.
</event>
<event>
 7    1  0.4519840E-010  0.4778727E+02  0.7816164E-02  0.1312668E+00
        -11   -1    0    0    0    0  0.00000000000E+00  0.00000000000E+00  0.45593999997E+02  0.45594000000E+02  0.51100000000E-03 0. -1.
         11   -1    0    0    0    0 -0.00000000000E+00 -0.00000000000E+00 -0.45593999997E+02  0.45594000000E+02  0.51100000000E-03 0.  1.
    9900012    2    1    2    0    0 -0.17969508051E+02  0.31936599650E+02  0.23254535511E+02  0.47787273754E+02  0.20000012356E+02 0.  0.
        -12    1    1    2    0    0  0.17969508051E+02 -0.31936599650E+02 -0.23254535511E+02  0.43400726246E+02  0.00000000000E+00 0.  1.
         11    1    3    3    0    0 -0.15395288788E+02  0.28303198218E+02  0.13553929246E+02  0.34954183505E+02  0.51100000000E-03 0. -1.
        -11    1    3    3    0    0 -0.40667305526E+00  0.27603596135E+01 -0.65890193650E-01  0.27909335264E+01  0.51100000000E-03 0.  1.
        -12    1    3    3    0    0 -0.21675462077E+01  0.87304181884E+00  0.97664964586E+01  0.10042156723E+02  0.00000000000E+00 0.  1.
</event>
<event>
 7    1  0.4519840E-010  0.4778725E+02  0.7816164E-02  0.1312668E+00
        -11   -1    0    0    0    0  0.00000000000E+00  0.00000000000E+00  0.45593999997E+02  0.45594000000E+02  0.51100000000E-03 0. -1.
         11   -1    0    0    0    0 -0.00000000000E+00 -0.00000000000E+00 -0.45593999997E+02  0.45594000000E+02  0.51100000000E-03 0.  1.
    9900012    2    1    2    0    0  0.14156327225E+02  0.13454749191E+02  0.38758140349E+02  0.47787247477E+02  0.19999892545E+02 0.  0.
        -12    1    1    2    0    0 -0.14156327225E+02 -0.13454749191E+02 -0.38758140349E+02  0.43400752523E+02  0.00000000000E+00 0.  1.
         11    1    3    3    0    0 -0.42457773908E+01  0.48476472538E+01  0.10864831766E+02  0.12632136760E+02  0.51100000000E-03 0.  1.
        -11    1    3    3    0    0  0.29160862811E+01  0.33320377369E+01  0.98491875752E+01  0.10798728204E+02  0.51100000000E-03 0. -1.
         12    1    3    3    0    0  0.15486018334E+02  0.52750641999E+01  0.18044121008E+02  0.24356382513E+02  0.00000000000E+00 0. -1.
</event>
<event>
 7    1  0.4519840E-010  0.4778727E+02  0.7816164E-02  0.1312668E+00
        -11   -1    0    0    0    0  0.00000000000E+00  0.00000000000E+00  0.45593999997E+02  0.45594000000E+02  0.51100000000E-03 0. -1.
         11   -1    0    0    0    0 -0.00000000000E+00 -0.00000000000E+00 -0.45593999997E+02  0.45594000000E+02  0.51100000000E-03 0.  1.
    9900012    2    1    2    0    0  0.16082682214E+02  0.61026492425E+01 -0.39846306320E+02  0.47787272790E+02  0.20000007958E+02 0.  0.
         12    1    1    2    0    0 -0.16082682214E+02 -0.61026492425E+01  0.39846306320E+02  0.43400727210E+02  0.00000000000E+00 0. -1.
         11    1    3    3    0    0  0.38936281437E-01 -0.45526965159E+00 -0.33651472201E+00  0.56747591043E+00  0.51100000000E-03 0. -1.
        -11    1    3    3    0    0  0.12598842420E+02 -0.51546694091E+01 -0.22098681724E+02  0.25954829632E+02  0.51100000000E-03 0.  1.
         12    1    3    3    0    0  0.34449035132E+01  0.11712588303E+02 -0.17411109875E+02  0.21264967248E+02  0.00000000000E+00 0. -1.
</event>
<event>
 7    1  0.4519840E-010  0.4778727E+02  0.7816164E-02  0.1312668E+00
        -11   -1    0    0    0    0  0.00000000000E+00  0.00000000000E+00  0.45593999997E+02  0.45594000000E+02  0.51100000000E-03 0. -1.
         11   -1    0    0    0    0 -0.00000000000E+00 -0.00000000000E+00 -0.45593999997E+02  0.45594000000E+02  0.51100000000E-03 0.  1.
    9900012    2    1    2    0    0  0.11644591982E+02  0.25537719451E+01  0.41731346248E+02  0.47787268056E+02  0.19999986377E+02 0.  0.
        -12    1    1    2    0    0 -0.11644591982E+02 -0.25537719451E+01 -0.41731346248E+02  0.43400731944E+02  0.00000000000E+00 0.  1.
         11    1    3    3    0    0 -0.19153825966E+01 -0.11569967488E+01  0.10839630876E+01  0.24864247836E+01  0.51100000000E-03 0. -1.
        -11    1    3    3    0    0  0.14528851104E+00 -0.19703531515E+01 -0.14908930548E+00  0.19813198064E+01  0.51100000000E-03 0.  1.
         12    1    3    3    0    0  0.13414686067E+02  0.56811218454E+01  0.40796472466E+02  0.43319523466E+02  0.00000000000E+00 0. -1.
</event>
<event>
 7    1  0.4519840E-010  0.4778727E+02  0.7816164E-02  0.1312668E+00
        -11   -1    0    0    0    0  0.00000000000E+00  0.00000000000E+00  0.45593999997E+02  0.45594000000E+02  0.51100000000E-03 0.  1.
         11   -1    0    0    0    0 -0.00000000000E+00 -0.00000000000E+00 -0.45593999997E+02  0.45594000000E+02  0.51100000000E-03 0. -1.
    9900012    2    1    2    0    0 -0.26239274559E+02 -0.23255554714E+02  0.25579346424E+02  0.47787270537E+02  0.19999997685E+02 0.  0.
        -12    1    1    2    0    0  0.26239274559E+02  0.23255554714E+02 -0.25579346424E+02  0.43400729463E+02  0.00000000000E+00 0.  1.
         11    1    3    3    0    0 -0.85239453116E+01 -0.63280023885E+01 -0.32568928267E+00  0.10621079591E+02  0.51100000000E-03 0. -1.
        -11    1    3    3    0    0 -0.38497866192E+01 -0.20111748215E+01  0.16858040803E+00  0.43467344974E+01  0.51100000000E-03 0.  1.
        -12    1    3    3    0    0 -0.13865542628E+02 -0.14916377504E+02  0.25736455299E+02  0.32819456449E+02  0.00000000000E+00 0.  1.
</event>
<event>
 7    1  0.4519840E-010  0.4778727E+02  0.7816164E-02  0.1312668E+00
        -11   -1    0    0    0    0  0.00000000000E+00  0.00000000000E+00  0.45593999997E+02  0.45594000000E+02  0.51100000000E-03 0. -1.
         11   -1    0    0    0    0 -0.00000000000E+00 -0.00000000000E+00 -0.45593999997E+02  0.45594000000E+02  0.51100000000E-03 0.  1.
    9900012    2    1    2    0    0 -0.19276012587E+02 -0.29983872047E+02  0.24759362677E+02  0.47787270923E+02  0.19999999448E+02 0.  0.
        -12    1    1    2    0    0  0.19276012587E+02  0.29983872047E+02 -0.24759362677E+02  0.43400729077E+02  0.00000000000E+00 0.  1.
         11    1    3    3    0    0 -0.33885188094E+01 -0.12111842975E+02  0.92534221261E+01  0.15614244179E+02  0.51100000000E-03 0. -1.
        -11    1    3    3    0    0 -0.55990342409E+01 -0.93465534999E+01 -0.99493809489E+00  0.10940619216E+02  0.51100000000E-03 0.  1.
         12    1    3    3    0    0 -0.10288459537E+02 -0.85254755723E+01  0.16500878646E+02  0.21232407528E+02  0.00000000000E+00 0. -1.
</event>
<event>
 7    1  0.4519840E-010  0.4778727E+02  0.7816164E-02  0.1312668E+00
        -11   -1    0    0    0    0  0.00000000000E+00  0.00000000000E+00  0.45593999997E+02  0.45594000000E+02  0.51100000000E-03 0. -1.
         11   -1    0    0    0    0 -0.00000000000E+00 -0.00000000000E+00 -0.45593999997E+02  0.45594000000E+02  0.51100000000E-03 0.  1.
    9900012    2    1    2    0    0  0.26599326756E+01 -0.55755026318E-01 -0.43319104660E+02  0.47787272137E+02  0.20000004981E+02 0.  0.
         12    1    1    2    0    0 -0.26599326756E+01  0.55755026318E-01  0.43319104660E+02  0.43400727863E+02  0.00000000000E+00 0. -1.
         11    1    3    3    0    0 -0.30103744858E+01 -0.21656547426E+01 -0.41373838195E+01  0.55561101627E+01  0.51100000000E-03 0. -1.
        -11    1    3    3    0    0 -0.38199767714E+01 -0.30883034944E+01 -0.13324411755E+02  0.14201048901E+02  0.51100000000E-03 0.  1.
        -12    1    3    3    0    0  0.94902839329E+01  0.51982032107E+01 -0.25857309086E+02  0.28030113074E+02  0.00000000000E+00 0.  1.
</event>
<event>
 7    1  0.4519840E-010  0.4778727E+02  0.7816164E-02  0.1312668E+00
        -11   -1    0    0    0    0  0.00000000000E+00  0.00000000000E+00  0.45593999997E+02  0.45594000000E+02  0.51100000000E-03 0.  1.
         11   -1    0    0    0    0 -0.00000000000E+00 -0.00000000000E+00 -0.45593999997E+02  0.45594000000E+02  0.51100000000E-03 0. -1.
    9900012    2    1    2    0    0  0.46399960690E+01 -0.42040895819E+02 -0.97291764537E+01  0.47787270060E+02  0.19999995514E+02 0.  0.
         12    1    1    2    0    0 -0.46399960690E+01  0.42040895819E+02  0.97291764537E+01  0.43400729940E+02  0.00000000000E+00 0. -1.
         11    1    3    3    0    0 -0.49887511340E+01 -0.74495943219E+01 -0.23975383449E+01  0.92807480202E+01  0.51100000000E-03 0. -1.
        -11    1    3    3    0    0 -0.10202860367E+01 -0.61415814440E-01 -0.16311783841E+01  0.19249671895E+01  0.51100000000E-03 0.  1.
        -12    1    3    3    0    0  0.10649033240E+02 -0.34529885683E+02 -0.57004597247E+01  0.36581554851E+02  0.00000000000E+00 0.  1.
</event>
<event>
 7    1  0.4519840E-010  0.4778727E+02  0.7816164E-02  0.1312668E+00
        -11   -1    0    0    0    0  0.00000000000E+00  0.00000000000E+00  0.45593999997E+02  0.45594000000E+02  0.51100000000E-03 0. -1.
         11   -1    0    0    0    0 -0.00000000000E+00 -0.00000000000E+00 -0.45593999997E+02  0.45594000000E+02  0.51100000000E-03 0.  1.
    9900012    2    1    2    0    0  0.71531040413E+01 -0.64549287154E+01  0.42317726785E+02  0.47787274172E+02  0.20000014260E+02 0.  0.
        -12    1    1    2    0    0 -0.71531040413E+01  0.64549287154E+01 -0.42317726785E+02  0.43400725828E+02  0.00000000000E+00 0.  1.
         11    1    3    3    0    0  0.86013392143E+01 -0.33603554473E+00  0.14497660456E+02  0.16860549076E+02  0.51100000000E-03 0. -1.
        -11    1    3    3    0    0  0.36180417053E+01 -0.71618686310E+01  0.13542634844E+02  0.15741205381E+02  0.51100000000E-03 0.  1.
        -12    1    3    3    0    0 -0.50662768783E+01  0.10429754604E+01  0.14277431485E+02  0.15185519716E+02  0.00000000000E+00 0.  1.
</event>
<event>
 7    1  0.4519840E-010  0.4778727E+02  0.7816164E-02  0.1312668E+00
        -11   -1    0    0    0    0  0.00000000000E+00  0.00000000000E+00  0.45593999997E+02  0.45594000000E+02  0.51100000000E-03 0. -1.
         11   -1    0    0    0    0 -0.00000000000E+00 -0.00000000000E+00 -0.45593999997E+02  0.45594000000E+02  0.51100000000E-03 0.  1.
    9900012    2    1    2    0    0 -0.21692209040E+01  0.25957108049E+02  0.34715215093E+02  0.47787272626E+02  0.20000007211E+02 0.  0.
        -12    1    1    2    0    0  0.21692209040E+01 -0.25957108049E+02 -0.34715215093E+02  0.43400727374E+02  0.00000000000E+00 0.  1.
         11    1    3    3    0    0  0.18142035690E-01  0.19943665585E+01  0.12287857044E+01  0.23425929377E+01  0.51100000000E-03 0. -1.
        -11    1    3    3    0    0  0.52970188746E+01  0.17166095437E+02  0.11733360033E+02  0.21457049644E+02  0.51100000000E-03 0.  1.
        -12    1    3    3    0    0 -0.74843818143E+01  0.67966460532E+01  0.21753069356E+02  0.23987630044E+02  0.00000000000E+00 0.  1.
</event>
<event>
 7    1  0.4519840E-010  0.4778727E+02  0.7816164E-02  0.1312668E+00
        -11   -1    0    0    0    0  0.00000000000E+00  0.00000000000E+00  0.45593999997E+02  0.45594000000E+02  0.51100000000E-03 0. -1.
         11   -1    0    0    0    0 -0.00000000000E+00 -0.00000000000E+00 -0.45593999997E+02  0.45594000000E+02  0.51100000000E-03 0.  1.
    9900012    2    1    2    0    0  0.74961724090E+00  0.36520093039E+02 -0.23438090718E+02  0.47787271688E+02  0.20000002933E+02 0.  0.
         12    1    1    2    0    0 -0.74961724090E+00 -0.36520093039E+02  0.23438090718E+02  0.43400728312E+02  0.00000000000E+00 0. -1.
         11    1    3    3    0    0  0.29414455237E+01  0.30169235335E+01 -0.21314790011E+01  0.47219839442E+01  0.51100000000E-03 0. -1.
        -11    1    3    3    0    0  0.29612120449E+01  0.16959362329E+02 -0.18909336468E+02  0.25572480390E+02  0.51100000000E-03 0.  1.
         12    1    3    3    0    0 -0.51530403277E+01  0.16543807176E+02 -0.23972752490E+01  0.17492807354E+02  0.00000000000E+00 0. -1.
</event>
<event>
 7    1  0.4519840E-010  0.4778727E+02  0.7816164E-02  0.1312668E+00
        -11   -1    0    0    0    0  0.00000000000E+00  0.00000000000E+00  0.45593999997E+02  0.45594000000E+02  0.51100000000E-03 0. -1.
         11   -1    0    0    0    0 -0.00000000000E+00 -0.00000000000E+00 -0.45593999997E+02  0.45594000000E+02  0.51100000000E-03 0.  1.
    9900012    2    1    2    0    0  0.65032004022E+01 -0.36675198751E+02  0.22276925117E+02  0.47787271762E+02  0.20000003273E+02 0.  0.
        -12    1    1    2    0    0 -0.65032004022E+01  0.36675198751E+02 -0.22276925117E+02  0.43400728238E+02  0.00000000000E+00 0.  1.
         11    1    3    3    0    0 -0.11415436152E+01  0.77593828815E+00  0.17170934118E+01  0.22030914866E+01  0.51100000000E-03 0. -1.
        -11    1    3    3    0    0  0.78030657559E+01 -0.10632069109E+02  0.29929005916E+01  0.13523541804E+02  0.51100000000E-03 0.  1.
         12    1    3    3    0    0 -0.15832173845E+00 -0.26819067931E+02  0.17566931113E+02  0.32060638471E+02  0.00000000000E+00 0. -1.
</event>
<event>
 7    1  0.4519840E-010  0.4778730E+02  0.7816164E-02  0.1312668E+00
        -11   -1    0    0    0    0  0.00000000000E+00  0.00000000000E+00  0.45593999997E+02  0.45594000000E+02  0.51100000000E-03 0. -1.
         11   -1    0    0    0    0 -0.00000000000E+00 -0.00000000000E+00 -0.45593999997E+02  0.45594000000E+02  0.51100000000E-03 0.  1.
    9900012    2    1    2    0    0  0.23250855717E+01 -0.42012011955E+02  0.10639819419E+02  0.47787298062E+02  0.20000123185E+02 0.  0.
        -12    1    1    2    0    0 -0.23250855717E+01  0.42012011955E+02 -0.10639819419E+02  0.43400701938E+02  0.00000000000E+00 0.  1.
         11    1    3    3    0    0  0.33723877780E+01 -0.28303168771E+02  0.13018763200E+02  0.31335771210E+02  0.51100000000E-03 0. -1.
        -11    1    3    3    0    0  0.32595533642E+01 -0.79532160505E+01  0.71590196535E+00  0.86250130183E+01  0.51100000000E-03 0.  1.
        -12    1    3    3    0    0 -0.43068555704E+01 -0.57556271332E+01 -0.30948457465E+01  0.78265138341E+01  0.00000000000E+00 0.  1.
</event>
<event>
 7    1  0.4519840E-010  0.4778727E+02  0.7816164E-02  0.1312668E+00
        -11   -1    0    0    0    0  0.00000000000E+00  0.00000000000E+00  0.45593999997E+02  0.45594000000E+02  0.51100000000E-03 0. -1.
         11   -1    0    0    0    0 -0.00000000000E+00 -0.00000000000E+00 -0.45593999997E+02  0.45594000000E+02  0.51100000000E-03 0.  1.
    9900012    2    1    2    0    0 -0.11366007966E+02 -0.36667525349E+02  0.20246733892E+02  0.47787265149E+02  0.19999973121E+02 0.  0.
        -12    1    1    2    0    0  0.11366007966E+02  0.36667525349E+02 -0.20246733892E+02  0.43400734851E+02  0.00000000000E+00 0.  1.
         11    1    3    3    0    0 -0.12803854674E+02 -0.26616329806E+02  0.78899315700E+01  0.30571534592E+02  0.51100000000E-03 0. -1.
        -11    1    3    3    0    0 -0.10276094342E+01 -0.92917056283E-01 -0.14671467174E+00  0.10421804953E+01  0.51100000000E-03 0.  1.
        -12    1    3    3    0    0  0.24654561420E+01 -0.99582784866E+01  0.12503516994E+02  0.16173550062E+02  0.00000000000E+00 0.  1.
</event>
<event>
 7    1  0.4519840E-010  0.4778727E+02  0.7816164E-02  0.1312668E+00
        -11   -1    0    0    0    0  0.00000000000E+00  0.00000000000E+00  0.45593999997E+02  0.45594000000E+02  0.51100000000E-03 0. -1.
         11   -1    0    0    0    0 -0.00000000000E+00 -0.00000000000E+00 -0.45593999997E+02  0.45594000000E+02  0.51100000000E-03 0.  1.
    9900012    2    1    2    0    0 -0.11815295454E+02  0.26137172961E+02 -0.32571004293E+02  0.47787270309E+02  0.19999996648E+02 0.  0.
         12    1    1    2    0    0  0.11815295454E+02 -0.26137172961E+02  0.32571004293E+02  0.43400729691E+02  0.00000000000E+00 0. -1.
         11    1    3    3    0    0 -0.18658302658E+00 -0.17301481970E+01 -0.76923678818E+00  0.19026170152E+01  0.51100000000E-03 0. -1.
        -11    1    3    3    0    0 -0.88523682126E+01  0.61035143342E+01 -0.13863978552E+02  0.17545005322E+02  0.51100000000E-03 0.  1.
        -12    1    3    3    0    0 -0.27763442151E+01  0.21763806824E+02 -0.17937788952E+02  0.28339647972E+02  0.00000000000E+00 0.  1.
</event>
<event>
 7    1  0.4519840E-010  0.4778727E+02  0.7816164E-02  0.1312668E+00
        -11   -1    0    0    0    0  0.00000000000E+00  0.00000000000E+00  0.45593999997E+02  0.45594000000E+02  0.51100000000E-03 0. -1.
         11   -1    0    0    0    0 -0.00000000000E+00 -0.00000000000E+00 -0.45593999997E+02  0.45594000000E+02  0.51100000000E-03 0.  1.
    9900012    2    1    2    0    0 -0.61966914518E+01  0.26064906082E+02 -0.34144473368E+02  0.47787269873E+02  0.19999994659E+02 0.  0.
         12    1    1    2    0    0  0.61966914518E+01 -0.26064906082E+02  0.34144473368E+02  0.43400730127E+02  0.00000000000E+00 0. -1.
         11    1    3    3    0    0 -0.23265262071E+01  0.64205264232E+01 -0.43755444573E+01  0.81105655353E+01  0.51100000000E-03 0. -1.
        -11    1    3    3    0    0 -0.13602589435E+01 -0.28402691056E+01 -0.15555138303E+01  0.35124146286E+01  0.51100000000E-03 0.  1.
        -12    1    3    3    0    0 -0.25099063013E+01  0.22484648764E+02 -0.28213415080E+02  0.36164289709E+02  0.00000000000E+00 0.  1.
</event>
<event>
 7    1  0.4519840E-010  0.4778727E+02  0.7816164E-02  0.1312668E+00
        -11   -1    0    0    0    0  0.00000000000E+00  0.00000000000E+00  0.45593999997E+02  0.45594000000E+02  0.51100000000E-03 0. -1.
         11   -1    0    0    0    0 -0.00000000000E+00 -0.00000000000E+00 -0.45593999997E+02  0.45594000000E+02  0.51100000000E-03 0.  1.
    9900012    2    1    2    0    0  0.99417292049E+01  0.49160911722E+01 -0.41959709404E+02  0.47787272526E+02  0.20000006753E+02 0.  0.
         12    1    1    2    0    0 -0.99417292049E+01 -0.49160911722E+01  0.41959709404E+02  0.43400727474E+02  0.00000000000E+00 0. -1.
         11    1    3    3    0    0  0.19147603386E+01  0.25462591829E+01 -0.21484399921E+01  0.38425951701E+01  0.51100000000E-03 0. -1.
        -11    1    3    3    0    0  0.12228446228E+01  0.56332445782E+01 -0.33824166213E+02  0.34311849465E+02  0.51100000000E-03 0.  1.
        -12    1    3    3    0    0  0.68041242435E+01 -0.32634125889E+01 -0.59871031993E+01  0.96328278904E+01  0.00000000000E+00 0.  1.
</event>
<event>
 7    1  0.4519840E-010  0.4778727E+02  0.7816164E-02  0.1312668E+00
        -11   -1    0    0    0    0  0.00000000000E+00  0.00000000000E+00  0.45593999997E+02  0.45594000000E+02  0.51100000000E-03 0. -1.
         11   -1    0    0    0    0 -0.00000000000E+00 -0.00000000000E+00 -0.45593999997E+02  0.45594000000E+02  0.51100000000E-03 0.  1.
    9900012    2    1    2    0    0  0.25101381145E+02  0.29007854370E+02  0.20299955206E+02  0.47787272680E+02  0.20000007457E+02 0.  0.
        -12    1    1    2    0    0 -0.25101381145E+02 -0.29007854370E+02 -0.20299955206E+02  0.43400727320E+02  0.00000000000E+00 0.  1.
         11    1    3    3    0    0  0.39435517466E+01  0.16031268221E+02  0.99519430203E+01  0.19276782182E+02  0.51100000000E-03 0. -1.
        -11    1    3    3    0    0  0.75817421623E+01  0.95019259076E+01  0.23698109574E+01  0.12384886532E+02  0.51100000000E-03 0.  1.
        -12    1    3    3    0    0  0.13576087236E+02  0.34746602415E+01  0.79782012278E+01  0.16125603966E+02  0.00000000000E+00 0.  1.
</event>
<event>
 7    1  0.4519840E-010  0.4778729E+02  0.7816164E-02  0.1312668E+00
        -11   -1    0    0    0    0  0.00000000000E+00  0.00000000000E+00  0.45593999997E+02  0.45594000000E+02  0.51100000000E-03 0. -1.
         11   -1    0    0    0    0 -0.00000000000E+00 -0.00000000000E+00 -0.45593999997E+02  0.45594000000E+02  0.51100000000E-03 0.  1.
    9900012    2    1    2    0    0  0.19311452972E+01 -0.26366359479E+02 -0.34419582895E+02  0.47787286630E+02  0.20000071060E+02 0.  0.
         12    1    1    2    0    0 -0.19311452972E+01  0.26366359479E+02  0.34419582895E+02  0.43400713370E+02  0.00000000000E+00 0. -1.
         11    1    3    3    0    0  0.52590552941E+01 -0.97999813453E+00 -0.91467051710E+01  0.10596238704E+02  0.51100000000E-03 0. -1.
        -11    1    3    3    0    0 -0.25469654287E+00  0.32555042680E+00  0.50511656778E+00  0.65268401046E+00  0.51100000000E-03 0.  1.
        -12    1    3    3    0    0 -0.30732134540E+01 -0.25711911771E+02 -0.25777994292E+02  0.36538363915E+02  0.00000000000E+00 0.  1.
</event>
<event>
 7    1  0.4519840E-010  0.4778727E+02  0.7816164E-02  0.1312668E+00
        -11   -1    0    0    0    0  0.00000000000E+00  0.00000000000E+00  0.45593999997E+02  0.45594000000E+02  0.51100000000E-03 0. -1.
         11   -1    0    0    0    0 -0.00000000000E+00 -0.00000000000E+00 -0.45593999997E+02  0.45594000000E+02  0.51100000000E-03 0.  1.
    9900012    2    1    2    0    0  0.68695951201E+01  0.75426353353E+01 -0.42184600667E+02  0.47787271684E+02  0.20000002915E+02 0.  0.
         12    1    1    2    0    0 -0.68695951201E+01 -0.75426353353E+01  0.42184600667E+02  0.43400728316E+02  0.00000000000E+00 0. -1.
         11    1    3    3    0    0  0.78788751427E+01 -0.41256305692E+01 -0.10898432691E+02  0.14066745768E+02  0.51100000000E-03 0. -1.
        -11    1    3    3    0    0  0.17382603506E+01  0.28013104114E+01 -0.82400503077E+01  0.88750954024E+01  0.51100000000E-03 0.  1.
         12    1    3    3    0    0 -0.27475403733E+01  0.88669554932E+01 -0.23046117668E+02  0.24845430514E+02  0.00000000000E+00 0. -1.
</event>
<event>
 7    1  0.4519840E-010  0.4778727E+02  0.7816164E-02  0.1312668E+00
        -11   -1    0    0    0    0  0.00000000000E+00  0.00000000000E+00  0.45593999997E+02  0.45594000000E+02  0.51100000000E-03 0.  1.
         11   -1    0    0    0    0 -0.00000000000E+00 -0.00000000000E+00 -0.45593999997E+02  0.45594000000E+02  0.51100000000E-03 0. -1.
    9900012    2    1    2    0    0  0.77773504767E+01  0.40846467628E+02  0.12437920242E+02  0.47787274683E+02  0.20000016590E+02 0.  0.
        -12    1    1    2    0    0 -0.77773504767E+01 -0.40846467628E+02 -0.12437920242E+02  0.43400725317E+02  0.00000000000E+00 0.  1.
         11    1    3    3    0    0 -0.54612853190E+01  0.21907456716E+02  0.87804416974E+01  0.24225161584E+02  0.51100000000E-03 0. -1.
        -11    1    3    3    0    0  0.21860953040E+01  0.16261491530E+01  0.18764779737E+00  0.27310411390E+01  0.51100000000E-03 0.  1.
         12    1    3    3    0    0  0.11052540492E+02  0.17312861758E+02  0.34698307475E+01  0.20831071960E+02  0.00000000000E+00 0. -1.
</event>
<event>
 7    1  0.4519840E-010  0.4778727E+02  0.7816164E-02  0.1312668E+00
        -11   -1    0    0    0    0  0.00000000000E+00  0.00000000000E+00  0.45593999997E+02  0.45594000000E+02  0.51100000000E-03 0. -1.
         11   -1    0    0    0    0 -0.00000000000E+00 -0.00000000000E+00 -0.45593999997E+02  0.45594000000E+02  0.51100000000E-03 0.  1.
    9900012    2    1    2    0    0 -0.17823807355E+02  0.84459833179E+01 -0.38660067468E+02  0.47787267755E+02  0.19999985000E+02 0.  0.
         12    1    1    2    0    0  0.17823807355E+02 -0.84459833179E+01  0.38660067468E+02  0.43400732245E+02  0.00000000000E+00 0. -1.
         11    1    3    3    0    0 -0.66301922506E+01  0.26371499132E+01 -0.53247941615E+01  0.89032264977E+01  0.51100000000E-03 0. -1.
        -11    1    3    3    0    0 -0.10762996590E+02  0.85625506290E+00 -0.90293939730E+01  0.14074985759E+02  0.51100000000E-03 0.  1.
         12    1    3    3    0    0 -0.43061851417E+00  0.49525783418E+01 -0.24305879333E+02  0.24809055498E+02  0.00000000000E+00 0. -1.
</event>
<event>
 7    1  0.4519840E-010  0.4778728E+02  0.7816164E-02  0.1312668E+00
        -11   -1    0    0    0    0  0.00000000000E+00  0.00000000000E+00  0.45593999997E+02  0.45594000000E+02  0.51100000000E-03 0. -1.
         11   -1    0    0    0    0 -0.00000000000E+00 -0.00000000000E+00 -0.45593999997E+02  0.45594000000E+02  0.51100000000E-03 0.  1.
    9900012    2    1    2    0    0  0.47052992496E+01 -0.14000341460E+02 -0.40810203974E+02  0.47787283987E+02  0.20000059010E+02 0.  0.
         12    1    1    2    0    0 -0.47052992496E+01  0.14000341460E+02  0.40810203974E+02  0.43400716013E+02  0.00000000000E+00 0. -1.
         11    1    3    3    0    0  0.31358741474E+01 -0.36799861794E+01 -0.36872533538E+01  0.60804475579E+01  0.51100000000E-03 0. -1.
        -11    1    3    3    0    0 -0.20531585653E+01 -0.12919013970E+02 -0.33495689173E+02  0.35959387863E+02  0.51100000000E-03 0.  1.
         12    1    3    3    0    0  0.36225836675E+01  0.25986586891E+01 -0.36272614477E+01  0.57474485661E+01  0.00000000000E+00 0. -1.
</event>
<event>
 7    1  0.4519840E-010  0.4778727E+02  0.7816164E-02  0.1312668E+00
        -11   -1    0    0    0    0  0.00000000000E+00  0.00000000000E+00  0.45593999997E+02  0.45594000000E+02  0.51100000000E-03 0. -1.
         11   -1    0    0    0    0 -0.00000000000E+00 -0.00000000000E+00 -0.45593999997E+02  0.45594000000E+02  0.51100000000E-03 0.  1.
    9900012    2    1    2    0    0  0.37115709675E+02  0.59068579290E+01  0.21706148142E+02  0.47787265646E+02  0.19999975388E+02 0.  0.
        -12    1    1    2    0    0 -0.37115709675E+02 -0.59068579290E+01 -0.21706148142E+02  0.43400734354E+02  0.00000000000E+00 0.  1.
         11    1    3    3    0    0  0.27084632296E+02  0.52689378367E+01  0.17922420686E+02  0.32902160659E+02  0.51100000000E-03 0. -1.
        -11    1    3    3    0    0  0.66563004516E+01  0.23562023561E+01  0.69806367007E+01  0.99291144748E+01  0.51100000000E-03 0.  1.
        -12    1    3    3    0    0  0.33747769274E+01 -0.17182822638E+01 -0.31969092441E+01  0.49559905128E+01  0.00000000000E+00 0.  1.
</event>
<event>
 7    1  0.4519840E-010  0.4778726E+02  0.7816164E-02  0.1312668E+00
        -11   -1    0    0    0    0  0.00000000000E+00  0.00000000000E+00  0.45593999997E+02  0.45594000000E+02  0.51100000000E-03 0. -1.
         11   -1    0    0    0    0 -0.00000000000E+00 -0.00000000000E+00 -0.45593999997E+02  0.45594000000E+02  0.51100000000E-03 0.  1.
    9900012    2    1    2    0    0 -0.73803492863E+01  0.30515244521E+02  0.29966224540E+02  0.47787259027E+02  0.19999945209E+02 0.  0.
        -12    1    1    2    0    0  0.73803492863E+01 -0.30515244521E+02 -0.29966224540E+02  0.43400740973E+02  0.00000000000E+00 0.  1.
         11    1    3    3    0    0  0.13824844831E+01  0.12357342659E+02  0.11875255981E+02  0.17194094504E+02  0.51100000000E-03 0. -1.
        -11    1    3    3    0    0 -0.13249326698E+01  0.15653638252E+02  0.74914894025E+01  0.17404431931E+02  0.51100000000E-03 0.  1.
         12    1    3    3    0    0 -0.74379010996E+01  0.25042636104E+01  0.10599479157E+02  0.13188732593E+02  0.00000000000E+00 0. -1.
</event>
<event>
 7    1  0.4519840E-010  0.4778727E+02  0.7816164E-02  0.1312668E+00
        -11   -1    0    0    0    0  0.00000000000E+00  0.00000000000E+00  0.45593999997E+02  0.45594000000E+02  0.51100000000E-03 0. -1.
         11   -1    0    0    0    0 -0.00000000000E+00 -0.00000000000E+00 -0.45593999997E+02  0.45594000000E+02  0.51100000000E-03 0.  1.
    9900012    2    1    2    0    0 -0.12056987706E+02 -0.47098248310E+01  0.41425476316E+02  0.47787268549E+02  0.19999988623E+02 0.  0.
        -12    1    1    2    0    0  0.12056987706E+02  0.47098248310E+01 -0.41425476316E+02  0.43400731451E+02  0.00000000000E+00 0.  1.
         11    1    3    3    0    0 -0.10680261119E+02 -0.35672530067E+01  0.14002987681E+02  0.17968776693E+02  0.51100000000E-03 0. -1.
        -11    1    3    3    0    0 -0.63538839303E+01  0.66462274330E+00  0.13972854494E+02  0.15364056345E+02  0.51100000000E-03 0.  1.
        -12    1    3    3    0    0  0.49771573436E+01 -0.18071945676E+01  0.13449634141E+02  0.14454435511E+02  0.00000000000E+00 0.  1.
</event>
<event>
 7    1  0.4519840E-010  0.4778727E+02  0.7816164E-02  0.1312668E+00
        -11   -1    0    0    0    0  0.00000000000E+00  0.00000000000E+00  0.45593999997E+02  0.45594000000E+02  0.51100000000E-03 0. -1.
         11   -1    0    0    0    0 -0.00000000000E+00 -0.00000000000E+00 -0.45593999997E+02  0.45594000000E+02  0.51100000000E-03 0.  1.
    9900012    2    1    2    0    0  0.16062278518E+02 -0.38463878136E+02 -0.12089539779E+02  0.47787266314E+02  0.19999978432E+02 0.  0.
         12    1    1    2    0    0 -0.16062278518E+02  0.38463878136E+02  0.12089539779E+02  0.43400733686E+02  0.00000000000E+00 0. -1.
         11    1    3    3    0    0 -0.32596308768E+01 -0.75263851309E+01 -0.25704780695E+01  0.85952908245E+01  0.51100000000E-03 0. -1.
        -11    1    3    3    0    0  0.16406707436E+02 -0.30759099882E+02 -0.75494941532E+01  0.35669274406E+02  0.51100000000E-03 0.  1.
         12    1    3    3    0    0  0.29152019588E+01 -0.17839312310E+00 -0.19695675561E+01  0.35227010837E+01  0.00000000000E+00 0. -1.
</event>
<event>
 7    1  0.4586639E-010  0.4778727E+02  0.7816164E-02  0.1312668E+00
        -11   -1    0    0    0    0  0.00000000000E+00  0.00000000000E+00  0.45593999997E+02  0.45594000000E+02  0.51100000000E-03 0.  1.
         11   -1    0    0    0    0 -0.00000000000E+00 -0.00000000000E+00 -0.45593999997E+02  0.45594000000E+02  0.51100000000E-03 0. -1.
    9900012    2    1    2    0    0 -0.40164814590E+02 -0.79566598493E+01 -0.14391054301E+02  0.47787271770E+02  0.20000003306E+02 0.  0.
         12    1    1    2    0    0  0.40164814590E+02  0.79566598493E+01  0.14391054301E+02  0.43400728230E+02  0.00000000000E+00 0. -1.
         11    1    3    3    0    0 -0.17017695438E+01 -0.39325963578E+01 -0.50189976477E+01  0.65993690109E+01  0.51100000000E-03 0. -1.
        -11    1    3    3    0    0 -0.46347530789E+01 -0.25026261526E+01 -0.45955073021E+01  0.69901903684E+01  0.51100000000E-03 0.  1.
        -12    1    3    3    0    0 -0.33828291968E+02 -0.15214373389E+01 -0.47765493511E+01  0.34197712390E+02  0.00000000000E+00 0.  1.
</event>
<event>
 7    1  0.4519840E-010  0.4778727E+02  0.7816164E-02  0.1312668E+00
        -11   -1    0    0    0    0  0.00000000000E+00  0.00000000000E+00  0.45593999997E+02  0.45594000000E+02  0.51100000000E-03 0. -1.
         11   -1    0    0    0    0 -0.00000000000E+00 -0.00000000000E+00 -0.45593999997E+02  0.45594000000E+02  0.51100000000E-03 0.  1.
    9900012    2    1    2    0    0 -0.29017268654E+02 -0.98650792165E+01 -0.30729492888E+02  0.47787269577E+02  0.19999993309E+02 0.  0.
         12    1    1    2    0    0  0.29017268654E+02  0.98650792165E+01  0.30729492888E+02  0.43400730423E+02  0.00000000000E+00 0. -1.
         11    1    3    3    0    0 -0.77982291204E+01 -0.33767326767E+01  0.11651486156E+01  0.85774280843E+01  0.51100000000E-03 0. -1.
        -11    1    3    3    0    0 -0.69847208964E+01 -0.39594417901E+01 -0.83731070364E+01  0.11600535634E+02  0.51100000000E-03 0.  1.
         12    1    3    3    0    0 -0.14234318637E+02 -0.25289047498E+01 -0.23521534467E+02  0.27609305859E+02  0.00000000000E+00 0. -1.
</event>
<event>
 7    1  0.4519840E-010  0.4778728E+02  0.7816164E-02  0.1312668E+00
        -11   -1    0    0    0    0  0.00000000000E+00  0.00000000000E+00  0.45593999997E+02  0.45594000000E+02  0.51100000000E-03 0. -1.
         11   -1    0    0    0    0 -0.00000000000E+00 -0.00000000000E+00 -0.45593999997E+02  0.45594000000E+02  0.51100000000E-03 0.  1.
    9900012    2    1    2    0    0  0.43842653104E+01 -0.25170429192E+02  0.35083480991E+02  0.47787275047E+02  0.20000018249E+02 0.  0.
        -12    1    1    2    0    0 -0.43842653104E+01  0.25170429192E+02 -0.35083480991E+02  0.43400724953E+02  0.00000000000E+00 0.  1.
         11    1    3    3    0    0  0.11872156761E+01 -0.17708784493E+02  0.19101575778E+02  0.26074522560E+02  0.51100000000E-03 0. -1.
        -11    1    3    3    0    0 -0.46529295918E+01 -0.36673977580E+01  0.73930765136E+01  0.94740245249E+01  0.51100000000E-03 0.  1.
        -12    1    3    3    0    0  0.78499792261E+01 -0.37942469408E+01  0.85888286996E+01  0.12238727962E+02  0.00000000000E+00 0.  1.
</event>
<event>
 7    1  0.4519840E-010  0.4778727E+02  0.7816164E-02  0.1312668E+00
        -11   -1    0    0    0    0  0.00000000000E+00  0.00000000000E+00  0.45593999997E+02  0.45594000000E+02  0.51100000000E-03 0. -1.
         11   -1    0    0    0    0 -0.00000000000E+00 -0.00000000000E+00 -0.45593999997E+02  0.45594000000E+02  0.51100000000E-03 0.  1.
    9900012    2    1    2    0    0  0.31714795442E+02 -0.58589973742E+01 -0.29042506353E+02  0.47787271026E+02  0.19999999918E+02 0.  0.
         12    1    1    2    0    0 -0.31714795442E+02  0.58589973742E+01  0.29042506353E+02  0.43400728974E+02  0.00000000000E+00 0. -1.
         11    1    3    3    0    0  0.18709594920E+01 -0.31600253328E+01 -0.13036350489E+02  0.13543732272E+02  0.51100000000E-03 0. -1.
        -11    1    3    3    0    0  0.49742170315E+01  0.87794464795E+00 -0.16938265362E+01  0.53275388762E+01  0.51100000000E-03 0.  1.
         12    1    3    3    0    0  0.24869618919E+02 -0.35769166894E+01 -0.14312329328E+02  0.28915999878E+02  0.00000000000E+00 0. -1.
</event>
<event>
 7    1  0.4519840E-010  0.4778727E+02  0.7816164E-02  0.1312668E+00
        -11   -1    0    0    0    0  0.00000000000E+00  0.00000000000E+00  0.45593999997E+02  0.45594000000E+02  0.51100000000E-03 0. -1.
         11   -1    0    0    0    0 -0.00000000000E+00 -0.00000000000E+00 -0.45593999997E+02  0.45594000000E+02  0.51100000000E-03 0.  1.
    9900012    2    1    2    0    0 -0.54020019605E+00 -0.41653195854E+02 -0.12179601829E+02  0.47787271414E+02  0.20000001683E+02 0.  0.
         12    1    1    2    0    0  0.54020019605E+00  0.41653195854E+02  0.12179601829E+02  0.43400728586E+02  0.00000000000E+00 0. -1.
         11    1    3    3    0    0  0.62173826447E+00 -0.31491918241E+02 -0.76808976903E+01  0.32421037345E+02  0.51100000000E-03 0.  1.
        -11    1    3    3    0    0 -0.18090141433E+01 -0.10245544973E+02 -0.71576630277E+01  0.12628375361E+02  0.51100000000E-03 0. -1.
         12    1    3    3    0    0  0.64707568275E+00  0.84267359718E-01  0.26589588895E+01  0.27378587076E+01  0.00000000000E+00 0. -1.
</event>
<event>
 7    1  0.4519840E-010  0.4778727E+02  0.7816164E-02  0.1312668E+00
        -11   -1    0    0    0    0  0.00000000000E+00  0.00000000000E+00  0.45593999997E+02  0.45594000000E+02  0.51100000000E-03 0. -1.
         11   -1    0    0    0    0 -0.00000000000E+00 -0.00000000000E+00 -0.45593999997E+02  0.45594000000E+02  0.51100000000E-03 0.  1.
    9900012    2    1    2    0    0 -0.25651272380E+02 -0.20329151149E+02  0.28501946889E+02  0.47787272614E+02  0.20000007158E+02 0.  0.
        -12    1    1    2    0    0  0.25651272380E+02  0.20329151149E+02 -0.28501946889E+02  0.43400727386E+02  0.00000000000E+00 0.  1.
         11    1    3    3    0    0 -0.14798992476E+01 -0.40748790408E+01  0.39322268774E+01  0.58529607429E+01  0.51100000000E-03 0.  1.
        -11    1    3    3    0    0 -0.11892677524E+02 -0.11632992272E+02  0.33251232295E+01  0.16965221268E+02  0.51100000000E-03 0. -1.
         12    1    3    3    0    0 -0.12278695608E+02 -0.46212798354E+01  0.21244596782E+02  0.24969090604E+02  0.00000000000E+00 0. -1.
</event>
<event>
 7    1  0.4519840E-010  0.4778727E+02  0.7816164E-02  0.1312668E+00
        -11   -1    0    0    0    0  0.00000000000E+00  0.00000000000E+00  0.45593999997E+02  0.45594000000E+02  0.51100000000E-03 0. -1.
         11   -1    0    0    0    0 -0.00000000000E+00 -0.00000000000E+00 -0.45593999997E+02  0.45594000000E+02  0.51100000000E-03 0.  1.
    9900012    2    1    2    0    0  0.24067784757E+02 -0.20678113435E+02 -0.29610480485E+02  0.47787271978E+02  0.20000004255E+02 0.  0.
         12    1    1    2    0    0 -0.24067784757E+02  0.20678113435E+02  0.29610480485E+02  0.43400728022E+02  0.00000000000E+00 0. -1.
         11    1    3    3    0    0 -0.97269946674E+00 -0.72580081523E+01 -0.79018896722E+01  0.10773332226E+02  0.51100000000E-03 0. -1.
        -11    1    3    3    0    0  0.91306018797E+01 -0.51162420895E+01 -0.14005119129E+02  0.17483912202E+02  0.51100000000E-03 0.  1.
        -12    1    3    3    0    0  0.15909882344E+02 -0.83038631929E+01 -0.77034716839E+01  0.19530027550E+02  0.00000000000E+00 0.  1.
</event>
<event>
 7    1  0.4519840E-010  0.4778727E+02  0.7816164E-02  0.1312668E+00
        -11   -1    0    0    0    0  0.00000000000E+00  0.00000000000E+00  0.45593999997E+02  0.45594000000E+02  0.51100000000E-03 0. -1.
         11   -1    0    0    0    0 -0.00000000000E+00 -0.00000000000E+00 -0.45593999997E+02  0.45594000000E+02  0.51100000000E-03 0.  1.
    9900012    2    1    2    0    0  0.11591021997E+02  0.15988788594E+02  0.38647513352E+02  0.47787269131E+02  0.19999991276E+02 0.  0.
        -12    1    1    2    0    0 -0.11591021997E+02 -0.15988788594E+02 -0.38647513352E+02  0.43400730869E+02  0.00000000000E+00 0.  1.
         11    1    3    3    0    0  0.19561574961E+01  0.53638789031E+01  0.36772087594E+01  0.67911422867E+01  0.51100000000E-03 0. -1.
        -11    1    3    3    0    0  0.35102945206E+01 -0.40350410222E+01  0.67636670994E+01  0.86226977544E+01  0.51100000000E-03 0.  1.
        -12    1    3    3    0    0  0.61245699802E+01  0.14659950713E+02  0.28206637493E+02  0.32373429090E+02  0.00000000000E+00 0.  1.
</event>
<event>
 7    1  0.4519840E-010  0.4778727E+02  0.7816164E-02  0.1312668E+00
        -11   -1    0    0    0    0  0.00000000000E+00  0.00000000000E+00  0.45593999997E+02  0.45594000000E+02  0.51100000000E-03 0. -1.
         11   -1    0    0    0    0 -0.00000000000E+00 -0.00000000000E+00 -0.45593999997E+02  0.45594000000E+02  0.51100000000E-03 0.  1.
    9900012    2    1    2    0    0  0.27006501640E+02  0.14975373546E+01  0.33941558785E+02  0.47787272337E+02  0.20000005892E+02 0.  0.
        -12    1    1    2    0    0 -0.27006501640E+02 -0.14975373546E+01 -0.33941558785E+02  0.43400727663E+02  0.00000000000E+00 0.  1.
         11    1    3    3    0    0  0.69115789977E+01  0.65097848349E+01  0.70736060625E+01  0.11839895516E+02  0.51100000000E-03 0. -1.
        -11    1    3    3    0    0  0.17992755582E+01 -0.11968149131E+01 -0.10093070298E+01  0.23850491425E+01  0.51100000000E-03 0.  1.
         12    1    3    3    0    0  0.18295647084E+02 -0.38154325672E+01  0.27877259752E+02  0.33562327678E+02  0.00000000000E+00 0. -1.
</event>
<event>
 7    1  0.4519840E-010  0.4778728E+02  0.7816164E-02  0.1312668E+00
        -11   -1    0    0    0    0  0.00000000000E+00  0.00000000000E+00  0.45593999997E+02  0.45594000000E+02  0.51100000000E-03 0. -1.
         11   -1    0    0    0    0 -0.00000000000E+00 -0.00000000000E+00 -0.45593999997E+02  0.45594000000E+02  0.51100000000E-03 0.  1.
    9900012    2    1    2    0    0 -0.25479481570E+00  0.21845164036E+01 -0.43344961730E+02  0.47787277198E+02  0.20000028057E+02 0.  0.
         12    1    1    2    0    0  0.25479481570E+00 -0.21845164036E+01  0.43344961730E+02  0.43400722802E+02  0.00000000000E+00 0. -1.
         11    1    3    3    0    0  0.55360965854E+00 -0.61127268662E+01 -0.43814349842E+01  0.75411462110E+01  0.51100000000E-03 0. -1.
        -11    1    3    3    0    0  0.56909192204E+00  0.25927751960E+01 -0.40470526208E+01  0.48399363642E+01  0.51100000000E-03 0.  1.
        -12    1    3    3    0    0 -0.13774963963E+01  0.57044680738E+01 -0.34916474125E+02  0.35406194623E+02  0.00000000000E+00 0.  1.
</event>
<event>
 7    1  0.4519840E-010  0.4778727E+02  0.7816164E-02  0.1312668E+00
        -11   -1    0    0    0    0  0.00000000000E+00  0.00000000000E+00  0.45593999997E+02  0.45594000000E+02  0.51100000000E-03 0. -1.
         11   -1    0    0    0    0 -0.00000000000E+00 -0.00000000000E+00 -0.45593999997E+02  0.45594000000E+02  0.51100000000E-03 0.  1.
    9900012    2    1    2    0    0  0.15703998506E+02 -0.29305985614E+02 -0.27895644290E+02  0.47787270372E+02  0.19999996933E+02 0.  0.
         12    1    1    2    0    0 -0.15703998506E+02  0.29305985614E+02  0.27895644290E+02  0.43400729628E+02  0.00000000000E+00 0. -1.
         11    1    3    3    0    0  0.56987282164E+00 -0.77354890915E+01 -0.45765728388E+01  0.90059738912E+01  0.51100000000E-03 0. -1.
        -11    1    3    3    0    0  0.13976549263E+02 -0.11799991653E+02 -0.67230684850E+01  0.19488031774E+02  0.51100000000E-03 0.  1.
        -12    1    3    3    0    0  0.11575764217E+01 -0.97705048696E+01 -0.16596002966E+02  0.19293264707E+02  0.00000000000E+00 0.  1.
</event>
<event>
 7    1  0.4519840E-010  0.4778729E+02  0.7816164E-02  0.1312668E+00
        -11   -1    0    0    0    0  0.00000000000E+00  0.00000000000E+00  0.45593999997E+02  0.45594000000E+02  0.51100000000E-03 0. -1.
         11   -1    0    0    0    0 -0.00000000000E+00 -0.00000000000E+00 -0.45593999997E+02  0.45594000000E+02  0.51100000000E-03 0.  1.
    9900012    2    1    2    0    0  0.27848654983E+02 -0.16268293086E+02  0.29041637530E+02  0.47787289698E+02  0.20000085051E+02 0.  0.
        -12    1    1    2    0    0 -0.27848654983E+02  0.16268293086E+02 -0.29041637530E+02  0.43400710302E+02  0.00000000000E+00 0.  1.
         11    1    3    3    0    0  0.92768962986E+01  0.15457188070E+01  0.10395742305E+02  0.14018612980E+02  0.51100000000E-03 0. -1.
        -11    1    3    3    0    0 -0.40038929615E-01 -0.51621519402E+01  0.12163982642E+01  0.53036818125E+01  0.51100000000E-03 0.  1.
         12    1    3    3    0    0  0.18611797614E+02 -0.12651859953E+02  0.17429496961E+02  0.28464994906E+02  0.00000000000E+00 0. -1.
</event>
<event>
 7    1  0.4519840E-010  0.4778727E+02  0.7816164E-02  0.1312668E+00
        -11   -1    0    0    0    0  0.00000000000E+00  0.00000000000E+00  0.45593999997E+02  0.45594000000E+02  0.51100000000E-03 0. -1.
         11   -1    0    0    0    0 -0.00000000000E+00 -0.00000000000E+00 -0.45593999997E+02  0.45594000000E+02  0.51100000000E-03 0.  1.
    9900012    2    1    2    0    0  0.39072197636E+02  0.13221419356E+02  0.13497430569E+02  0.47787272012E+02  0.20000004413E+02 0.  0.
        -12    1    1    2    0    0 -0.39072197636E+02 -0.13221419356E+02 -0.13497430569E+02  0.43400727988E+02  0.00000000000E+00 0.  1.
         11    1    3    3    0    0  0.30958519306E+02  0.60216288444E+01  0.13010010337E+02  0.34116715856E+02  0.51100000000E-03 0. -1.
        -11    1    3    3    0    0  0.65323885537E+01  0.25608656572E+00  0.90761939704E-01  0.65380362906E+01  0.51100000000E-03 0.  1.
        -12    1    3    3    0    0  0.15812897764E+01  0.69437039454E+01  0.39665829261E+00  0.71325198661E+01  0.00000000000E+00 0.  1.
</event>
<event>
 7    1  0.4519840E-010  0.4778733E+02  0.7816164E-02  0.1312667E+00
        -11   -1    0    0    0    0  0.00000000000E+00  0.00000000000E+00  0.45593999997E+02  0.45594000000E+02  0.51100000000E-03 0. -1.
         11   -1    0    0    0    0 -0.00000000000E+00 -0.00000000000E+00 -0.45593999997E+02  0.45594000000E+02  0.51100000000E-03 0.  1.
    9900012    2    1    2    0    0 -0.11903306858E+02  0.34777152379E+02 -0.23075502743E+02  0.47787333316E+02  0.20000283918E+02 0.  0.
         12    1    1    2    0    0  0.11903306858E+02 -0.34777152379E+02  0.23075502743E+02  0.43400666684E+02  0.00000000000E+00 0. -1.
         11    1    3    3    0    0 -0.10249641259E+01  0.13445433203E+02 -0.67662539801E+01  0.15086829311E+02  0.51100000000E-03 0. -1.
        -11    1    3    3    0    0 -0.50764018946E+01  0.20840683543E+02 -0.87677716124E+01  0.23172780715E+02  0.51100000000E-03 0.  1.
         12    1    3    3    0    0 -0.58019408378E+01  0.49103563340E+00 -0.75414771507E+01  0.95277232901E+01  0.00000000000E+00 0. -1.
</event>
<event>
 7    1  0.4519840E-010  0.4778727E+02  0.7816164E-02  0.1312668E+00
        -11   -1    0    0    0    0  0.00000000000E+00  0.00000000000E+00  0.45593999997E+02  0.45594000000E+02  0.51100000000E-03 0. -1.
         11   -1    0    0    0    0 -0.00000000000E+00 -0.00000000000E+00 -0.45593999997E+02  0.45594000000E+02  0.51100000000E-03 0.  1.
    9900012    2    1    2    0    0  0.16929546144E+02 -0.39425459296E+01 -0.39767701201E+02  0.47787271206E+02  0.20000000736E+02 0.  0.
         12    1    1    2    0    0 -0.16929546144E+02  0.39425459296E+01  0.39767701201E+02  0.43400728794E+02  0.00000000000E+00 0. -1.
         11    1    3    3    0    0 -0.10865347580E+01  0.11396022363E-01 -0.89569802483E+01  0.90226483407E+01  0.51100000000E-03 0. -1.
        -11    1    3    3    0    0  0.37352703450E+01  0.74688213140E+00 -0.19713266142E+02  0.20077921698E+02  0.51100000000E-03 0.  1.
        -12    1    3    3    0    0  0.14280810557E+02 -0.47008240834E+01 -0.11097454810E+02  0.18686701167E+02  0.00000000000E+00 0.  1.
</event>
<event>
 7    1  0.4519840E-010  0.4778731E+02  0.7816164E-02  0.1312668E+00
        -11   -1    0    0    0    0  0.00000000000E+00  0.00000000000E+00  0.45593999997E+02  0.45594000000E+02  0.51100000000E-03 0. -1.
         11   -1    0    0    0    0 -0.00000000000E+00 -0.00000000000E+00 -0.45593999997E+02  0.45594000000E+02  0.51100000000E-03 0.  1.
    9900012    2    1    2    0    0  0.80928733527E+01  0.30216855246E+02 -0.30084331025E+02  0.47787309760E+02  0.20000176520E+02 0.  0.
         12    1    1    2    0    0 -0.80928733527E+01 -0.30216855246E+02  0.30084331025E+02  0.43400690240E+02  0.00000000000E+00 0. -1.
         11    1    3    3    0    0  0.39494994828E+01  0.24723727637E+01 -0.18378300745E+01  0.50088714189E+01  0.51100000000E-03 0. -1.
        -11    1    3    3    0    0  0.83880286632E+01  0.13301523509E+02 -0.20534621326E+02  0.25864265421E+02  0.51100000000E-03 0.  1.
        -12    1    3    3    0    0 -0.42446547932E+01  0.14442958974E+02 -0.77118796249E+01  0.16914172921E+02  0.00000000000E+00 0.  1.
</event>
<event>
 7    1  0.4519840E-010  0.4778727E+02  0.7816164E-02  0.1312668E+00
        -11   -1    0    0    0    0  0.00000000000E+00  0.00000000000E+00  0.45593999997E+02  0.45594000000E+02  0.51100000000E-03 0. -1.
         11   -1    0    0    0    0 -0.00000000000E+00 -0.00000000000E+00 -0.45593999997E+02  0.45594000000E+02  0.51100000000E-03 0.  1.
    9900012    2    1    2    0    0 -0.25391433378E+02 -0.17555934086E+02  0.30507173443E+02  0.47787270258E+02  0.19999996414E+02 0.  0.
        -12    1    1    2    0    0  0.25391433378E+02  0.17555934086E+02 -0.30507173443E+02  0.43400729742E+02  0.00000000000E+00 0.  1.
         11    1    3    3    0    0 -0.18210346827E+02 -0.61135981572E+01  0.76138644641E+01  0.20663101082E+02  0.51100000000E-03 0. -1.
        -11    1    3    3    0    0 -0.70309100691E+01 -0.69575393572E+01  0.17559552873E+02  0.20153881702E+02  0.51100000000E-03 0.  1.
        -12    1    3    3    0    0 -0.15017648211E+00 -0.44847965721E+01  0.53337561057E+01  0.69702874735E+01  0.00000000000E+00 0.  1.
</event>
<event>
 7    1  0.4519840E-010  0.4778727E+02  0.7816164E-02  0.1312668E+00
        -11   -1    0    0    0    0  0.00000000000E+00  0.00000000000E+00  0.45593999997E+02  0.45594000000E+02  0.51100000000E-03 0. -1.
         11   -1    0    0    0    0 -0.00000000000E+00 -0.00000000000E+00 -0.45593999997E+02  0.45594000000E+02  0.51100000000E-03 0.  1.
    9900012    2    1    2    0    0 -0.38674153483E+01 -0.25830114954E+02 -0.34662246103E+02  0.47787273682E+02  0.20000012026E+02 0.  0.
         12    1    1    2    0    0  0.38674153483E+01  0.25830114954E+02  0.34662246103E+02  0.43400726318E+02  0.00000000000E+00 0. -1.
         11    1    3    3    0    0 -0.19716325280E+01 -0.28645890180E+01  0.18703785775E+01  0.39486100532E+01  0.51100000000E-03 0. -1.
        -11    1    3    3    0    0 -0.27874415464E+00 -0.17427095788E+01 -0.82793590720E+01  0.84653719283E+01  0.51100000000E-03 0.  1.
        -12    1    3    3    0    0 -0.16170386656E+01 -0.21222816357E+02 -0.28253265609E+02  0.35373291701E+02  0.00000000000E+00 0.  1.
</event>
<event>
 7    1  0.4519840E-010  0.4778727E+02  0.7816164E-02  0.1312668E+00
        -11   -1    0    0    0    0  0.00000000000E+00  0.00000000000E+00  0.45593999997E+02  0.45594000000E+02  0.51100000000E-03 0.  1.
         11   -1    0    0    0    0 -0.00000000000E+00 -0.00000000000E+00 -0.45593999997E+02  0.45594000000E+02  0.51100000000E-03 0. -1.
    9900012    2    1    2    0    0 -0.29415491816E+01  0.34335331051E+02  0.26382863314E+02  0.47787272511E+02  0.20000006685E+02 0.  0.
        -12    1    1    2    0    0  0.29415491816E+01 -0.34335331051E+02 -0.26382863314E+02  0.43400727489E+02  0.00000000000E+00 0.  1.
         11    1    3    3    0    0 -0.59969080764E+00 -0.62425073422E+00  0.46488890933E+00  0.98256806537E+00  0.51100000000E-03 0. -1.
        -11    1    3    3    0    0 -0.87036237474E+01  0.12558728525E+02  0.13625731020E+02  0.20472793522E+02  0.51100000000E-03 0.  1.
         12    1    3    3    0    0  0.63617653734E+01  0.22400853260E+02  0.12292243384E+02  0.26331910923E+02  0.00000000000E+00 0. -1.
</event>
<event>
 7    1  0.4519840E-010  0.4778729E+02  0.7816164E-02  0.1312668E+00
        -11   -1    0    0    0    0  0.00000000000E+00  0.00000000000E+00  0.45593999997E+02  0.45594000000E+02  0.51100000000E-03 0. -1.
         11   -1    0    0    0    0 -0.00000000000E+00 -0.00000000000E+00 -0.45593999997E+02  0.45594000000E+02  0.51100000000E-03 0.  1.
    9900012    2    1    2    0    0  0.37928932369E+01  0.39679584909E+02  0.17168747436E+02  0.47787292792E+02  0.20000099154E+02 0.  0.
        -12    1    1    2    0    0 -0.37928932369E+01 -0.39679584909E+02 -0.17168747436E+02  0.43400707208E+02  0.00000000000E+00 0.  1.
         11    1    3    3    0    0 -0.19093243321E+01  0.10532056777E+02 -0.19326236682E+01  0.10876799799E+02  0.51100000000E-03 0.  1.
        -11    1    3    3    0    0 -0.15026624057E+01  0.19251191602E+02  0.12502906896E+02  0.23004109492E+02  0.51100000000E-03 0. -1.
         12    1    3    3    0    0  0.72048799746E+01  0.98963365302E+01  0.65984642086E+01  0.13906383501E+02  0.00000000000E+00 0. -1.
</event>
<event>
 7    1  0.4519840E-010  0.4778727E+02  0.7816164E-02  0.1312668E+00
        -11   -1    0    0    0    0  0.00000000000E+00  0.00000000000E+00  0.45593999997E+02  0.45594000000E+02  0.51100000000E-03 0. -1.
         11   -1    0    0    0    0 -0.00000000000E+00 -0.00000000000E+00 -0.45593999997E+02  0.45594000000E+02  0.51100000000E-03 0.  1.
    9900012    2    1    2    0    0 -0.11652133658E+02  0.65953458090E+01 -0.41283801960E+02  0.47787272940E+02  0.20000008640E+02 0.  0.
         12    1    1    2    0    0  0.11652133658E+02 -0.65953458090E+01  0.41283801960E+02  0.43400727060E+02  0.00000000000E+00 0. -1.
         11    1    3    3    0    0 -0.16569242117E+01  0.29483534566E+01  0.38301272911E+00  0.34036575856E+01  0.51100000000E-03 0. -1.
        -11    1    3    3    0    0 -0.57561537362E+01 -0.22756010876E+01 -0.90547188075E+01  0.10968117390E+02  0.51100000000E-03 0.  1.
         12    1    3    3    0    0 -0.42390557098E+01  0.59225934400E+01 -0.32612095881E+02  0.33415497963E+02  0.00000000000E+00 0. -1.
</event>
<event>
 7    1  0.4519840E-010  0.4778727E+02  0.7816164E-02  0.1312668E+00
        -11   -1    0    0    0    0  0.00000000000E+00  0.00000000000E+00  0.45593999997E+02  0.45594000000E+02  0.51100000000E-03 0. -1.
         11   -1    0    0    0    0 -0.00000000000E+00 -0.00000000000E+00 -0.45593999997E+02  0.45594000000E+02  0.51100000000E-03 0.  1.
    9900012    2    1    2    0    0  0.21549953540E+02  0.57859064762E+01  0.37225606238E+02  0.47787274533E+02  0.20000015904E+02 0.  0.
        -12    1    1    2    0    0 -0.21549953540E+02 -0.57859064762E+01 -0.37225606238E+02  0.43400725467E+02  0.00000000000E+00 0.  1.
         11    1    3    3    0    0  0.39064267339E+01  0.38866704980E+01  0.21953267984E+01  0.59317651167E+01  0.51100000000E-03 0. -1.
        -11    1    3    3    0    0  0.14268231403E+02  0.33195532636E+01  0.13196380749E+02  0.19716650993E+02  0.51100000000E-03 0.  1.
        -12    1    3    3    0    0  0.33752954029E+01 -0.14203172853E+01  0.21833898690E+02  0.22138858423E+02  0.00000000000E+00 0.  1.
</event>
<event>
 7    1  0.4519840E-010  0.4778727E+02  0.7816164E-02  0.1312668E+00
        -11   -1    0    0    0    0  0.00000000000E+00  0.00000000000E+00  0.45593999997E+02  0.45594000000E+02  0.51100000000E-03 0. -1.
         11   -1    0    0    0    0 -0.00000000000E+00 -0.00000000000E+00 -0.45593999997E+02  0.45594000000E+02  0.51100000000E-03 0.  1.
    9900012    2    1    2    0    0  0.30713511011E+02 -0.23623876486E+02  0.19550349512E+02  0.47787268843E+02  0.19999989965E+02 0.  0.
        -12    1    1    2    0    0 -0.30713511011E+02  0.23623876486E+02 -0.19550349512E+02  0.43400731157E+02  0.00000000000E+00 0.  1.
         11    1    3    3    0    0  0.43624229803E+01 -0.34247388519E+01  0.88557076075E+01  0.10449073067E+02  0.51100000000E-03 0. -1.
        -11    1    3    3    0    0  0.24287990277E+01 -0.51983083337E+01  0.66990904331E+01  0.88203904189E+01  0.51100000000E-03 0.  1.
         12    1    3    3    0    0  0.23922289003E+02 -0.15000829301E+02  0.39955514715E+01  0.28517805358E+02  0.00000000000E+00 0. -1.
</event>
<event>
 7    1  0.4519840E-010  0.4778728E+02  0.7816164E-02  0.1312668E+00
        -11   -1    0    0    0    0  0.00000000000E+00  0.00000000000E+00  0.45593999997E+02  0.45594000000E+02  0.51100000000E-03 0. -1.
         11   -1    0    0    0    0 -0.00000000000E+00 -0.00000000000E+00 -0.45593999997E+02  0.45594000000E+02  0.51100000000E-03 0.  1.
    9900012    2    1    2    0    0 -0.23211739271E+02 -0.49107736624E+01  0.36341743430E+02  0.47787275888E+02  0.20000022081E+02 0.  0.
        -12    1    1    2    0    0  0.23211739271E+02  0.49107736624E+01 -0.36341743430E+02  0.43400724112E+02  0.00000000000E+00 0.  1.
         11    1    3    3    0    0 -0.61395063245E+01  0.15260980889E+01  0.19590311149E+02  0.20586471394E+02  0.51100000000E-03 0. -1.
        -11    1    3    3    0    0 -0.91996841721E+01  0.10363965169E+01  0.12472847216E+02  0.15533197499E+02  0.51100000000E-03 0.  1.
        -12    1    3    3    0    0 -0.78725487747E+01 -0.74732682682E+01  0.42785850648E+01  0.11667606994E+02  0.00000000000E+00 0.  1.
</event>
<event>
 7    1  0.4519840E-010  0.4778727E+02  0.7816164E-02  0.1312668E+00
        -11   -1    0    0    0    0  0.00000000000E+00  0.00000000000E+00  0.45593999997E+02  0.45594000000E+02  0.51100000000E-03 0. -1.
         11   -1    0    0    0    0 -0.00000000000E+00 -0.00000000000E+00 -0.45593999997E+02  0.45594000000E+02  0.51100000000E-03 0.  1.
    9900012    2    1    2    0    0 -0.20487764441E+01  0.32083816727E+02  0.29155694291E+02  0.47787270855E+02  0.19999999138E+02 0.  0.
        -12    1    1    2    0    0  0.20487764441E+01 -0.32083816727E+02 -0.29155694291E+02  0.43400729145E+02  0.00000000000E+00 0.  1.
         11    1    3    3    0    0  0.91574698482E+00  0.11934831951E+02  0.22116649533E+02  0.25148061417E+02  0.51100000000E-03 0. -1.
        -11    1    3    3    0    0  0.10176871489E+01  0.15915056246E+01  0.24833323241E+01  0.31201789980E+01  0.51100000000E-03 0.  1.
        -12    1    3    3    0    0 -0.39822105779E+01  0.18557479151E+02  0.45557124346E+01  0.19519030440E+02  0.00000000000E+00 0.  1.
</event>
<event>
 7    1  0.4519840E-010  0.4778727E+02  0.7816164E-02  0.1312668E+00
        -11   -1    0    0    0    0  0.00000000000E+00  0.00000000000E+00  0.45593999997E+02  0.45594000000E+02  0.51100000000E-03 0. -1.
         11   -1    0    0    0    0 -0.00000000000E+00 -0.00000000000E+00 -0.45593999997E+02  0.45594000000E+02  0.51100000000E-03 0.  1.
    9900012    2    1    2    0    0 -0.26581765032E+02 -0.65770002673E+01 -0.33671597973E+02  0.47787266426E+02  0.19999978941E+02 0.  0.
         12    1    1    2    0    0  0.26581765032E+02  0.65770002673E+01  0.33671597973E+02  0.43400733574E+02  0.00000000000E+00 0. -1.
         11    1    3    3    0    0 -0.32893044455E+01  0.45897484460E+00  0.11669085445E+01  0.35202070188E+01  0.51100000000E-03 0. -1.
        -11    1    3    3    0    0 -0.14432441365E+02  0.45439991586E+00 -0.12513404876E+02  0.19107253724E+02  0.51100000000E-03 0.  1.
         12    1    3    3    0    0 -0.88600192217E+01 -0.74903750277E+01 -0.22325101642E+02  0.25159805682E+02  0.00000000000E+00 0. -1.
</event>
<event>
 7    1 -0.4519840E-010  0.4778727E+02  0.7816164E-02  0.1312668E+00
        -11   -1    0    0    0    0  0.00000000000E+00  0.00000000000E+00  0.45593999997E+02  0.45594000000E+02  0.51100000000E-03 0. -1.
         11   -1    0    0    0    0 -0.00000000000E+00 -0.00000000000E+00 -0.45593999997E+02  0.45594000000E+02  0.51100000000E-03 0.  1.
    9900012    2    1    2    0    0  0.42449682299E+02  0.75205630610E+01  0.50089040823E+01  0.47787268253E+02  0.19999987274E+02 0.  0.
        -12    1    1    2    0    0 -0.42449682299E+02 -0.75205630610E+01 -0.50089040823E+01  0.43400731747E+02  0.00000000000E+00 0.  1.
         11    1    3    3    0    0  0.15185344776E+02  0.32677294880E+01  0.49091370784E+01  0.16290254113E+02  0.51100000000E-03 0. -1.
        -11    1    3    3    0    0  0.25711180890E+02  0.62185479454E+01 -0.39391598392E+01  0.26744198283E+02  0.51100000000E-03 0.  1.
        -12    1    3    3    0    0  0.15531566330E+01 -0.19657143725E+01  0.40389268432E+01  0.47528158564E+01  0.00000000000E+00 0.  1.
</event>
<event>
 7    1  0.4519840E-010  0.4778727E+02  0.7816164E-02  0.1312668E+00
        -11   -1    0    0    0    0  0.00000000000E+00  0.00000000000E+00  0.45593999997E+02  0.45594000000E+02  0.51100000000E-03 0.  1.
         11   -1    0    0    0    0 -0.00000000000E+00 -0.00000000000E+00 -0.45593999997E+02  0.45594000000E+02  0.51100000000E-03 0. -1.
    9900012    2    1    2    0    0  0.28887958258E+02 -0.26825885466E+02  0.18151604982E+02  0.47787273891E+02  0.20000012980E+02 0.  0.
        -12    1    1    2    0    0 -0.28887958258E+02  0.26825885466E+02 -0.18151604982E+02  0.43400726109E+02  0.00000000000E+00 0.  1.
         11    1    3    3    0    0  0.12530500854E+02 -0.13780992983E+02  0.19504108351E+01  0.18727875531E+02  0.51100000000E-03 0. -1.
        -11    1    3    3    0    0  0.15885709864E+01  0.45480206878E+00 -0.15837254731E+01  0.22887964820E+01  0.51100000000E-03 0.  1.
        -12    1    3    3    0    0  0.14768886418E+02 -0.13499694552E+02  0.17784919620E+02  0.26770601878E+02  0.00000000000E+00 0.  1.
</event>
<event>
 7    1  0.4519840E-010  0.4778728E+02  0.7816164E-02  0.1312668E+00
        -11   -1    0    0    0    0  0.00000000000E+00  0.00000000000E+00  0.45593999997E+02  0.45594000000E+02  0.51100000000E-03 0.  1.
         11   -1    0    0    0    0 -0.00000000000E+00 -0.00000000000E+00 -0.45593999997E+02  0.45594000000E+02  0.51100000000E-03 0. -1.
    9900012    2    1    2    0    0  0.25845451239E+02 -0.31225076079E+01  0.34725860013E+02  0.47787276998E+02  0.20000027144E+02 0.  0.
        -12    1    1    2    0    0 -0.25845451239E+02  0.31225076079E+01 -0.34725860013E+02  0.43400723002E+02  0.00000000000E+00 0.  1.
         11    1    3    3    0    0  0.17767139184E+02 -0.10242677493E+02  0.26124040301E+02  0.33212183893E+02  0.51100000000E-03 0. -1.
        -11    1    3    3    0    0  0.21639680382E+01  0.67949074417E+00 -0.57360217218E-01  0.22688666328E+01  0.51100000000E-03 0.  1.
         12    1    3    3    0    0  0.59143440164E+01  0.64406791412E+01  0.86591799290E+01  0.12306226472E+02  0.00000000000E+00 0. -1.
</event>
<event>
 7    1  0.4519840E-010  0.4778727E+02  0.7816164E-02  0.1312668E+00
        -11   -1    0    0    0    0  0.00000000000E+00  0.00000000000E+00  0.45593999997E+02  0.45594000000E+02  0.51100000000E-03 0. -1.
         11   -1    0    0    0    0 -0.00000000000E+00 -0.00000000000E+00 -0.45593999997E+02  0.45594000000E+02  0.51100000000E-03 0.  1.
    9900012    2    1    2    0    0 -0.41987112955E+02 -0.58571338786E+01  0.92951599573E+01  0.47787266479E+02  0.19999979183E+02 0.  0.
        -12    1    1    2    0    0  0.41987112955E+02  0.58571338786E+01 -0.92951599573E+01  0.43400733521E+02  0.00000000000E+00 0.  1.
         11    1    3    3    0    0 -0.19818577313E+02  0.32706812722E+01  0.35685146977E+01  0.20401168106E+02  0.51100000000E-03 0. -1.
        -11    1    3    3    0    0 -0.13948387607E+02 -0.18630241394E+01 -0.16465109000E+01  0.14168252334E+02  0.51100000000E-03 0.  1.
        -12    1    3    3    0    0 -0.82201480351E+01 -0.72647910114E+01  0.73731561596E+01  0.13217846039E+02  0.00000000000E+00 0.  1.
</event>
<event>
 7    1  0.4519840E-010  0.4778728E+02  0.7816164E-02  0.1312668E+00
        -11   -1    0    0    0    0  0.00000000000E+00  0.00000000000E+00  0.45593999997E+02  0.45594000000E+02  0.51100000000E-03 0. -1.
         11   -1    0    0    0    0 -0.00000000000E+00 -0.00000000000E+00 -0.45593999997E+02  0.45594000000E+02  0.51100000000E-03 0.  1.
    9900012    2    1    2    0    0  0.11072586324E+02  0.84064996106E+01 -0.41113878754E+02  0.47787280768E+02  0.20000044336E+02 0.  0.
         12    1    1    2    0    0 -0.11072586324E+02 -0.84064996106E+01  0.41113878754E+02  0.43400719232E+02  0.00000000000E+00 0. -1.
         11    1    3    3    0    0  0.27508200988E+01  0.10398863118E+02 -0.87189282532E+01  0.13846410203E+02  0.51100000000E-03 0. -1.
        -11    1    3    3    0    0  0.26707906159E+01  0.53016821634E+00 -0.37453993142E+01  0.46305741691E+01  0.51100000000E-03 0.  1.
         12    1    3    3    0    0  0.56509756097E+01 -0.25225317240E+01 -0.28649551187E+02  0.29310296396E+02  0.00000000000E+00 0. -1.
</event>
<event>
 7    1  0.4519840E-010  0.4778727E+02  0.7816164E-02  0.1312668E+00
        -11   -1    0    0    0    0  0.00000000000E+00  0.00000000000E+00  0.45593999997E+02  0.45594000000E+02  0.51100000000E-03 0. -1.
         11   -1    0    0    0    0 -0.00000000000E+00 -0.00000000000E+00 -0.45593999997E+02  0.45594000000E+02  0.51100000000E-03 0.  1.
    9900012    2    1    2    0    0  0.34886365869E+02 -0.79288706864E+01 -0.24570257691E+02  0.47787273314E+02  0.20000010346E+02 0.  0.
         12    1    1    2    0    0 -0.34886365869E+02  0.79288706864E+01  0.24570257691E+02  0.43400726686E+02  0.00000000000E+00 0. -1.
         11    1    3    3    0    0  0.16398759096E+01 -0.27458594521E+01 -0.25937325555E+01  0.41178132498E+01  0.51100000000E-03 0.  1.
        -11    1    3    3    0    0  0.11338262197E+02 -0.47588071517E+01 -0.17363863625E+02  0.21276893462E+02  0.51100000000E-03 0. -1.
         12    1    3    3    0    0  0.21908227762E+02 -0.42420408265E+00 -0.46126615102E+01  0.22392566601E+02  0.00000000000E+00 0. -1.
</event>
<event>
 7    1  0.4519840E-010  0.4778727E+02  0.7816164E-02  0.1312668E+00
        -11   -1    0    0    0    0  0.00000000000E+00  0.00000000000E+00  0.45593999997E+02  0.45594000000E+02  0.51100000000E-03 0. -1.
         11   -1    0    0    0    0 -0.00000000000E+00 -0.00000000000E+00 -0.45593999997E+02  0.45594000000E+02  0.51100000000E-03 0.  1.
    9900012    2    1    2    0    0  0.18331121970E+02 -0.63199916999E+01 -0.38828483647E+02  0.47787268784E+02  0.19999989693E+02 0.  0.
         12    1    1    2    0    0 -0.18331121970E+02  0.63199916999E+01  0.38828483647E+02  0.43400731216E+02  0.00000000000E+00 0. -1.
         11    1    3    3    0    0  0.69756331822E+01  0.27754285618E+00 -0.16995733579E+02  0.18373661815E+02  0.51100000000E-03 0. -1.
        -11    1    3    3    0    0  0.12040914604E+02 -0.10074397142E+02 -0.19993989299E+02  0.25421186255E+02  0.51100000000E-03 0.  1.
         12    1    3    3    0    0 -0.68542581625E+00  0.34768625857E+01 -0.18387607683E+01  0.39924207134E+01  0.00000000000E+00 0. -1.
</event>
<event>
 7    1  0.4519840E-010  0.4778727E+02  0.7816164E-02  0.1312668E+00
        -11   -1    0    0    0    0  0.00000000000E+00  0.00000000000E+00  0.45593999997E+02  0.45594000000E+02  0.51100000000E-03 0. -1.
         11   -1    0    0    0    0 -0.00000000000E+00 -0.00000000000E+00 -0.45593999997E+02  0.45594000000E+02  0.51100000000E-03 0.  1.
    9900012    2    1    2    0    0 -0.10074753065E+02 -0.12541685791E+02  0.40309161586E+02  0.47787273743E+02  0.20000012306E+02 0.  0.
        -12    1    1    2    0    0  0.10074753065E+02  0.12541685791E+02 -0.40309161586E+02  0.43400726257E+02  0.00000000000E+00 0.  1.
         11    1    3    3    0    0 -0.51718780043E+01 -0.66699862785E+01  0.20260198472E+02  0.21947953924E+02  0.51100000000E-03 0. -1.
        -11    1    3    3    0    0 -0.70790643710E+01 -0.84246425776E+00  0.18955032151E+02  0.20251324463E+02  0.51100000000E-03 0.  1.
         12    1    3    3    0    0  0.21761893099E+01 -0.50292352545E+01  0.10939309633E+01  0.55879953570E+01  0.00000000000E+00 0. -1.
</event>
<event>
 7    1  0.4519840E-010  0.4778727E+02  0.7816164E-02  0.1312668E+00
        -11   -1    0    0    0    0  0.00000000000E+00  0.00000000000E+00  0.45593999997E+02  0.45594000000E+02  0.51100000000E-03 0. -1.
         11   -1    0    0    0    0 -0.00000000000E+00 -0.00000000000E+00 -0.45593999997E+02  0.45594000000E+02  0.51100000000E-03 0.  1.
    9900012    2    1    2    0    0  0.33206229229E+02  0.68673920073E+01  0.27088899625E+02  0.47787271717E+02  0.20000003067E+02 0.  0.
        -12    1    1    2    0    0 -0.33206229229E+02 -0.68673920073E+01 -0.27088899625E+02  0.43400728283E+02  0.00000000000E+00 0.  1.
         11    1    3    3    0    0  0.65917005649E+01 -0.34986350327E+01  0.10882689926E+02  0.13195601681E+02  0.51100000000E-03 0.  1.
        -11    1    3    3    0    0  0.60190054999E+01  0.38621113261E+01  0.96681626625E+01  0.12025709985E+02  0.51100000000E-03 0. -1.
        -12    1    3    3    0    0  0.20595523164E+02  0.65039157140E+01  0.65380470369E+01  0.22565960052E+02  0.00000000000E+00 0.  1.
</event>
<event>
 7    1  0.4519840E-010  0.4778728E+02  0.7816164E-02  0.1312668E+00
        -11   -1    0    0    0    0  0.00000000000E+00  0.00000000000E+00  0.45593999997E+02  0.45594000000E+02  0.51100000000E-03 0.  1.
         11   -1    0    0    0    0 -0.00000000000E+00 -0.00000000000E+00 -0.45593999997E+02  0.45594000000E+02  0.51100000000E-03 0. -1.
    9900012    2    1    2    0    0  0.39445324323E+02  0.10277325102E+02 -0.14901873632E+02  0.47787275813E+02  0.20000021742E+02 0.  0.
        -12    1    1    2    0    0 -0.39445324323E+02 -0.10277325102E+02  0.14901873632E+02  0.43400724187E+02  0.00000000000E+00 0.  1.
         11    1    3    3    0    0 -0.38888331916E-01  0.98480535089E+00 -0.14240768679E+01  0.17318628896E+01  0.51100000000E-03 0. -1.
        -11    1    3    3    0    0  0.81479955992E+01  0.86849690443E+01 -0.77108396532E+01  0.14187162084E+02  0.51100000000E-03 0.  1.
         12    1    3    3    0    0  0.31336217056E+02  0.60755070644E+00 -0.57669571111E+01  0.31868250839E+02  0.00000000000E+00 0. -1.
</event>
<event>
 7    1  0.4519840E-010  0.4778727E+02  0.7816164E-02  0.1312668E+00
        -11   -1    0    0    0    0  0.00000000000E+00  0.00000000000E+00  0.45593999997E+02  0.45594000000E+02  0.51100000000E-03 0. -1.
         11   -1    0    0    0    0 -0.00000000000E+00 -0.00000000000E+00 -0.45593999997E+02  0.45594000000E+02  0.51100000000E-03 0.  1.
    9900012    2    1    2    0    0  0.21099888022E+02  0.93890561201E+01  0.36745935731E+02  0.47787269106E+02  0.19999991161E+02 0.  0.
        -12    1    1    2    0    0 -0.21099888022E+02 -0.93890561201E+01 -0.36745935731E+02  0.43400730894E+02  0.00000000000E+00 0.  1.
         11    1    3    3    0    0 -0.13112914221E+01  0.24424500761E+01  0.11956997452E+02  0.12274153164E+02  0.51100000000E-03 0. -1.
        -11    1    3    3    0    0  0.87740001242E+01  0.10904767595E+01  0.15956630562E+02  0.18242430674E+02  0.51100000000E-03 0.  1.
         12    1    3    3    0    0  0.13637179320E+02  0.58561292845E+01  0.88323077179E+01  0.17270685268E+02  0.00000000000E+00 0. -1.
</event>
<event>
 7    1  0.4519840E-010  0.4778727E+02  0.7816164E-02  0.1312668E+00
        -11   -1    0    0    0    0  0.00000000000E+00  0.00000000000E+00  0.45593999997E+02  0.45594000000E+02  0.51100000000E-03 0. -1.
         11   -1    0    0    0    0 -0.00000000000E+00 -0.00000000000E+00 -0.45593999997E+02  0.45594000000E+02  0.51100000000E-03 0.  1.
    9900012    2    1    2    0    0  0.18530641753E+02  0.38580991363E+02 -0.71934257676E+01  0.47787274745E+02  0.20000016873E+02 0.  0.
         12    1    1    2    0    0 -0.18530641753E+02 -0.38580991363E+02  0.71934257676E+01  0.43400725255E+02  0.00000000000E+00 0. -1.
         11    1    3    3    0    0  0.20790488947E+01  0.89416180766E+01  0.58904611100E+00  0.91990191714E+01  0.51100000000E-03 0. -1.
        -11    1    3    3    0    0  0.10941823136E+02  0.14828064937E+02  0.40235895416E+01  0.18862244733E+02  0.51100000000E-03 0.  1.
         12    1    3    3    0    0  0.55097697229E+01  0.14811308350E+02 -0.11806061420E+02  0.19726010841E+02  0.00000000000E+00 0. -1.
</event>
<event>
 7    1  0.4519840E-010  0.4778726E+02  0.7816164E-02  0.1312668E+00
        -11   -1    0    0    0    0  0.00000000000E+00  0.00000000000E+00  0.45593999997E+02  0.45594000000E+02  0.51100000000E-03 0. -1.
         11   -1    0    0    0    0 -0.00000000000E+00 -0.00000000000E+00 -0.45593999997E+02  0.45594000000E+02  0.51100000000E-03 0.  1.
    9900012    2    1    2    0    0  0.36906751110E+02 -0.54553638212E+01  0.22175539268E+02  0.47787264825E+02  0.19999971643E+02 0.  0.
        -12    1    1    2    0    0 -0.36906751110E+02  0.54553638212E+01 -0.22175539268E+02  0.43400735175E+02  0.00000000000E+00 0.  1.
         11    1    3    3    0    0  0.55075062678E+01  0.22633826519E+01 -0.76608826309E+00  0.60035337766E+01  0.51100000000E-03 0.  1.
        -11    1    3    3    0    0  0.39804607733E+01 -0.10960601397E+01  0.98623614108E+01  0.10691659771E+02  0.51100000000E-03 0. -1.
         12    1    3    3    0    0  0.27418784069E+02 -0.66226863334E+01  0.13079266121E+02  0.31092071278E+02  0.00000000000E+00 0. -1.
</event>
<event>
 7    1  0.4519840E-010  0.4778727E+02  0.7816164E-02  0.1312668E+00
        -11   -1    0    0    0    0  0.00000000000E+00  0.00000000000E+00  0.45593999997E+02  0.45594000000E+02  0.51100000000E-03 0. -1.
         11   -1    0    0    0    0 -0.00000000000E+00 -0.00000000000E+00 -0.45593999997E+02  0.45594000000E+02  0.51100000000E-03 0.  1.
    9900012    2    1    2    0    0  0.28862744626E+02  0.24869718392E+02  0.20786112191E+02  0.47787269819E+02  0.19999994413E+02 0.  0.
        -12    1    1    2    0    0 -0.28862744626E+02 -0.24869718392E+02 -0.20786112191E+02  0.43400730181E+02  0.00000000000E+00 0.  1.
         11    1    3    3    0    0  0.22925707181E+00  0.42980301043E+01  0.20413232917E+00  0.43089780518E+01  0.51100000000E-03 0. -1.
        -11    1    3    3    0    0  0.19075894715E+01  0.41434294932E+01 -0.18392437673E+01  0.49183049370E+01  0.51100000000E-03 0.  1.
         12    1    3    3    0    0  0.26725898082E+02  0.16428258795E+02  0.22421223629E+02  0.38559986830E+02  0.00000000000E+00 0. -1.
</event>
<event>
 7    1  0.4519840E-010  0.4778726E+02  0.7816164E-02  0.1312668E+00
        -11   -1    0    0    0    0  0.00000000000E+00  0.00000000000E+00  0.45593999997E+02  0.45594000000E+02  0.51100000000E-03 0. -1.
         11   -1    0    0    0    0 -0.00000000000E+00 -0.00000000000E+00 -0.45593999997E+02  0.45594000000E+02  0.51100000000E-03 0.  1.
    9900012    2    1    2    0    0  0.54175030109E-01  0.40873784406E+02 -0.14592988963E+02  0.47787256763E+02  0.19999934886E+02 0.  0.
         12    1    1    2    0    0 -0.54175030109E-01 -0.40873784406E+02  0.14592988963E+02  0.43400743237E+02  0.00000000000E+00 0. -1.
         11    1    3    3    0    0  0.43165447261E+01  0.61834116083E+01  0.81942070796E+00  0.75854194378E+01  0.51100000000E-03 0. -1.
        -11    1    3    3    0    0 -0.17009550018E+01  0.34495212702E+02 -0.13968077781E+02  0.37254800287E+02  0.51100000000E-03 0.  1.
         12    1    3    3    0    0 -0.25614146942E+01  0.19516009635E+00 -0.14443318901E+01  0.29470370388E+01  0.00000000000E+00 0. -1.
</event>
<event>
 7    1  0.4519840E-010  0.4778727E+02  0.7816164E-02  0.1312668E+00
        -11   -1    0    0    0    0  0.00000000000E+00  0.00000000000E+00  0.45593999997E+02  0.45594000000E+02  0.51100000000E-03 0. -1.
         11   -1    0    0    0    0 -0.00000000000E+00 -0.00000000000E+00 -0.45593999997E+02  0.45594000000E+02  0.51100000000E-03 0.  1.
    9900012    2    1    2    0    0 -0.30016338417E+02 -0.75539749839E+01  0.30423348644E+02  0.47787271288E+02  0.20000001109E+02 0.  0.
        -12    1    1    2    0    0  0.30016338417E+02  0.75539749839E+01 -0.30423348644E+02  0.43400728712E+02  0.00000000000E+00 0.  1.
         11    1    3    3    0    0 -0.73467610748E+01 -0.22735040081E+01  0.20018337789E+01  0.79467639643E+01  0.51100000000E-03 0. -1.
        -11    1    3    3    0    0 -0.15909832144E+02 -0.72867050554E+01  0.10090078114E+02  0.20199715493E+02  0.51100000000E-03 0.  1.
        -12    1    3    3    0    0 -0.67597451985E+01  0.20062340795E+01  0.18331436752E+02  0.19640791830E+02  0.00000000000E+00 0.  1.
</event>
<event>
 7    1  0.4519840E-010  0.4778728E+02  0.7816164E-02  0.1312668E+00
        -11   -1    0    0    0    0  0.00000000000E+00  0.00000000000E+00  0.45593999997E+02  0.45594000000E+02  0.51100000000E-03 0.  1.
         11   -1    0    0    0    0 -0.00000000000E+00 -0.00000000000E+00 -0.45593999997E+02  0.45594000000E+02  0.51100000000E-03 0. -1.
    9900012    2    1    2    0    0  0.51862590598E+01  0.41262594623E+02 -0.12414648357E+02  0.47787280053E+02  0.20000041075E+02 0.  0.
        -12    1    1    2    0    0 -0.51862590598E+01 -0.41262594623E+02  0.12414648357E+02  0.43400719947E+02  0.00000000000E+00 0.  1.
         11    1    3    3    0    0  0.35272305333E+01  0.21502718973E+02 -0.60779431804E+01  0.22621884803E+02  0.51100000000E-03 0. -1.
        -11    1    3    3    0    0  0.83465477148E-01  0.20929760800E+02 -0.81813441880E+01  0.22472121542E+02  0.51100000000E-03 0.  1.
        -12    1    3    3    0    0  0.15755630494E+01 -0.11698851499E+01  0.18446390109E+01  0.26932737082E+01  0.00000000000E+00 0.  1.
</event>
<event>
 7    1  0.4519840E-010  0.4778725E+02  0.7816164E-02  0.1312668E+00
        -11   -1    0    0    0    0  0.00000000000E+00  0.00000000000E+00  0.45593999997E+02  0.45594000000E+02  0.51100000000E-03 0. -1.
         11   -1    0    0    0    0 -0.00000000000E+00 -0.00000000000E+00 -0.45593999997E+02  0.45594000000E+02  0.51100000000E-03 0.  1.
    9900012    2    1    2    0    0 -0.21582972254E+02 -0.34753344691E+01  0.37492963480E+02  0.47787251717E+02  0.19999911880E+02 0.  0.
        -12    1    1    2    0    0  0.21582972254E+02  0.34753344691E+01 -0.37492963480E+02  0.43400748283E+02  0.00000000000E+00 0.  1.
         11    1    3    3    0    0 -0.31713665337E+01  0.15951751062E+01  0.85307244901E+01  0.92398814872E+01  0.51100000000E-03 0. -1.
        -11    1    3    3    0    0 -0.66823772639E+01 -0.10474277184E+02  0.15905399033E+02  0.20182823566E+02  0.51100000000E-03 0.  1.
         12    1    3    3    0    0 -0.11729228457E+02  0.54037676082E+01  0.13056839956E+02  0.18364546665E+02  0.00000000000E+00 0. -1.
</event>
<event>
 7    1  0.4519840E-010  0.4778727E+02  0.7816164E-02  0.1312668E+00
        -11   -1    0    0    0    0  0.00000000000E+00  0.00000000000E+00  0.45593999997E+02  0.45594000000E+02  0.51100000000E-03 0. -1.
         11   -1    0    0    0    0 -0.00000000000E+00 -0.00000000000E+00 -0.45593999997E+02  0.45594000000E+02  0.51100000000E-03 0.  1.
    9900012    2    1    2    0    0  0.40417463548E+01 -0.38472590753E+02 -0.19676065562E+02  0.47787268337E+02  0.19999987656E+02 0.  0.
         12    1    1    2    0    0 -0.40417463548E+01  0.38472590753E+02  0.19676065562E+02  0.43400731663E+02  0.00000000000E+00 0. -1.
         11    1    3    3    0    0 -0.49439400885E+01 -0.12556624586E+02 -0.89129547814E+01  0.16172573320E+02  0.51100000000E-03 0. -1.
        -11    1    3    3    0    0  0.33693277945E+00 -0.15312098903E+02 -0.91383693038E+01  0.17834900905E+02  0.51100000000E-03 0.  1.
        -12    1    3    3    0    0  0.86487536639E+01 -0.10603867265E+02 -0.16247414769E+01  0.13779794112E+02  0.00000000000E+00 0.  1.
</event>
<event>
 7    1  0.4519840E-010  0.4778727E+02  0.7816164E-02  0.1312668E+00
        -11   -1    0    0    0    0  0.00000000000E+00  0.00000000000E+00  0.45593999997E+02  0.45594000000E+02  0.51100000000E-03 0. -1.
         11   -1    0    0    0    0 -0.00000000000E+00 -0.00000000000E+00 -0.45593999997E+02  0.45594000000E+02  0.51100000000E-03 0.  1.
    9900012    2    1    2    0    0 -0.22951852618E+02 -0.19496744196E+02 -0.31252404429E+02  0.47787270105E+02  0.19999995715E+02 0.  0.
         12    1    1    2    0    0  0.22951852618E+02  0.19496744196E+02  0.31252404429E+02  0.43400729895E+02  0.00000000000E+00 0. -1.
         11    1    3    3    0    0 -0.12880576402E+02 -0.87922880453E+01 -0.69600408568E+01  0.17077931564E+02  0.51100000000E-03 0. -1.
        -11    1    3    3    0    0 -0.77221662445E+00 -0.50302407673E+01 -0.12782609325E+01  0.52472461315E+01  0.51100000000E-03 0.  1.
         12    1    3    3    0    0 -0.92990595908E+01 -0.56742153839E+01 -0.23014102640E+02  0.25462092409E+02  0.00000000000E+00 0. -1.
</event>
<event>
 7    1  0.4519840E-010  0.4778726E+02  0.7816164E-02  0.1312668E+00
        -11   -1    0    0    0    0  0.00000000000E+00  0.00000000000E+00  0.45593999997E+02  0.45594000000E+02  0.51100000000E-03 0. -1.
         11   -1    0    0    0    0 -0.00000000000E+00 -0.00000000000E+00 -0.45593999997E+02  0.45594000000E+02  0.51100000000E-03 0.  1.
    9900012    2    1    2    0    0  0.35092378760E+01  0.51097177178E+01 -0.42955792497E+02  0.47787261818E+02  0.19999957935E+02 0.  0.
         12    1    1    2    0    0 -0.35092378760E+01 -0.51097177178E+01  0.42955792497E+02  0.43400738182E+02  0.00000000000E+00 0. -1.
         11    1    3    3    0    0 -0.29449648770E+00 -0.43498911447E+01 -0.31819471006E+01  0.53975057910E+01  0.51100000000E-03 0. -1.
        -11    1    3    3    0    0  0.61655309721E+01  0.23124623485E+01 -0.12925668648E+02  0.14506349111E+02  0.51100000000E-03 0.  1.
        -12    1    3    3    0    0 -0.23617966085E+01  0.71471465140E+01 -0.26848176749E+02  0.27883406916E+02  0.00000000000E+00 0.  1.
</event>
<event>
 7    1  0.4519840E-010  0.4778726E+02  0.7816164E-02  0.1312668E+00
        -11   -1    0    0    0    0  0.00000000000E+00  0.00000000000E+00  0.45593999997E+02  0.45594000000E+02  0.51100000000E-03 0. -1.
         11   -1    0    0    0    0 -0.00000000000E+00 -0.00000000000E+00 -0.45593999997E+02  0.45594000000E+02  0.51100000000E-03 0.  1.
    9900012    2    1    2    0    0  0.65722946380E+01  0.69451597317E+01  0.42334313045E+02  0.47787258515E+02  0.19999942872E+02 0.  0.
        -12    1    1    2    0    0 -0.65722946380E+01 -0.69451597317E+01 -0.42334313045E+02  0.43400741485E+02  0.00000000000E+00 0.  1.
         11    1    3    3    0    0 -0.12494742233E+01 -0.50819635903E+00  0.60854916757E+01  0.62331900798E+01  0.51100000000E-03 0. -1.
        -11    1    3    3    0    0  0.11988124465E+02  0.86312251695E+01  0.32953666009E+02  0.36113117835E+02  0.51100000000E-03 0.  1.
        -12    1    3    3    0    0 -0.41663556034E+01 -0.11778690788E+01  0.32951553602E+01  0.54409505997E+01  0.00000000000E+00 0.  1.
</event>
<event>
 7    1  0.4519840E-010  0.4778727E+02  0.7816164E-02  0.1312668E+00
        -11   -1    0    0    0    0  0.00000000000E+00  0.00000000000E+00  0.45593999997E+02  0.45594000000E+02  0.51100000000E-03 0. -1.
         11   -1    0    0    0    0 -0.00000000000E+00 -0.00000000000E+00 -0.45593999997E+02  0.45594000000E+02  0.51100000000E-03 0.  1.
    9900012    2    1    2    0    0 -0.58180713691E+01  0.15351088609E+02  0.40176080596E+02  0.47787270422E+02  0.19999997160E+02 0.  0.
        -12    1    1    2    0    0  0.58180713691E+01 -0.15351088609E+02 -0.40176080596E+02  0.43400729578E+02  0.00000000000E+00 0.  1.
         11    1    3    3    0    0  0.32770625484E+01  0.20144553134E+01  0.63802395436E+01  0.74501426866E+01  0.51100000000E-03 0. -1.
        -11    1    3    3    0    0  0.40302974664E+01  0.37123328340E+01  0.59910142580E+01  0.81189263354E+01  0.51100000000E-03 0.  1.
        -12    1    3    3    0    0 -0.13125431384E+02  0.96243004612E+01  0.27804826794E+02  0.32218201400E+02  0.00000000000E+00 0.  1.
</event>
<event>
 7    1  0.4519840E-010  0.4778727E+02  0.7816164E-02  0.1312668E+00
        -11   -1    0    0    0    0  0.00000000000E+00  0.00000000000E+00  0.45593999997E+02  0.45594000000E+02  0.51100000000E-03 0. -1.
         11   -1    0    0    0    0 -0.00000000000E+00 -0.00000000000E+00 -0.45593999997E+02  0.45594000000E+02  0.51100000000E-03 0.  1.
    9900012    2    1    2    0    0  0.29924743079E+02  0.84879672507E+01  0.30266932826E+02  0.47787273518E+02  0.20000011280E+02 0.  0.
        -12    1    1    2    0    0 -0.29924743079E+02 -0.84879672507E+01 -0.30266932826E+02  0.43400726482E+02  0.00000000000E+00 0.  1.
         11    1    3    3    0    0  0.43878521097E+01 -0.27520864999E+01  0.60266787382E+00  0.52144448474E+01  0.51100000000E-03 0. -1.
        -11    1    3    3    0    0  0.48966864556E+01 -0.13305482984E+01  0.11646419111E+01  0.52061778745E+01  0.51100000000E-03 0.  1.
         12    1    3    3    0    0  0.20640204514E+02  0.12570602049E+02  0.28499623041E+02  0.37366650797E+02  0.00000000000E+00 0. -1.
</event>
<event>
 7    1  0.4519840E-010  0.4778727E+02  0.7816164E-02  0.1312668E+00
        -11   -1    0    0    0    0  0.00000000000E+00  0.00000000000E+00  0.45593999997E+02  0.45594000000E+02  0.51100000000E-03 0. -1.
         11   -1    0    0    0    0 -0.00000000000E+00 -0.00000000000E+00 -0.45593999997E+02  0.45594000000E+02  0.51100000000E-03 0.  1.
    9900012    2    1    2    0    0 -0.12801983937E+02 -0.16736716156E+01 -0.41435868280E+02  0.47787272477E+02  0.20000006533E+02 0.  0.
         12    1    1    2    0    0  0.12801983937E+02  0.16736716156E+01  0.41435868280E+02  0.43400727523E+02  0.00000000000E+00 0. -1.
         11    1    3    3    0    0 -0.11555318070E+02 -0.20194363094E+01 -0.15293596779E+02  0.19274273044E+02  0.51100000000E-03 0. -1.
        -11    1    3    3    0    0 -0.31836273756E+01  0.55009417793E+00 -0.26356287025E+02  0.26553567611E+02  0.51100000000E-03 0.  1.
         12    1    3    3    0    0  0.19369615079E+01 -0.20432948420E+00  0.21401552377E+00  0.19594318222E+01  0.00000000000E+00 0. -1.
</event>
<event>
 7    1  0.4519840E-010  0.4778727E+02  0.7816164E-02  0.1312668E+00
        -11   -1    0    0    0    0  0.00000000000E+00  0.00000000000E+00  0.45593999997E+02  0.45594000000E+02  0.51100000000E-03 0. -1.
         11   -1    0    0    0    0 -0.00000000000E+00 -0.00000000000E+00 -0.45593999997E+02  0.45594000000E+02  0.51100000000E-03 0.  1.
    9900012    2    1    2    0    0  0.10577590777E+02 -0.40218505626E+02 -0.12418114647E+02  0.47787271978E+02  0.20000004259E+02 0.  0.
         12    1    1    2    0    0 -0.10577590777E+02  0.40218505626E+02  0.12418114647E+02  0.43400728022E+02  0.00000000000E+00 0. -1.
         11    1    3    3    0    0  0.59298380711E+00 -0.57191251839E+01 -0.16421820471E+01  0.59796977182E+01  0.51100000000E-03 0. -1.
        -11    1    3    3    0    0  0.72322258007E+01 -0.10318745137E+02 -0.12053134539E+02  0.17437306091E+02  0.51100000000E-03 0.  1.
         12    1    3    3    0    0  0.27523811694E+01 -0.24180635305E+02  0.12772019395E+01  0.24370268169E+02  0.00000000000E+00 0. -1.
</event>
<event>
 7    1  0.4519840E-010  0.4778727E+02  0.7816164E-02  0.1312668E+00
        -11   -1    0    0    0    0  0.00000000000E+00  0.00000000000E+00  0.45593999997E+02  0.45594000000E+02  0.51100000000E-03 0.  1.
         11   -1    0    0    0    0 -0.00000000000E+00 -0.00000000000E+00 -0.45593999997E+02  0.45594000000E+02  0.51100000000E-03 0. -1.
    9900012    2    1    2    0    0  0.30429980146E+02  0.23410759806E+02  0.20237986378E+02  0.47787268912E+02  0.19999990276E+02 0.  0.
        -12    1    1    2    0    0 -0.30429980146E+02 -0.23410759806E+02 -0.20237986378E+02  0.43400731088E+02  0.00000000000E+00 0.  1.
         11    1    3    3    0    0  0.50569247570E+01  0.12183529838E+02  0.65743679148E+00  0.13207691347E+02  0.51100000000E-03 0. -1.
        -11    1    3    3    0    0  0.93558442832E+01  0.32947439504E+01  0.34460433576E+01  0.10500589271E+02  0.51100000000E-03 0.  1.
         12    1    3    3    0    0  0.16017211106E+02  0.79324860177E+01  0.16134506229E+02  0.24078988294E+02  0.00000000000E+00 0. -1.
</event>
<event>
 7    1  0.4519840E-010  0.4778727E+02  0.7816164E-02  0.1312668E+00
        -11   -1    0    0    0    0  0.00000000000E+00  0.00000000000E+00  0.45593999997E+02  0.45594000000E+02  0.51100000000E-03 0. -1.
         11   -1    0    0    0    0 -0.00000000000E+00 -0.00000000000E+00 -0.45593999997E+02  0.45594000000E+02  0.51100000000E-03 0.  1.
    9900012    2    1    2    0    0 -0.10257638608E+02  0.13742885964E+02 -0.39868999726E+02  0.47787271855E+02  0.20000003695E+02 0.  0.
         12    1    1    2    0    0  0.10257638608E+02 -0.13742885964E+02  0.39868999726E+02  0.43400728145E+02  0.00000000000E+00 0. -1.
         11    1    3    3    0    0 -0.42243748079E+01  0.63134850532E+01 -0.14711157465E+02  0.16556678116E+02  0.51100000000E-03 0. -1.
        -11    1    3    3    0    0  0.21965444335E+01  0.66083707657E+01 -0.20689549034E+02  0.21830089581E+02  0.51100000000E-03 0.  1.
         12    1    3    3    0    0 -0.82298082331E+01  0.82103014472E+00 -0.44682932269E+01  0.94005041574E+01  0.00000000000E+00 0. -1.
</event>
<event>
 7    1  0.4519840E-010  0.4778726E+02  0.7816164E-02  0.1312668E+00
        -11   -1    0    0    0    0  0.00000000000E+00  0.00000000000E+00  0.45593999997E+02  0.45594000000E+02  0.51100000000E-03 0.  1.
         11   -1    0    0    0    0 -0.00000000000E+00 -0.00000000000E+00 -0.45593999997E+02  0.45594000000E+02  0.51100000000E-03 0. -1.
    9900012    2    1    2    0    0  0.16564097616E+02 -0.26170625335E+02 -0.30403172166E+02  0.47787264545E+02  0.19999970365E+02 0.  0.
         12    1    1    2    0    0 -0.16564097616E+02  0.26170625335E+02  0.30403172166E+02  0.43400735455E+02  0.00000000000E+00 0. -1.
         11    1    3    3    0    0  0.12391081298E+01  0.22270803591E+01 -0.41497776188E+01  0.48699004538E+01  0.51100000000E-03 0. -1.
        -11    1    3    3    0    0  0.31635838724E+01 -0.19163214974E+01 -0.57667130678E-02  0.36987274183E+01  0.51100000000E-03 0.  1.
        -12    1    3    3    0    0  0.12161405614E+02 -0.26481384197E+02 -0.26247627834E+02  0.39218636672E+02  0.00000000000E+00 0.  1.
</event>
<event>
 7    1  0.4519840E-010  0.4778726E+02  0.7816164E-02  0.1312668E+00
        -11   -1    0    0    0    0  0.00000000000E+00  0.00000000000E+00  0.45593999997E+02  0.45594000000E+02  0.51100000000E-03 0.  1.
         11   -1    0    0    0    0 -0.00000000000E+00 -0.00000000000E+00 -0.45593999997E+02  0.45594000000E+02  0.51100000000E-03 0. -1.
    9900012    2    1    2    0    0  0.37241961650E+02  0.13005684818E+02  0.18097312848E+02  0.47787259483E+02  0.19999947285E+02 0.  0.
        -12    1    1    2    0    0 -0.37241961650E+02 -0.13005684818E+02 -0.18097312848E+02  0.43400740517E+02  0.00000000000E+00 0.  1.
         11    1    3    3    0    0  0.16898819030E+02  0.14465665942E+01  0.99319009529E+01  0.19654650756E+02  0.51100000000E-03 0. -1.
        -11    1    3    3    0    0  0.15917481553E+02  0.10060852736E+02  0.11791964623E+02  0.22217952352E+02  0.51100000000E-03 0.  1.
        -12    1    3    3    0    0  0.44256610663E+01  0.14982654880E+01 -0.36265527278E+01  0.59146563749E+01  0.00000000000E+00 0.  1.
</event>
<event>
 7    1  0.4519840E-010  0.4778727E+02  0.7816164E-02  0.1312668E+00
        -11   -1    0    0    0    0  0.00000000000E+00  0.00000000000E+00  0.45593999997E+02  0.45594000000E+02  0.51100000000E-03 0. -1.
         11   -1    0    0    0    0 -0.00000000000E+00 -0.00000000000E+00 -0.45593999997E+02  0.45594000000E+02  0.51100000000E-03 0.  1.
    9900012    2    1    2    0    0 -0.16102170558E+02  0.22065155247E+02  0.33726431123E+02  0.47787272713E+02  0.20000007609E+02 0.  0.
        -12    1    1    2    0    0  0.16102170558E+02 -0.22065155247E+02 -0.33726431123E+02  0.43400727287E+02  0.00000000000E+00 0.  1.
         11    1    3    3    0    0 -0.10801464127E+02  0.11794427597E+02  0.13363886412E+02  0.20841631652E+02  0.51100000000E-03 0. -1.
        -11    1    3    3    0    0 -0.25718825105E+01 -0.26433063303E+00 -0.11557001836E+01  0.28319769608E+01  0.51100000000E-03 0.  1.
         12    1    3    3    0    0 -0.27288239201E+01  0.10535058283E+02  0.21518244895E+02  0.24113664101E+02  0.00000000000E+00 0. -1.
</event>
<event>
 7    1  0.4519840E-010  0.4778727E+02  0.7816164E-02  0.1312668E+00
        -11   -1    0    0    0    0  0.00000000000E+00  0.00000000000E+00  0.45593999997E+02  0.45594000000E+02  0.51100000000E-03 0. -1.
         11   -1    0    0    0    0 -0.00000000000E+00 -0.00000000000E+00 -0.45593999997E+02  0.45594000000E+02  0.51100000000E-03 0.  1.
    9900012    2    1    2    0    0 -0.15280731469E+02 -0.14767816905E+02 -0.37842226689E+02  0.47787270846E+02  0.19999999094E+02 0.  0.
         12    1    1    2    0    0  0.15280731469E+02  0.14767816905E+02  0.37842226689E+02  0.43400729154E+02  0.00000000000E+00 0. -1.
         11    1    3    3    0    0 -0.53790759478E+01 -0.42371202064E+01 -0.45419880732E+01  0.82168912378E+01  0.51100000000E-03 0. -1.
        -11    1    3    3    0    0 -0.52494191984E+01 -0.42823970106E+01 -0.16460345555E+01  0.69717111311E+01  0.51100000000E-03 0.  1.
        -12    1    3    3    0    0 -0.46522363228E+01 -0.62482996884E+01 -0.31654204060E+02  0.32598668477E+02  0.00000000000E+00 0.  1.
</event>
<event>
 7    1  0.4519840E-010  0.4778727E+02  0.7816164E-02  0.1312668E+00
        -11   -1    0    0    0    0  0.00000000000E+00  0.00000000000E+00  0.45593999997E+02  0.45594000000E+02  0.51100000000E-03 0. -1.
         11   -1    0    0    0    0 -0.00000000000E+00 -0.00000000000E+00 -0.45593999997E+02  0.45594000000E+02  0.51100000000E-03 0.  1.
    9900012    2    1    2    0    0 -0.14946345654E+00  0.18702869703E+02  0.39163802765E+02  0.47787272801E+02  0.20000008008E+02 0.  0.
        -12    1    1    2    0    0  0.14946345654E+00 -0.18702869703E+02 -0.39163802765E+02  0.43400727199E+02  0.00000000000E+00 0.  1.
         11    1    3    3    0    0  0.42183140755E+01  0.96194257710E+01  0.33147730451E+02  0.34772108940E+02  0.51100000000E-03 0. -1.
        -11    1    3    3    0    0  0.71926294795E+00  0.36622814542E+01  0.36327045901E+01  0.52082806700E+01  0.51100000000E-03 0.  1.
        -12    1    3    3    0    0 -0.50870404800E+01  0.54211624775E+01  0.23833677234E+01  0.78068831909E+01  0.00000000000E+00 0.  1.
</event>
<event>
 7    1  0.4519840E-010  0.4778727E+02  0.7816164E-02  0.1312668E+00
        -11   -1    0    0    0    0  0.00000000000E+00  0.00000000000E+00  0.45593999997E+02  0.45594000000E+02  0.51100000000E-03 0. -1.
         11   -1    0    0    0    0 -0.00000000000E+00 -0.00000000000E+00 -0.45593999997E+02  0.45594000000E+02  0.51100000000E-03 0.  1.
    9900012    2    1    2    0    0  0.40292157581E+02  0.10232539258E+02 -0.12468380693E+02  0.47787270290E+02  0.19999996562E+02 0.  0.
         12    1    1    2    0    0 -0.40292157581E+02 -0.10232539258E+02  0.12468380693E+02  0.43400729710E+02  0.00000000000E+00 0. -1.
         11    1    3    3    0    0  0.17796494743E+02  0.97731830156E+01 -0.10402169741E+02  0.22813054749E+02  0.51100000000E-03 0. -1.
        -11    1    3    3    0    0  0.18953873284E+02  0.28560737613E+01 -0.49740892136E+01  0.19802727932E+02  0.51100000000E-03 0.  1.
         12    1    3    3    0    0  0.35417895543E+01 -0.23967175186E+01  0.29078782614E+01  0.51714876094E+01  0.00000000000E+00 0. -1.
</event>
<event>
 7    1  0.4519840E-010  0.4778727E+02  0.7816164E-02  0.1312668E+00
        -11   -1    0    0    0    0  0.00000000000E+00  0.00000000000E+00  0.45593999997E+02  0.45594000000E+02  0.51100000000E-03 0. -1.
         11   -1    0    0    0    0 -0.00000000000E+00 -0.00000000000E+00 -0.45593999997E+02  0.45594000000E+02  0.51100000000E-03 0.  1.
    9900012    2    1    2    0    0  0.95456397640E+01  0.37508951103E+02  0.19636254172E+02  0.47787272710E+02  0.20000007596E+02 0.  0.
        -12    1    1    2    0    0 -0.95456397640E+01 -0.37508951103E+02 -0.19636254172E+02  0.43400727290E+02  0.00000000000E+00 0.  1.
         11    1    3    3    0    0 -0.36105539501E+01  0.13022652605E+01  0.44138323690E+01  0.58492658580E+01  0.51100000000E-03 0. -1.
        -11    1    3    3    0    0  0.10911603175E+01  0.28571697414E+01 -0.57811816902E+00  0.31125986969E+01  0.51100000000E-03 0.  1.
         12    1    3    3    0    0  0.12065033397E+02  0.33349516101E+02  0.15800539972E+02  0.38825408156E+02  0.00000000000E+00 0. -1.
</event>
<event>
 7    1  0.4519840E-010  0.4778731E+02  0.7816164E-02  0.1312668E+00
        -11   -1    0    0    0    0  0.00000000000E+00  0.00000000000E+00  0.45593999997E+02  0.45594000000E+02  0.51100000000E-03 0. -1.
         11   -1    0    0    0    0 -0.00000000000E+00 -0.00000000000E+00 -0.45593999997E+02  0.45594000000E+02  0.51100000000E-03 0.  1.
    9900012    2    1    2    0    0  0.66512867724E+01  0.16655249081E+02  0.39521931923E+02  0.47787308294E+02  0.20000169834E+02 0.  0.
        -12    1    1    2    0    0 -0.66512867724E+01 -0.16655249081E+02 -0.39521931923E+02  0.43400691706E+02  0.00000000000E+00 0.  1.
         11    1    3    3    0    0  0.81761952239E-01 -0.73739738581E+00  0.11155570206E+01  0.13397416351E+01  0.51100000000E-03 0. -1.
        -11    1    3    3    0    0  0.88927780226E+01  0.43139859836E+01  0.63498900629E+01  0.11747896837E+02  0.51100000000E-03 0.  1.
         12    1    3    3    0    0 -0.23232532025E+01  0.13078660483E+02  0.32056484839E+02  0.34699669822E+02  0.00000000000E+00 0. -1.
</event>
<event>
 7    1  0.4519840E-010  0.4778728E+02  0.7816164E-02  0.1312668E+00
        -11   -1    0    0    0    0  0.00000000000E+00  0.00000000000E+00  0.45593999997E+02  0.45594000000E+02  0.51100000000E-03 0. -1.
         11   -1    0    0    0    0 -0.00000000000E+00 -0.00000000000E+00 -0.45593999997E+02  0.45594000000E+02  0.51100000000E-03 0.  1.
    9900012    2    1    2    0    0 -0.12257636847E+02 -0.19695848141E+02 -0.36680330010E+02  0.47787277601E+02  0.20000029896E+02 0.  0.
         12    1    1    2    0    0  0.12257636847E+02  0.19695848141E+02  0.36680330010E+02  0.43400722399E+02  0.00000000000E+00 0. -1.
         11    1    3    3    0    0  0.53794673238E+00 -0.23871745430E+01 -0.11844981618E+02  0.12095105571E+02  0.51100000000E-03 0. -1.
        -11    1    3    3    0    0 -0.79345893646E+00  0.16263854232E+01 -0.64496280386E+01  0.66986870897E+01  0.51100000000E-03 0.  1.
        -12    1    3    3    0    0 -0.12002124643E+02 -0.18935059021E+02 -0.18385720354E+02  0.28993484941E+02  0.00000000000E+00 0.  1.
</event>
<event>
 7    1  0.4519840E-010  0.4778727E+02  0.7816164E-02  0.1312668E+00
        -11   -1    0    0    0    0  0.00000000000E+00  0.00000000000E+00  0.45593999997E+02  0.45594000000E+02  0.51100000000E-03 0. -1.
         11   -1    0    0    0    0 -0.00000000000E+00 -0.00000000000E+00 -0.45593999997E+02  0.45594000000E+02  0.51100000000E-03 0.  1.
    9900012    2    1    2    0    0  0.21542192517E+02  0.30582912147E+02 -0.22005514038E+02  0.47787271643E+02  0.20000002731E+02 0.  0.
         12    1    1    2    0    0 -0.21542192517E+02 -0.30582912147E+02  0.22005514038E+02  0.43400728357E+02  0.00000000000E+00 0. -1.
         11    1    3    3    0    0  0.13294818577E+02  0.18796972473E+02 -0.20172967915E+02  0.30610896914E+02  0.51100000000E-03 0. -1.
        -11    1    3    3    0    0  0.26674726385E+01  0.23985490444E+01 -0.46742820097E+01  0.58921439530E+01  0.51100000000E-03 0.  1.
        -12    1    3    3    0    0  0.55799013012E+01  0.93873906297E+01  0.28417358864E+01  0.11284230776E+02  0.00000000000E+00 0.  1.
</event>
<event>
 7    1  0.4519840E-010  0.4778727E+02  0.7816164E-02  0.1312668E+00
        -11   -1    0    0    0    0  0.00000000000E+00  0.00000000000E+00  0.45593999997E+02  0.45594000000E+02  0.51100000000E-03 0. -1.
         11   -1    0    0    0    0 -0.00000000000E+00 -0.00000000000E+00 -0.45593999997E+02  0.45594000000E+02  0.51100000000E-03 0.  1.
    9900012    2    1    2    0    0 -0.17729091175E+02 -0.12737537524E+02  0.37510767629E+02  0.47787271617E+02  0.20000002611E+02 0.  0.
        -12    1    1    2    0    0  0.17729091175E+02  0.12737537524E+02 -0.37510767629E+02  0.43400728383E+02  0.00000000000E+00 0.  1.
         11    1    3    3    0    0 -0.66966485409E+01 -0.71038164872E+01  0.15162661687E+02  0.18033735610E+02  0.51100000000E-03 0. -1.
        -11    1    3    3    0    0 -0.13642547611E+02 -0.82439846390E+01  0.18533399446E+02  0.24445230278E+02  0.51100000000E-03 0.  1.
        -12    1    3    3    0    0  0.26101049771E+01  0.26102636020E+01  0.38147064956E+01  0.53083057289E+01  0.00000000000E+00 0.  1.
</event>
<event>
 7    1  0.4519840E-010  0.4778727E+02  0.7816164E-02  0.1312668E+00
        -11   -1    0    0    0    0  0.00000000000E+00  0.00000000000E+00  0.45593999997E+02  0.45594000000E+02  0.51100000000E-03 0. -1.
         11   -1    0    0    0    0 -0.00000000000E+00 -0.00000000000E+00 -0.45593999997E+02  0.45594000000E+02  0.51100000000E-03 0.  1.
    9900012    2    1    2    0    0  0.11820418570E+02  0.11651329071E+02  0.40101714863E+02  0.47787270752E+02  0.19999998667E+02 0.  0.
        -12    1    1    2    0    0 -0.11820418570E+02 -0.11651329071E+02 -0.40101714863E+02  0.43400729248E+02  0.00000000000E+00 0.  1.
         11    1    3    3    0    0 -0.70421285700E-01  0.22157405087E+00 -0.11006048180E+01  0.11248935256E+01  0.51100000000E-03 0.  1.
        -11    1    3    3    0    0  0.76026163891E+01  0.12677667287E+02  0.19307573438E+02  0.24316772321E+02  0.51100000000E-03 0. -1.
         12    1    3    3    0    0  0.42882234663E+01 -0.12479122666E+01  0.21894746243E+02  0.22345604905E+02  0.00000000000E+00 0. -1.
</event>
<event>
 7    1  0.4519840E-010  0.4778727E+02  0.7816164E-02  0.1312668E+00
        -11   -1    0    0    0    0  0.00000000000E+00  0.00000000000E+00  0.45593999997E+02  0.45594000000E+02  0.51100000000E-03 0. -1.
         11   -1    0    0    0    0 -0.00000000000E+00 -0.00000000000E+00 -0.45593999997E+02  0.45594000000E+02  0.51100000000E-03 0.  1.
    9900012    2    1    2    0    0  0.77332881914E+01 -0.15210483999E+02 -0.39905646740E+02  0.47787271763E+02  0.20000003276E+02 0.  0.
         12    1    1    2    0    0 -0.77332881914E+01  0.15210483999E+02  0.39905646740E+02  0.43400728237E+02  0.00000000000E+00 0. -1.
         11    1    3    3    0    0 -0.20266910040E+01 -0.46452173539E+01 -0.51948004451E+01  0.72575114617E+01  0.51100000000E-03 0. -1.
        -11    1    3    3    0    0  0.12719918978E+01 -0.46098677981E+01 -0.27469457060E+02  0.27882609561E+02  0.51100000000E-03 0.  1.
        -12    1    3    3    0    0  0.84879872975E+01 -0.59553988473E+01 -0.72413892351E+01  0.12647150740E+02  0.00000000000E+00 0.  1.
</event>
<event>
 7    1  0.4519840E-010  0.4778727E+02  0.7816164E-02  0.1312668E+00
        -11   -1    0    0    0    0  0.00000000000E+00  0.00000000000E+00  0.45593999997E+02  0.45594000000E+02  0.51100000000E-03 0.  1.
         11   -1    0    0    0    0 -0.00000000000E+00 -0.00000000000E+00 -0.45593999997E+02  0.45594000000E+02  0.51100000000E-03 0. -1.
    9900012    2    1    2    0    0 -0.21195832269E+02 -0.37742277694E+02  0.31432926479E+01  0.47787272819E+02  0.20000008092E+02 0.  0.
        -12    1    1    2    0    0  0.21195832269E+02  0.37742277694E+02 -0.31432926479E+01  0.43400727181E+02  0.00000000000E+00 0.  1.
         11    1    3    3    0    0 -0.54546220046E+01  0.32730037995E+00  0.59508614665E+00  0.54967403554E+01  0.51100000000E-03 0. -1.
        -11    1    3    3    0    0 -0.43531596376E+00 -0.79962270563E+01  0.29770152657E+01  0.85435219480E+01  0.51100000000E-03 0.  1.
         12    1    3    3    0    0 -0.15305894301E+02 -0.30073351018E+02 -0.42880876447E+00  0.33747010516E+02  0.00000000000E+00 0. -1.
</event>
<event>
 7    1  0.4519840E-010  0.4778727E+02  0.7816164E-02  0.1312668E+00
        -11   -1    0    0    0    0  0.00000000000E+00  0.00000000000E+00  0.45593999997E+02  0.45594000000E+02  0.51100000000E-03 0. -1.
         11   -1    0    0    0    0 -0.00000000000E+00 -0.00000000000E+00 -0.45593999997E+02  0.45594000000E+02  0.51100000000E-03 0.  1.
    9900012    2    1    2    0    0 -0.26310399488E+02 -0.17803980092E+02 -0.29570327866E+02  0.47787272835E+02  0.20000008164E+02 0.  0.
         12    1    1    2    0    0  0.26310399488E+02  0.17803980092E+02  0.29570327866E+02  0.43400727165E+02  0.00000000000E+00 0. -1.
         11    1    3    3    0    0 -0.63903901985E+01  0.79020905165E+00 -0.98166969366E+01  0.11740062020E+02  0.51100000000E-03 0. -1.
        -11    1    3    3    0    0 -0.94338270984E+00  0.18426274395E+01 -0.25290149769E+01  0.32682049863E+01  0.51100000000E-03 0.  1.
        -12    1    3    3    0    0 -0.18976626580E+02 -0.20436816583E+02 -0.17224615953E+02  0.32779005829E+02  0.00000000000E+00 0.  1.
</event>
<event>
 7    1  0.4519840E-010  0.4778727E+02  0.7816164E-02  0.1312668E+00
        -11   -1    0    0    0    0  0.00000000000E+00  0.00000000000E+00  0.45593999997E+02  0.45594000000E+02  0.51100000000E-03 0. -1.
         11   -1    0    0    0    0 -0.00000000000E+00 -0.00000000000E+00 -0.45593999997E+02  0.45594000000E+02  0.51100000000E-03 0.  1.
    9900012    2    1    2    0    0 -0.40403650634E+02  0.15484634766E+02  0.33755298140E+01  0.47787273048E+02  0.20000009136E+02 0.  0.
         12    1    1    2    0    0  0.40403650634E+02 -0.15484634766E+02 -0.33755298140E+01  0.43400726952E+02  0.00000000000E+00 0. -1.
         11    1    3    3    0    0 -0.68968527082E+01 -0.18059147788E+01  0.37994528095E+01  0.80785981074E+01  0.51100000000E-03 0. -1.
        -11    1    3    3    0    0 -0.17192918622E+01  0.46171042918E+01 -0.22984602244E+01  0.54365923346E+01  0.51100000000E-03 0.  1.
        -12    1    3    3    0    0 -0.31787506064E+02  0.12673445253E+02  0.18745372290E+01  0.34272082606E+02  0.00000000000E+00 0.  1.
</event>
<event>
 7    1  0.4519840E-010  0.4778727E+02  0.7816164E-02  0.1312668E+00
        -11   -1    0    0    0    0  0.00000000000E+00  0.00000000000E+00  0.45593999997E+02  0.45594000000E+02  0.51100000000E-03 0. -1.
         11   -1    0    0    0    0 -0.00000000000E+00 -0.00000000000E+00 -0.45593999997E+02  0.45594000000E+02  0.51100000000E-03 0.  1.
    9900012    2    1    2    0    0 -0.12065932607E+02  0.88113280360E+01  0.40747970799E+02  0.47787270102E+02  0.19999995701E+02 0.  0.
        -12    1    1    2    0    0  0.12065932607E+02 -0.88113280360E+01 -0.40747970799E+02  0.43400729898E+02  0.00000000000E+00 0.  1.
         11    1    3    3    0    0  0.31501890445E+01  0.73711521989E+01  0.16112892081E+02  0.17996746018E+02  0.51100000000E-03 0.  1.
        -11    1    3    3    0    0  0.28983720011E+00 -0.91323921189E+00  0.23688820145E+01  0.25553108852E+01  0.51100000000E-03 0. -1.
        -12    1    3    3    0    0 -0.15505958852E+02  0.23534150489E+01  0.22266196704E+02  0.27235213198E+02  0.00000000000E+00 0.  1.
</event>
<event>
 7    1  0.4519840E-010  0.4778727E+02  0.7816164E-02  0.1312668E+00
        -11   -1    0    0    0    0  0.00000000000E+00  0.00000000000E+00  0.45593999997E+02  0.45594000000E+02  0.51100000000E-03 0. -1.
         11   -1    0    0    0    0 -0.00000000000E+00 -0.00000000000E+00 -0.45593999997E+02  0.45594000000E+02  0.51100000000E-03 0.  1.
    9900012    2    1    2    0    0 -0.17221694015E+01 -0.24548272313E+02  0.35749688594E+02  0.47787265265E+02  0.19999973650E+02 0.  0.
        -12    1    1    2    0    0  0.17221694015E+01  0.24548272313E+02 -0.35749688594E+02  0.43400734735E+02  0.00000000000E+00 0.  1.
         11    1    3    3    0    0  0.15147675634E+01  0.21658163480E+01  0.22647330606E+01  0.34805599149E+01  0.51100000000E-03 0.  1.
        -11    1    3    3    0    0  0.98933450997E+00 -0.54864170554E+01  0.14431242061E+02  0.15470627090E+02  0.51100000000E-03 0. -1.
        -12    1    3    3    0    0 -0.42262714749E+01 -0.21227671605E+02  0.19053713472E+02  0.28836078260E+02  0.00000000000E+00 0.  1.
</event>
<event>
 7    1  0.4519840E-010  0.4778728E+02  0.7816164E-02  0.1312668E+00
        -11   -1    0    0    0    0  0.00000000000E+00  0.00000000000E+00  0.45593999997E+02  0.45594000000E+02  0.51100000000E-03 0. -1.
         11   -1    0    0    0    0 -0.00000000000E+00 -0.00000000000E+00 -0.45593999997E+02  0.45594000000E+02  0.51100000000E-03 0.  1.
    9900012    2    1    2    0    0  0.18011421484E+02 -0.35081206361E+02  0.18125136619E+02  0.47787275109E+02  0.20000018531E+02 0.  0.
        -12    1    1    2    0    0 -0.18011421484E+02  0.35081206361E+02 -0.18125136619E+02  0.43400724891E+02  0.00000000000E+00 0.  1.
         11    1    3    3    0    0 -0.85863825840E+00 -0.62923212615E+01  0.28279328118E+01  0.69518178030E+01  0.51100000000E-03 0. -1.
        -11    1    3    3    0    0  0.61243035557E+01 -0.25570307315E+01  0.86856930233E+01  0.10931000126E+02  0.51100000000E-03 0.  1.
        -12    1    3    3    0    0  0.12745756186E+02 -0.26231854368E+02  0.66115107843E+01  0.29904457179E+02  0.00000000000E+00 0.  1.
</event>
<event>
 7    1  0.4519840E-010  0.4778727E+02  0.7816164E-02  0.1312668E+00
        -11   -1    0    0    0    0  0.00000000000E+00  0.00000000000E+00  0.45593999997E+02  0.45594000000E+02  0.51100000000E-03 0. -1.
         11   -1    0    0    0    0 -0.00000000000E+00 -0.00000000000E+00 -0.45593999997E+02  0.45594000000E+02  0.51100000000E-03 0.  1.
    9900012    2    1    2    0    0 -0.37833018705E+02 -0.45563839613E+01  0.20773192476E+02  0.47787268845E+02  0.19999989972E+02 0.  0.
        -12    1    1    2    0    0  0.37833018705E+02  0.45563839613E+01 -0.20773192476E+02  0.43400731155E+02  0.00000000000E+00 0.  1.
         11    1    3    3    0    0 -0.11157845549E+01 -0.12466629282E+01  0.58696950737E+01  0.61034796755E+01  0.51100000000E-03 0. -1.
        -11    1    3    3    0    0 -0.27905406443E+01 -0.41318292111E+01  0.16681708936E+01  0.52575587594E+01  0.51100000000E-03 0.  1.
        -12    1    3    3    0    0 -0.33926693506E+02  0.82210817796E+00  0.13235326509E+02  0.36426230410E+02  0.00000000000E+00 0.  1.
</event>
<event>
 7    1  0.4519840E-010  0.4778726E+02  0.7816164E-02  0.1312668E+00
        -11   -1    0    0    0    0  0.00000000000E+00  0.00000000000E+00  0.45593999997E+02  0.45594000000E+02  0.51100000000E-03 0. -1.
         11   -1    0    0    0    0 -0.00000000000E+00 -0.00000000000E+00 -0.45593999997E+02  0.45594000000E+02  0.51100000000E-03 0.  1.
    9900012    2    1    2    0    0 -0.68794775853E+01 -0.36177202401E+02 -0.22967525766E+02  0.47787257780E+02  0.19999939521E+02 0.  0.
         12    1    1    2    0    0  0.68794775853E+01  0.36177202401E+02  0.22967525766E+02  0.43400742220E+02  0.00000000000E+00 0. -1.
         11    1    3    3    0    0 -0.31245552377E+00 -0.78280930239E+00  0.95595095499E+00  0.12744651222E+01  0.51100000000E-03 0. -1.
        -11    1    3    3    0    0 -0.12134805439E+01 -0.28411521836E+01 -0.10415363901E+02  0.10863907502E+02  0.51100000000E-03 0.  1.
         12    1    3    3    0    0 -0.53535415176E+01 -0.32553240915E+02 -0.13508112820E+02  0.35648885156E+02  0.00000000000E+00 0. -1.
</event>
<event>
 7    1  0.4519840E-010  0.4778727E+02  0.7816164E-02  0.1312668E+00
        -11   -1    0    0    0    0  0.00000000000E+00  0.00000000000E+00  0.45593999997E+02  0.45594000000E+02  0.51100000000E-03 0. -1.
         11   -1    0    0    0    0 -0.00000000000E+00 -0.00000000000E+00 -0.45593999997E+02  0.45594000000E+02  0.51100000000E-03 0.  1.
    9900012    2    1    2    0    0 -0.58297934616E+00 -0.32171616767E+02 -0.29125080724E+02  0.47787272846E+02  0.20000008212E+02 0.  0.
         12    1    1    2    0    0  0.58297934616E+00  0.32171616767E+02  0.29125080724E+02  0.43400727154E+02  0.00000000000E+00 0. -1.
         11    1    3    3    0    0  0.11825280960E+01 -0.77458585783E+01 -0.13080593074E+00  0.78366962596E+01  0.51100000000E-03 0. -1.
        -11    1    3    3    0    0  0.50937228964E+01 -0.14692126276E+02 -0.15548136472E+02  0.21989750691E+02  0.51100000000E-03 0.  1.
        -12    1    3    3    0    0 -0.68592303386E+01 -0.97336319136E+01 -0.13446138322E+02  0.17960825895E+02  0.00000000000E+00 0.  1.
</event>
<event>
 7    1  0.4519840E-010  0.4778727E+02  0.7816164E-02  0.1312668E+00
        -11   -1    0    0    0    0  0.00000000000E+00  0.00000000000E+00  0.45593999997E+02  0.45594000000E+02  0.51100000000E-03 0.  1.
         11   -1    0    0    0    0 -0.00000000000E+00 -0.00000000000E+00 -0.45593999997E+02  0.45594000000E+02  0.51100000000E-03 0. -1.
    9900012    2    1    2    0    0  0.32503048145E+02  0.15910451282E+02  0.23958977451E+02  0.47787271904E+02  0.20000003921E+02 0.  0.
        -12    1    1    2    0    0 -0.32503048145E+02 -0.15910451282E+02 -0.23958977451E+02  0.43400728096E+02  0.00000000000E+00 0.  1.
         11    1    3    3    0    0  0.61971012104E+01  0.20421366094E+01 -0.39606374099E+00  0.65369145697E+01  0.51100000000E-03 0. -1.
        -11    1    3    3    0    0 -0.83234884638E-01 -0.23216845457E+01  0.14473259272E+01  0.27371334962E+01  0.51100000000E-03 0.  1.
        -12    1    3    3    0    0  0.26389181819E+02  0.16189999218E+02  0.22907715265E+02  0.38513223839E+02  0.00000000000E+00 0.  1.
</event>
<event>
 7    1  0.4519840E-010  0.4778727E+02  0.7816164E-02  0.1312668E+00
        -11   -1    0    0    0    0  0.00000000000E+00  0.00000000000E+00  0.45593999997E+02  0.45594000000E+02  0.51100000000E-03 0. -1.
         11   -1    0    0    0    0 -0.00000000000E+00 -0.00000000000E+00 -0.45593999997E+02  0.45594000000E+02  0.51100000000E-03 0.  1.
    9900012    2    1    2    0    0 -0.17867947656E+01 -0.41868917096E+02 -0.11288242345E+02  0.47787271094E+02  0.20000000227E+02 0.  0.
         12    1    1    2    0    0  0.17867947656E+01  0.41868917096E+02  0.11288242345E+02  0.43400728906E+02  0.00000000000E+00 0. -1.
         11    1    3    3    0    0  0.77158014447E+00 -0.20882338799E+02 -0.52098977803E+00  0.20903082075E+02  0.51100000000E-03 0. -1.
        -11    1    3    3    0    0 -0.53613553894E+01 -0.15337509656E+02 -0.24264913290E+01  0.16427756830E+02  0.51100000000E-03 0.  1.
         12    1    3    3    0    0  0.28029804794E+01 -0.56490686413E+01 -0.83407612380E+01  0.10456432188E+02  0.00000000000E+00 0. -1.
</event>
<event>
 7    1  0.4592707E-010  0.4778727E+02  0.7816164E-02  0.1312668E+00
        -11   -1    0    0    0    0  0.00000000000E+00  0.00000000000E+00  0.45593999997E+02  0.45594000000E+02  0.51100000000E-03 0. -1.
         11   -1    0    0    0    0 -0.00000000000E+00 -0.00000000000E+00 -0.45593999997E+02  0.45594000000E+02  0.51100000000E-03 0.  1.
    9900012    2    1    2    0    0 -0.14638039362E+02 -0.31774266229E+02 -0.25685544339E+02  0.47787269836E+02  0.19999994490E+02 0.  0.
         12    1    1    2    0    0  0.14638039362E+02  0.31774266229E+02  0.25685544339E+02  0.43400730164E+02  0.00000000000E+00 0. -1.
         11    1    3    3    0    0 -0.60006442681E+01 -0.11799197142E+02 -0.18763470791E+02  0.22962940169E+02  0.51100000000E-03 0.  1.
        -11    1    3    3    0    0 -0.10420446450E+02 -0.14228769895E+02 -0.64885590348E+01  0.18792152499E+02  0.51100000000E-03 0. -1.
        -12    1    3    3    0    0  0.17830513563E+01 -0.57462991925E+01 -0.43351451319E+00  0.60321771677E+01  0.00000000000E+00 0.  1.
</event>
<event>
 7    1  0.4519840E-010  0.4778727E+02  0.7816164E-02  0.1312668E+00
        -11   -1    0    0    0    0  0.00000000000E+00  0.00000000000E+00  0.45593999997E+02  0.45594000000E+02  0.51100000000E-03 0. -1.
         11   -1    0    0    0    0 -0.00000000000E+00 -0.00000000000E+00 -0.45593999997E+02  0.45594000000E+02  0.51100000000E-03 0.  1.
    9900012    2    1    2    0    0  0.58800117869E+01  0.10516171092E+01  0.42987704495E+02  0.47787272185E+02  0.20000005200E+02 0.  0.
        -12    1    1    2    0    0 -0.58800117869E+01 -0.10516171092E+01 -0.42987704495E+02  0.43400727815E+02  0.00000000000E+00 0.  1.
         11    1    3    3    0    0  0.69390879747E+00  0.61643078525E+01  0.12166448047E+02  0.13656597639E+02  0.51100000000E-03 0. -1.
        -11    1    3    3    0    0 -0.79683325057E+00  0.17038763197E+01 -0.12261701724E+00  0.18849861899E+01  0.51100000000E-03 0.  1.
        -12    1    3    3    0    0  0.59829362400E+01 -0.68165670629E+01  0.30943873465E+02  0.32245688356E+02  0.00000000000E+00 0.  1.
</event>
<event>
 7    1  0.4519840E-010  0.4778722E+02  0.7816164E-02  0.1312668E+00
        -11   -1    0    0    0    0  0.00000000000E+00  0.00000000000E+00  0.45593999997E+02  0.45594000000E+02  0.51100000000E-03 0. -1.
         11   -1    0    0    0    0 -0.00000000000E+00 -0.00000000000E+00 -0.45593999997E+02  0.45594000000E+02  0.51100000000E-03 0.  1.
    9900012    2    1    2    0    0  0.59977008341E+01 -0.29835651321E+02  0.30943322067E+02  0.47787220219E+02  0.19999768266E+02 0.  0.
        -12    1    1    2    0    0 -0.59977008341E+01  0.29835651321E+02 -0.30943322067E+02  0.43400779781E+02  0.00000000000E+00 0.  1.
         11    1    3    3    0    0  0.27600817255E+01 -0.10523491771E+02  0.11273709310E+02  0.15667113712E+02  0.51100000000E-03 0. -1.
        -11    1    3    3    0    0 -0.55332407700E+01 -0.43127537314E+01  0.10059001785E+02  0.12263772476E+02  0.51100000000E-03 0.  1.
        -12    1    3    3    0    0  0.87708598786E+01 -0.14999405818E+02  0.96106109724E+01  0.19856334032E+02  0.00000000000E+00 0.  1.
</event>
<event>
 7    1  0.4519840E-010  0.4778727E+02  0.7816164E-02  0.1312668E+00
        -11   -1    0    0    0    0  0.00000000000E+00  0.00000000000E+00  0.45593999997E+02  0.45594000000E+02  0.51100000000E-03 0. -1.
         11   -1    0    0    0    0 -0.00000000000E+00 -0.00000000000E+00 -0.45593999997E+02  0.45594000000E+02  0.51100000000E-03 0.  1.
    9900012    2    1    2    0    0  0.21918355902E+02 -0.32954983660E+02  0.17809489165E+02  0.47787272151E+02  0.20000005046E+02 0.  0.
        -12    1    1    2    0    0 -0.21918355902E+02  0.32954983660E+02 -0.17809489165E+02  0.43400727849E+02  0.00000000000E+00 0.  1.
         11    1    3    3    0    0  0.16710356774E+02 -0.15114251976E+02  0.83074612325E+01  0.24014382121E+02  0.51100000000E-03 0. -1.
        -11    1    3    3    0    0  0.33160362684E+01 -0.91859956521E+01 -0.12448803261E+01  0.98452191414E+01  0.51100000000E-03 0.  1.
        -12    1    3    3    0    0  0.18919628600E+01 -0.86547360320E+01  0.10746908259E+02  0.13927670888E+02  0.00000000000E+00 0.  1.
</event>
<event>
 7    1  0.4519840E-010  0.4778727E+02  0.7816164E-02  0.1312668E+00
        -11   -1    0    0    0    0  0.00000000000E+00  0.00000000000E+00  0.45593999997E+02  0.45594000000E+02  0.51100000000E-03 0. -1.
         11   -1    0    0    0    0 -0.00000000000E+00 -0.00000000000E+00 -0.45593999997E+02  0.45594000000E+02  0.51100000000E-03 0.  1.
    9900012    2    1    2    0    0  0.19899888131E+01 -0.28689980556E+02  0.32504585709E+02  0.47787272680E+02  0.20000007457E+02 0.  0.
        -12    1    1    2    0    0 -0.19899888131E+01  0.28689980556E+02 -0.32504585709E+02  0.43400727320E+02  0.00000000000E+00 0.  1.
         11    1    3    3    0    0  0.23404268320E+01 -0.15306275764E+02  0.18711862493E+02  0.24287722696E+02  0.51100000000E-03 0. -1.
        -11    1    3    3    0    0  0.99915994978E-01 -0.12330821106E+02  0.16477500284E+02  0.20580747028E+02  0.51100000000E-03 0.  1.
        -12    1    3    3    0    0 -0.45035401390E+00 -0.10528836861E+01 -0.26847770680E+01  0.29188029565E+01  0.00000000000E+00 0.  1.
</event>
<event>
 7    1  0.4519840E-010  0.4778729E+02  0.7816164E-02  0.1312668E+00
        -11   -1    0    0    0    0  0.00000000000E+00  0.00000000000E+00  0.45593999997E+02  0.45594000000E+02  0.51100000000E-03 0. -1.
         11   -1    0    0    0    0 -0.00000000000E+00 -0.00000000000E+00 -0.45593999997E+02  0.45594000000E+02  0.51100000000E-03 0.  1.
    9900012    2    1    2    0    0  0.17835909033E+02  0.91939377547E+01 -0.38483423861E+02  0.47787285092E+02  0.20000064048E+02 0.  0.
         12    1    1    2    0    0 -0.17835909033E+02 -0.91939377547E+01  0.38483423861E+02  0.43400714908E+02  0.00000000000E+00 0. -1.
         11    1    3    3    0    0  0.94068950429E+01  0.14772919112E+01 -0.80687707352E+01  0.12481070754E+02  0.51100000000E-03 0. -1.
        -11    1    3    3    0    0  0.80481704969E+01 -0.66899417575E+00 -0.21934728898E+02  0.23374193754E+02  0.51100000000E-03 0.  1.
         12    1    3    3    0    0  0.38084349298E+00  0.83856400192E+01 -0.84799242274E+01  0.11932020583E+02  0.00000000000E+00 0. -1.
</event>
<event>
 7    1  0.4519840E-010  0.4778727E+02  0.7816164E-02  0.1312668E+00
        -11   -1    0    0    0    0  0.00000000000E+00  0.00000000000E+00  0.45593999997E+02  0.45594000000E+02  0.51100000000E-03 0. -1.
         11   -1    0    0    0    0 -0.00000000000E+00 -0.00000000000E+00 -0.45593999997E+02  0.45594000000E+02  0.51100000000E-03 0.  1.
    9900012    2    1    2    0    0 -0.28710188330E+02 -0.18859698598E+02 -0.26526594534E+02  0.47787270021E+02  0.19999995332E+02 0.  0.
         12    1    1    2    0    0  0.28710188330E+02  0.18859698598E+02  0.26526594534E+02  0.43400729979E+02  0.00000000000E+00 0. -1.
         11    1    3    3    0    0 -0.82186800498E+01  0.87185967603E+00 -0.71301332092E+01  0.10915385513E+02  0.51100000000E-03 0. -1.
        -11    1    3    3    0    0 -0.21339867333E+02 -0.13926946015E+02 -0.15414793677E+02  0.29781968160E+02  0.51100000000E-03 0.  1.
        -12    1    3    3    0    0  0.84835905284E+00 -0.58046122591E+01 -0.39816676481E+01  0.70899163480E+01  0.00000000000E+00 0.  1.
</event>
<event>
 7    1  0.4519840E-010  0.4778728E+02  0.7816164E-02  0.1312668E+00
        -11   -1    0    0    0    0  0.00000000000E+00  0.00000000000E+00  0.45593999997E+02  0.45594000000E+02  0.51100000000E-03 0. -1.
         11   -1    0    0    0    0 -0.00000000000E+00 -0.00000000000E+00 -0.45593999997E+02  0.45594000000E+02  0.51100000000E-03 0.  1.
    9900012    2    1    2    0    0 -0.17624267924E+02  0.25500214040E+02 -0.30376750712E+02  0.47787277428E+02  0.20000029107E+02 0.  0.
         12    1    1    2    0    0  0.17624267924E+02 -0.25500214040E+02  0.30376750712E+02  0.43400722572E+02  0.00000000000E+00 0. -1.
         11    1    3    3    0    0 -0.23523014021E+01  0.54646927232E+01 -0.24062182289E+01  0.64176377953E+01  0.51100000000E-03 0. -1.
        -11    1    3    3    0    0 -0.18471018241E+02  0.12610521470E+02 -0.19706575114E+02  0.29808603953E+02  0.51100000000E-03 0.  1.
        -12    1    3    3    0    0  0.31990517186E+01  0.74249998463E+01 -0.82639573683E+01  0.11561035680E+02  0.00000000000E+00 0.  1.
</event>
<event>
 7    1  0.7478480E-010  0.4778727E+02  0.7816164E-02  0.1312668E+00
        -11   -1    0    0    0    0  0.00000000000E+00  0.00000000000E+00  0.45593999997E+02  0.45594000000E+02  0.51100000000E-03 0. -1.
         11   -1    0    0    0    0 -0.00000000000E+00 -0.00000000000E+00 -0.45593999997E+02  0.45594000000E+02  0.51100000000E-03 0.  1.
    9900012    2    1    2    0    0 -0.26320250976E+02 -0.79811376162E+01 -0.33573339167E+02  0.47787271067E+02  0.20000000102E+02 0.  0.
         12    1    1    2    0    0  0.26320250976E+02  0.79811376162E+01  0.33573339167E+02  0.43400728933E+02  0.00000000000E+00 0. -1.
         11    1    3    3    0    0 -0.10207462215E+01 -0.64287822050E+01 -0.67788181674E+01  0.93980604114E+01  0.51100000000E-03 0. -1.
        -11    1    3    3    0    0 -0.30704702537E+01  0.94442054737E+00  0.33184203234E+00  0.32295258390E+01  0.51100000000E-03 0.  1.
        -12    1    3    3    0    0 -0.22229034501E+02 -0.24967759587E+01 -0.27126363032E+02  0.35159684816E+02  0.00000000000E+00 0.  1.
</event>
<event>
 7    1  0.4519840E-010  0.4778727E+02  0.7816164E-02  0.1312668E+00
        -11   -1    0    0    0    0  0.00000000000E+00  0.00000000000E+00  0.45593999997E+02  0.45594000000E+02  0.51100000000E-03 0. -1.
         11   -1    0    0    0    0 -0.00000000000E+00 -0.00000000000E+00 -0.45593999997E+02  0.45594000000E+02  0.51100000000E-03 0.  1.
    9900012    2    1    2    0    0  0.77767055734E+01  0.18113590871E+02 -0.38665796315E+02  0.47787272719E+02  0.20000007634E+02 0.  0.
         12    1    1    2    0    0 -0.77767055734E+01 -0.18113590871E+02  0.38665796315E+02  0.43400727281E+02  0.00000000000E+00 0. -1.
         11    1    3    3    0    0 -0.29937006509E+01  0.56767424448E+01 -0.60702777654E+01  0.88337942460E+01  0.51100000000E-03 0. -1.
        -11    1    3    3    0    0  0.15473639452E+01 -0.27483092567E+01 -0.81067320640E+01  0.86986575958E+01  0.51100000000E-03 0.  1.
        -12    1    3    3    0    0  0.92230422791E+01  0.15185157683E+02 -0.24488786486E+02  0.30254820877E+02  0.00000000000E+00 0.  1.
</event>
<event>
 7    1  0.4519840E-010  0.4778727E+02  0.7816164E-02  0.1312668E+00
        -11   -1    0    0    0    0  0.00000000000E+00  0.00000000000E+00  0.45593999997E+02  0.45594000000E+02  0.51100000000E-03 0. -1.
         11   -1    0    0    0    0 -0.00000000000E+00 -0.00000000000E+00 -0.45593999997E+02  0.45594000000E+02  0.51100000000E-03 0.  1.
    9900012    2    1    2    0    0  0.70905805151E+01  0.15453395011E+02 -0.39931687119E+02  0.47787269758E+02  0.19999994135E+02 0.  0.
         12    1    1    2    0    0 -0.70905805151E+01 -0.15453395011E+02  0.39931687119E+02  0.43400730242E+02  0.00000000000E+00 0. -1.
         11    1    3    3    0    0  0.13131819934E+01  0.22178173845E+01 -0.41977475487E+00  0.26113927328E+01  0.51100000000E-03 0. -1.
        -11    1    3    3    0    0  0.30651998153E+01 -0.18428278840E+01 -0.20253795587E+02  0.20567151005E+02  0.51100000000E-03 0.  1.
         12    1    3    3    0    0  0.27121987063E+01  0.15078405510E+02 -0.19258116777E+02  0.24608726020E+02  0.00000000000E+00 0. -1.
</event>
<event>
 7    1  0.4519840E-010  0.4778727E+02  0.7816164E-02  0.1312668E+00
        -11   -1    0    0    0    0  0.00000000000E+00  0.00000000000E+00  0.45593999997E+02  0.45594000000E+02  0.51100000000E-03 0. -1.
         11   -1    0    0    0    0 -0.00000000000E+00 -0.00000000000E+00 -0.45593999997E+02  0.45594000000E+02  0.51100000000E-03 0.  1.
    9900012    2    1    2    0    0  0.17084932462E+02  0.39007110921E+02 -0.83769828608E+01  0.47787268883E+02  0.19999990145E+02 0.  0.
         12    1    1    2    0    0 -0.17084932462E+02 -0.39007110921E+02  0.83769828608E+01  0.43400731117E+02  0.00000000000E+00 0. -1.
         11    1    3    3    0    0  0.34928906328E+01  0.14277356042E+02 -0.84041717389E+01  0.16931428865E+02  0.51100000000E-03 0. -1.
        -11    1    3    3    0    0 -0.70073300659E+00 -0.10310622092E+01  0.61433844482E+00  0.13897942336E+01  0.51100000000E-03 0.  1.
        -12    1    3    3    0    0  0.14292774835E+02  0.25760817089E+02 -0.58714956672E+00  0.29466045785E+02  0.00000000000E+00 0.  1.
</event>
<event>
 7    1  0.4519840E-010  0.4778727E+02  0.7816164E-02  0.1312668E+00
        -11   -1    0    0    0    0  0.00000000000E+00  0.00000000000E+00  0.45593999997E+02  0.45594000000E+02  0.51100000000E-03 0. -1.
         11   -1    0    0    0    0 -0.00000000000E+00 -0.00000000000E+00 -0.45593999997E+02  0.45594000000E+02  0.51100000000E-03 0.  1.
    9900012    2    1    2    0    0  0.61183469031E+01 -0.80081982735E+01 -0.42214427146E+02  0.47787271116E+02  0.20000000326E+02 0.  0.
         12    1    1    2    0    0 -0.61183469031E+01  0.80081982735E+01  0.42214427146E+02  0.43400728884E+02  0.00000000000E+00 0. -1.
         11    1    3    3    0    0 -0.21125676372E+01 -0.15233691268E+01  0.10659743589E+01  0.28142311762E+01  0.51100000000E-03 0. -1.
        -11    1    3    3    0    0  0.86648017983E+01 -0.53432673492E+01 -0.30924548030E+02  0.32556980316E+02  0.51100000000E-03 0.  1.
         12    1    3    3    0    0 -0.43388725801E+00 -0.11415617975E+01 -0.12355853474E+02  0.12416059623E+02  0.00000000000E+00 0. -1.
</event>
<event>
 7    1  0.4519840E-010  0.4778728E+02  0.7816164E-02  0.1312668E+00
        -11   -1    0    0    0    0  0.00000000000E+00  0.00000000000E+00  0.45593999997E+02  0.45594000000E+02  0.51100000000E-03 0. -1.
         11   -1    0    0    0    0 -0.00000000000E+00 -0.00000000000E+00 -0.45593999997E+02  0.45594000000E+02  0.51100000000E-03 0.  1.
    9900012    2    1    2    0    0 -0.91318257581E+00  0.68462840335E+01 -0.42847605522E+02  0.47787276430E+02  0.20000024553E+02 0.  0.
         12    1    1    2    0    0  0.91318257581E+00 -0.68462840335E+01  0.42847605522E+02  0.43400723570E+02  0.00000000000E+00 0. -1.
         11    1    3    3    0    0 -0.37496806390E+01  0.50793772582E+01 -0.53021447168E+01  0.82445689448E+01  0.51100000000E-03 0. -1.
        -11    1    3    3    0    0 -0.27185467274E+01  0.21347502478E+01 -0.30774754601E+01  0.46280136558E+01  0.51100000000E-03 0.  1.
        -12    1    3    3    0    0  0.55550447906E+01 -0.36784347246E+00 -0.34467985345E+02  0.34914693829E+02  0.00000000000E+00 0.  1.
</event>
<event>
 7    1  0.4519840E-010  0.4778727E+02  0.7816164E-02  0.1312668E+00
        -11   -1    0    0    0    0  0.00000000000E+00  0.00000000000E+00  0.45593999997E+02  0.45594000000E+02  0.51100000000E-03 0. -1.
         11   -1    0    0    0    0 -0.00000000000E+00 -0.00000000000E+00 -0.45593999997E+02  0.45594000000E+02  0.51100000000E-03 0.  1.
    9900012    2    1    2    0    0  0.22542898727E+01 -0.29853857392E+02 -0.31421148887E+02  0.47787271649E+02  0.20000002754E+02 0.  0.
         12    1    1    2    0    0 -0.22542898727E+01  0.29853857392E+02  0.31421148887E+02  0.43400728351E+02  0.00000000000E+00 0. -1.
         11    1    3    3    0    0 -0.68380059916E+00  0.18403103144E+01 -0.77226380848E+01  0.79682786449E+01  0.51100000000E-03 0. -1.
        -11    1    3    3    0    0 -0.47054994596E+00 -0.67163228877E+01 -0.40513275960E+01  0.78577137855E+01  0.51100000000E-03 0.  1.
         12    1    3    3    0    0  0.34086404178E+01 -0.24977844819E+02 -0.19647183207E+02  0.31961279218E+02  0.00000000000E+00 0. -1.
</event>
<event>
 7    1  0.4519840E-010  0.4778728E+02  0.7816164E-02  0.1312668E+00
        -11   -1    0    0    0    0  0.00000000000E+00  0.00000000000E+00  0.45593999997E+02  0.45594000000E+02  0.51100000000E-03 0. -1.
         11   -1    0    0    0    0 -0.00000000000E+00 -0.00000000000E+00 -0.45593999997E+02  0.45594000000E+02  0.51100000000E-03 0.  1.
    9900012    2    1    2    0    0  0.14547354785E+02  0.19821165146E+02  0.35764769246E+02  0.47787276063E+02  0.20000022883E+02 0.  0.
        -12    1    1    2    0    0 -0.14547354785E+02 -0.19821165146E+02 -0.35764769246E+02  0.43400723937E+02  0.00000000000E+00 0.  1.
         11    1    3    3    0    0  0.17755937728E+01  0.11783053728E+02  0.16558363296E+02  0.20400305971E+02  0.51100000000E-03 0. -1.
        -11    1    3    3    0    0  0.22321903193E+01  0.40797465708E+01 -0.51434249036E+00  0.46788411132E+01  0.51100000000E-03 0.  1.
        -12    1    3    3    0    0  0.10539570693E+02  0.39583648464E+01  0.19720748441E+02  0.22708128979E+02  0.00000000000E+00 0.  1.
</event>
<event>
 7    1  0.4519840E-010  0.4778728E+02  0.7816164E-02  0.1312668E+00
        -11   -1    0    0    0    0  0.00000000000E+00  0.00000000000E+00  0.45593999997E+02  0.45594000000E+02  0.51100000000E-03 0. -1.
         11   -1    0    0    0    0 -0.00000000000E+00 -0.00000000000E+00 -0.45593999997E+02  0.45594000000E+02  0.51100000000E-03 0.  1.
    9900012    2    1    2    0    0 -0.29187702432E+02  0.28048665236E+02  0.15651620610E+02  0.47787276244E+02  0.20000023708E+02 0.  0.
        -12    1    1    2    0    0  0.29187702432E+02 -0.28048665236E+02 -0.15651620610E+02  0.43400723756E+02  0.00000000000E+00 0.  1.
         11    1    3    3    0    0 -0.29696357205E+01  0.64435435214E+01  0.60486182732E+01  0.93232919455E+01  0.51100000000E-03 0. -1.
        -11    1    3    3    0    0 -0.20127576551E+02  0.10672596454E+02  0.15359110797E+00  0.22782608354E+02  0.51100000000E-03 0.  1.
        -12    1    3    3    0    0 -0.60904901607E+01  0.10932525261E+02  0.94494112285E+01  0.15681375945E+02  0.00000000000E+00 0.  1.
</event>
<event>
 7    1  0.4519840E-010  0.4778727E+02  0.7816164E-02  0.1312668E+00
        -11   -1    0    0    0    0  0.00000000000E+00  0.00000000000E+00  0.45593999997E+02  0.45594000000E+02  0.51100000000E-03 0. -1.
         11   -1    0    0    0    0 -0.00000000000E+00 -0.00000000000E+00 -0.45593999997E+02  0.45594000000E+02  0.51100000000E-03 0.  1.
    9900012    2    1    2    0    0  0.42758436847E+02  0.74387652518E+01  0.65160544310E-01  0.47787269638E+02  0.19999993587E+02 0.  0.
        -12    1    1    2    0    0 -0.42758436847E+02 -0.74387652518E+01 -0.65160544310E-01  0.43400730362E+02  0.00000000000E+00 0.  1.
         11    1    3    3    0    0  0.10199194655E+02  0.28031847017E+00  0.61236479618E+01  0.11899630863E+02  0.51100000000E-03 0. -1.
        -11    1    3    3    0    0  0.42518679563E+01 -0.29024852514E+01  0.38431807889E+00  0.51624124592E+01  0.51100000000E-03 0.  1.
        -12    1    3    3    0    0  0.28307374235E+02  0.10060932033E+02 -0.64428054963E+01  0.30725226315E+02  0.00000000000E+00 0.  1.
</event>
<event>
 7    1  0.4519840E-010  0.4778726E+02  0.7816164E-02  0.1312668E+00
        -11   -1    0    0    0    0  0.00000000000E+00  0.00000000000E+00  0.45593999997E+02  0.45594000000E+02  0.51100000000E-03 0. -1.
         11   -1    0    0    0    0 -0.00000000000E+00 -0.00000000000E+00 -0.45593999997E+02  0.45594000000E+02  0.51100000000E-03 0.  1.
    9900012    2    1    2    0    0  0.33040655647E+02  0.78552798752E+01 -0.27022842988E+02  0.47787258178E+02  0.19999941337E+02 0.  0.
         12    1    1    2    0    0 -0.33040655647E+02 -0.78552798752E+01  0.27022842988E+02  0.43400741822E+02  0.00000000000E+00 0. -1.
         11    1    3    3    0    0  0.78580996397E+01 -0.25657959159E+01 -0.10818845618E+02  0.13615449291E+02  0.51100000000E-03 0. -1.
        -11    1    3    3    0    0  0.76541067438E+01  0.27669002424E+01 -0.12143682285E+02  0.14618827132E+02  0.51100000000E-03 0.  1.
         12    1    3    3    0    0  0.17528449264E+02  0.76541755486E+01 -0.40603150848E+01  0.19552981755E+02  0.00000000000E+00 0. -1.
</event>
<event>
 7    1  0.4519840E-010  0.4778727E+02  0.7816164E-02  0.1312668E+00
        -11   -1    0    0    0    0  0.00000000000E+00  0.00000000000E+00  0.45593999997E+02  0.45594000000E+02  0.51100000000E-03 0. -1.
         11   -1    0    0    0    0 -0.00000000000E+00 -0.00000000000E+00 -0.45593999997E+02  0.45594000000E+02  0.51100000000E-03 0.  1.
    9900012    2    1    2    0    0  0.29927467439E+02 -0.23995170318E+01 -0.31340261489E+02  0.47787274436E+02  0.20000015463E+02 0.  0.
         12    1    1    2    0    0 -0.29927467439E+02  0.23995170318E+01  0.31340261489E+02  0.43400725564E+02  0.00000000000E+00 0. -1.
         11    1    3    3    0    0  0.12232742173E+02 -0.92500426153E+01 -0.20953084854E+02  0.25966036174E+02  0.51100000000E-03 0. -1.
        -11    1    3    3    0    0  0.36074649298E+01  0.21331844451E+01 -0.34353880060E+01  0.54190562010E+01  0.51100000000E-03 0.  1.
         12    1    3    3    0    0  0.14087260337E+02  0.47173411384E+01 -0.69517886291E+01  0.16402182061E+02  0.00000000000E+00 0. -1.
</event>
<event>
 7    1  0.4519840E-010  0.4778727E+02  0.7816164E-02  0.1312668E+00
        -11   -1    0    0    0    0  0.00000000000E+00  0.00000000000E+00  0.45593999997E+02  0.45594000000E+02  0.51100000000E-03 0. -1.
         11   -1    0    0    0    0 -0.00000000000E+00 -0.00000000000E+00 -0.45593999997E+02  0.45594000000E+02  0.51100000000E-03 0.  1.
    9900012    2    1    2    0    0 -0.20116219308E+02 -0.13044981599E+02  0.36177194037E+02  0.47787271981E+02  0.20000004272E+02 0.  0.
        -12    1    1    2    0    0  0.20116219308E+02  0.13044981599E+02 -0.36177194037E+02  0.43400728019E+02  0.00000000000E+00 0.  1.
         11    1    3    3    0    0 -0.90534047627E+01 -0.95848386535E+01  0.82766874933E+01  0.15567171417E+02  0.51100000000E-03 0. -1.
        -11    1    3    3    0    0  0.61331493597E+00 -0.41222997562E+01  0.10048265756E+02  0.10878288259E+02  0.51100000000E-03 0.  1.
        -12    1    3    3    0    0 -0.11676129481E+02  0.66215681097E+00  0.17852240788E+02  0.21341812305E+02  0.00000000000E+00 0.  1.
</event>
<event>
 7    1  0.4519840E-010  0.4778727E+02  0.7816164E-02  0.1312668E+00
        -11   -1    0    0    0    0  0.00000000000E+00  0.00000000000E+00  0.45593999997E+02  0.45594000000E+02  0.51100000000E-03 0.  1.
         11   -1    0    0    0    0 -0.00000000000E+00 -0.00000000000E+00 -0.45593999997E+02  0.45594000000E+02  0.51100000000E-03 0. -1.
    9900012    2    1    2    0    0 -0.67973776771E+01  0.41020477592E+02 -0.12439439256E+02  0.47787267585E+02  0.19999984228E+02 0.  0.
         12    1    1    2    0    0  0.67973776771E+01 -0.41020477592E+02  0.12439439256E+02  0.43400732415E+02  0.00000000000E+00 0. -1.
         11    1    3    3    0    0 -0.47369551490E+01  0.12905300912E+00 -0.13872345367E+01  0.49375923975E+01  0.51100000000E-03 0. -1.
        -11    1    3    3    0    0 -0.12824830128E+01  0.17942236334E+01  0.26769795273E-01  0.22056105749E+01  0.51100000000E-03 0.  1.
        -12    1    3    3    0    0 -0.77793951523E+00  0.39097200949E+02 -0.11078974514E+02  0.40644064613E+02  0.00000000000E+00 0.  1.
</event>
<event>
 7    1  0.4519840E-010  0.4778727E+02  0.7816164E-02  0.1312668E+00
        -11   -1    0    0    0    0  0.00000000000E+00  0.00000000000E+00  0.45593999997E+02  0.45594000000E+02  0.51100000000E-03 0.  1.
         11   -1    0    0    0    0 -0.00000000000E+00 -0.00000000000E+00 -0.45593999997E+02  0.45594000000E+02  0.51100000000E-03 0. -1.
    9900012    2    1    2    0    0 -0.43223486385E+02 -0.38588980259E+01  0.68012239342E+00  0.47787269180E+02  0.19999991501E+02 0.  0.
        -12    1    1    2    0    0  0.43223486385E+02  0.38588980259E+01 -0.68012239342E+00  0.43400730820E+02  0.00000000000E+00 0.  1.
         11    1    3    3    0    0 -0.25819900608E+01 -0.17227935238E+00 -0.87994340734E+00  0.27332496246E+01  0.51100000000E-03 0. -1.
        -11    1    3    3    0    0 -0.28958705216E+01  0.53715954642E+01 -0.85292059976E+00  0.61617836475E+01  0.51100000000E-03 0.  1.
        -12    1    3    3    0    0 -0.37745625802E+02 -0.90582141377E+01  0.24129864005E+01  0.38892235908E+02  0.00000000000E+00 0.  1.
</event>
<event>
 7    1  0.4519840E-010  0.4778727E+02  0.7816164E-02  0.1312668E+00
        -11   -1    0    0    0    0  0.00000000000E+00  0.00000000000E+00  0.45593999997E+02  0.45594000000E+02  0.51100000000E-03 0. -1.
         11   -1    0    0    0    0 -0.00000000000E+00 -0.00000000000E+00 -0.45593999997E+02  0.45594000000E+02  0.51100000000E-03 0.  1.
    9900012    2    1    2    0    0 -0.25892720493E+00  0.27238368337E+02 -0.33787978626E+02  0.47787271290E+02  0.20000001118E+02 0.  0.
         12    1    1    2    0    0  0.25892720493E+00 -0.27238368337E+02  0.33787978626E+02  0.43400728710E+02  0.00000000000E+00 0. -1.
         11    1    3    3    0    0  0.43218736566E+01  0.76438324034E+01 -0.85487744323E+01  0.12255134037E+02  0.51100000000E-03 0. -1.
        -11    1    3    3    0    0  0.49174106719E+00  0.93542981076E+01 -0.21592269734E+02  0.23536584605E+02  0.51100000000E-03 0.  1.
         12    1    3    3    0    0 -0.50725419287E+01  0.10240237826E+02 -0.36469344595E+01  0.11995552647E+02  0.00000000000E+00 0. -1.
</event>
<event>
 7    1  0.4519840E-010  0.4778728E+02  0.7816164E-02  0.1312668E+00
        -11   -1    0    0    0    0  0.00000000000E+00  0.00000000000E+00  0.45593999997E+02  0.45594000000E+02  0.51100000000E-03 0. -1.
         11   -1    0    0    0    0 -0.00000000000E+00 -0.00000000000E+00 -0.45593999997E+02  0.45594000000E+02  0.51100000000E-03 0.  1.
    9900012    2    1    2    0    0  0.86294293734E+01  0.34924628070E+02  0.24278088997E+02  0.47787282235E+02  0.20000051024E+02 0.  0.
        -12    1    1    2    0    0 -0.86294293734E+01 -0.34924628070E+02 -0.24278088997E+02  0.43400717765E+02  0.00000000000E+00 0.  1.
         11    1    3    3    0    0  0.60153093119E+01  0.17069212403E+02  0.11430220122E+02  0.21405417316E+02  0.51100000000E-03 0. -1.
        -11    1    3    3    0    0  0.27057133622E+01  0.13827437722E+02  0.12978904295E+01  0.14149326436E+02  0.51100000000E-03 0.  1.
         12    1    3    3    0    0 -0.91593300742E-01  0.40279779443E+01  0.11549978446E+02  0.12232538483E+02  0.00000000000E+00 0. -1.
</event>
<event>
 7    1  0.4519840E-010  0.4778727E+02  0.7816164E-02  0.1312668E+00
        -11   -1    0    0    0    0  0.00000000000E+00  0.00000000000E+00  0.45593999997E+02  0.45594000000E+02  0.51100000000E-03 0. -1.
         11   -1    0    0    0    0 -0.00000000000E+00 -0.00000000000E+00 -0.45593999997E+02  0.45594000000E+02  0.51100000000E-03 0.  1.
    9900012    2    1    2    0    0 -0.10616352743E+02  0.18462952869E+02 -0.37815812731E+02  0.47787271126E+02  0.20000000374E+02 0.  0.
         12    1    1    2    0    0  0.10616352743E+02 -0.18462952869E+02  0.37815812731E+02  0.43400728874E+02  0.00000000000E+00 0. -1.
         11    1    3    3    0    0 -0.20688927585E+01  0.72913496647E+00 -0.36108743301E+01  0.42249696727E+01  0.51100000000E-03 0. -1.
        -11    1    3    3    0    0 -0.75300676255E+01  0.14586697891E+01 -0.21690993825E+02  0.23007147789E+02  0.51100000000E-03 0.  1.
         12    1    3    3    0    0 -0.10173923594E+01  0.16275148114E+02 -0.12513944576E+02  0.20555153665E+02  0.00000000000E+00 0. -1.
</event>
<event>
 7    1  0.4519840E-010  0.4778728E+02  0.7816164E-02  0.1312668E+00
        -11   -1    0    0    0    0  0.00000000000E+00  0.00000000000E+00  0.45593999997E+02  0.45594000000E+02  0.51100000000E-03 0. -1.
         11   -1    0    0    0    0 -0.00000000000E+00 -0.00000000000E+00 -0.45593999997E+02  0.45594000000E+02  0.51100000000E-03 0.  1.
    9900012    2    1    2    0    0  0.86057009197E+01 -0.17267921620E+02  0.38876518765E+02  0.47787275160E+02  0.20000018763E+02 0.  0.
        -12    1    1    2    0    0 -0.86057009197E+01  0.17267921620E+02 -0.38876518765E+02  0.43400724840E+02  0.00000000000E+00 0.  1.
         11    1    3    3    0    0  0.10402533972E+02 -0.20994994248E+02  0.33424771200E+02  0.40819331530E+02  0.51100000000E-03 0. -1.
        -11    1    3    3    0    0 -0.47033142541E+00  0.96884153116E+00  0.24717982933E+01  0.26962293349E+01  0.51100000000E-03 0.  1.
         12    1    3    3    0    0 -0.13265016274E+01  0.27582310974E+01  0.29799492718E+01  0.42717142948E+01  0.00000000000E+00 0. -1.
</event>
<event>
 7    1  0.4519840E-010  0.4778726E+02  0.7816164E-02  0.1312668E+00
        -11   -1    0    0    0    0  0.00000000000E+00  0.00000000000E+00  0.45593999997E+02  0.45594000000E+02  0.51100000000E-03 0. -1.
         11   -1    0    0    0    0 -0.00000000000E+00 -0.00000000000E+00 -0.45593999997E+02  0.45594000000E+02  0.51100000000E-03 0.  1.
    9900012    2    1    2    0    0 -0.37692712361E+01  0.31623591828E+02 -0.29484996041E+02  0.47787263171E+02  0.19999964102E+02 0.  0.
         12    1    1    2    0    0  0.37692712361E+01 -0.31623591828E+02  0.29484996041E+02  0.43400736829E+02  0.00000000000E+00 0. -1.
         11    1    3    3    0    0 -0.60619923411E+01  0.78312310029E+01 -0.11042814858E+02  0.14833060723E+02  0.51100000000E-03 0. -1.
        -11    1    3    3    0    0  0.52108200211E+00  0.61259903734E+01 -0.13005510543E+02  0.14385499270E+02  0.51100000000E-03 0.  1.
        -12    1    3    3    0    0  0.17716391029E+01  0.17666370452E+02 -0.54366706401E+01  0.18568703178E+02  0.00000000000E+00 0.  1.
</event>
<event>
 7    1  0.4519840E-010  0.4778728E+02  0.7816164E-02  0.1312668E+00
        -11   -1    0    0    0    0  0.00000000000E+00  0.00000000000E+00  0.45593999997E+02  0.45594000000E+02  0.51100000000E-03 0. -1.
         11   -1    0    0    0    0 -0.00000000000E+00 -0.00000000000E+00 -0.45593999997E+02  0.45594000000E+02  0.51100000000E-03 0.  1.
    9900012    2    1    2    0    0 -0.13587153499E+02 -0.81207452556E+01 -0.40411199948E+02  0.47787281977E+02  0.20000049844E+02 0.  0.
         12    1    1    2    0    0  0.13587153499E+02  0.81207452556E+01  0.40411199948E+02  0.43400718023E+02  0.00000000000E+00 0. -1.
         11    1    3    3    0    0 -0.61584821907E+01  0.11452337941E+01 -0.71932721905E+01  0.95384290323E+01  0.51100000000E-03 0. -1.
        -11    1    3    3    0    0 -0.10749581442E+02 -0.10487309173E+02 -0.23318576822E+02  0.27736134917E+02  0.51100000000E-03 0.  1.
         12    1    3    3    0    0  0.33209101335E+01  0.12213301229E+01 -0.98993509356E+01  0.10512718028E+02  0.00000000000E+00 0. -1.
</event>
<event>
 7    1  0.4519840E-010  0.4778728E+02  0.7816164E-02  0.1312668E+00
        -11   -1    0    0    0    0  0.00000000000E+00  0.00000000000E+00  0.45593999997E+02  0.45594000000E+02  0.51100000000E-03 0. -1.
         11   -1    0    0    0    0 -0.00000000000E+00 -0.00000000000E+00 -0.45593999997E+02  0.45594000000E+02  0.51100000000E-03 0.  1.
    9900012    2    1    2    0    0  0.22119944668E+02  0.30405649745E+02  0.21675497487E+02  0.47787277888E+02  0.20000031202E+02 0.  0.
        -12    1    1    2    0    0 -0.22119944668E+02 -0.30405649745E+02 -0.21675497487E+02  0.43400722112E+02  0.00000000000E+00 0.  1.
         11    1    3    3    0    0  0.12035752951E+02  0.13444983402E+02  0.27322258607E+01  0.18250807822E+02  0.51100000000E-03 0. -1.
        -11    1    3    3    0    0 -0.15014000877E+01  0.12670359423E+01 -0.46542179552E+00  0.20189601312E+01  0.51100000000E-03 0.  1.
        -12    1    3    3    0    0  0.11585591805E+02  0.15693630401E+02  0.19408693422E+02  0.27517509934E+02  0.00000000000E+00 0.  1.
</event>
<event>
 7    1  0.4519840E-010  0.4778727E+02  0.7816164E-02  0.1312668E+00
        -11   -1    0    0    0    0  0.00000000000E+00  0.00000000000E+00  0.45593999997E+02  0.45594000000E+02  0.51100000000E-03 0. -1.
         11   -1    0    0    0    0 -0.00000000000E+00 -0.00000000000E+00 -0.45593999997E+02  0.45594000000E+02  0.51100000000E-03 0.  1.
    9900012    2    1    2    0    0 -0.17901626944E+02  0.71854125262E+01  0.38878332340E+02  0.47787272748E+02  0.20000007769E+02 0.  0.
        -12    1    1    2    0    0  0.17901626944E+02 -0.71854125262E+01 -0.38878332340E+02  0.43400727252E+02  0.00000000000E+00 0.  1.
         11    1    3    3    0    0 -0.18211086780E+02  0.11275334000E+01  0.23845960394E+02  0.30025736305E+02  0.51100000000E-03 0. -1.
        -11    1    3    3    0    0  0.21830795053E+01  0.39695177691E+00  0.84913208105E+00  0.23758014210E+01  0.51100000000E-03 0.  1.
         12    1    3    3    0    0 -0.18736196694E+01  0.56609273493E+01  0.14183239865E+02  0.15385735022E+02  0.00000000000E+00 0. -1.
</event>
<event>
 7    1  0.4519840E-010  0.4778727E+02  0.7816164E-02  0.1312668E+00
        -11   -1    0    0    0    0  0.00000000000E+00  0.00000000000E+00  0.45593999997E+02  0.45594000000E+02  0.51100000000E-03 0. -1.
         11   -1    0    0    0    0 -0.00000000000E+00 -0.00000000000E+00 -0.45593999997E+02  0.45594000000E+02  0.51100000000E-03 0.  1.
    9900012    2    1    2    0    0  0.54051398506E+01  0.15049027512E+01 -0.43036532719E+02  0.47787269389E+02  0.19999992451E+02 0.  0.
         12    1    1    2    0    0 -0.54051398506E+01 -0.15049027512E+01  0.43036532719E+02  0.43400730611E+02  0.00000000000E+00 0. -1.
         11    1    3    3    0    0  0.18041261652E+01 -0.52278050076E+01 -0.83246228289E+01  0.99942064178E+01  0.51100000000E-03 0. -1.
        -11    1    3    3    0    0  0.69795312776E+01  0.76092802003E+00 -0.10525142962E+02  0.12651936727E+02  0.51100000000E-03 0.  1.
        -12    1    3    3    0    0 -0.33785175923E+01  0.59717797388E+01 -0.24186766928E+02  0.25141126244E+02  0.00000000000E+00 0.  1.
</event>
<event>
 7    1  0.4519840E-010  0.4778722E+02  0.7816164E-02  0.1312668E+00
        -11   -1    0    0    0    0  0.00000000000E+00  0.00000000000E+00  0.45593999997E+02  0.45594000000E+02  0.51100000000E-03 0. -1.
         11   -1    0    0    0    0 -0.00000000000E+00 -0.00000000000E+00 -0.45593999997E+02  0.45594000000E+02  0.51100000000E-03 0.  1.
    9900012    2    1    2    0    0 -0.41742465042E+02  0.11363963738E+02 -0.34719984724E+01  0.47787218521E+02  0.19999760522E+02 0.  0.
        -12    1    1    2    0    0  0.41742465042E+02 -0.11363963738E+02  0.34719984724E+01  0.43400781479E+02  0.00000000000E+00 0.  1.
         11    1    3    3    0    0 -0.10459446034E+02 -0.26287211594E+01  0.12055847652E+01  0.10851894818E+02  0.51100000000E-03 0.  1.
        -11    1    3    3    0    0 -0.14982823927E+02  0.32907038479E+00 -0.45624151844E+01  0.15665533273E+02  0.51100000000E-03 0. -1.
        -12    1    3    3    0    0 -0.16300195081E+02  0.13663614513E+02 -0.11516805317E+00  0.21269790429E+02  0.00000000000E+00 0.  1.
</event>
<event>
 7    1  0.4519840E-010  0.4778727E+02  0.7816164E-02  0.1312668E+00
        -11   -1    0    0    0    0  0.00000000000E+00  0.00000000000E+00  0.45593999997E+02  0.45594000000E+02  0.51100000000E-03 0. -1.
         11   -1    0    0    0    0 -0.00000000000E+00 -0.00000000000E+00 -0.45593999997E+02  0.45594000000E+02  0.51100000000E-03 0.  1.
    9900012    2    1    2    0    0 -0.85496205045E+01  0.20841554473E+02  0.37096589121E+02  0.47787270421E+02  0.19999997156E+02 0.  0.
        -12    1    1    2    0    0  0.85496205045E+01 -0.20841554473E+02 -0.37096589121E+02  0.43400729579E+02  0.00000000000E+00 0.  1.
         11    1    3    3    0    0 -0.36011502924E+01  0.13040210879E+02  0.18662602636E+02  0.23050121922E+02  0.51100000000E-03 0. -1.
        -11    1    3    3    0    0  0.40227354410E+01  0.53672105933E+01  0.48502464458E+01  0.82773329538E+01  0.51100000000E-03 0.  1.
         12    1    3    3    0    0 -0.89712056531E+01  0.24341330003E+01  0.13583740039E+02  0.16459815545E+02  0.00000000000E+00 0. -1.
</event>
<event>
 7    1  0.4519840E-010  0.4778727E+02  0.7816164E-02  0.1312668E+00
        -11   -1    0    0    0    0  0.00000000000E+00  0.00000000000E+00  0.45593999997E+02  0.45594000000E+02  0.51100000000E-03 0. -1.
         11   -1    0    0    0    0 -0.00000000000E+00 -0.00000000000E+00 -0.45593999997E+02  0.45594000000E+02  0.51100000000E-03 0.  1.
    9900012    2    1    2    0    0  0.34116820880E+02  0.96390719549E+01 -0.25035052171E+02  0.47787274057E+02  0.20000013738E+02 0.  0.
         12    1    1    2    0    0 -0.34116820880E+02 -0.96390719549E+01  0.25035052171E+02  0.43400725943E+02  0.00000000000E+00 0. -1.
         11    1    3    3    0    0  0.26784406680E+01  0.49800403982E+01 -0.22189542364E+01  0.60744221902E+01  0.51100000000E-03 0. -1.
        -11    1    3    3    0    0  0.25901921507E+02  0.90335923920E+01 -0.20637147641E+02  0.34327936033E+02  0.51100000000E-03 0.  1.
        -12    1    3    3    0    0  0.55364587059E+01 -0.43745608353E+01 -0.21789502932E+01  0.73849158346E+01  0.00000000000E+00 0.  1.
</event>
<event>
 7    1  0.4519840E-010  0.4778726E+02  0.7816164E-02  0.1312668E+00
        -11   -1    0    0    0    0  0.00000000000E+00  0.00000000000E+00  0.45593999997E+02  0.45594000000E+02  0.51100000000E-03 0. -1.
         11   -1    0    0    0    0 -0.00000000000E+00 -0.00000000000E+00 -0.45593999997E+02  0.45594000000E+02  0.51100000000E-03 0.  1.
    9900012    2    1    2    0    0  0.39104812958E+02  0.10694435099E+02  0.15494080283E+02  0.47787264265E+02  0.19999969088E+02 0.  0.
        -12    1    1    2    0    0 -0.39104812958E+02 -0.10694435099E+02 -0.15494080283E+02  0.43400735735E+02  0.00000000000E+00 0.  1.
         11    1    3    3    0    0  0.87562102906E+01 -0.38416859816E+01  0.77856915450E+01  0.12330724347E+02  0.51100000000E-03 0.  1.
        -11    1    3    3    0    0  0.67859046282E+01  0.28996888710E+00  0.33702869976E+01  0.75823095614E+01  0.51100000000E-03 0. -1.
        -12    1    3    3    0    0  0.23562698039E+02  0.14246152194E+02  0.43381017402E+01  0.27874230356E+02  0.00000000000E+00 0.  1.
</event>
<event>
 7    1  0.4519840E-010  0.4778727E+02  0.7816164E-02  0.1312668E+00
        -11   -1    0    0    0    0  0.00000000000E+00  0.00000000000E+00  0.45593999997E+02  0.45594000000E+02  0.51100000000E-03 0. -1.
         11   -1    0    0    0    0 -0.00000000000E+00 -0.00000000000E+00 -0.45593999997E+02  0.45594000000E+02  0.51100000000E-03 0.  1.
    9900012    2    1    2    0    0  0.19873165238E+02 -0.29202223299E+02 -0.25217271014E+02  0.47787270748E+02  0.19999998648E+02 0.  0.
         12    1    1    2    0    0 -0.19873165238E+02  0.29202223299E+02  0.25217271014E+02  0.43400729252E+02  0.00000000000E+00 0. -1.
         11    1    3    3    0    0  0.11241150616E+02 -0.89014830940E+01 -0.24359526560E+01  0.14544199326E+02  0.51100000000E-03 0. -1.
        -11    1    3    3    0    0  0.82052585952E+01 -0.11037606696E+02 -0.83510477878E+01  0.16090215337E+02  0.51100000000E-03 0.  1.
        -12    1    3    3    0    0  0.42675602750E+00 -0.92631335092E+01 -0.14430270570E+02  0.17152856084E+02  0.00000000000E+00 0.  1.
</event>
<event>
 7    1  0.4519840E-010  0.4778727E+02  0.7816164E-02  0.1312668E+00
        -11   -1    0    0    0    0  0.00000000000E+00  0.00000000000E+00  0.45593999997E+02  0.45594000000E+02  0.51100000000E-03 0. -1.
         11   -1    0    0    0    0 -0.00000000000E+00 -0.00000000000E+00 -0.45593999997E+02  0.45594000000E+02  0.51100000000E-03 0.  1.
    9900012    2    1    2    0    0 -0.22115172659E+02 -0.39705785142E+01  0.37131886704E+02  0.47787269987E+02  0.19999995178E+02 0.  0.
        -12    1    1    2    0    0  0.22115172659E+02  0.39705785142E+01 -0.37131886704E+02  0.43400730013E+02  0.00000000000E+00 0.  1.
         11    1    3    3    0    0 -0.11504224057E+02  0.20142916700E+01  0.30479756536E+02  0.32640773595E+02  0.51100000000E-03 0. -1.
        -11    1    3    3    0    0  0.76095718929E+00 -0.24524875089E+00  0.55319324761E-01  0.80141330321E+00  0.51100000000E-03 0.  1.
        -12    1    3    3    0    0 -0.11371905792E+02 -0.57396214333E+01  0.65968108426E+01  0.14345083089E+02  0.00000000000E+00 0.  1.
</event>
<event>
 7    1  0.4519840E-010  0.4778727E+02  0.7816164E-02  0.1312668E+00
        -11   -1    0    0    0    0  0.00000000000E+00  0.00000000000E+00  0.45593999997E+02  0.45594000000E+02  0.51100000000E-03 0. -1.
         11   -1    0    0    0    0 -0.00000000000E+00 -0.00000000000E+00 -0.45593999997E+02  0.45594000000E+02  0.51100000000E-03 0.  1.
    9900012    2    1    2    0    0 -0.41843080649E+01  0.76162976912E+01 -0.42521838902E+02  0.47787271802E+02  0.20000003456E+02 0.  0.
         12    1    1    2    0    0  0.41843080649E+01 -0.76162976912E+01  0.42521838902E+02  0.43400728198E+02  0.00000000000E+00 0. -1.
         11    1    3    3    0    0  0.67990845327E+01  0.14572956804E+01 -0.15991933174E+02  0.17438267921E+02  0.51100000000E-03 0. -1.
        -11    1    3    3    0    0 -0.24967935690E+01  0.26451154665E+01 -0.15852151110E+02  0.16264111074E+02  0.51100000000E-03 0.  1.
        -12    1    3    3    0    0 -0.84865990287E+01  0.35138865444E+01 -0.10677754618E+02  0.14084892807E+02  0.00000000000E+00 0.  1.
</event>
<event>
 7    1  0.4519840E-010  0.4778726E+02  0.7816164E-02  0.1312668E+00
        -11   -1    0    0    0    0  0.00000000000E+00  0.00000000000E+00  0.45593999997E+02  0.45594000000E+02  0.51100000000E-03 0. -1.
         11   -1    0    0    0    0 -0.00000000000E+00 -0.00000000000E+00 -0.45593999997E+02  0.45594000000E+02  0.51100000000E-03 0.  1.
    9900012    2    1    2    0    0 -0.10120162662E+02  0.22857754659E+02 -0.35478583708E+02  0.47787256432E+02  0.19999933375E+02 0.  0.
         12    1    1    2    0    0  0.10120162662E+02 -0.22857754659E+02  0.35478583708E+02  0.43400743568E+02  0.00000000000E+00 0. -1.
         11    1    3    3    0    0 -0.98603140657E+01  0.10212043693E+02 -0.11169433052E+02  0.18062886393E+02  0.51100000000E-03 0. -1.
        -11    1    3    3    0    0 -0.45072839532E+01  0.12942948279E+01 -0.94464292384E+01  0.10546365884E+02  0.51100000000E-03 0.  1.
         12    1    3    3    0    0  0.42474353570E+01  0.11351416137E+02 -0.14862721418E+02  0.19178004155E+02  0.00000000000E+00 0. -1.
</event>
<event>
 7    1  0.4519840E-010  0.4778727E+02  0.7816164E-02  0.1312668E+00
        -11   -1    0    0    0    0  0.00000000000E+00  0.00000000000E+00  0.45593999997E+02  0.45594000000E+02  0.51100000000E-03 0. -1.
         11   -1    0    0    0    0 -0.00000000000E+00 -0.00000000000E+00 -0.45593999997E+02  0.45594000000E+02  0.51100000000E-03 0.  1.
    9900012    2    1    2    0    0  0.14283114875E+02 -0.14267094874E+02 -0.38419604304E+02  0.47787270034E+02  0.19999995395E+02 0.  0.
         12    1    1    2    0    0 -0.14283114875E+02  0.14267094874E+02  0.38419604304E+02  0.43400729966E+02  0.00000000000E+00 0. -1.
         11    1    3    3    0    0  0.74157073040E+01 -0.39974931124E+01 -0.10812859288E+02  0.13707318930E+02  0.51100000000E-03 0.  1.
        -11    1    3    3    0    0  0.90544051771E+01 -0.74377627283E+01 -0.80926948720E+01  0.14240585594E+02  0.51100000000E-03 0. -1.
         12    1    3    3    0    0 -0.21869976059E+01 -0.28318390337E+01 -0.19514050144E+02  0.19839365510E+02  0.00000000000E+00 0. -1.
</event>
<event>
 7    1  0.4519840E-010  0.4778727E+02  0.7816164E-02  0.1312668E+00
        -11   -1    0    0    0    0  0.00000000000E+00  0.00000000000E+00  0.45593999997E+02  0.45594000000E+02  0.51100000000E-03 0. -1.
         11   -1    0    0    0    0 -0.00000000000E+00 -0.00000000000E+00 -0.45593999997E+02  0.45594000000E+02  0.51100000000E-03 0.  1.
    9900012    2    1    2    0    0  0.15460056873E+02  0.27668949882E+02 -0.29648597695E+02  0.47787268539E+02  0.19999988576E+02 0.  0.
         12    1    1    2    0    0 -0.15460056873E+02 -0.27668949882E+02  0.29648597695E+02  0.43400731461E+02  0.00000000000E+00 0. -1.
         11    1    3    3    0    0  0.24391232326E+01  0.49722841339E+01 -0.90408566156E+01  0.10602359184E+02  0.51100000000E-03 0. -1.
        -11    1    3    3    0    0  0.56527530189E+01  0.16888584719E+02 -0.21315198298E+02  0.27776169448E+02  0.51100000000E-03 0.  1.
         12    1    3    3    0    0  0.73681806219E+01  0.58080810292E+01  0.70745721867E+00  0.94087399069E+01  0.00000000000E+00 0. -1.
</event>
<event>
 7    1  0.4519840E-010  0.4778727E+02  0.7816164E-02  0.1312668E+00
        -11   -1    0    0    0    0  0.00000000000E+00  0.00000000000E+00  0.45593999997E+02  0.45594000000E+02  0.51100000000E-03 0. -1.
         11   -1    0    0    0    0 -0.00000000000E+00 -0.00000000000E+00 -0.45593999997E+02  0.45594000000E+02  0.51100000000E-03 0.  1.
    9900012    2    1    2    0    0 -0.19510464850E+02 -0.20990242393E+02 -0.32594092265E+02  0.47787269995E+02  0.19999995216E+02 0.  0.
         12    1    1    2    0    0  0.19510464850E+02  0.20990242393E+02  0.32594092265E+02  0.43400730005E+02  0.00000000000E+00 0. -1.
         11    1    3    3    0    0 -0.13065547596E+02 -0.89398883914E+00 -0.99104022605E+01  0.16423270784E+02  0.51100000000E-03 0. -1.
        -11    1    3    3    0    0 -0.27752423493E+01 -0.26747808632E+01 -0.41889341507E+01  0.56924153347E+01  0.51100000000E-03 0.  1.
         12    1    3    3    0    0 -0.36696749046E+01 -0.17421472691E+02 -0.18494755854E+02  0.25671583876E+02  0.00000000000E+00 0. -1.
</event>
<event>
 7    1  0.4519840E-010  0.4778727E+02  0.7816164E-02  0.1312668E+00
        -11   -1    0    0    0    0  0.00000000000E+00  0.00000000000E+00  0.45593999997E+02  0.45594000000E+02  0.51100000000E-03 0. -1.
         11   -1    0    0    0    0 -0.00000000000E+00 -0.00000000000E+00 -0.45593999997E+02  0.45594000000E+02  0.51100000000E-03 0.  1.
    9900012    2    1    2    0    0  0.26585056923E+02 -0.42116028916E+01  0.34045861047E+02  0.47787268382E+02  0.19999987862E+02 0.  0.
        -12    1    1    2    0    0 -0.26585056923E+02  0.42116028916E+01 -0.34045861047E+02  0.43400731618E+02  0.00000000000E+00 0.  1.
         11    1    3    3    0    0  0.77080859004E+00 -0.19398189704E+01  0.14381214558E+02  0.14531908889E+02  0.51100000000E-03 0. -1.
        -11    1    3    3    0    0  0.34977178290E+01  0.17514284984E+01  0.14583262237E+01  0.41747152516E+01  0.51100000000E-03 0.  1.
         12    1    3    3    0    0  0.22316530504E+02 -0.40232124195E+01  0.18206320265E+02  0.29080644242E+02  0.00000000000E+00 0. -1.
</event>
<event>
 7    1  0.4519840E-010  0.4778727E+02  0.7816164E-02  0.1312668E+00
        -11   -1    0    0    0    0  0.00000000000E+00  0.00000000000E+00  0.45593999997E+02  0.45594000000E+02  0.51100000000E-03 0. -1.
         11   -1    0    0    0    0 -0.00000000000E+00 -0.00000000000E+00 -0.45593999997E+02  0.45594000000E+02  0.51100000000E-03 0.  1.
    9900012    2    1    2    0    0  0.35274814510E+02 -0.20057099940E+02 -0.15395576083E+02  0.47787267753E+02  0.19999984991E+02 0.  0.
         12    1    1    2    0    0 -0.35274814510E+02  0.20057099940E+02  0.15395576083E+02  0.43400732247E+02  0.00000000000E+00 0. -1.
         11    1    3    3    0    0  0.24118313576E+02 -0.72701960270E+01 -0.77246643680E+01  0.26348040533E+02  0.51100000000E-03 0. -1.
        -11    1    3    3    0    0  0.89579823933E+01 -0.34559884104E+01 -0.68963892647E+01  0.11821568830E+02  0.51100000000E-03 0.  1.
         12    1    3    3    0    0  0.21985185397E+01 -0.93309155023E+01 -0.77452245066E+00  0.96176583900E+01  0.00000000000E+00 0. -1.
</event>
<event>
 7    1  0.4519840E-010  0.4778728E+02  0.7816164E-02  0.1312668E+00
        -11   -1    0    0    0    0  0.00000000000E+00  0.00000000000E+00  0.45593999997E+02  0.45594000000E+02  0.51100000000E-03 0. -1.
         11   -1    0    0    0    0 -0.00000000000E+00 -0.00000000000E+00 -0.45593999997E+02  0.45594000000E+02  0.51100000000E-03 0.  1.
    9900012    2    1    2    0    0 -0.77096517720E+01 -0.13309384061E+02  0.40583793030E+02  0.47787277757E+02  0.20000030605E+02 0.  0.
        -12    1    1    2    0    0  0.77096517720E+01  0.13309384061E+02 -0.40583793030E+02  0.43400722243E+02  0.00000000000E+00 0.  1.
         11    1    3    3    0    0 -0.47150677403E+01 -0.47365090438E+00  0.11217925873E+02  0.12177769505E+02  0.51100000000E-03 0. -1.
        -11    1    3    3    0    0 -0.90108214670E+01 -0.61337303494E+01  0.18747508161E+02  0.21686092640E+02  0.51100000000E-03 0.  1.
        -12    1    3    3    0    0  0.60162374352E+01 -0.67020028076E+01  0.10618358996E+02  0.13923415611E+02  0.00000000000E+00 0.  1.
</event>
<event>
 7    1  0.4519840E-010  0.4778726E+02  0.7816164E-02  0.1312668E+00
        -11   -1    0    0    0    0  0.00000000000E+00  0.00000000000E+00  0.45593999997E+02  0.45594000000E+02  0.51100000000E-03 0. -1.
         11   -1    0    0    0    0 -0.00000000000E+00 -0.00000000000E+00 -0.45593999997E+02  0.45594000000E+02  0.51100000000E-03 0.  1.
    9900012    2    1    2    0    0  0.22691720960E+01  0.12193350409E+01 -0.43324219237E+02  0.47787263919E+02  0.19999967511E+02 0.  0.
         12    1    1    2    0    0 -0.22691720960E+01 -0.12193350409E+01  0.43324219237E+02  0.43400736081E+02  0.00000000000E+00 0. -1.
         11    1    3    3    0    0  0.81405881936E+01 -0.35659550421E+01 -0.25304655936E+02  0.26819970615E+02  0.51100000000E-03 0.  1.
        -11    1    3    3    0    0 -0.97546267623E+00 -0.16815228752E+01 -0.11747437404E+01  0.22713585647E+01  0.51100000000E-03 0. -1.
         12    1    3    3    0    0 -0.48959534214E+01  0.64668129582E+01 -0.16844819560E+02  0.18695934739E+02  0.00000000000E+00 0. -1.
</event>
<event>
 7    1  0.4519840E-010  0.4778727E+02  0.7816164E-02  0.1312668E+00
        -11   -1    0    0    0    0  0.00000000000E+00  0.00000000000E+00  0.45593999997E+02  0.45594000000E+02  0.51100000000E-03 0. -1.
         11   -1    0    0    0    0 -0.00000000000E+00 -0.00000000000E+00 -0.45593999997E+02  0.45594000000E+02  0.51100000000E-03 0.  1.
    9900012    2    1    2    0    0 -0.24718182239E+01  0.13192080330E+02 -0.41273264930E+02  0.47787271126E+02  0.20000000374E+02 0.  0.
         12    1    1    2    0    0  0.24718182239E+01 -0.13192080330E+02  0.41273264930E+02  0.43400728874E+02  0.00000000000E+00 0. -1.
         11    1    3    3    0    0 -0.38126976045E+00 -0.89898390338E+00 -0.80097867244E+00  0.12629749735E+01  0.51100000000E-03 0. -1.
        -11    1    3    3    0    0 -0.58118551425E+01  0.15925358496E+02 -0.38202776827E+02  0.41795297116E+02  0.51100000000E-03 0.  1.
        -12    1    3    3    0    0  0.37213066790E+01 -0.18342942622E+01 -0.22695094301E+01  0.47289990371E+01  0.00000000000E+00 0.  1.
</event>
<event>
 7    1  0.4519840E-010  0.4778727E+02  0.7816164E-02  0.1312668E+00
        -11   -1    0    0    0    0  0.00000000000E+00  0.00000000000E+00  0.45593999997E+02  0.45594000000E+02  0.51100000000E-03 0. -1.
         11   -1    0    0    0    0 -0.00000000000E+00 -0.00000000000E+00 -0.45593999997E+02  0.45594000000E+02  0.51100000000E-03 0.  1.
    9900012    2    1    2    0    0 -0.26813633058E+02 -0.31656794923E+02  0.12747535636E+02  0.47787271350E+02  0.20000001395E+02 0.  0.
        -12    1    1    2    0    0  0.26813633058E+02  0.31656794923E+02 -0.12747535636E+02  0.43400728650E+02  0.00000000000E+00 0.  1.
         11    1    3    3    0    0  0.92555168898E+00 -0.58023157759E+01  0.36053725885E+01  0.68936366350E+01  0.51100000000E-03 0. -1.
        -11    1    3    3    0    0 -0.15140631204E+01  0.10935288932E+01  0.17741762740E+01  0.25760229589E+01  0.51100000000E-03 0.  1.
         12    1    3    3    0    0 -0.26225121626E+02 -0.26948008040E+02  0.73679867734E+01  0.38317611757E+02  0.00000000000E+00 0. -1.
</event>
<event>
 7    1  0.4519840E-010  0.4778727E+02  0.7816164E-02  0.1312668E+00
        -11   -1    0    0    0    0  0.00000000000E+00  0.00000000000E+00  0.45593999997E+02  0.45594000000E+02  0.51100000000E-03 0. -1.
         11   -1    0    0    0    0 -0.00000000000E+00 -0.00000000000E+00 -0.45593999997E+02  0.45594000000E+02  0.51100000000E-03 0.  1.
    9900012    2    1    2    0    0  0.21935720030E+02  0.25047279963E+01  0.37365409512E+02  0.47787270702E+02  0.19999998438E+02 0.  0.
        -12    1    1    2    0    0 -0.21935720030E+02 -0.25047279963E+01 -0.37365409512E+02  0.43400729298E+02  0.00000000000E+00 0.  1.
         11    1    3    3    0    0  0.71896201897E+01  0.39872863499E+01  0.23434771548E+02  0.24835007725E+02  0.51100000000E-03 0.  1.
        -11    1    3    3    0    0  0.17347481405E+01 -0.28373428603E+01  0.78520570837E+01  0.85272895064E+01  0.51100000000E-03 0. -1.
        -12    1    3    3    0    0  0.13011351700E+02  0.13547845067E+01  0.60785808806E+01  0.14424973471E+02  0.00000000000E+00 0.  1.
</event>
<event>
 7    1  0.4519840E-010  0.4778727E+02  0.7816164E-02  0.1312668E+00
        -11   -1    0    0    0    0  0.00000000000E+00  0.00000000000E+00  0.45593999997E+02  0.45594000000E+02  0.51100000000E-03 0. -1.
         11   -1    0    0    0    0 -0.00000000000E+00 -0.00000000000E+00 -0.45593999997E+02  0.45594000000E+02  0.51100000000E-03 0.  1.
    9900012    2    1    2    0    0 -0.32570020838E+02  0.23254459378E+02  0.16794255984E+02  0.47787272213E+02  0.20000005330E+02 0.  0.
        -12    1    1    2    0    0  0.32570020838E+02 -0.23254459378E+02 -0.16794255984E+02  0.43400727787E+02  0.00000000000E+00 0.  1.
         11    1    3    3    0    0 -0.14397213038E+02  0.85111692427E+01  0.14603958449E+02  0.22203498548E+02  0.51100000000E-03 0. -1.
        -11    1    3    3    0    0 -0.15336138899E+01 -0.57112247654E+00  0.24759956943E+01  0.29679466616E+01  0.51100000000E-03 0.  1.
        -12    1    3    3    0    0 -0.16639193910E+02  0.15314412612E+02 -0.28569815899E+00  0.22615827004E+02  0.00000000000E+00 0.  1.
</event>
<event>
 7    1  0.4519840E-010  0.4778727E+02  0.7816164E-02  0.1312668E+00
        -11   -1    0    0    0    0  0.00000000000E+00  0.00000000000E+00  0.45593999997E+02  0.45594000000E+02  0.51100000000E-03 0.  1.
         11   -1    0    0    0    0 -0.00000000000E+00 -0.00000000000E+00 -0.45593999997E+02  0.45594000000E+02  0.51100000000E-03 0. -1.
    9900012    2    1    2    0    0  0.27596753680E+02 -0.17186303655E+02 -0.28751926503E+02  0.47787272764E+02  0.20000007838E+02 0.  0.
         12    1    1    2    0    0 -0.27596753680E+02  0.17186303655E+02  0.28751926503E+02  0.43400727236E+02  0.00000000000E+00 0. -1.
         11    1    3    3    0    0  0.14768166405E+01 -0.41721318725E+01 -0.10398397500E+02  0.11301077054E+02  0.51100000000E-03 0. -1.
        -11    1    3    3    0    0  0.37275593056E+01 -0.72841386981E+01 -0.28956332904E+01  0.86797504206E+01  0.51100000000E-03 0.  1.
        -12    1    3    3    0    0  0.22392377734E+02 -0.57300330843E+01 -0.15457895713E+02  0.27806445289E+02  0.00000000000E+00 0.  1.
</event>
<event>
 7    1  0.4519840E-010  0.4778727E+02  0.7816164E-02  0.1312668E+00
        -11   -1    0    0    0    0  0.00000000000E+00  0.00000000000E+00  0.45593999997E+02  0.45594000000E+02  0.51100000000E-03 0. -1.
         11   -1    0    0    0    0 -0.00000000000E+00 -0.00000000000E+00 -0.45593999997E+02  0.45594000000E+02  0.51100000000E-03 0.  1.
    9900012    2    1    2    0    0  0.11553466112E+00  0.35900491589E+02  0.24387794205E+02  0.47787272463E+02  0.20000006467E+02 0.  0.
        -12    1    1    2    0    0 -0.11553466112E+00 -0.35900491589E+02 -0.24387794205E+02  0.43400727537E+02  0.00000000000E+00 0.  1.
         11    1    3    3    0    0 -0.55955154684E+00  0.15234502216E+02  0.46937693610E+01  0.15951007078E+02  0.51100000000E-03 0. -1.
        -11    1    3    3    0    0  0.41169331007E+01  0.18544823992E+02  0.10299641005E+02  0.21608846340E+02  0.51100000000E-03 0.  1.
        -12    1    3    3    0    0 -0.34418468927E+01  0.21211653804E+01  0.93943838398E+01  0.10227419046E+02  0.00000000000E+00 0.  1.
</event>
<event>
 7    1  0.4519840E-010  0.4778727E+02  0.7816164E-02  0.1312668E+00
        -11   -1    0    0    0    0  0.00000000000E+00  0.00000000000E+00  0.45593999997E+02  0.45594000000E+02  0.51100000000E-03 0. -1.
         11   -1    0    0    0    0 -0.00000000000E+00 -0.00000000000E+00 -0.45593999997E+02  0.45594000000E+02  0.51100000000E-03 0.  1.
    9900012    2    1    2    0    0  0.39054646930E+02 -0.39541051501E+01 -0.18512780797E+02  0.47787269047E+02  0.19999990895E+02 0.  0.
         12    1    1    2    0    0 -0.39054646930E+02  0.39541051501E+01  0.18512780797E+02  0.43400730953E+02  0.00000000000E+00 0. -1.
         11    1    3    3    0    0  0.35367790436E+01  0.93344121026E+00 -0.19023927988E+01  0.41230106861E+01  0.51100000000E-03 0.  1.
        -11    1    3    3    0    0  0.92771346604E+01 -0.71028951365E+01  0.13894210528E+01  0.11766343440E+02  0.51100000000E-03 0. -1.
         12    1    3    3    0    0  0.26240733226E+02  0.22153487761E+01 -0.17999809051E+02  0.31897914921E+02  0.00000000000E+00 0. -1.
</event>
<event>
 7    1  0.4519840E-010  0.4778727E+02  0.7816164E-02  0.1312668E+00
        -11   -1    0    0    0    0  0.00000000000E+00  0.00000000000E+00  0.45593999997E+02  0.45594000000E+02  0.51100000000E-03 0. -1.
         11   -1    0    0    0    0 -0.00000000000E+00 -0.00000000000E+00 -0.45593999997E+02  0.45594000000E+02  0.51100000000E-03 0.  1.
    9900012    2    1    2    0    0 -0.14779217936E+02 -0.20244983145E+02 -0.35430754936E+02  0.47787273962E+02  0.20000013301E+02 0.  0.
         12    1    1    2    0    0  0.14779217936E+02  0.20244983145E+02  0.35430754936E+02  0.43400726038E+02  0.00000000000E+00 0. -1.
         11    1    3    3    0    0  0.11242097719E+01 -0.95248844107E+01 -0.16310180816E+02  0.18921132872E+02  0.51100000000E-03 0. -1.
        -11    1    3    3    0    0  0.10207352738E+01  0.40028349933E+00 -0.13002999148E+00  0.11040993790E+01  0.51100000000E-03 0.  1.
        -12    1    3    3    0    0 -0.16924162982E+02 -0.11120382234E+02 -0.18990544128E+02  0.27762041711E+02  0.00000000000E+00 0.  1.
</event>
<event>
 7    1  0.4519840E-010  0.4778727E+02  0.7816164E-02  0.1312668E+00
        -11   -1    0    0    0    0  0.00000000000E+00  0.00000000000E+00  0.45593999997E+02  0.45594000000E+02  0.51100000000E-03 0. -1.
         11   -1    0    0    0    0 -0.00000000000E+00 -0.00000000000E+00 -0.45593999997E+02  0.45594000000E+02  0.51100000000E-03 0.  1.
    9900012    2    1    2    0    0 -0.23387938402E+02 -0.26680428376E+02  0.24995645478E+02  0.47787271736E+02  0.20000003152E+02 0.  0.
        -12    1    1    2    0    0  0.23387938402E+02  0.26680428376E+02 -0.24995645478E+02  0.43400728264E+02  0.00000000000E+00 0.  1.
         11    1    3    3    0    0 -0.25906660392E+01 -0.73640369535E+01  0.19916925092E+01  0.80565147608E+01  0.51100000000E-03 0. -1.
        -11    1    3    3    0    0 -0.12448479368E+02 -0.47370296052E+01  0.30836353976E+01  0.13671609107E+02  0.51100000000E-03 0.  1.
         12    1    3    3    0    0 -0.83487929954E+01 -0.14579361817E+02  0.19920317571E+02  0.26059147868E+02  0.00000000000E+00 0. -1.
</event>
<event>
 7    1  0.4519840E-010  0.4778727E+02  0.7816164E-02  0.1312668E+00
        -11   -1    0    0    0    0  0.00000000000E+00  0.00000000000E+00  0.45593999997E+02  0.45594000000E+02  0.51100000000E-03 0.  1.
         11   -1    0    0    0    0 -0.00000000000E+00 -0.00000000000E+00 -0.45593999997E+02  0.45594000000E+02  0.51100000000E-03 0. -1.
    9900012    2    1    2    0    0  0.17205617600E+02  0.38095190318E+02  0.11676748200E+02  0.47787271309E+02  0.20000001207E+02 0.  0.
        -12    1    1    2    0    0 -0.17205617600E+02 -0.38095190318E+02 -0.11676748200E+02  0.43400728691E+02  0.00000000000E+00 0.  1.
         11    1    3    3    0    0  0.28306222786E+01  0.46935198089E+01 -0.28343574828E+01  0.61705051075E+01  0.51100000000E-03 0. -1.
        -11    1    3    3    0    0 -0.22729090989E+01  0.84454910511E+01  0.53377642705E+01  0.10246177948E+02  0.51100000000E-03 0.  1.
        -12    1    3    3    0    0  0.16647904421E+02  0.24956179458E+02  0.91733414123E+01  0.31370588254E+02  0.00000000000E+00 0.  1.
</event>
<event>
 7    1  0.4519840E-010  0.4778727E+02  0.7816164E-02  0.1312668E+00
        -11   -1    0    0    0    0  0.00000000000E+00  0.00000000000E+00  0.45593999997E+02  0.45594000000E+02  0.51100000000E-03 0. -1.
         11   -1    0    0    0    0 -0.00000000000E+00 -0.00000000000E+00 -0.45593999997E+02  0.45594000000E+02  0.51100000000E-03 0.  1.
    9900012    2    1    2    0    0  0.22771853525E+02  0.67956949313E+01 -0.36316451709E+02  0.47787269046E+02  0.19999990889E+02 0.  0.
         12    1    1    2    0    0 -0.22771853525E+02 -0.67956949313E+01  0.36316451709E+02  0.43400730954E+02  0.00000000000E+00 0. -1.
         11    1    3    3    0    0 -0.28396509098E+00 -0.13172065259E+00 -0.80928770229E+01  0.80989286496E+01  0.51100000000E-03 0. -1.
        -11    1    3    3    0    0  0.12278637751E+02  0.93958471843E+01 -0.22327685929E+02  0.27158285081E+02  0.51100000000E-03 0.  1.
        -12    1    3    3    0    0  0.10777180866E+02 -0.24684316004E+01 -0.58958887575E+01  0.12530055316E+02  0.00000000000E+00 0.  1.
</event>
<event>
 7    1  0.4519840E-010  0.4778728E+02  0.7816164E-02  0.1312668E+00
        -11   -1    0    0    0    0  0.00000000000E+00  0.00000000000E+00  0.45593999997E+02  0.45594000000E+02  0.51100000000E-03 0. -1.
         11   -1    0    0    0    0 -0.00000000000E+00 -0.00000000000E+00 -0.45593999997E+02  0.45594000000E+02  0.51100000000E-03 0.  1.
    9900012    2    1    2    0    0  0.69416821630E+01  0.11833869021E+02 -0.41175170636E+02  0.47787284750E+02  0.20000062490E+02 0.  0.
         12    1    1    2    0    0 -0.69416821630E+01 -0.11833869021E+02  0.41175170636E+02  0.43400715250E+02  0.00000000000E+00 0. -1.
         11    1    3    3    0    0  0.16845816961E+01  0.83420824916E+01 -0.25608090201E+02  0.26985226324E+02  0.51100000000E-03 0. -1.
        -11    1    3    3    0    0 -0.12734150437E+01 -0.37980457028E+01 -0.47830199524E+01  0.62389115365E+01  0.51100000000E-03 0.  1.
         12    1    3    3    0    0  0.65305155106E+01  0.72898322325E+01 -0.10784060483E+02  0.14563146889E+02  0.00000000000E+00 0. -1.
</event>
<event>
 7    1  0.4519840E-010  0.4778727E+02  0.7816164E-02  0.1312668E+00
        -11   -1    0    0    0    0  0.00000000000E+00  0.00000000000E+00  0.45593999997E+02  0.45594000000E+02  0.51100000000E-03 0. -1.
         11   -1    0    0    0    0 -0.00000000000E+00 -0.00000000000E+00 -0.45593999997E+02  0.45594000000E+02  0.51100000000E-03 0.  1.
    9900012    2    1    2    0    0  0.22288297518E+02 -0.12733465718E+02  0.34995908802E+02  0.47787274334E+02  0.20000014998E+02 0.  0.
        -12    1    1    2    0    0 -0.22288297518E+02  0.12733465718E+02 -0.34995908802E+02  0.43400725666E+02  0.00000000000E+00 0.  1.
         11    1    3    3    0    0  0.20722934095E+02 -0.15444129258E+02  0.24382611253E+02  0.35531294063E+02  0.51100000000E-03 0. -1.
        -11    1    3    3    0    0 -0.81997368184E+00 -0.57648294345E+00  0.12664351556E+00  0.10103109740E+01  0.51100000000E-03 0.  1.
         12    1    3    3    0    0  0.23853371052E+01  0.32871464832E+01  0.10486654034E+02  0.11245669297E+02  0.00000000000E+00 0. -1.
</event>
<event>
 7    1  0.4519840E-010  0.4778727E+02  0.7816164E-02  0.1312668E+00
        -11   -1    0    0    0    0  0.00000000000E+00  0.00000000000E+00  0.45593999997E+02  0.45594000000E+02  0.51100000000E-03 0.  1.
         11   -1    0    0    0    0 -0.00000000000E+00 -0.00000000000E+00 -0.45593999997E+02  0.45594000000E+02  0.51100000000E-03 0. -1.
    9900012    2    1    2    0    0  0.14900507367E+02 -0.37622275015E+02  0.15689566750E+02  0.47787271873E+02  0.20000003779E+02 0.  0.
        -12    1    1    2    0    0 -0.14900507367E+02  0.37622275015E+02 -0.15689566750E+02  0.43400728127E+02  0.00000000000E+00 0.  1.
         11    1    3    3    0    0 -0.17552065985E+01 -0.90769489259E+01 -0.33651944445E+00  0.92512160068E+01  0.51100000000E-03 0. -1.
        -11    1    3    3    0    0  0.87477817741E+01 -0.80118107105E+01  0.10272445547E+01  0.11906638000E+02  0.51100000000E-03 0.  1.
        -12    1    3    3    0    0  0.79079321919E+01 -0.20533515379E+02  0.14998841640E+02  0.26629417866E+02  0.00000000000E+00 0.  1.
</event>
<event>
 7    1  0.4519840E-010  0.4778726E+02  0.7816164E-02  0.1312668E+00
        -11   -1    0    0    0    0  0.00000000000E+00  0.00000000000E+00  0.45593999997E+02  0.45594000000E+02  0.51100000000E-03 0. -1.
         11   -1    0    0    0    0 -0.00000000000E+00 -0.00000000000E+00 -0.45593999997E+02  0.45594000000E+02  0.51100000000E-03 0.  1.
    9900012    2    1    2    0    0 -0.91322600335E+01  0.12061747449E+02 -0.40678499218E+02  0.47787260105E+02  0.19999950122E+02 0.  0.
         12    1    1    2    0    0  0.91322600335E+01 -0.12061747449E+02  0.40678499218E+02  0.43400739895E+02  0.00000000000E+00 0. -1.
         11    1    3    3    0    0 -0.46676469892E+01  0.56403875612E+01 -0.11747327898E+02  0.13841987330E+02  0.51100000000E-03 0. -1.
        -11    1    3    3    0    0 -0.30587369344E+01 -0.16111397198E+01 -0.24345520160E+02  0.24589753861E+02  0.51100000000E-03 0.  1.
        -12    1    3    3    0    0 -0.14058761099E+01  0.80324996072E+01 -0.45856511602E+01  0.93555189134E+01  0.00000000000E+00 0.  1.
</event>
<event>
 7    1  0.4519840E-010  0.4778727E+02  0.7816164E-02  0.1312668E+00
        -11   -1    0    0    0    0  0.00000000000E+00  0.00000000000E+00  0.45593999997E+02  0.45594000000E+02  0.51100000000E-03 0.  1.
         11   -1    0    0    0    0 -0.00000000000E+00 -0.00000000000E+00 -0.45593999997E+02  0.45594000000E+02  0.51100000000E-03 0. -1.
    9900012    2    1    2    0    0 -0.46336840755E+01 -0.42961006007E+02 -0.40625378155E+01  0.47787270988E+02  0.19999999744E+02 0.  0.
        -12    1    1    2    0    0  0.46336840755E+01  0.42961006007E+02  0.40625378155E+01  0.43400729012E+02  0.00000000000E+00 0.  1.
         11    1    3    3    0    0 -0.76166553557E+01 -0.23048284994E+02  0.21260621030E+01  0.24367129915E+02  0.51100000000E-03 0. -1.
        -11    1    3    3    0    0 -0.20442337937E+01 -0.14940743073E+02 -0.63139932420E+01  0.16348431310E+02  0.51100000000E-03 0.  1.
        -12    1    3    3    0    0  0.50272050739E+01 -0.49719779404E+01  0.12539332351E+00  0.70717097636E+01  0.00000000000E+00 0.  1.
</event>
<event>
 7    1  0.4519840E-010  0.4778727E+02  0.7816164E-02  0.1312668E+00
        -11   -1    0    0    0    0  0.00000000000E+00  0.00000000000E+00  0.45593999997E+02  0.45594000000E+02  0.51100000000E-03 0. -1.
         11   -1    0    0    0    0 -0.00000000000E+00 -0.00000000000E+00 -0.45593999997E+02  0.45594000000E+02  0.51100000000E-03 0.  1.
    9900012    2    1    2    0    0 -0.37401812276E+02 -0.16912145686E+02 -0.14096346624E+02  0.47787271649E+02  0.20000002756E+02 0.  0.
         12    1    1    2    0    0  0.37401812276E+02  0.16912145686E+02  0.14096346624E+02  0.43400728351E+02  0.00000000000E+00 0. -1.
         11    1    3    3    0    0 -0.82794960280E+00  0.71766176275E+00  0.15695737933E+01  0.19141841877E+01  0.51100000000E-03 0. -1.
        -11    1    3    3    0    0 -0.25489013919E+02 -0.47315576133E+01 -0.73767829705E+01  0.26953559973E+02  0.51100000000E-03 0.  1.
         12    1    3    3    0    0 -0.11084848755E+02 -0.12898249836E+02 -0.82891374470E+01  0.18919527488E+02  0.00000000000E+00 0. -1.
</event>
<event>
 7    1  0.4519840E-010  0.4778727E+02  0.7816164E-02  0.1312668E+00
        -11   -1    0    0    0    0  0.00000000000E+00  0.00000000000E+00  0.45593999997E+02  0.45594000000E+02  0.51100000000E-03 0.  1.
         11   -1    0    0    0    0 -0.00000000000E+00 -0.00000000000E+00 -0.45593999997E+02  0.45594000000E+02  0.51100000000E-03 0. -1.
    9900012    2    1    2    0    0  0.21706905456E+02  0.37419469730E+02  0.34952125943E+01  0.47787274540E+02  0.20000015938E+02 0.  0.
        -12    1    1    2    0    0 -0.21706905456E+02 -0.37419469730E+02 -0.34952125943E+01  0.43400725460E+02  0.00000000000E+00 0.  1.
         11    1    3    3    0    0  0.44188682723E+01  0.37272215418E+01  0.36588516635E+01  0.68414744746E+01  0.51100000000E-03 0. -1.
        -11    1    3    3    0    0 -0.22932542866E+01  0.96167739016E+01  0.58405355529E+00  0.99036596425E+01  0.51100000000E-03 0.  1.
         12    1    3    3    0    0  0.19581291471E+02  0.24075474286E+02 -0.74769262449E+00  0.31042140423E+02  0.00000000000E+00 0. -1.
</event>
<event>
 7    1  0.4519840E-010  0.4778727E+02  0.7816164E-02  0.1312668E+00
        -11   -1    0    0    0    0  0.00000000000E+00  0.00000000000E+00  0.45593999997E+02  0.45594000000E+02  0.51100000000E-03 0. -1.
         11   -1    0    0    0    0 -0.00000000000E+00 -0.00000000000E+00 -0.45593999997E+02  0.45594000000E+02  0.51100000000E-03 0.  1.
    9900012    2    1    2    0    0 -0.22547494106E+02 -0.91848459979E+00  0.37072768831E+02  0.47787270822E+02  0.19999998986E+02 0.  0.
        -12    1    1    2    0    0  0.22547494106E+02  0.91848459979E+00 -0.37072768831E+02  0.43400729178E+02  0.00000000000E+00 0.  1.
         11    1    3    3    0    0  0.60974733900E+00 -0.46848371366E+01  0.14510378051E+01  0.49421656980E+01  0.51100000000E-03 0. -1.
        -11    1    3    3    0    0 -0.50137027860E+01  0.24332021288E+01  0.94660593484E+01  0.10984715202E+02  0.51100000000E-03 0.  1.
         12    1    3    3    0    0 -0.18143538659E+02  0.13331504080E+01  0.26155671677E+02  0.31860389922E+02  0.00000000000E+00 0. -1.
</event>
<event>
 7    1  0.4519840E-010  0.4778727E+02  0.7816164E-02  0.1312668E+00
        -11   -1    0    0    0    0  0.00000000000E+00  0.00000000000E+00  0.45593999997E+02  0.45594000000E+02  0.51100000000E-03 0. -1.
         11   -1    0    0    0    0 -0.00000000000E+00 -0.00000000000E+00 -0.45593999997E+02  0.45594000000E+02  0.51100000000E-03 0.  1.
    9900012    2    1    2    0    0  0.40593790359E+02  0.87517689652E+01 -0.12616423499E+02  0.47787269388E+02  0.19999992448E+02 0.  0.
         12    1    1    2    0    0 -0.40593790359E+02 -0.87517689652E+01  0.12616423499E+02  0.43400730612E+02  0.00000000000E+00 0. -1.
         11    1    3    3    0    0  0.34727459979E+01  0.32433775676E+01  0.84611610463E+00  0.48265283109E+01  0.51100000000E-03 0. -1.
        -11    1    3    3    0    0  0.12430489250E+01  0.42398157439E+01  0.48781881554E+00  0.44451294278E+01  0.51100000000E-03 0.  1.
        -12    1    3    3    0    0  0.35877995436E+02  0.12685756536E+01 -0.13950358419E+02  0.38515611649E+02  0.00000000000E+00 0.  1.
</event>
<event>
 7    1  0.4519840E-010  0.4778727E+02  0.7816164E-02  0.1312668E+00
        -11   -1    0    0    0    0  0.00000000000E+00  0.00000000000E+00  0.45593999997E+02  0.45594000000E+02  0.51100000000E-03 0.  1.
         11   -1    0    0    0    0 -0.00000000000E+00 -0.00000000000E+00 -0.45593999997E+02  0.45594000000E+02  0.51100000000E-03 0. -1.
    9900012    2    1    2    0    0  0.21248019283E+02 -0.31633444419E+02 -0.20771870258E+02  0.47787265867E+02  0.19999976394E+02 0.  0.
         12    1    1    2    0    0 -0.21248019283E+02  0.31633444419E+02  0.20771870258E+02  0.43400734133E+02  0.00000000000E+00 0. -1.
         11    1    3    3    0    0  0.66499100892E+01 -0.37653386250E+01 -0.87186424080E+01  0.11593696773E+02  0.51100000000E-03 0. -1.
        -11    1    3    3    0    0  0.10942369996E+02 -0.22049743006E+02 -0.14879772875E+02  0.28763418935E+02  0.51100000000E-03 0.  1.
        -12    1    3    3    0    0  0.36557391978E+01 -0.58183627879E+01  0.28265450246E+01  0.74301501593E+01  0.00000000000E+00 0.  1.
</event>
<event>
 7    1  0.4519840E-010  0.4778727E+02  0.7816164E-02  0.1312668E+00
        -11   -1    0    0    0    0  0.00000000000E+00  0.00000000000E+00  0.45593999997E+02  0.45594000000E+02  0.51100000000E-03 0. -1.
         11   -1    0    0    0    0 -0.00000000000E+00 -0.00000000000E+00 -0.45593999997E+02  0.45594000000E+02  0.51100000000E-03 0.  1.
    9900012    2    1    2    0    0 -0.47655968021E+00 -0.22288428321E+02 -0.37237375110E+02  0.47787271305E+02  0.20000001188E+02 0.  0.
         12    1    1    2    0    0  0.47655968021E+00  0.22288428321E+02  0.37237375110E+02  0.43400728695E+02  0.00000000000E+00 0. -1.
         11    1    3    3    0    0  0.27700039098E+01 -0.68518791792E+01 -0.17579641656E+02  0.19070001861E+02  0.51100000000E-03 0. -1.
        -11    1    3    3    0    0 -0.66633673577E+00 -0.10792994672E+02 -0.20652939785E+02  0.23312585886E+02  0.51100000000E-03 0.  1.
         12    1    3    3    0    0 -0.25802268542E+01 -0.46435544696E+01  0.99520633069E+00  0.54046835589E+01  0.00000000000E+00 0. -1.
</event>
<event>
 7    1  0.4519840E-010  0.4778729E+02  0.7816164E-02  0.1312668E+00
        -11   -1    0    0    0    0  0.00000000000E+00  0.00000000000E+00  0.45593999997E+02  0.45594000000E+02  0.51100000000E-03 0. -1.
         11   -1    0    0    0    0 -0.00000000000E+00 -0.00000000000E+00 -0.45593999997E+02  0.45594000000E+02  0.51100000000E-03 0.  1.
    9900012    2    1    2    0    0  0.21053289136E+02  0.30788344869E+02 -0.22191404293E+02  0.47787290470E+02  0.20000088568E+02 0.  0.
         12    1    1    2    0    0 -0.21053289136E+02 -0.30788344869E+02  0.22191404293E+02  0.43400709530E+02  0.00000000000E+00 0. -1.
         11    1    3    3    0    0  0.95871502460E+01  0.66114787675E+01 -0.52158017624E+01  0.12760473722E+02  0.51100000000E-03 0. -1.
        -11    1    3    3    0    0  0.14070731325E+02  0.22149260267E+02 -0.17693835448E+02  0.31648807616E+02  0.51100000000E-03 0.  1.
         12    1    3    3    0    0 -0.26045924345E+01  0.20276058349E+01  0.71823291735E+00  0.33780091319E+01  0.00000000000E+00 0. -1.
</event>
<event>
 7    1  0.4519840E-010  0.4778727E+02  0.7816164E-02  0.1312668E+00
        -11   -1    0    0    0    0  0.00000000000E+00  0.00000000000E+00  0.45593999997E+02  0.45594000000E+02  0.51100000000E-03 0. -1.
         11   -1    0    0    0    0 -0.00000000000E+00 -0.00000000000E+00 -0.45593999997E+02  0.45594000000E+02  0.51100000000E-03 0.  1.
    9900012    2    1    2    0    0  0.28530420598E+02  0.25543391384E+02  0.20424821869E+02  0.47787273149E+02  0.20000009593E+02 0.  0.
        -12    1    1    2    0    0 -0.28530420598E+02 -0.25543391384E+02 -0.20424821869E+02  0.43400726851E+02  0.00000000000E+00 0.  1.
         11    1    3    3    0    0  0.89932096090E+01  0.38868351808E+01 -0.28998794267E+01  0.10217367946E+02  0.51100000000E-03 0.  1.
        -11    1    3    3    0    0  0.37949086664E+01  0.62968805854E+01  0.45005591683E+01  0.86201548700E+01  0.51100000000E-03 0. -1.
        -12    1    3    3    0    0  0.15742302322E+02  0.15359675617E+02  0.18824142128E+02  0.28949750333E+02  0.00000000000E+00 0.  1.
</event>
<event>
 7    1  0.4519840E-010  0.4778727E+02  0.7816164E-02  0.1312668E+00
        -11   -1    0    0    0    0  0.00000000000E+00  0.00000000000E+00  0.45593999997E+02  0.45594000000E+02  0.51100000000E-03 0. -1.
         11   -1    0    0    0    0 -0.00000000000E+00 -0.00000000000E+00 -0.45593999997E+02  0.45594000000E+02  0.51100000000E-03 0.  1.
    9900012    2    1    2    0    0 -0.22533127790E+02  0.28723263486E+02 -0.23470312873E+02  0.47787270748E+02  0.19999998647E+02 0.  0.
         12    1    1    2    0    0  0.22533127790E+02 -0.28723263486E+02  0.23470312873E+02  0.43400729252E+02  0.00000000000E+00 0. -1.
         11    1    3    3    0    0 -0.81601979386E+01  0.16010063911E+01 -0.33855910365E+01  0.89785454717E+01  0.51100000000E-03 0. -1.
        -11    1    3    3    0    0 -0.10661878424E+02  0.15764999315E+02 -0.52149900576E+01  0.19733397490E+02  0.51100000000E-03 0.  1.
         12    1    3    3    0    0 -0.37110514268E+01  0.11357257780E+02 -0.14869731779E+02  0.19075327786E+02  0.00000000000E+00 0. -1.
</event>
<event>
 7    1  0.4519840E-010  0.4778727E+02  0.7816164E-02  0.1312668E+00
        -11   -1    0    0    0    0  0.00000000000E+00  0.00000000000E+00  0.45593999997E+02  0.45594000000E+02  0.51100000000E-03 0. -1.
         11   -1    0    0    0    0 -0.00000000000E+00 -0.00000000000E+00 -0.45593999997E+02  0.45594000000E+02  0.51100000000E-03 0.  1.
    9900012    2    1    2    0    0  0.24110918265E+01  0.31838217634E+02 -0.29396225124E+02  0.47787268239E+02  0.19999987208E+02 0.  0.
         12    1    1    2    0    0 -0.24110918265E+01 -0.31838217634E+02  0.29396225124E+02  0.43400731761E+02  0.00000000000E+00 0. -1.
         11    1    3    3    0    0 -0.63403016189E+01  0.18156759426E+02 -0.21378387878E+02  0.28755917757E+02  0.51100000000E-03 0. -1.
        -11    1    3    3    0    0 -0.57007100276E+00  0.31058324241E+01 -0.16452719322E+01  0.35606314029E+01  0.51100000000E-03 0.  1.
         12    1    3    3    0    0  0.93214644481E+01  0.10575625783E+02 -0.63725653131E+01  0.15470719079E+02  0.00000000000E+00 0. -1.
</event>
<event>
 7    1  0.4519840E-010  0.4778725E+02  0.7816164E-02  0.1312668E+00
        -11   -1    0    0    0    0  0.00000000000E+00  0.00000000000E+00  0.45593999997E+02  0.45594000000E+02  0.51100000000E-03 0. -1.
         11   -1    0    0    0    0 -0.00000000000E+00 -0.00000000000E+00 -0.45593999997E+02  0.45594000000E+02  0.51100000000E-03 0.  1.
    9900012    2    1    2    0    0 -0.34052891976E+02  0.26024327125E+01  0.26781571485E+02  0.47787254854E+02  0.19999926183E+02 0.  0.
        -12    1    1    2    0    0  0.34052891976E+02 -0.26024327125E+01 -0.26781571485E+02  0.43400745146E+02  0.00000000000E+00 0.  1.
         11    1    3    3    0    0 -0.12842403849E+02  0.27654488399E+01  0.69692898065E+01  0.14870979946E+02  0.51100000000E-03 0. -1.
        -11    1    3    3    0    0 -0.21669948890E+02 -0.35143247589E+01  0.19755226055E+02  0.29533135969E+02  0.51100000000E-03 0.  1.
        -12    1    3    3    0    0  0.45946076263E+00  0.33513086316E+01  0.57055623846E-01  0.33831389390E+01  0.00000000000E+00 0.  1.
</event>
<event>
 7    1  0.4519840E-010  0.4778727E+02  0.7816164E-02  0.1312668E+00
        -11   -1    0    0    0    0  0.00000000000E+00  0.00000000000E+00  0.45593999997E+02  0.45594000000E+02  0.51100000000E-03 0. -1.
         11   -1    0    0    0    0 -0.00000000000E+00 -0.00000000000E+00 -0.45593999997E+02  0.45594000000E+02  0.51100000000E-03 0.  1.
    9900012    2    1    2    0    0  0.85690647165E+01 -0.18204643497E+02  0.38454980356E+02  0.47787269255E+02  0.19999991843E+02 0.  0.
        -12    1    1    2    0    0 -0.85690647165E+01  0.18204643497E+02 -0.38454980356E+02  0.43400730745E+02  0.00000000000E+00 0.  1.
         11    1    3    3    0    0 -0.19995127569E+01 -0.76030502124E+01  0.10127137625E+02  0.12820426691E+02  0.51100000000E-03 0. -1.
        -11    1    3    3    0    0 -0.24713521304E+01 -0.66136701173E+00  0.41123342765E+00  0.25911582101E+01  0.51100000000E-03 0.  1.
         12    1    3    3    0    0  0.13039929604E+02 -0.99402262730E+01  0.27916609303E+02  0.32375684354E+02  0.00000000000E+00 0. -1.
</event>
<event>
 7    1  0.4519840E-010  0.4778727E+02  0.7816164E-02  0.1312668E+00
        -11   -1    0    0    0    0  0.00000000000E+00  0.00000000000E+00  0.45593999997E+02  0.45594000000E+02  0.51100000000E-03 0. -1.
         11   -1    0    0    0    0 -0.00000000000E+00 -0.00000000000E+00 -0.45593999997E+02  0.45594000000E+02  0.51100000000E-03 0.  1.
    9900012    2    1    2    0    0 -0.10729972325E+02  0.10066683311E+02  0.40830782277E+02  0.47787271892E+02  0.20000003865E+02 0.  0.
        -12    1    1    2    0    0  0.10729972325E+02 -0.10066683311E+02 -0.40830782277E+02  0.43400728108E+02  0.00000000000E+00 0.  1.
         11    1    3    3    0    0 -0.87289364124E+00  0.35144207304E+01  0.11143868116E+02  0.11717461040E+02  0.51100000000E-03 0. -1.
        -11    1    3    3    0    0 -0.20295324309E+01  0.10162032694E+02  0.22772583432E+02  0.25019521714E+02  0.51100000000E-03 0.  1.
         12    1    3    3    0    0 -0.78275462525E+01 -0.36097701139E+01  0.69143307284E+01  0.11050289138E+02  0.00000000000E+00 0. -1.
</event>
<event>
 7    1  0.4519840E-010  0.4778733E+02  0.7816164E-02  0.1312667E+00
        -11   -1    0    0    0    0  0.00000000000E+00  0.00000000000E+00  0.45593999997E+02  0.45594000000E+02  0.51100000000E-03 0. -1.
         11   -1    0    0    0    0 -0.00000000000E+00 -0.00000000000E+00 -0.45593999997E+02  0.45594000000E+02  0.51100000000E-03 0.  1.
    9900012    2    1    2    0    0  0.18759445101E+02 -0.16283629552E+02 -0.35588545001E+02  0.47787332872E+02  0.20000281892E+02 0.  0.
         12    1    1    2    0    0 -0.18759445101E+02  0.16283629552E+02  0.35588545001E+02  0.43400667128E+02  0.00000000000E+00 0. -1.
         11    1    3    3    0    0  0.40372690060E+01 -0.90030201380E+01 -0.99140246385E+01  0.13987201201E+02  0.51100000000E-03 0. -1.
        -11    1    3    3    0    0  0.90127199649E+01 -0.94272368854E+01 -0.84825023114E+01  0.15558109210E+02  0.51100000000E-03 0.  1.
         12    1    3    3    0    0  0.57094561305E+01  0.21466274710E+01 -0.17192018051E+02  0.18242022461E+02  0.00000000000E+00 0. -1.
</event>
<event>
 7    1  0.4519840E-010  0.4778732E+02  0.7816164E-02  0.1312668E+00
        -11   -1    0    0    0    0  0.00000000000E+00  0.00000000000E+00  0.45593999997E+02  0.45594000000E+02  0.51100000000E-03 0. -1.
         11   -1    0    0    0    0 -0.00000000000E+00 -0.00000000000E+00 -0.45593999997E+02  0.45594000000E+02  0.51100000000E-03 0.  1.
    9900012    2    1    2    0    0 -0.30572983438E+02 -0.20226907706E+02  0.23233252269E+02  0.47787318869E+02  0.20000218052E+02 0.  0.
        -12    1    1    2    0    0  0.30572983438E+02  0.20226907706E+02 -0.23233252269E+02  0.43400681131E+02  0.00000000000E+00 0.  1.
         11    1    3    3    0    0 -0.19044261782E+02 -0.15268730535E+02  0.13333832930E+02  0.27813830010E+02  0.51100000000E-03 0. -1.
        -11    1    3    3    0    0 -0.77460917578E+01 -0.50444917454E+01 -0.13983526468E+00  0.92449115005E+01  0.51100000000E-03 0.  1.
        -12    1    3    3    0    0 -0.37826298980E+01  0.86314574460E-01  0.10039254603E+02  0.10728577359E+02  0.00000000000E+00 0.  1.
</event>
<event>
 7    1 -0.4519840E-010  0.4778727E+02  0.7816164E-02  0.1312668E+00
        -11   -1    0    0    0    0  0.00000000000E+00  0.00000000000E+00  0.45593999997E+02  0.45594000000E+02  0.51100000000E-03 0. -1.
         11   -1    0    0    0    0 -0.00000000000E+00 -0.00000000000E+00 -0.45593999997E+02  0.45594000000E+02  0.51100000000E-03 0.  1.
    9900012    2    1    2    0    0 -0.11047374926E+02  0.15981835125E+02  0.38809275479E+02  0.47787269477E+02  0.19999992855E+02 0.  0.
        -12    1    1    2    0    0  0.11047374926E+02 -0.15981835125E+02 -0.38809275479E+02  0.43400730523E+02  0.00000000000E+00 0.  1.
         11    1    3    3    0    0 -0.66744662018E+01  0.30145271783E+01  0.85097601161E+01  0.11227283317E+02  0.51100000000E-03 0. -1.
        -11    1    3    3    0    0  0.20407742521E+01 -0.25901861438E+01  0.28274842099E+01  0.43437876359E+01  0.51100000000E-03 0.  1.
        -12    1    3    3    0    0 -0.64136829764E+01  0.15557494091E+02  0.27472031153E+02  0.32216198524E+02  0.00000000000E+00 0.  1.
</event>
<event>
 7    1  0.4519840E-010  0.4778727E+02  0.7816164E-02  0.1312668E+00
        -11   -1    0    0    0    0  0.00000000000E+00  0.00000000000E+00  0.45593999997E+02  0.45594000000E+02  0.51100000000E-03 0. -1.
         11   -1    0    0    0    0 -0.00000000000E+00 -0.00000000000E+00 -0.45593999997E+02  0.45594000000E+02  0.51100000000E-03 0.  1.
    9900012    2    1    2    0    0 -0.24225134506E+02 -0.35951555059E+02  0.20620144489E+01  0.47787270091E+02  0.19999995654E+02 0.  0.
         12    1    1    2    0    0  0.24225134506E+02  0.35951555059E+02 -0.20620144489E+01  0.43400729909E+02  0.00000000000E+00 0. -1.
         11    1    3    3    0    0 -0.58850267177E-01 -0.19587577263E+00  0.14095688078E+01  0.14243297221E+01  0.51100000000E-03 0. -1.
        -11    1    3    3    0    0 -0.10299908417E+02 -0.29307316489E+02  0.26899206269E+00  0.31065725007E+02  0.51100000000E-03 0.  1.
        -12    1    3    3    0    0 -0.13866375822E+02 -0.64483627975E+01  0.38345357847E+00  0.15297215363E+02  0.00000000000E+00 0.  1.
</event>
<event>
 7    1  0.4519840E-010  0.4778727E+02  0.7816164E-02  0.1312668E+00
        -11   -1    0    0    0    0  0.00000000000E+00  0.00000000000E+00  0.45593999997E+02  0.45594000000E+02  0.51100000000E-03 0. -1.
         11   -1    0    0    0    0 -0.00000000000E+00 -0.00000000000E+00 -0.45593999997E+02  0.45594000000E+02  0.51100000000E-03 0.  1.
    9900012    2    1    2    0    0 -0.10120334569E+02 -0.17166849710E+02  0.38555174108E+02  0.47787270153E+02  0.19999995935E+02 0.  0.
        -12    1    1    2    0    0  0.10120334569E+02  0.17166849710E+02 -0.38555174108E+02  0.43400729847E+02  0.00000000000E+00 0.  1.
         11    1    3    3    0    0  0.32935105934E+01 -0.97738617248E+00  0.41955224985E+01  0.54226289801E+01  0.51100000000E-03 0. -1.
        -11    1    3    3    0    0  0.21500089932E+01 -0.32288601958E+00  0.56737458713E+01  0.60760337825E+01  0.51100000000E-03 0.  1.
         12    1    3    3    0    0 -0.15563854156E+02 -0.15866577518E+02  0.28685905738E+02  0.36288607390E+02  0.00000000000E+00 0. -1.
</event>
<event>
 7    1  0.4519840E-010  0.4778727E+02  0.7816164E-02  0.1312668E+00
        -11   -1    0    0    0    0  0.00000000000E+00  0.00000000000E+00  0.45593999997E+02  0.45594000000E+02  0.51100000000E-03 0. -1.
         11   -1    0    0    0    0 -0.00000000000E+00 -0.00000000000E+00 -0.45593999997E+02  0.45594000000E+02  0.51100000000E-03 0.  1.
    9900012    2    1    2    0    0  0.14862438466E+02  0.40705043706E+02 -0.24146315573E+01  0.47787272981E+02  0.20000008829E+02 0.  0.
        -12    1    1    2    0    0 -0.14862438466E+02 -0.40705043706E+02  0.24146315573E+01  0.43400727019E+02  0.00000000000E+00 0.  1.
         11    1    3    3    0    0 -0.39632225128E-01  0.71772291065E+01 -0.28673562006E+01  0.77289016168E+01  0.51100000000E-03 0. -1.
        -11    1    3    3    0    0  0.14056602542E+02  0.17103426441E+02 -0.50663826940E+01  0.22710867551E+02  0.51100000000E-03 0.  1.
        -12    1    3    3    0    0  0.84546814933E+00  0.16424388158E+02  0.55191073372E+01  0.17347503814E+02  0.00000000000E+00 0.  1.
</event>
<event>
 7    1  0.4519840E-010  0.4778727E+02  0.7816164E-02  0.1312668E+00
        -11   -1    0    0    0    0  0.00000000000E+00  0.00000000000E+00  0.45593999997E+02  0.45594000000E+02  0.51100000000E-03 0. -1.
         11   -1    0    0    0    0 -0.00000000000E+00 -0.00000000000E+00 -0.45593999997E+02  0.45594000000E+02  0.51100000000E-03 0.  1.
    9900012    2    1    2    0    0  0.34585811439E+01  0.35995858864E+02  0.23999169845E+02  0.47787265073E+02  0.19999972775E+02 0.  0.
        -12    1    1    2    0    0 -0.34585811439E+01 -0.35995858864E+02 -0.23999169845E+02  0.43400734927E+02  0.00000000000E+00 0.  1.
         11    1    3    3    0    0 -0.27213815923E+01  0.14936608949E+02  0.97982104709E+01  0.18069674412E+02  0.51100000000E-03 0. -1.
        -11    1    3    3    0    0  0.17370436465E+01  0.17764169197E+02  0.42738984657E+01  0.18353452979E+02  0.51100000000E-03 0.  1.
        -12    1    3    3    0    0  0.44429190898E+01  0.32950807181E+01  0.99270609085E+01  0.11364137682E+02  0.00000000000E+00 0.  1.
</event>
<event>
 7    1  0.4519840E-010  0.4778727E+02  0.7816164E-02  0.1312668E+00
        -11   -1    0    0    0    0  0.00000000000E+00  0.00000000000E+00  0.45593999997E+02  0.45594000000E+02  0.51100000000E-03 0. -1.
         11   -1    0    0    0    0 -0.00000000000E+00 -0.00000000000E+00 -0.45593999997E+02  0.45594000000E+02  0.51100000000E-03 0.  1.
    9900012    2    1    2    0    0  0.90484147252E+01  0.18401363716E+02 -0.38250999299E+02  0.47787274856E+02  0.20000017378E+02 0.  0.
         12    1    1    2    0    0 -0.90484147252E+01 -0.18401363716E+02  0.38250999299E+02  0.43400725144E+02  0.00000000000E+00 0. -1.
         11    1    3    3    0    0 -0.32075069962E+01  0.29087640244E+00 -0.35195948091E+01  0.47707712262E+01  0.51100000000E-03 0. -1.
        -11    1    3    3    0    0  0.26598562366E+01  0.12601393875E+02 -0.11422734631E+02  0.17214785200E+02  0.51100000000E-03 0.  1.
         12    1    3    3    0    0  0.95960654847E+01  0.55090934390E+01 -0.23308669859E+02  0.25801718429E+02  0.00000000000E+00 0. -1.
</event>
<event>
 7    1  0.4519840E-010  0.4778727E+02  0.7816164E-02  0.1312668E+00
        -11   -1    0    0    0    0  0.00000000000E+00  0.00000000000E+00  0.45593999997E+02  0.45594000000E+02  0.51100000000E-03 0. -1.
         11   -1    0    0    0    0 -0.00000000000E+00 -0.00000000000E+00 -0.45593999997E+02  0.45594000000E+02  0.51100000000E-03 0.  1.
    9900012    2    1    2    0    0 -0.24117934303E+02 -0.31289766099E+02  0.17969395171E+02  0.47787269818E+02  0.19999994406E+02 0.  0.
        -12    1    1    2    0    0  0.24117934303E+02  0.31289766099E+02 -0.17969395171E+02  0.43400730182E+02  0.00000000000E+00 0.  1.
         11    1    3    3    0    0 -0.63444868616E+01  0.22469713358E-01  0.39499184440E+01  0.74736118712E+01  0.51100000000E-03 0. -1.
        -11    1    3    3    0    0  0.15375828936E+01 -0.22492161289E+01  0.43031893027E-01  0.27248828147E+01  0.51100000000E-03 0.  1.
         12    1    3    3    0    0 -0.19311030335E+02 -0.29063019683E+02  0.13976444834E+02  0.37588775132E+02  0.00000000000E+00 0. -1.
</event>
<event>
 7    1  0.4519840E-010  0.4778727E+02  0.7816164E-02  0.1312668E+00
        -11   -1    0    0    0    0  0.00000000000E+00  0.00000000000E+00  0.45593999997E+02  0.45594000000E+02  0.51100000000E-03 0. -1.
         11   -1    0    0    0    0 -0.00000000000E+00 -0.00000000000E+00 -0.45593999997E+02  0.45594000000E+02  0.51100000000E-03 0.  1.
    9900012    2    1    2    0    0  0.20286111989E+02  0.12280171133E+02  0.36349614335E+02  0.47787269534E+02  0.19999993114E+02 0.  0.
        -12    1    1    2    0    0 -0.20286111989E+02 -0.12280171133E+02 -0.36349614335E+02  0.43400730466E+02  0.00000000000E+00 0.  1.
         11    1    3    3    0    0  0.97112625892E+01 -0.44083721676E+01  0.13856254852E+02  0.17485370029E+02  0.51100000000E-03 0. -1.
        -11    1    3    3    0    0  0.30562848874E+01  0.28983490027E+01  0.74222343611E+01  0.85341002705E+01  0.51100000000E-03 0.  1.
        -12    1    3    3    0    0  0.75185645122E+01  0.13790194298E+02  0.15071125121E+02  0.21767799235E+02  0.00000000000E+00 0.  1.
</event>
<event>
 7    1  0.4519840E-010  0.4778726E+02  0.7816164E-02  0.1312668E+00
        -11   -1    0    0    0    0  0.00000000000E+00  0.00000000000E+00  0.45593999997E+02  0.45594000000E+02  0.51100000000E-03 0.  1.
         11   -1    0    0    0    0 -0.00000000000E+00 -0.00000000000E+00 -0.45593999997E+02  0.45594000000E+02  0.51100000000E-03 0. -1.
    9900012    2    1    2    0    0 -0.37156250068E+02 -0.21334945108E+02 -0.69179168250E+01  0.47787258358E+02  0.19999942156E+02 0.  0.
        -12    1    1    2    0    0  0.37156250068E+02  0.21334945108E+02  0.69179168250E+01  0.43400741642E+02  0.00000000000E+00 0.  1.
         11    1    3    3    0    0 -0.16014066735E+02 -0.83753228015E+01 -0.44142170985E+01  0.18603270634E+02  0.51100000000E-03 0. -1.
        -11    1    3    3    0    0 -0.15484868443E+01 -0.84374130783E+01  0.14225588700E+01  0.86954830206E+01  0.51100000000E-03 0.  1.
        -12    1    3    3    0    0 -0.19593696489E+02 -0.45222092280E+01 -0.39262585965E+01  0.20488504703E+02  0.00000000000E+00 0.  1.
</event>
<event>
 7    1  0.4519840E-010  0.4778727E+02  0.7816164E-02  0.1312668E+00
        -11   -1    0    0    0    0  0.00000000000E+00  0.00000000000E+00  0.45593999997E+02  0.45594000000E+02  0.51100000000E-03 0. -1.
         11   -1    0    0    0    0 -0.00000000000E+00 -0.00000000000E+00 -0.45593999997E+02  0.45594000000E+02  0.51100000000E-03 0.  1.
    9900012    2    1    2    0    0  0.28288289579E+02 -0.27818305640E+02 -0.17593697160E+02  0.47787266876E+02  0.19999980993E+02 0.  0.
         12    1    1    2    0    0 -0.28288289579E+02  0.27818305640E+02  0.17593697160E+02  0.43400733124E+02  0.00000000000E+00 0. -1.
         11    1    3    3    0    0  0.36607788667E+01 -0.70599012889E+01 -0.76055441851E+01  0.11003990673E+02  0.51100000000E-03 0. -1.
        -11    1    3    3    0    0  0.20600375112E+02 -0.21257127590E+02 -0.12365444231E+02  0.32080292072E+02  0.51100000000E-03 0.  1.
         12    1    3    3    0    0  0.40271356001E+01  0.49872323960E+00  0.23772912563E+01  0.47029841302E+01  0.00000000000E+00 0. -1.
</event>
<event>
 7    1  0.4519840E-010  0.4778727E+02  0.7816164E-02  0.1312668E+00
        -11   -1    0    0    0    0  0.00000000000E+00  0.00000000000E+00  0.45593999997E+02  0.45594000000E+02  0.51100000000E-03 0. -1.
         11   -1    0    0    0    0 -0.00000000000E+00 -0.00000000000E+00 -0.45593999997E+02  0.45594000000E+02  0.51100000000E-03 0.  1.
    9900012    2    1    2    0    0 -0.18696770736E+02 -0.34191207245E+02  0.19105385815E+02  0.47787266643E+02  0.19999979931E+02 0.  0.
        -12    1    1    2    0    0  0.18696770736E+02  0.34191207245E+02 -0.19105385815E+02  0.43400733357E+02  0.00000000000E+00 0.  1.
         11    1    3    3    0    0 -0.26609620947E+01 -0.65819728786E+01  0.46089545919E+01  0.84643693761E+01  0.51100000000E-03 0. -1.
        -11    1    3    3    0    0 -0.47031336526E+01 -0.38803295193E+01  0.11290911814E+02  0.12832034647E+02  0.51100000000E-03 0.  1.
         12    1    3    3    0    0 -0.11332674989E+02 -0.23728904847E+02  0.32055194089E+01  0.26490862619E+02  0.00000000000E+00 0. -1.
</event>
<event>
 7    1  0.4519840E-010  0.4778727E+02  0.7816164E-02  0.1312668E+00
        -11   -1    0    0    0    0  0.00000000000E+00  0.00000000000E+00  0.45593999997E+02  0.45594000000E+02  0.51100000000E-03 0. -1.
         11   -1    0    0    0    0 -0.00000000000E+00 -0.00000000000E+00 -0.45593999997E+02  0.45594000000E+02  0.51100000000E-03 0.  1.
    9900012    2    1    2    0    0 -0.31069346816E+02  0.29013604139E+02  0.87481324520E+01  0.47787270074E+02  0.19999995575E+02 0.  0.
        -12    1    1    2    0    0  0.31069346816E+02 -0.29013604139E+02 -0.87481324520E+01  0.43400729926E+02  0.00000000000E+00 0.  1.
         11    1    3    3    0    0 -0.85545061927E+01  0.77904028901E+01  0.91779247288E+01  0.14768353191E+02  0.51100000000E-03 0. -1.
        -11    1    3    3    0    0 -0.67099483203E+01  0.10930559840E+02  0.43823911243E+01  0.13553814854E+02  0.51100000000E-03 0.  1.
        -12    1    3    3    0    0 -0.15804892303E+02  0.10292641409E+02 -0.48121834011E+01  0.19465102028E+02  0.00000000000E+00 0.  1.
</event>
<event>
 7    1  0.4519840E-010  0.4778727E+02  0.7816164E-02  0.1312668E+00
        -11   -1    0    0    0    0  0.00000000000E+00  0.00000000000E+00  0.45593999997E+02  0.45594000000E+02  0.51100000000E-03 0. -1.
         11   -1    0    0    0    0 -0.00000000000E+00 -0.00000000000E+00 -0.45593999997E+02  0.45594000000E+02  0.51100000000E-03 0.  1.
    9900012    2    1    2    0    0 -0.43161985585E+02 -0.44790412444E+01 -0.77754943037E+00  0.47787269670E+02  0.19999993733E+02 0.  0.
         12    1    1    2    0    0  0.43161985585E+02  0.44790412444E+01  0.77754943037E+00  0.43400730330E+02  0.00000000000E+00 0. -1.
         11    1    3    3    0    0  0.98052565654E+00  0.25572006175E+00  0.41078724295E+00  0.10934211143E+01  0.51100000000E-03 0. -1.
        -11    1    3    3    0    0 -0.14874934963E+02 -0.79743305435E+01 -0.32023687963E+01  0.17178731150E+02  0.51100000000E-03 0.  1.
         12    1    3    3    0    0 -0.29267576278E+02  0.32395692374E+01  0.20140321229E+01  0.29515117405E+02  0.00000000000E+00 0. -1.
</event>
<event>
 7    1  0.4519840E-010  0.4778727E+02  0.7816164E-02  0.1312668E+00
        -11   -1    0    0    0    0  0.00000000000E+00  0.00000000000E+00  0.45593999997E+02  0.45594000000E+02  0.51100000000E-03 0.  1.
         11   -1    0    0    0    0 -0.00000000000E+00 -0.00000000000E+00 -0.45593999997E+02  0.45594000000E+02  0.51100000000E-03 0. -1.
    9900012    2    1    2    0    0 -0.63126135285E+01 -0.42871502829E+02  0.24101703879E+01  0.47787265379E+02  0.19999974168E+02 0.  0.
        -12    1    1    2    0    0  0.63126135285E+01  0.42871502829E+02 -0.24101703879E+01  0.43400734621E+02  0.00000000000E+00 0.  1.
         11    1    3    3    0    0  0.36543097946E+01 -0.50733758682E+01 -0.15939683781E+01  0.64524304124E+01  0.51100000000E-03 0. -1.
        -11    1    3    3    0    0 -0.30305689816E+01 -0.34514136979E+00  0.24949624549E+00  0.30603463129E+01  0.51100000000E-03 0.  1.
         12    1    3    3    0    0 -0.69363543416E+01 -0.37452985591E+02  0.37546425205E+01  0.38274488653E+02  0.00000000000E+00 0. -1.
</event>
<event>
 7    1  0.4519840E-010  0.4778729E+02  0.7816164E-02  0.1312668E+00
        -11   -1    0    0    0    0  0.00000000000E+00  0.00000000000E+00  0.45593999997E+02  0.45594000000E+02  0.51100000000E-03 0. -1.
         11   -1    0    0    0    0 -0.00000000000E+00 -0.00000000000E+00 -0.45593999997E+02  0.45594000000E+02  0.51100000000E-03 0.  1.
    9900012    2    1    2    0    0  0.36021547622E+01 -0.23248537709E+02 -0.36471240061E+02  0.47787292908E+02  0.20000099684E+02 0.  0.
         12    1    1    2    0    0 -0.36021547622E+01  0.23248537709E+02  0.36471240061E+02  0.43400707092E+02  0.00000000000E+00 0. -1.
         11    1    3    3    0    0 -0.40015644287E+01 -0.16321262613E+01 -0.92201394232E+01  0.10182697347E+02  0.51100000000E-03 0. -1.
        -11    1    3    3    0    0  0.11520205035E+01 -0.13067611334E+01  0.11577235154E+01  0.20916739468E+01  0.51100000000E-03 0.  1.
        -12    1    3    3    0    0  0.64516986874E+01 -0.20309650314E+02 -0.28408824153E+02  0.35512921614E+02  0.00000000000E+00 0.  1.
</event>
<event>
 7    1  0.4519840E-010  0.4778727E+02  0.7816164E-02  0.1312668E+00
        -11   -1    0    0    0    0  0.00000000000E+00  0.00000000000E+00  0.45593999997E+02  0.45594000000E+02  0.51100000000E-03 0. -1.
         11   -1    0    0    0    0 -0.00000000000E+00 -0.00000000000E+00 -0.45593999997E+02  0.45594000000E+02  0.51100000000E-03 0.  1.
    9900012    2    1    2    0    0 -0.22590863967E+01  0.88622691611E+01 -0.42426171019E+02  0.47787271050E+02  0.20000000027E+02 0.  0.
         12    1    1    2    0    0  0.22590863967E+01 -0.88622691611E+01  0.42426171019E+02  0.43400728950E+02  0.00000000000E+00 0. -1.
         11    1    3    3    0    0 -0.27378697309E+01  0.29303887509E+01 -0.38725298306E+02  0.38932400877E+02  0.51100000000E-03 0. -1.
        -11    1    3    3    0    0 -0.10807818519E+01  0.41110166887E+01 -0.46284831188E+01  0.62842186362E+01  0.51100000000E-03 0.  1.
         12    1    3    3    0    0  0.15595651861E+01  0.18208637215E+01  0.92761040555E+00  0.25706515373E+01  0.00000000000E+00 0. -1.
</event>
<event>
 7    1  0.4519840E-010  0.4778727E+02  0.7816164E-02  0.1312668E+00
        -11   -1    0    0    0    0  0.00000000000E+00  0.00000000000E+00  0.45593999997E+02  0.45594000000E+02  0.51100000000E-03 0. -1.
         11   -1    0    0    0    0 -0.00000000000E+00 -0.00000000000E+00 -0.45593999997E+02  0.45594000000E+02  0.51100000000E-03 0.  1.
    9900012    2    1    2    0    0 -0.30129539356E+01  0.27657494381E+02  0.33310785431E+02  0.47787270595E+02  0.19999997951E+02 0.  0.
        -12    1    1    2    0    0  0.30129539356E+01 -0.27657494381E+02 -0.33310785431E+02  0.43400729405E+02  0.00000000000E+00 0.  1.
         11    1    3    3    0    0 -0.45555539492E+01  0.11799292784E+01  0.13407123479E+02  0.14209020555E+02  0.51100000000E-03 0. -1.
        -11    1    3    3    0    0  0.43903127904E+00  0.39624806524E+01  0.88232526979E+00  0.40831972188E+01  0.51100000000E-03 0.  1.
         12    1    3    3    0    0  0.11035687346E+01  0.22515084450E+02  0.19021336683E+02  0.29495052821E+02  0.00000000000E+00 0. -1.
</event>
<event>
 7    1  0.4519840E-010  0.4778727E+02  0.7816164E-02  0.1312668E+00
        -11   -1    0    0    0    0  0.00000000000E+00  0.00000000000E+00  0.45593999997E+02  0.45594000000E+02  0.51100000000E-03 0. -1.
         11   -1    0    0    0    0 -0.00000000000E+00 -0.00000000000E+00 -0.45593999997E+02  0.45594000000E+02  0.51100000000E-03 0.  1.
    9900012    2    1    2    0    0 -0.15300286881E+02 -0.34783098135E+02 -0.20968096296E+02  0.47787265481E+02  0.19999974632E+02 0.  0.
         12    1    1    2    0    0  0.15300286881E+02  0.34783098135E+02  0.20968096296E+02  0.43400734519E+02  0.00000000000E+00 0. -1.
         11    1    3    3    0    0 -0.29187156014E+01 -0.38466812589E-01 -0.19574359504E+01  0.35145321479E+01  0.51100000000E-03 0. -1.
        -11    1    3    3    0    0 -0.15903767499E+02 -0.27366840970E+02 -0.16643868314E+02  0.35761601726E+02  0.51100000000E-03 0.  1.
        -12    1    3    3    0    0  0.35221962190E+01 -0.73777903530E+01 -0.23667920317E+01  0.85111316062E+01  0.00000000000E+00 0.  1.
</event>
<event>
 7    1  0.4519840E-010  0.4778727E+02  0.7816164E-02  0.1312668E+00
        -11   -1    0    0    0    0  0.00000000000E+00  0.00000000000E+00  0.45593999997E+02  0.45594000000E+02  0.51100000000E-03 0. -1.
         11   -1    0    0    0    0 -0.00000000000E+00 -0.00000000000E+00 -0.45593999997E+02  0.45594000000E+02  0.51100000000E-03 0.  1.
    9900012    2    1    2    0    0 -0.27490267293E+02 -0.30023587629E+02  0.15049663382E+02  0.47787274455E+02  0.20000015550E+02 0.  0.
        -12    1    1    2    0    0  0.27490267293E+02  0.30023587629E+02 -0.15049663382E+02  0.43400725545E+02  0.00000000000E+00 0.  1.
         11    1    3    3    0    0 -0.12484454318E+00 -0.41723992666E+01  0.14747925937E+01  0.44271339776E+01  0.51100000000E-03 0. -1.
        -11    1    3    3    0    0 -0.35254186676E+01 -0.14136208550E+02  0.58175013336E+01  0.15687711464E+02  0.51100000000E-03 0.  1.
         12    1    3    3    0    0 -0.23840004082E+02 -0.11714979812E+02  0.77573694548E+01  0.27672429013E+02  0.00000000000E+00 0. -1.
</event>
<event>
 7    1  0.4519840E-010  0.4778727E+02  0.7816164E-02  0.1312668E+00
        -11   -1    0    0    0    0  0.00000000000E+00  0.00000000000E+00  0.45593999997E+02  0.45594000000E+02  0.51100000000E-03 0. -1.
         11   -1    0    0    0    0 -0.00000000000E+00 -0.00000000000E+00 -0.45593999997E+02  0.45594000000E+02  0.51100000000E-03 0.  1.
    9900012    2    1    2    0    0 -0.19781150517E+02  0.14437388069E+02 -0.35831424584E+02  0.47787273304E+02  0.20000010300E+02 0.  0.
         12    1    1    2    0    0  0.19781150517E+02 -0.14437388069E+02  0.35831424584E+02  0.43400726696E+02  0.00000000000E+00 0. -1.
         11    1    3    3    0    0 -0.10775787990E+02  0.10857090841E+02 -0.91002935992E+01  0.17799139648E+02  0.51100000000E-03 0.  1.
        -11    1    3    3    0    0 -0.22279547265E+01  0.57693218744E+01 -0.94157643717E+01  0.11265233070E+02  0.51100000000E-03 0. -1.
         12    1    3    3    0    0 -0.67774078003E+01 -0.21890246464E+01 -0.17315366613E+02  0.18722900586E+02  0.00000000000E+00 0. -1.
</event>
<event>
 7    1 -0.4519840E-010  0.4778727E+02  0.7816164E-02  0.1312668E+00
        -11   -1    0    0    0    0  0.00000000000E+00  0.00000000000E+00  0.45593999997E+02  0.45594000000E+02  0.51100000000E-03 0. -1.
         11   -1    0    0    0    0 -0.00000000000E+00 -0.00000000000E+00 -0.45593999997E+02  0.45594000000E+02  0.51100000000E-03 0.  1.
    9900012    2    1    2    0    0 -0.36917872070E+02  0.83842350107E+01  0.21222590023E+02  0.47787274175E+02  0.20000014273E+02 0.  0.
        -12    1    1    2    0    0  0.36917872070E+02 -0.83842350107E+01 -0.21222590023E+02  0.43400725825E+02  0.00000000000E+00 0.  1.
         11    1    3    3    0    0 -0.30888674991E+02  0.79170653114E+01  0.18480103497E+02  0.36855181337E+02  0.51100000000E-03 0. -1.
        -11    1    3    3    0    0 -0.77843912993E+01 -0.76217505457E+00  0.51097718638E+00  0.78382878653E+01  0.51100000000E-03 0.  1.
         12    1    3    3    0    0  0.17551942208E+01  0.12293447539E+01  0.22315093393E+01  0.30938049725E+01  0.00000000000E+00 0. -1.
</event>
<event>
 7    1  0.4519840E-010  0.4778727E+02  0.7816164E-02  0.1312668E+00
        -11   -1    0    0    0    0  0.00000000000E+00  0.00000000000E+00  0.45593999997E+02  0.45594000000E+02  0.51100000000E-03 0. -1.
         11   -1    0    0    0    0 -0.00000000000E+00 -0.00000000000E+00 -0.45593999997E+02  0.45594000000E+02  0.51100000000E-03 0.  1.
    9900012    2    1    2    0    0  0.30109209548E+02 -0.14902970822E+02 -0.27476533783E+02  0.47787274803E+02  0.20000017135E+02 0.  0.
         12    1    1    2    0    0 -0.30109209548E+02  0.14902970822E+02  0.27476533783E+02  0.43400725197E+02  0.00000000000E+00 0. -1.
         11    1    3    3    0    0  0.15352940421E+02 -0.13601821814E+02 -0.16642048561E+02  0.26413635055E+02  0.51100000000E-03 0. -1.
        -11    1    3    3    0    0  0.13548440524E+02 -0.26000023700E+01 -0.12734334205E+02  0.18774544491E+02  0.51100000000E-03 0.  1.
        -12    1    3    3    0    0  0.12078286034E+01  0.12988533627E+01  0.18998489832E+01  0.25990952565E+01  0.00000000000E+00 0.  1.
</event>
<event>
 7    1  0.4519840E-010  0.4778727E+02  0.7816164E-02  0.1312668E+00
        -11   -1    0    0    0    0  0.00000000000E+00  0.00000000000E+00  0.45593999997E+02  0.45594000000E+02  0.51100000000E-03 0. -1.
         11   -1    0    0    0    0 -0.00000000000E+00 -0.00000000000E+00 -0.45593999997E+02  0.45594000000E+02  0.51100000000E-03 0.  1.
    9900012    2    1    2    0    0 -0.12975258646E+01 -0.29377120813E+02 -0.31920601500E+02  0.47787267278E+02  0.19999982828E+02 0.  0.
         12    1    1    2    0    0  0.12975258646E+01  0.29377120813E+02  0.31920601500E+02  0.43400732722E+02  0.00000000000E+00 0. -1.
         11    1    3    3    0    0  0.50659064260E+01 -0.16662179580E+02 -0.13809899166E+02  0.22226222160E+02  0.51100000000E-03 0. -1.
        -11    1    3    3    0    0  0.69930280186E+00 -0.10407490772E+02 -0.87862453013E+01  0.13638291511E+02  0.51100000000E-03 0.  1.
         12    1    3    3    0    0 -0.70627350925E+01 -0.23074504614E+01 -0.93244570331E+01  0.11922753607E+02  0.00000000000E+00 0. -1.
</event>
<event>
 7    1  0.4519840E-010  0.4778727E+02  0.7816164E-02  0.1312668E+00
        -11   -1    0    0    0    0  0.00000000000E+00  0.00000000000E+00  0.45593999997E+02  0.45594000000E+02  0.51100000000E-03 0.  1.
         11   -1    0    0    0    0 -0.00000000000E+00 -0.00000000000E+00 -0.45593999997E+02  0.45594000000E+02  0.51100000000E-03 0. -1.
    9900012    2    1    2    0    0  0.41522572381E+02  0.25509148324E+00  0.12626731453E+02  0.47787269177E+02  0.19999991487E+02 0.  0.
        -12    1    1    2    0    0 -0.41522572381E+02 -0.25509148324E+00 -0.12626731453E+02  0.43400730823E+02  0.00000000000E+00 0.  1.
         11    1    3    3    0    0  0.28269249473E+02 -0.29945896415E+01  0.10868617040E+02  0.30434271299E+02  0.51100000000E-03 0. -1.
        -11    1    3    3    0    0  0.49203268319E+01  0.23800732670E+01  0.58695230095E+01  0.80203282669E+01  0.51100000000E-03 0.  1.
         12    1    3    3    0    0  0.83329960760E+01  0.86960785770E+00 -0.41114085967E+01  0.93326696115E+01  0.00000000000E+00 0. -1.
</event>
<event>
 7    1  0.4519840E-010  0.4778727E+02  0.7816164E-02  0.1312668E+00
        -11   -1    0    0    0    0  0.00000000000E+00  0.00000000000E+00  0.45593999997E+02  0.45594000000E+02  0.51100000000E-03 0. -1.
         11   -1    0    0    0    0 -0.00000000000E+00 -0.00000000000E+00 -0.45593999997E+02  0.45594000000E+02  0.51100000000E-03 0.  1.
    9900012    2    1    2    0    0 -0.45684415524E+00 -0.38476073039E+02 -0.20075024069E+02  0.47787268503E+02  0.19999988415E+02 0.  0.
         12    1    1    2    0    0  0.45684415524E+00  0.38476073039E+02  0.20075024069E+02  0.43400731497E+02  0.00000000000E+00 0. -1.
         11    1    3    3    0    0  0.24220802897E+01 -0.25746030008E+02 -0.15010085722E+02  0.29900287754E+02  0.51100000000E-03 0.  1.
        -11    1    3    3    0    0  0.41057154775E+01 -0.49316742555E+01 -0.41108151871E+00  0.64301865308E+01  0.51100000000E-03 0. -1.
         12    1    3    3    0    0 -0.69846399224E+01 -0.77983687751E+01 -0.46538568286E+01  0.11456794219E+02  0.00000000000E+00 0. -1.
</event>
<event>
 7    1  0.4519840E-010  0.4778728E+02  0.7816164E-02  0.1312668E+00
        -11   -1    0    0    0    0  0.00000000000E+00  0.00000000000E+00  0.45593999997E+02  0.45594000000E+02  0.51100000000E-03 0. -1.
         11   -1    0    0    0    0 -0.00000000000E+00 -0.00000000000E+00 -0.45593999997E+02  0.45594000000E+02  0.51100000000E-03 0.  1.
    9900012    2    1    2    0    0  0.24735668838E+01  0.15644268075E+02 -0.40407439125E+02  0.47787276580E+02  0.20000025238E+02 0.  0.
         12    1    1    2    0    0 -0.24735668838E+01 -0.15644268075E+02  0.40407439125E+02  0.43400723420E+02  0.00000000000E+00 0. -1.
         11    1    3    3    0    0  0.87766140165E+01  0.29636503747E+01 -0.17991109232E+02  0.20235913343E+02  0.51100000000E-03 0. -1.
        -11    1    3    3    0    0 -0.45549289324E+00  0.31285452173E+01 -0.11443187329E+02  0.11871891402E+02  0.51100000000E-03 0.  1.
        -12    1    3    3    0    0 -0.58475542394E+01  0.95520724832E+01 -0.10973142564E+02  0.15679471835E+02  0.00000000000E+00 0.  1.
</event>
<event>
 7    1  0.4519840E-010  0.4778727E+02  0.7816164E-02  0.1312668E+00
        -11   -1    0    0    0    0  0.00000000000E+00  0.00000000000E+00  0.45593999997E+02  0.45594000000E+02  0.51100000000E-03 0. -1.
         11   -1    0    0    0    0 -0.00000000000E+00 -0.00000000000E+00 -0.45593999997E+02  0.45594000000E+02  0.51100000000E-03 0.  1.
    9900012    2    1    2    0    0 -0.16512632789E+00  0.43309303413E+02 -0.28107978800E+01  0.47787267131E+02  0.19999982159E+02 0.  0.
        -12    1    1    2    0    0  0.16512632789E+00 -0.43309303413E+02  0.28107978800E+01  0.43400732869E+02  0.00000000000E+00 0.  1.
         11    1    3    3    0    0  0.22319060320E+01 -0.28275640591E+00  0.28506775266E+00  0.22677344654E+01  0.51100000000E-03 0. -1.
        -11    1    3    3    0    0  0.40081034252E+01  0.10434008842E+02  0.20345747757E+01  0.11361026730E+02  0.51100000000E-03 0.  1.
         12    1    3    3    0    0 -0.64051357851E+01  0.33158050977E+02 -0.51304404083E+01  0.34158505936E+02  0.00000000000E+00 0. -1.
</event>
<event>
 7    1  0.4519840E-010  0.4778727E+02  0.7816164E-02  0.1312668E+00
        -11   -1    0    0    0    0  0.00000000000E+00  0.00000000000E+00  0.45593999997E+02  0.45594000000E+02  0.51100000000E-03 0. -1.
         11   -1    0    0    0    0 -0.00000000000E+00 -0.00000000000E+00 -0.45593999997E+02  0.45594000000E+02  0.51100000000E-03 0.  1.
    9900012    2    1    2    0    0 -0.14068309935E+02 -0.31120112898E+02 -0.26781428380E+02  0.47787266397E+02  0.19999978809E+02 0.  0.
         12    1    1    2    0    0  0.14068309935E+02  0.31120112898E+02  0.26781428380E+02  0.43400733603E+02  0.00000000000E+00 0. -1.
         11    1    3    3    0    0 -0.18151447174E+01 -0.75076047892E+00  0.33880035222E+00  0.19932831163E+01  0.51100000000E-03 0. -1.
        -11    1    3    3    0    0 -0.14743715272E+02 -0.30995474545E+02 -0.24981927433E+02  0.42452247064E+02  0.51100000000E-03 0.  1.
         12    1    3    3    0    0  0.24905500540E+01  0.62612212604E+00 -0.21383013000E+01  0.33417362161E+01  0.00000000000E+00 0. -1.
</event>
<event>
 7    1  0.4519840E-010  0.4778727E+02  0.7816164E-02  0.1312668E+00
        -11   -1    0    0    0    0  0.00000000000E+00  0.00000000000E+00  0.45593999997E+02  0.45594000000E+02  0.51100000000E-03 0. -1.
         11   -1    0    0    0    0 -0.00000000000E+00 -0.00000000000E+00 -0.45593999997E+02  0.45594000000E+02  0.51100000000E-03 0.  1.
    9900012    2    1    2    0    0 -0.18658479358E+02 -0.14986768327E+01  0.39156590050E+02  0.47787269263E+02  0.19999991876E+02 0.  0.
        -12    1    1    2    0    0  0.18658479358E+02  0.14986768327E+01 -0.39156590050E+02  0.43400730737E+02  0.00000000000E+00 0.  1.
         11    1    3    3    0    0  0.10130262785E+01 -0.10492603354E+01  0.64590336023E+01  0.66216527264E+01  0.51100000000E-03 0. -1.
        -11    1    3    3    0    0 -0.64806914444E+01  0.17319365211E+01  0.24681251549E+02  0.25576613224E+02  0.51100000000E-03 0.  1.
         12    1    3    3    0    0 -0.13190814193E+02 -0.21813530184E+01  0.80163048983E+01  0.15589003312E+02  0.00000000000E+00 0. -1.
</event>
<event>
 7    1  0.4519840E-010  0.4778727E+02  0.7816164E-02  0.1312668E+00
        -11   -1    0    0    0    0  0.00000000000E+00  0.00000000000E+00  0.45593999997E+02  0.45594000000E+02  0.51100000000E-03 0. -1.
         11   -1    0    0    0    0 -0.00000000000E+00 -0.00000000000E+00 -0.45593999997E+02  0.45594000000E+02  0.51100000000E-03 0.  1.
    9900012    2    1    2    0    0 -0.22990600085E+02 -0.81682459005E+00  0.36802016054E+02  0.47787270970E+02  0.19999999661E+02 0.  0.
        -12    1    1    2    0    0  0.22990600085E+02  0.81682459005E+00 -0.36802016054E+02  0.43400729030E+02  0.00000000000E+00 0.  1.
         11    1    3    3    0    0 -0.86056828590E+01 -0.93258875853E+00  0.41243852330E+01  0.95884332960E+01  0.51100000000E-03 0. -1.
        -11    1    3    3    0    0 -0.69523313694E+01  0.64597072600E+01  0.11762626011E+02  0.15113639545E+02  0.51100000000E-03 0.  1.
        -12    1    3    3    0    0 -0.74325858568E+01 -0.63439430915E+01  0.20915004810E+02  0.23085198129E+02  0.00000000000E+00 0.  1.
</event>
<event>
 7    1  0.4519840E-010  0.4778727E+02  0.7816164E-02  0.1312668E+00
        -11   -1    0    0    0    0  0.00000000000E+00  0.00000000000E+00  0.45593999997E+02  0.45594000000E+02  0.51100000000E-03 0. -1.
         11   -1    0    0    0    0 -0.00000000000E+00 -0.00000000000E+00 -0.45593999997E+02  0.45594000000E+02  0.51100000000E-03 0.  1.
    9900012    2    1    2    0    0  0.21665155598E+02  0.56891958430E+01  0.37173610287E+02  0.47787271686E+02  0.20000002926E+02 0.  0.
        -12    1    1    2    0    0 -0.21665155598E+02 -0.56891958430E+01 -0.37173610287E+02  0.43400728314E+02  0.00000000000E+00 0.  1.
         11    1    3    3    0    0  0.12098188263E+02  0.24320627968E+00  0.23107599674E+02  0.26084218821E+02  0.51100000000E-03 0.  1.
        -11    1    3    3    0    0  0.12158670499E+02  0.27795902205E+01  0.12531537210E+02  0.17680464225E+02  0.51100000000E-03 0. -1.
        -12    1    3    3    0    0 -0.25917031641E+01  0.26663993429E+01  0.15344734023E+01  0.40225886402E+01  0.00000000000E+00 0.  1.
</event>
<event>
 7    1  0.4519840E-010  0.4778727E+02  0.7816164E-02  0.1312668E+00
        -11   -1    0    0    0    0  0.00000000000E+00  0.00000000000E+00  0.45593999997E+02  0.45594000000E+02  0.51100000000E-03 0. -1.
         11   -1    0    0    0    0 -0.00000000000E+00 -0.00000000000E+00 -0.45593999997E+02  0.45594000000E+02  0.51100000000E-03 0.  1.
    9900012    2    1    2    0    0 -0.27799016329E+02 -0.80781667514E+01  0.32335449068E+02  0.47787270128E+02  0.19999995824E+02 0.  0.
        -12    1    1    2    0    0  0.27799016329E+02  0.80781667514E+01 -0.32335449068E+02  0.43400729872E+02  0.00000000000E+00 0.  1.
         11    1    3    3    0    0 -0.67238350195E+00  0.31468497586E+00 -0.40883487786E+00  0.84750954343E+00  0.51100000000E-03 0. -1.
        -11    1    3    3    0    0 -0.18490636835E+02 -0.11715222039E+02  0.13854779619E+02  0.25905694288E+02  0.51100000000E-03 0.  1.
         12    1    3    3    0    0 -0.86359959921E+01  0.33223703116E+01  0.18889504327E+02  0.21034066297E+02  0.00000000000E+00 0. -1.
</event>
<event>
 7    1  0.4519840E-010  0.4778727E+02  0.7816164E-02  0.1312668E+00
        -11   -1    0    0    0    0  0.00000000000E+00  0.00000000000E+00  0.45593999997E+02  0.45594000000E+02  0.51100000000E-03 0. -1.
         11   -1    0    0    0    0 -0.00000000000E+00 -0.00000000000E+00 -0.45593999997E+02  0.45594000000E+02  0.51100000000E-03 0.  1.
    9900012    2    1    2    0    0 -0.13829971596E+01 -0.15490266140E+02 -0.40518669047E+02  0.47787267660E+02  0.19999984571E+02 0.  0.
         12    1    1    2    0    0  0.13829971596E+01  0.15490266140E+02  0.40518669047E+02  0.43400732340E+02  0.00000000000E+00 0. -1.
         11    1    3    3    0    0 -0.84333795896E+00 -0.73095615543E+01 -0.94793697182E+01  0.11999973314E+02  0.51100000000E-03 0. -1.
        -11    1    3    3    0    0  0.54517983595E+01 -0.39151632531E+00 -0.33616022555E+01  0.64168341393E+01  0.51100000000E-03 0.  1.
        -12    1    3    3    0    0 -0.59914575601E+01 -0.77891882603E+01 -0.27677697074E+02  0.29370460207E+02  0.00000000000E+00 0.  1.
</event>
<event>
 7    1  0.4519840E-010  0.4778727E+02  0.7816164E-02  0.1312668E+00
        -11   -1    0    0    0    0  0.00000000000E+00  0.00000000000E+00  0.45593999997E+02  0.45594000000E+02  0.51100000000E-03 0.  1.
         11   -1    0    0    0    0 -0.00000000000E+00 -0.00000000000E+00 -0.45593999997E+02  0.45594000000E+02  0.51100000000E-03 0. -1.
    9900012    2    1    2    0    0  0.33781021796E+02 -0.27047218183E+02 -0.33036858477E+01  0.47787265154E+02  0.19999973143E+02 0.  0.
        -12    1    1    2    0    0 -0.33781021796E+02  0.27047218183E+02  0.33036858477E+01  0.43400734846E+02  0.00000000000E+00 0.  1.
         11    1    3    3    0    0  0.25852648740E+02 -0.20994352388E+02 -0.24833402217E+00  0.33304413358E+02  0.51100000000E-03 0. -1.
        -11    1    3    3    0    0  0.57479427063E+01 -0.75975721867E+01  0.10498511482E+01  0.95845780387E+01  0.51100000000E-03 0.  1.
        -12    1    3    3    0    0  0.21804303498E+01  0.15447063922E+01 -0.41052029737E+01  0.48982737575E+01  0.00000000000E+00 0.  1.
</event>
<event>
 7    1  0.4519840E-010  0.4778727E+02  0.7816164E-02  0.1312668E+00
        -11   -1    0    0    0    0  0.00000000000E+00  0.00000000000E+00  0.45593999997E+02  0.45594000000E+02  0.51100000000E-03 0. -1.
         11   -1    0    0    0    0 -0.00000000000E+00 -0.00000000000E+00 -0.45593999997E+02  0.45594000000E+02  0.51100000000E-03 0.  1.
    9900012    2    1    2    0    0 -0.40412039172E+01  0.14014421415E+02 -0.40876495368E+02  0.47787271777E+02  0.20000003341E+02 0.  0.
         12    1    1    2    0    0  0.40412039172E+01 -0.14014421415E+02  0.40876495368E+02  0.43400728223E+02  0.00000000000E+00 0. -1.
         11    1    3    3    0    0 -0.72604090516E+00 -0.11013453024E+01 -0.57735473317E+01  0.59223260569E+01  0.51100000000E-03 0. -1.
        -11    1    3    3    0    0  0.64030749456E+01  0.66029987339E+01 -0.97121305040E+01  0.13376264061E+02  0.51100000000E-03 0.  1.
        -12    1    3    3    0    0 -0.97182379577E+01  0.85127679837E+01 -0.25390817532E+02  0.28488681660E+02  0.00000000000E+00 0.  1.
</event>
<event>
 7    1  0.4519840E-010  0.4778727E+02  0.7816164E-02  0.1312668E+00
        -11   -1    0    0    0    0  0.00000000000E+00  0.00000000000E+00  0.45593999997E+02  0.45594000000E+02  0.51100000000E-03 0. -1.
         11   -1    0    0    0    0 -0.00000000000E+00 -0.00000000000E+00 -0.45593999997E+02  0.45594000000E+02  0.51100000000E-03 0.  1.
    9900012    2    1    2    0    0 -0.90940911583E+01  0.20501669450E+02 -0.37156456702E+02  0.47787271678E+02  0.20000002890E+02 0.  0.
         12    1    1    2    0    0  0.90940911583E+01 -0.20501669450E+02  0.37156456702E+02  0.43400728322E+02  0.00000000000E+00 0. -1.
         11    1    3    3    0    0 -0.14211201929E+01  0.13363691808E+00 -0.98064938931E+01  0.99098316920E+01  0.51100000000E-03 0. -1.
        -11    1    3    3    0    0  0.32796623650E+01  0.47599846544E+01 -0.12284065356E+02  0.13576151924E+02  0.51100000000E-03 0.  1.
        -12    1    3    3    0    0 -0.10952633330E+02  0.15608047878E+02 -0.15065897453E+02  0.24301288062E+02  0.00000000000E+00 0.  1.
</event>
<event>
 7    1  0.4519840E-010  0.4778727E+02  0.7816164E-02  0.1312668E+00
        -11   -1    0    0    0    0  0.00000000000E+00  0.00000000000E+00  0.45593999997E+02  0.45594000000E+02  0.51100000000E-03 0. -1.
         11   -1    0    0    0    0 -0.00000000000E+00 -0.00000000000E+00 -0.45593999997E+02  0.45594000000E+02  0.51100000000E-03 0.  1.
    9900012    2    1    2    0    0 -0.29671092615E+02 -0.14883910639E+02 -0.27959239815E+02  0.47787267012E+02  0.19999981614E+02 0.  0.
         12    1    1    2    0    0  0.29671092615E+02  0.14883910639E+02  0.27959239815E+02  0.43400732988E+02  0.00000000000E+00 0. -1.
         11    1    3    3    0    0  0.49183649714E+00 -0.26672137197E+01  0.13470958337E+01  0.30282997892E+01  0.51100000000E-03 0. -1.
        -11    1    3    3    0    0 -0.98734643775E+01  0.27255296577E+00 -0.68626035907E+01  0.12027257054E+02  0.51100000000E-03 0.  1.
        -12    1    3    3    0    0 -0.20289464734E+02 -0.12489249885E+02 -0.22443732058E+02  0.32731710169E+02  0.00000000000E+00 0.  1.
</event>
<event>
 7    1  0.4519840E-010  0.4778727E+02  0.7816164E-02  0.1312668E+00
        -11   -1    0    0    0    0  0.00000000000E+00  0.00000000000E+00  0.45593999997E+02  0.45594000000E+02  0.51100000000E-03 0.  1.
         11   -1    0    0    0    0 -0.00000000000E+00 -0.00000000000E+00 -0.45593999997E+02  0.45594000000E+02  0.51100000000E-03 0. -1.
    9900012    2    1    2    0    0 -0.10269466362E+01 -0.42260274576E+02  0.98304500055E+01  0.47787272196E+02  0.20000005250E+02 0.  0.
        -12    1    1    2    0    0  0.10269466362E+01  0.42260274576E+02 -0.98304500055E+01  0.43400727804E+02  0.00000000000E+00 0.  1.
         11    1    3    3    0    0 -0.60586902470E-01 -0.22053925195E+02  0.46667928505E+01  0.22542365516E+02  0.51100000000E-03 0.  1.
        -11    1    3    3    0    0  0.44859051390E+01 -0.13798440450E+02 -0.13960751477E+01  0.14576327722E+02  0.51100000000E-03 0. -1.
        -12    1    3    3    0    0 -0.54522648727E+01 -0.64079089310E+01  0.65597323027E+01  0.10668578958E+02  0.00000000000E+00 0.  1.
</event>
<event>
 7    1  0.4519840E-010  0.4778727E+02  0.7816164E-02  0.1312668E+00
        -11   -1    0    0    0    0  0.00000000000E+00  0.00000000000E+00  0.45593999997E+02  0.45594000000E+02  0.51100000000E-03 0. -1.
         11   -1    0    0    0    0 -0.00000000000E+00 -0.00000000000E+00 -0.45593999997E+02  0.45594000000E+02  0.51100000000E-03 0.  1.
    9900012    2    1    2    0    0 -0.29132944795E+02  0.31958452016E+02 -0.36813646919E+01  0.47787267591E+02  0.19999984253E+02 0.  0.
        -12    1    1    2    0    0  0.29132944795E+02 -0.31958452016E+02  0.36813646919E+01  0.43400732409E+02  0.00000000000E+00 0.  1.
         11    1    3    3    0    0 -0.59524915012E+01  0.12051469986E+02 -0.28040378583E+01  0.13730721484E+02  0.51100000000E-03 0. -1.
        -11    1    3    3    0    0  0.83892157993E+00  0.59511925673E+00  0.28329747543E+01  0.30139181419E+01  0.51100000000E-03 0.  1.
         12    1    3    3    0    0 -0.24019374874E+02  0.19311862773E+02 -0.37103015879E+01  0.31042627964E+02  0.00000000000E+00 0. -1.
</event>
<event>
 7    1  0.4519840E-010  0.4778727E+02  0.7816164E-02  0.1312668E+00
        -11   -1    0    0    0    0  0.00000000000E+00  0.00000000000E+00  0.45593999997E+02  0.45594000000E+02  0.51100000000E-03 0. -1.
         11   -1    0    0    0    0 -0.00000000000E+00 -0.00000000000E+00 -0.45593999997E+02  0.45594000000E+02  0.51100000000E-03 0.  1.
    9900012    2    1    2    0    0  0.33780990543E+02  0.11779329199E+02 -0.24570621107E+02  0.47787270282E+02  0.19999996524E+02 0.  0.
         12    1    1    2    0    0 -0.33780990543E+02 -0.11779329199E+02  0.24570621107E+02  0.43400729718E+02  0.00000000000E+00 0. -1.
         11    1    3    3    0    0  0.24779946723E+01  0.37482391239E+01 -0.25791646310E+01  0.51809115589E+01  0.51100000000E-03 0. -1.
        -11    1    3    3    0    0  0.22510042207E+02  0.65527609971E+00 -0.67156915640E+01  0.23499614898E+02  0.51100000000E-03 0.  1.
        -12    1    3    3    0    0  0.87929536641E+01  0.73758139754E+01 -0.15275764912E+02  0.19106743825E+02  0.00000000000E+00 0.  1.
</event>
<event>
 7    1  0.4519840E-010  0.4778727E+02  0.7816164E-02  0.1312668E+00
        -11   -1    0    0    0    0  0.00000000000E+00  0.00000000000E+00  0.45593999997E+02  0.45594000000E+02  0.51100000000E-03 0. -1.
         11   -1    0    0    0    0 -0.00000000000E+00 -0.00000000000E+00 -0.45593999997E+02  0.45594000000E+02  0.51100000000E-03 0.  1.
    9900012    2    1    2    0    0 -0.67707180462E+01  0.25602986055E+02  0.34384121948E+02  0.47787270053E+02  0.19999995481E+02 0.  0.
        -12    1    1    2    0    0  0.67707180462E+01 -0.25602986055E+02 -0.34384121948E+02  0.43400729947E+02  0.00000000000E+00 0.  1.
         11    1    3    3    0    0 -0.21434936050E-01  0.79369482859E+01  0.14024017747E+02  0.16114238474E+02  0.51100000000E-03 0.  1.
        -11    1    3    3    0    0 -0.46032151496E+01  0.20172613742E+02  0.19041866162E+02  0.28119683535E+02  0.51100000000E-03 0. -1.
         12    1    3    3    0    0 -0.21460679606E+01 -0.25065759731E+01  0.13182380379E+01  0.35533480445E+01  0.00000000000E+00 0. -1.
</event>
<event>
 7    1  0.4519840E-010  0.4778727E+02  0.7816164E-02  0.1312668E+00
        -11   -1    0    0    0    0  0.00000000000E+00  0.00000000000E+00  0.45593999997E+02  0.45594000000E+02  0.51100000000E-03 0. -1.
         11   -1    0    0    0    0 -0.00000000000E+00 -0.00000000000E+00 -0.45593999997E+02  0.45594000000E+02  0.51100000000E-03 0.  1.
    9900012    2    1    2    0    0 -0.95597063354E+00  0.92134609486E+01  0.42400728663E+02  0.47787268051E+02  0.19999986353E+02 0.  0.
        -12    1    1    2    0    0  0.95597063354E+00 -0.92134609486E+01 -0.42400728663E+02  0.43400731949E+02  0.00000000000E+00 0.  1.
         11    1    3    3    0    0  0.21295029539E+01 -0.18196839284E+01  0.79839257046E+00  0.29126385611E+01  0.51100000000E-03 0. -1.
        -11    1    3    3    0    0  0.22532622154E+00 -0.84935764145E-01 -0.84085542013E+00  0.87465655478E+00  0.51100000000E-03 0.  1.
         12    1    3    3    0    0 -0.33107998090E+01  0.11118080641E+02  0.42443191513E+02  0.43999972935E+02  0.00000000000E+00 0. -1.
</event>
<event>
 7    1  0.4519840E-010  0.4778727E+02  0.7816164E-02  0.1312668E+00
        -11   -1    0    0    0    0  0.00000000000E+00  0.00000000000E+00  0.45593999997E+02  0.45594000000E+02  0.51100000000E-03 0. -1.
         11   -1    0    0    0    0 -0.00000000000E+00 -0.00000000000E+00 -0.45593999997E+02  0.45594000000E+02  0.51100000000E-03 0.  1.
    9900012    2    1    2    0    0  0.50830293323E+01  0.42469484494E+02  0.73572350926E+01  0.47787271797E+02  0.20000003431E+02 0.  0.
        -12    1    1    2    0    0 -0.50830293323E+01 -0.42469484494E+02 -0.73572350926E+01  0.43400728203E+02  0.00000000000E+00 0.  1.
         11    1    3    3    0    0  0.75046350299E+01  0.40006399333E+02  0.70207844679E+01  0.41305241185E+02  0.51100000000E-03 0. -1.
        -11    1    3    3    0    0 -0.26425604054E+01  0.11608134856E+01  0.25847212369E+01  0.38744544878E+01  0.51100000000E-03 0.  1.
         12    1    3    3    0    0  0.22095470779E+00  0.13022716747E+01 -0.22482706121E+01  0.26075761241E+01  0.00000000000E+00 0. -1.
</event>
<event>
 7    1  0.4519840E-010  0.4778727E+02  0.7816164E-02  0.1312668E+00
        -11   -1    0    0    0    0  0.00000000000E+00  0.00000000000E+00  0.45593999997E+02  0.45594000000E+02  0.51100000000E-03 0. -1.
         11   -1    0    0    0    0 -0.00000000000E+00 -0.00000000000E+00 -0.45593999997E+02  0.45594000000E+02  0.51100000000E-03 0.  1.
    9900012    2    1    2    0    0  0.19609938582E+02 -0.89298223707E+01 -0.37674022261E+02  0.47787269913E+02  0.19999994843E+02 0.  0.
         12    1    1    2    0    0 -0.19609938582E+02  0.89298223707E+01  0.37674022261E+02  0.43400730087E+02  0.00000000000E+00 0. -1.
         11    1    3    3    0    0  0.28385825623E+01  0.38443365677E+01 -0.15982031233E+02  0.16681180930E+02  0.51100000000E-03 0. -1.
        -11    1    3    3    0    0 -0.58131272845E+00 -0.14569415345E+01 -0.13092989714E+01  0.20432491725E+01  0.51100000000E-03 0.  1.
        -12    1    3    3    0    0  0.17352668748E+02 -0.11317217404E+02 -0.20382692056E+02  0.29062839811E+02  0.00000000000E+00 0.  1.
</event>
<event>
 7    1  0.4519840E-010  0.4778727E+02  0.7816164E-02  0.1312668E+00
        -11   -1    0    0    0    0  0.00000000000E+00  0.00000000000E+00  0.45593999997E+02  0.45594000000E+02  0.51100000000E-03 0. -1.
         11   -1    0    0    0    0 -0.00000000000E+00 -0.00000000000E+00 -0.45593999997E+02  0.45594000000E+02  0.51100000000E-03 0.  1.
    9900012    2    1    2    0    0  0.48331595725E+01  0.19306961841E+02  0.38568186920E+02  0.47787271328E+02  0.20000001291E+02 0.  0.
        -12    1    1    2    0    0 -0.48331595725E+01 -0.19306961841E+02 -0.38568186920E+02  0.43400728672E+02  0.00000000000E+00 0.  1.
         11    1    3    3    0    0 -0.14070831300E+01  0.26930172534E+01  0.15079762704E+02  0.15382830309E+02  0.51100000000E-03 0.  1.
        -11    1    3    3    0    0 -0.17074045755E+01  0.13775231426E+02  0.14885835047E+02  0.20353385874E+02  0.51100000000E-03 0. -1.
         12    1    3    3    0    0  0.79476472780E+01  0.28387131609E+01  0.86025891693E+01  0.12051055144E+02  0.00000000000E+00 0. -1.
</event>
<event>
 7    1  0.4519840E-010  0.4778726E+02  0.7816164E-02  0.1312668E+00
        -11   -1    0    0    0    0  0.00000000000E+00  0.00000000000E+00  0.45593999997E+02  0.45594000000E+02  0.51100000000E-03 0. -1.
         11   -1    0    0    0    0 -0.00000000000E+00 -0.00000000000E+00 -0.45593999997E+02  0.45594000000E+02  0.51100000000E-03 0.  1.
    9900012    2    1    2    0    0  0.28052537035E+02  0.69901632408E+01  0.32369996740E+02  0.47787263771E+02  0.19999966839E+02 0.  0.
        -12    1    1    2    0    0 -0.28052537035E+02 -0.69901632408E+01 -0.32369996740E+02  0.43400736229E+02  0.00000000000E+00 0.  1.
         11    1    3    3    0    0  0.10822631961E+02  0.22140048169E+01  0.15066533235E+02  0.18682387532E+02  0.51100000000E-03 0. -1.
        -11    1    3    3    0    0  0.15404351529E+02 -0.26903015893E+01  0.12703107787E+02  0.20146977847E+02  0.51100000000E-03 0.  1.
         12    1    3    3    0    0  0.18255535443E+01  0.74664600132E+01  0.46003557184E+01  0.89578983923E+01  0.00000000000E+00 0. -1.
</event>
<event>
 7    1  0.9497694E-010  0.4778727E+02  0.7816164E-02  0.1312668E+00
        -11   -1    0    0    0    0  0.00000000000E+00  0.00000000000E+00  0.45593999997E+02  0.45594000000E+02  0.51100000000E-03 0. -1.
         11   -1    0    0    0    0 -0.00000000000E+00 -0.00000000000E+00 -0.45593999997E+02  0.45594000000E+02  0.51100000000E-03 0.  1.
    9900012    2    1    2    0    0 -0.24738551554E+02  0.34263483142E+02 -0.98813620093E+01  0.47787268149E+02  0.19999986801E+02 0.  0.
         12    1    1    2    0    0  0.24738551554E+02 -0.34263483142E+02  0.98813620093E+01  0.43400731851E+02  0.00000000000E+00 0. -1.
         11    1    3    3    0    0 -0.67668527231E+01  0.26653150240E+01 -0.18474515481E+00  0.72751859761E+01  0.51100000000E-03 0. -1.
        -11    1    3    3    0    0  0.27081891570E+01  0.42812590192E+01 -0.15027231419E+01  0.52840935269E+01  0.51100000000E-03 0.  1.
        -12    1    3    3    0    0 -0.20679887987E+02  0.27316909099E+02 -0.81938937126E+01  0.35227988646E+02  0.00000000000E+00 0.  1.
</event>
<event>
 7    1  0.4519840E-010  0.4778728E+02  0.7816164E-02  0.1312668E+00
        -11   -1    0    0    0    0  0.00000000000E+00  0.00000000000E+00  0.45593999997E+02  0.45594000000E+02  0.51100000000E-03 0. -1.
         11   -1    0    0    0    0 -0.00000000000E+00 -0.00000000000E+00 -0.45593999997E+02  0.45594000000E+02  0.51100000000E-03 0.  1.
    9900012    2    1    2    0    0  0.31340467969E+02 -0.46089595261E-01  0.30023242095E+02  0.47787284307E+02  0.20000060469E+02 0.  0.
        -12    1    1    2    0    0 -0.31340467969E+02  0.46089595261E-01 -0.30023242095E+02  0.43400715693E+02  0.00000000000E+00 0.  1.
         11    1    3    3    0    0  0.12602762175E+02 -0.74663453709E+00  0.85127554732E+01  0.15226755517E+02  0.51100000000E-03 0. -1.
        -11    1    3    3    0    0  0.12174994677E+02  0.64793906326E+01  0.18971746487E+02  0.23455066902E+02  0.51100000000E-03 0.  1.
        -12    1    3    3    0    0  0.65627111163E+01 -0.57788456908E+01  0.25387401355E+01  0.91054618878E+01  0.00000000000E+00 0.  1.
</event>
<event>
 7    1  0.4519840E-010  0.4778727E+02  0.7816164E-02  0.1312668E+00
        -11   -1    0    0    0    0  0.00000000000E+00  0.00000000000E+00  0.45593999997E+02  0.45594000000E+02  0.51100000000E-03 0. -1.
         11   -1    0    0    0    0 -0.00000000000E+00 -0.00000000000E+00 -0.45593999997E+02  0.45594000000E+02  0.51100000000E-03 0.  1.
    9900012    2    1    2    0    0 -0.29775585475E+02 -0.31133942511E+02 -0.52645481488E+01  0.47787270353E+02  0.19999996849E+02 0.  0.
        -12    1    1    2    0    0  0.29775585475E+02  0.31133942511E+02  0.52645481488E+01  0.43400729647E+02  0.00000000000E+00 0.  1.
         11    1    3    3    0    0 -0.12439749222E+02 -0.10088452301E+02 -0.96838482876E+01  0.18716333734E+02  0.51100000000E-03 0. -1.
        -11    1    3    3    0    0 -0.12364419442E+02 -0.82503412298E+01  0.85566174044E+00  0.14888893707E+02  0.51100000000E-03 0.  1.
        -12    1    3    3    0    0 -0.49714168113E+01 -0.12795148980E+02  0.35636383983E+01  0.14182042912E+02  0.00000000000E+00 0.  1.
</event>
<event>
 7    1  0.4519840E-010  0.4778725E+02  0.7816164E-02  0.1312668E+00
        -11   -1    0    0    0    0  0.00000000000E+00  0.00000000000E+00  0.45593999997E+02  0.45594000000E+02  0.51100000000E-03 0. -1.
         11   -1    0    0    0    0 -0.00000000000E+00 -0.00000000000E+00 -0.45593999997E+02  0.45594000000E+02  0.51100000000E-03 0.  1.
    9900012    2    1    2    0    0  0.30938937544E+01 -0.32575825229E+02  0.28510850660E+02  0.47787249162E+02  0.19999900230E+02 0.  0.
        -12    1    1    2    0    0 -0.30938937544E+01  0.32575825229E+02 -0.28510850660E+02  0.43400750838E+02  0.00000000000E+00 0.  1.
         11    1    3    3    0    0 -0.27208743328E+01 -0.72725382978E+01  0.10119902557E+02  0.12755602630E+02  0.51100000000E-03 0. -1.
        -11    1    3    3    0    0 -0.20569510156E+01 -0.15198702644E+02  0.41729340812E+01  0.15894810117E+02  0.51100000000E-03 0.  1.
        -12    1    3    3    0    0  0.78717191027E+01 -0.10104584287E+02  0.14218014022E+02  0.19136836415E+02  0.00000000000E+00 0.  1.
</event>
<event>
 7    1  0.4519840E-010  0.4778728E+02  0.7816164E-02  0.1312668E+00
        -11   -1    0    0    0    0  0.00000000000E+00  0.00000000000E+00  0.45593999997E+02  0.45594000000E+02  0.51100000000E-03 0. -1.
         11   -1    0    0    0    0 -0.00000000000E+00 -0.00000000000E+00 -0.45593999997E+02  0.45594000000E+02  0.51100000000E-03 0.  1.
    9900012    2    1    2    0    0  0.36322239263E+02  0.21867123200E+02  0.92815140910E+01  0.47787278279E+02  0.20000032983E+02 0.  0.
         12    1    1    2    0    0 -0.36322239263E+02 -0.21867123200E+02 -0.92815140910E+01  0.43400721721E+02  0.00000000000E+00 0. -1.
         11    1    3    3    0    0  0.22198247918E+01  0.36183672468E+01 -0.20381075268E+00  0.42499109077E+01  0.51100000000E-03 0. -1.
        -11    1    3    3    0    0  0.25855253407E+02  0.21499914589E+02  0.75604136666E+01  0.34465929716E+02  0.51100000000E-03 0.  1.
         12    1    3    3    0    0  0.82471610642E+01 -0.32511586361E+01  0.19249111771E+01  0.90714376554E+01  0.00000000000E+00 0. -1.
</event>
<event>
 7    1  0.4519840E-010  0.4778727E+02  0.7816164E-02  0.1312668E+00
        -11   -1    0    0    0    0  0.00000000000E+00  0.00000000000E+00  0.45593999997E+02  0.45594000000E+02  0.51100000000E-03 0. -1.
         11   -1    0    0    0    0 -0.00000000000E+00 -0.00000000000E+00 -0.45593999997E+02  0.45594000000E+02  0.51100000000E-03 0.  1.
    9900012    2    1    2    0    0  0.31107467023E+02 -0.19729943586E+02 -0.22949475809E+02  0.47787267076E+02  0.19999981905E+02 0.  0.
         12    1    1    2    0    0 -0.31107467023E+02  0.19729943586E+02  0.22949475809E+02  0.43400732924E+02  0.00000000000E+00 0. -1.
         11    1    3    3    0    0  0.28686343553E+01 -0.15662725688E+01  0.23668833191E+01  0.40353946191E+01  0.51100000000E-03 0. -1.
        -11    1    3    3    0    0  0.28719864629E+01 -0.64908627384E+01 -0.88131727376E+01  0.11315989541E+02  0.51100000000E-03 0.  1.
        -12    1    3    3    0    0  0.25366846204E+02 -0.11672808278E+02 -0.16503186391E+02  0.32435882915E+02  0.00000000000E+00 0.  1.
</event>
<event>
 7    1  0.4519840E-010  0.4778727E+02  0.7816164E-02  0.1312668E+00
        -11   -1    0    0    0    0  0.00000000000E+00  0.00000000000E+00  0.45593999997E+02  0.45594000000E+02  0.51100000000E-03 0. -1.
         11   -1    0    0    0    0 -0.00000000000E+00 -0.00000000000E+00 -0.45593999997E+02  0.45594000000E+02  0.51100000000E-03 0.  1.
    9900012    2    1    2    0    0  0.12052538068E+02  0.34507772611E+02 -0.23400285627E+02  0.47787269455E+02  0.19999992753E+02 0.  0.
         12    1    1    2    0    0 -0.12052538068E+02 -0.34507772611E+02  0.23400285627E+02  0.43400730545E+02  0.00000000000E+00 0. -1.
         11    1    3    3    0    0  0.57962032553E+01  0.59321081940E+01 -0.98898963951E+01  0.12907204607E+02  0.51100000000E-03 0.  1.
        -11    1    3    3    0    0  0.33894470871E+01 -0.47373243647E-01 -0.13316200358E+01  0.36419511201E+01  0.51100000000E-03 0. -1.
        -12    1    3    3    0    0  0.28668877258E+01  0.28623037660E+02 -0.12178769196E+02  0.31238113728E+02  0.00000000000E+00 0.  1.
</event>
<event>
 7    1  0.4519840E-010  0.4778727E+02  0.7816164E-02  0.1312668E+00
        -11   -1    0    0    0    0  0.00000000000E+00  0.00000000000E+00  0.45593999997E+02  0.45594000000E+02  0.51100000000E-03 0. -1.
         11   -1    0    0    0    0 -0.00000000000E+00 -0.00000000000E+00 -0.45593999997E+02  0.45594000000E+02  0.51100000000E-03 0.  1.
    9900012    2    1    2    0    0 -0.66537292140E+01 -0.16721764416E+02 -0.39493468312E+02  0.47787267783E+02  0.19999985130E+02 0.  0.
         12    1    1    2    0    0  0.66537292140E+01  0.16721764416E+02  0.39493468312E+02  0.43400732217E+02  0.00000000000E+00 0. -1.
         11    1    3    3    0    0 -0.30314036749E+01 -0.81688372200E+01 -0.72389478106E+01  0.11327915759E+02  0.51100000000E-03 0. -1.
        -11    1    3    3    0    0 -0.46788312831E+01 -0.10733413617E+02 -0.14967000749E+02  0.19002861409E+02  0.51100000000E-03 0.  1.
         12    1    3    3    0    0  0.10565057441E+01  0.21804864204E+01 -0.17287519752E+02  0.17456490615E+02  0.00000000000E+00 0. -1.
</event>
<event>
 7    1  0.4519840E-010  0.4778727E+02  0.7816164E-02  0.1312668E+00
        -11   -1    0    0    0    0  0.00000000000E+00  0.00000000000E+00  0.45593999997E+02  0.45594000000E+02  0.51100000000E-03 0. -1.
         11   -1    0    0    0    0 -0.00000000000E+00 -0.00000000000E+00 -0.45593999997E+02  0.45594000000E+02  0.51100000000E-03 0.  1.
    9900012    2    1    2    0    0 -0.22611669947E+02 -0.14456493079E+02  0.34107845518E+02  0.47787274939E+02  0.20000017756E+02 0.  0.
        -12    1    1    2    0    0  0.22611669947E+02  0.14456493079E+02 -0.34107845518E+02  0.43400725061E+02  0.00000000000E+00 0.  1.
         11    1    3    3    0    0 -0.52991117159E+01 -0.99550306550E+00  0.14743058734E+02  0.15698069704E+02  0.51100000000E-03 0. -1.
        -11    1    3    3    0    0 -0.18570081275E+01  0.17364810110E+01 -0.60860682336E+00  0.26142394714E+01  0.51100000000E-03 0.  1.
        -12    1    3    3    0    0 -0.15455550103E+02 -0.15197471025E+02  0.19973393608E+02  0.29474965763E+02  0.00000000000E+00 0.  1.
</event>
<event>
 7    1  0.4519840E-010  0.4778726E+02  0.7816164E-02  0.1312668E+00
        -11   -1    0    0    0    0  0.00000000000E+00  0.00000000000E+00  0.45593999997E+02  0.45594000000E+02  0.51100000000E-03 0. -1.
         11   -1    0    0    0    0 -0.00000000000E+00 -0.00000000000E+00 -0.45593999997E+02  0.45594000000E+02  0.51100000000E-03 0.  1.
    9900012    2    1    2    0    0  0.46630404228E+01  0.20425907458E+02 -0.38008719338E+02  0.47787258218E+02  0.19999941521E+02 0.  0.
         12    1    1    2    0    0 -0.46630404228E+01 -0.20425907458E+02  0.38008719338E+02  0.43400741782E+02  0.00000000000E+00 0. -1.
         11    1    3    3    0    0 -0.68268699623E+00  0.46531257730E+01 -0.43957265915E+01  0.64373949330E+01  0.51100000000E-03 0.  1.
        -11    1    3    3    0    0 -0.47404560504E+00  0.14783459998E+02 -0.12308172350E+02  0.19242310558E+02  0.51100000000E-03 0. -1.
        -12    1    3    3    0    0  0.58197730241E+01  0.98932168683E+00 -0.21304820397E+02  0.22107552727E+02  0.00000000000E+00 0.  1.
</event>
<event>
 7    1  0.4519840E-010  0.4778728E+02  0.7816164E-02  0.1312668E+00
        -11   -1    0    0    0    0  0.00000000000E+00  0.00000000000E+00  0.45593999997E+02  0.45594000000E+02  0.51100000000E-03 0. -1.
         11   -1    0    0    0    0 -0.00000000000E+00 -0.00000000000E+00 -0.45593999997E+02  0.45594000000E+02  0.51100000000E-03 0.  1.
    9900012    2    1    2    0    0  0.10999785327E+01  0.37155360327E+02 -0.22402937727E+02  0.47787281428E+02  0.20000047341E+02 0.  0.
         12    1    1    2    0    0 -0.10999785327E+01 -0.37155360327E+02  0.22402937727E+02  0.43400718572E+02  0.00000000000E+00 0. -1.
         11    1    3    3    0    0  0.22148741523E+01  0.12241368307E+02 -0.44730193332E+01  0.13219858840E+02  0.51100000000E-03 0. -1.
        -11    1    3    3    0    0  0.68571123879E+01  0.12132553176E+02 -0.11956917764E+02  0.18362644677E+02  0.51100000000E-03 0.  1.
         12    1    3    3    0    0 -0.79720080075E+01  0.12781438844E+02 -0.59730006299E+01  0.16204777910E+02  0.00000000000E+00 0. -1.
</event>
<event>
 7    1  0.4519840E-010  0.4778727E+02  0.7816164E-02  0.1312668E+00
        -11   -1    0    0    0    0  0.00000000000E+00  0.00000000000E+00  0.45593999997E+02  0.45594000000E+02  0.51100000000E-03 0. -1.
         11   -1    0    0    0    0 -0.00000000000E+00 -0.00000000000E+00 -0.45593999997E+02  0.45594000000E+02  0.51100000000E-03 0.  1.
    9900012    2    1    2    0    0 -0.23573747192E+02 -0.26616335344E+02  0.24889196892E+02  0.47787274364E+02  0.20000015137E+02 0.  0.
        -12    1    1    2    0    0  0.23573747192E+02  0.26616335344E+02 -0.24889196892E+02  0.43400725636E+02  0.00000000000E+00 0.  1.
         11    1    3    3    0    0 -0.55266744641E+01 -0.41762682457E+01  0.37211496117E+01  0.78633518163E+01  0.51100000000E-03 0. -1.
        -11    1    3    3    0    0 -0.76809472736E+01 -0.11561102109E+01  0.12492218383E+02  0.14710168668E+02  0.51100000000E-03 0.  1.
         12    1    3    3    0    0 -0.10366125454E+02 -0.21283956887E+02  0.86758288972E+01  0.25213753880E+02  0.00000000000E+00 0. -1.
</event>
<event>
 7    1  0.4692532E-010  0.4778727E+02  0.7816164E-02  0.1312668E+00
        -11   -1    0    0    0    0  0.00000000000E+00  0.00000000000E+00  0.45593999997E+02  0.45594000000E+02  0.51100000000E-03 0. -1.
         11   -1    0    0    0    0 -0.00000000000E+00 -0.00000000000E+00 -0.45593999997E+02  0.45594000000E+02  0.51100000000E-03 0.  1.
    9900012    2    1    2    0    0 -0.51906313437E+01  0.22416541738E+01 -0.43030866276E+02  0.47787272821E+02  0.20000008101E+02 0.  0.
         12    1    1    2    0    0  0.51906313437E+01 -0.22416541738E+01  0.43030866276E+02  0.43400727179E+02  0.00000000000E+00 0. -1.
         11    1    3    3    0    0  0.10174979546E+01  0.12960336690E+01 -0.37026774392E+00  0.16888172850E+01  0.51100000000E-03 0. -1.
        -11    1    3    3    0    0 -0.17329684471E+01 -0.75572469039E+01 -0.21602708027E+02  0.22951953180E+02  0.51100000000E-03 0.  1.
        -12    1    3    3    0    0 -0.44751608512E+01  0.85028674086E+01 -0.21057890505E+02  0.23146502356E+02  0.00000000000E+00 0.  1.
</event>
<event>
 7    1  0.4519840E-010  0.4778728E+02  0.7816164E-02  0.1312668E+00
        -11   -1    0    0    0    0  0.00000000000E+00  0.00000000000E+00  0.45593999997E+02  0.45594000000E+02  0.51100000000E-03 0. -1.
         11   -1    0    0    0    0 -0.00000000000E+00 -0.00000000000E+00 -0.45593999997E+02  0.45594000000E+02  0.51100000000E-03 0.  1.
    9900012    2    1    2    0    0  0.35260036713E+02 -0.77036062704E+01  0.24104084161E+02  0.47787278672E+02  0.20000034778E+02 0.  0.
        -12    1    1    2    0    0 -0.35260036713E+02  0.77036062704E+01 -0.24104084161E+02  0.43400721328E+02  0.00000000000E+00 0.  1.
         11    1    3    3    0    0  0.81438216663E+01  0.34016572723E+01  0.17628617210E+01  0.90000436243E+01  0.51100000000E-03 0. -1.
        -11    1    3    3    0    0  0.66914097535E+01  0.22414229943E+01  0.30702439301E+01  0.76958001260E+01  0.51100000000E-03 0.  1.
         12    1    3    3    0    0  0.20424805293E+02 -0.13346686537E+02  0.19270978510E+02  0.31091434922E+02  0.00000000000E+00 0. -1.
</event>
<event>
 7    1  0.4519840E-010  0.4778726E+02  0.7816164E-02  0.1312668E+00
        -11   -1    0    0    0    0  0.00000000000E+00  0.00000000000E+00  0.45593999997E+02  0.45594000000E+02  0.51100000000E-03 0. -1.
         11   -1    0    0    0    0 -0.00000000000E+00 -0.00000000000E+00 -0.45593999997E+02  0.45594000000E+02  0.51100000000E-03 0.  1.
    9900012    2    1    2    0    0 -0.93568701967E+01  0.16747708282E+02 -0.38930549492E+02  0.47787257653E+02  0.19999938942E+02 0.  0.
         12    1    1    2    0    0  0.93568701967E+01 -0.16747708282E+02  0.38930549492E+02  0.43400742347E+02  0.00000000000E+00 0. -1.
         11    1    3    3    0    0 -0.46564693872E+01  0.16699056278E+01 -0.32543638088E+00  0.49575398192E+01  0.51100000000E-03 0.  1.
        -11    1    3    3    0    0  0.29261153907E+01  0.33613466488E+01 -0.74390045218E+01  0.86717697795E+01  0.51100000000E-03 0. -1.
        -12    1    3    3    0    0 -0.76265162002E+01  0.11716456006E+02 -0.31166108589E+02  0.34157948054E+02  0.00000000000E+00 0.  1.
</event>
<event>
 7    1  0.5857965E-010  0.4778726E+02  0.7816164E-02  0.1312668E+00
        -11   -1    0    0    0    0  0.00000000000E+00  0.00000000000E+00  0.45593999997E+02  0.45594000000E+02  0.51100000000E-03 0. -1.
         11   -1    0    0    0    0 -0.00000000000E+00 -0.00000000000E+00 -0.45593999997E+02  0.45594000000E+02  0.51100000000E-03 0.  1.
    9900012    2    1    2    0    0  0.17728988843E+02  0.33220831888E+01 -0.39474938475E+02  0.47787262107E+02  0.19999959249E+02 0.  0.
         12    1    1    2    0    0 -0.17728988843E+02 -0.33220831888E+01  0.39474938475E+02  0.43400737893E+02  0.00000000000E+00 0. -1.
         11    1    3    3    0    0  0.50692284261E+01 -0.18488703001E+01 -0.33237042769E+01  0.63373818414E+01  0.51100000000E-03 0. -1.
        -11    1    3    3    0    0  0.24155011141E+01 -0.44716730120E+01 -0.44037314525E+01  0.67248313083E+01  0.51100000000E-03 0.  1.
        -12    1    3    3    0    0  0.10244259303E+02  0.96426265009E+01 -0.31747502745E+02  0.34725048957E+02  0.00000000000E+00 0.  1.
</event>
<event>
 7    1  0.4519840E-010  0.4778727E+02  0.7816164E-02  0.1312668E+00
        -11   -1    0    0    0    0  0.00000000000E+00  0.00000000000E+00  0.45593999997E+02  0.45594000000E+02  0.51100000000E-03 0. -1.
         11   -1    0    0    0    0 -0.00000000000E+00 -0.00000000000E+00 -0.45593999997E+02  0.45594000000E+02  0.51100000000E-03 0.  1.
    9900012    2    1    2    0    0  0.60287927052E+01 -0.21419181779E+02 -0.37262523110E+02  0.47787270535E+02  0.19999997676E+02 0.  0.
         12    1    1    2    0    0 -0.60287927052E+01  0.21419181779E+02  0.37262523110E+02  0.43400729465E+02  0.00000000000E+00 0. -1.
         11    1    3    3    0    0 -0.13470917591E+01 -0.10715726232E+01 -0.10594040478E+02  0.10732968742E+02  0.51100000000E-03 0. -1.
        -11    1    3    3    0    0  0.49015260279E+01  0.31677798151E+00 -0.49126792088E+01  0.69469218336E+01  0.51100000000E-03 0.  1.
        -12    1    3    3    0    0  0.24743584364E+01 -0.20664387138E+02 -0.21755803423E+02  0.30107379960E+02  0.00000000000E+00 0.  1.
</event>
<event>
 7    1  0.4519840E-010  0.4778726E+02  0.7816164E-02  0.1312668E+00
        -11   -1    0    0    0    0  0.00000000000E+00  0.00000000000E+00  0.45593999997E+02  0.45594000000E+02  0.51100000000E-03 0. -1.
         11   -1    0    0    0    0 -0.00000000000E+00 -0.00000000000E+00 -0.45593999997E+02  0.45594000000E+02  0.51100000000E-03 0.  1.
    9900012    2    1    2    0    0 -0.18508580907E+02 -0.84969393691E+01 -0.38325689855E+02  0.47787262118E+02  0.19999959299E+02 0.  0.
         12    1    1    2    0    0  0.18508580907E+02  0.84969393691E+01  0.38325689855E+02  0.43400737882E+02  0.00000000000E+00 0. -1.
         11    1    3    3    0    0 -0.72886422951E+01  0.51325939062E-01 -0.60603857509E+01  0.94791991522E+01  0.51100000000E-03 0. -1.
        -11    1    3    3    0    0 -0.43066199993E+01 -0.63823693885E+01 -0.31736033047E+01  0.83278672556E+01  0.51100000000E-03 0.  1.
         12    1    3    3    0    0 -0.69133186124E+01 -0.21658959197E+01 -0.29091700800E+02  0.29980195710E+02  0.00000000000E+00 0. -1.
</event>
<event>
 7    1  0.4519840E-010  0.4778727E+02  0.7816164E-02  0.1312668E+00
        -11   -1    0    0    0    0  0.00000000000E+00  0.00000000000E+00  0.45593999997E+02  0.45594000000E+02  0.51100000000E-03 0. -1.
         11   -1    0    0    0    0 -0.00000000000E+00 -0.00000000000E+00 -0.45593999997E+02  0.45594000000E+02  0.51100000000E-03 0.  1.
    9900012    2    1    2    0    0  0.18280523136E+02  0.85341529493E+01  0.38426733476E+02  0.47787272606E+02  0.20000007122E+02 0.  0.
        -12    1    1    2    0    0 -0.18280523136E+02 -0.85341529493E+01 -0.38426733476E+02  0.43400727394E+02  0.00000000000E+00 0.  1.
         11    1    3    3    0    0  0.15594627591E+02  0.53064408108E+01  0.22258010312E+02  0.27690607560E+02  0.51100000000E-03 0. -1.
        -11    1    3    3    0    0  0.32260364176E+01 -0.21264106269E+01  0.98475912191E+00  0.39873153764E+01  0.51100000000E-03 0.  1.
         12    1    3    3    0    0 -0.54014087225E+00  0.53541227654E+01  0.15183964042E+02  0.16109349670E+02  0.00000000000E+00 0. -1.
</event>
<event>
 7    1  0.4519840E-010  0.4778727E+02  0.7816164E-02  0.1312668E+00
        -11   -1    0    0    0    0  0.00000000000E+00  0.00000000000E+00  0.45593999997E+02  0.45594000000E+02  0.51100000000E-03 0. -1.
         11   -1    0    0    0    0 -0.00000000000E+00 -0.00000000000E+00 -0.45593999997E+02  0.45594000000E+02  0.51100000000E-03 0.  1.
    9900012    2    1    2    0    0  0.38719548996E+02  0.67715850984E+01  0.18400151308E+02  0.47787269506E+02  0.19999992987E+02 0.  0.
        -12    1    1    2    0    0 -0.38719548996E+02 -0.67715850984E+01 -0.18400151308E+02  0.43400730494E+02  0.00000000000E+00 0.  1.
         11    1    3    3    0    0  0.14068746213E+02  0.97636870297E+01  0.78070132533E+01  0.18820431999E+02  0.51100000000E-03 0.  1.
        -11    1    3    3    0    0  0.50901265844E+01  0.33048568262E+01  0.44283923405E+01  0.75127974996E+01  0.51100000000E-03 0. -1.
        -12    1    3    3    0    0  0.19560676198E+02 -0.62969587575E+01  0.61647457145E+01  0.21454040008E+02  0.00000000000E+00 0.  1.
</event>
<event>
 7    1  0.4519840E-010  0.4778727E+02  0.7816164E-02  0.1312668E+00
        -11   -1    0    0    0    0  0.00000000000E+00  0.00000000000E+00  0.45593999997E+02  0.45594000000E+02  0.51100000000E-03 0. -1.
         11   -1    0    0    0    0 -0.00000000000E+00 -0.00000000000E+00 -0.45593999997E+02  0.45594000000E+02  0.51100000000E-03 0.  1.
    9900012    2    1    2    0    0  0.39255394791E+02  0.13713551701E+02 -0.12432861447E+02  0.47787267700E+02  0.19999984751E+02 0.  0.
         12    1    1    2    0    0 -0.39255394791E+02 -0.13713551701E+02  0.12432861447E+02  0.43400732300E+02  0.00000000000E+00 0. -1.
         11    1    3    3    0    0  0.29401929358E+00  0.68403602081E+00  0.82401301667E+00  0.11105630714E+01  0.51100000000E-03 0. -1.
        -11    1    3    3    0    0  0.38566974483E+02  0.14416612606E+02 -0.15513145689E+02  0.43998953728E+02  0.51100000000E-03 0.  1.
        -12    1    3    3    0    0  0.39440101473E+00 -0.13870969260E+01  0.22562712251E+01  0.26777509003E+01  0.00000000000E+00 0.  1.
</event>
<event>
 7    1  0.4519840E-010  0.4778727E+02  0.7816164E-02  0.1312668E+00
        -11   -1    0    0    0    0  0.00000000000E+00  0.00000000000E+00  0.45593999997E+02  0.45594000000E+02  0.51100000000E-03 0. -1.
         11   -1    0    0    0    0 -0.00000000000E+00 -0.00000000000E+00 -0.45593999997E+02  0.45594000000E+02  0.51100000000E-03 0.  1.
    9900012    2    1    2    0    0 -0.27611659632E+02  0.10294255161E+01  0.33468789264E+02  0.47787270520E+02  0.19999997611E+02 0.  0.
        -12    1    1    2    0    0  0.27611659632E+02 -0.10294255161E+01 -0.33468789264E+02  0.43400729480E+02  0.00000000000E+00 0.  1.
         11    1    3    3    0    0 -0.89374228217E+01 -0.38115644343E+01  0.24319794470E+02  0.26188889886E+02  0.51100000000E-03 0. -1.
        -11    1    3    3    0    0 -0.74745970123E+01  0.71016474911E+00  0.23844576344E+01  0.78777898512E+01  0.51100000000E-03 0.  1.
        -12    1    3    3    0    0 -0.11199639798E+02  0.41308252013E+01  0.67645371597E+01  0.13720590783E+02  0.00000000000E+00 0.  1.
</event>
<event>
 7    1  0.4519840E-010  0.4778732E+02  0.7816164E-02  0.1312668E+00
        -11   -1    0    0    0    0  0.00000000000E+00  0.00000000000E+00  0.45593999997E+02  0.45594000000E+02  0.51100000000E-03 0. -1.
         11   -1    0    0    0    0 -0.00000000000E+00 -0.00000000000E+00 -0.45593999997E+02  0.45594000000E+02  0.51100000000E-03 0.  1.
    9900012    2    1    2    0    0 -0.28191899422E+02 -0.24383248913E+00 -0.32996609047E+02  0.47787321942E+02  0.20000232061E+02 0.  0.
         12    1    1    2    0    0  0.28191899422E+02  0.24383248913E+00  0.32996609047E+02  0.43400678058E+02  0.00000000000E+00 0. -1.
         11    1    3    3    0    0 -0.73387551122E+01  0.33617458816E+00 -0.29186227144E+01  0.79049793650E+01  0.51100000000E-03 0. -1.
        -11    1    3    3    0    0 -0.17773463147E+02  0.58886067326E+01 -0.24310155007E+02  0.30684773394E+02  0.51100000000E-03 0.  1.
         12    1    3    3    0    0 -0.30796811627E+01 -0.64686138098E+01 -0.57678313252E+01  0.91975691832E+01  0.00000000000E+00 0. -1.
</event>
<event>
 7    1  0.4519840E-010  0.4778727E+02  0.7816164E-02  0.1312668E+00
        -11   -1    0    0    0    0  0.00000000000E+00  0.00000000000E+00  0.45593999997E+02  0.45594000000E+02  0.51100000000E-03 0. -1.
         11   -1    0    0    0    0 -0.00000000000E+00 -0.00000000000E+00 -0.45593999997E+02  0.45594000000E+02  0.51100000000E-03 0.  1.
    9900012    2    1    2    0    0 -0.38338957849E+02  0.91307158619E+01 -0.18176294582E+02  0.47787270216E+02  0.19999996222E+02 0.  0.
         12    1    1    2    0    0  0.38338957849E+02 -0.91307158619E+01  0.18176294582E+02  0.43400729784E+02  0.00000000000E+00 0. -1.
         11    1    3    3    0    0 -0.70827095907E+01 -0.42425780636E+01 -0.12570032282E+01  0.83513053560E+01  0.51100000000E-03 0. -1.
        -11    1    3    3    0    0 -0.16433479507E+02  0.30298282741E+01 -0.38977184490E+01  0.17159001062E+02  0.51100000000E-03 0.  1.
         12    1    3    3    0    0 -0.14822768751E+02  0.10343465651E+02 -0.13021572905E+02  0.22276963798E+02  0.00000000000E+00 0. -1.
</event>
<event>
 7    1  0.4519840E-010  0.4778727E+02  0.7816164E-02  0.1312668E+00
        -11   -1    0    0    0    0  0.00000000000E+00  0.00000000000E+00  0.45593999997E+02  0.45594000000E+02  0.51100000000E-03 0. -1.
         11   -1    0    0    0    0 -0.00000000000E+00 -0.00000000000E+00 -0.45593999997E+02  0.45594000000E+02  0.51100000000E-03 0.  1.
    9900012    2    1    2    0    0 -0.25493526433E+02  0.82278972137E+01 -0.34146818746E+02  0.47787269441E+02  0.19999992691E+02 0.  0.
         12    1    1    2    0    0  0.25493526433E+02 -0.82278972137E+01  0.34146818746E+02  0.43400730559E+02  0.00000000000E+00 0. -1.
         11    1    3    3    0    0 -0.71998617508E+00 -0.32285359769E+00  0.88114050332E+00  0.11828031897E+01  0.51100000000E-03 0. -1.
        -11    1    3    3    0    0 -0.26263513073E+02  0.85017337623E+01 -0.27627983765E+02  0.39055820092E+02  0.51100000000E-03 0.  1.
        -12    1    3    3    0    0  0.14899728155E+01  0.49017049089E-01 -0.73999754848E+01  0.75486461593E+01  0.00000000000E+00 0.  1.
</event>
<event>
 7    1  0.5507659E-010  0.4778727E+02  0.7816164E-02  0.1312668E+00
        -11   -1    0    0    0    0  0.00000000000E+00  0.00000000000E+00  0.45593999997E+02  0.45594000000E+02  0.51100000000E-03 0. -1.
         11   -1    0    0    0    0 -0.00000000000E+00 -0.00000000000E+00 -0.45593999997E+02  0.45594000000E+02  0.51100000000E-03 0.  1.
    9900012    2    1    2    0    0 -0.11042701693E+02  0.15908383794E+02 -0.38840768609E+02  0.47787271415E+02  0.20000001688E+02 0.  0.
         12    1    1    2    0    0  0.11042701693E+02 -0.15908383794E+02  0.38840768609E+02  0.43400728585E+02  0.00000000000E+00 0. -1.
         11    1    3    3    0    0 -0.75360218795E+01  0.58790062368E+01 -0.52477349592E+01  0.10903809544E+02  0.51100000000E-03 0. -1.
        -11    1    3    3    0    0 -0.20214539491E+01 -0.16598856067E+01 -0.24422208449E+01  0.35785386978E+01  0.51100000000E-03 0.  1.
        -12    1    3    3    0    0 -0.14852258642E+01  0.11689263164E+02 -0.31150812805E+02  0.33304923173E+02  0.00000000000E+00 0.  1.
</event>
<event>
 7    1  0.4519840E-010  0.4778727E+02  0.7816164E-02  0.1312668E+00
        -11   -1    0    0    0    0  0.00000000000E+00  0.00000000000E+00  0.45593999997E+02  0.45594000000E+02  0.51100000000E-03 0. -1.
         11   -1    0    0    0    0 -0.00000000000E+00 -0.00000000000E+00 -0.45593999997E+02  0.45594000000E+02  0.51100000000E-03 0.  1.
    9900012    2    1    2    0    0  0.70296385450E+01 -0.12262143195E+02  0.41034709311E+02  0.47787270259E+02  0.19999996419E+02 0.  0.
        -12    1    1    2    0    0 -0.70296385450E+01  0.12262143195E+02 -0.41034709311E+02  0.43400729741E+02  0.00000000000E+00 0.  1.
         11    1    3    3    0    0 -0.40610259628E+00  0.12150514224E+01  0.41001616126E+00  0.13451330014E+01  0.51100000000E-03 0. -1.
        -11    1    3    3    0    0  0.14711081954E+01 -0.15792446619E+01 -0.12562519819E+01  0.24972669717E+01  0.51100000000E-03 0.  1.
         12    1    3    3    0    0  0.59646329459E+01 -0.11897949956E+02  0.41880945132E+02  0.43944870286E+02  0.00000000000E+00 0. -1.
</event>
<event>
 7    1  0.4519840E-010  0.4778723E+02  0.7816164E-02  0.1312668E+00
        -11   -1    0    0    0    0  0.00000000000E+00  0.00000000000E+00  0.45593999997E+02  0.45594000000E+02  0.51100000000E-03 0. -1.
         11   -1    0    0    0    0 -0.00000000000E+00 -0.00000000000E+00 -0.45593999997E+02  0.45594000000E+02  0.51100000000E-03 0.  1.
    9900012    2    1    2    0    0  0.17516869264E+02 -0.22934359795E+02 -0.32416061104E+02  0.47787232893E+02  0.19999826049E+02 0.  0.
         12    1    1    2    0    0 -0.17516869264E+02  0.22934359795E+02  0.32416061104E+02  0.43400767107E+02  0.00000000000E+00 0. -1.
         11    1    3    3    0    0  0.10570294706E+02 -0.70711432081E+01 -0.19874481517E+02  0.23595067542E+02  0.51100000000E-03 0. -1.
        -11    1    3    3    0    0  0.56583579691E+01 -0.14322437858E+01 -0.57414610622E+01  0.81873507655E+01  0.51100000000E-03 0.  1.
        -12    1    3    3    0    0  0.12882165882E+01 -0.14430972801E+02 -0.68001185247E+01  0.16004814585E+02  0.00000000000E+00 0.  1.
</event>
<event>
 7    1  0.4519840E-010  0.4778727E+02  0.7816164E-02  0.1312668E+00
        -11   -1    0    0    0    0  0.00000000000E+00  0.00000000000E+00  0.45593999997E+02  0.45594000000E+02  0.51100000000E-03 0.  1.
         11   -1    0    0    0    0 -0.00000000000E+00 -0.00000000000E+00 -0.45593999997E+02  0.45594000000E+02  0.51100000000E-03 0. -1.
    9900012    2    1    2    0    0  0.34651945927E+02  0.25742265332E+02 -0.44946312886E+01  0.47787270843E+02  0.19999999081E+02 0.  0.
        -12    1    1    2    0    0 -0.34651945927E+02 -0.25742265332E+02  0.44946312886E+01  0.43400729157E+02  0.00000000000E+00 0.  1.
         11    1    3    3    0    0 -0.14276460993E+00  0.40519246374E+01  0.62812153023E+00  0.41028053718E+01  0.51100000000E-03 0. -1.
        -11    1    3    3    0    0 -0.13751071209E+01  0.11139936458E+01 -0.17467605572E+00  0.17783175820E+01  0.51100000000E-03 0.  1.
         12    1    3    3    0    0  0.36169817657E+02  0.20576347049E+02 -0.49480767632E+01  0.41906147889E+02  0.00000000000E+00 0. -1.
</event>
<event>
 7    1  0.4519840E-010  0.4778727E+02  0.7816164E-02  0.1312668E+00
        -11   -1    0    0    0    0  0.00000000000E+00  0.00000000000E+00  0.45593999997E+02  0.45594000000E+02  0.51100000000E-03 0. -1.
         11   -1    0    0    0    0 -0.00000000000E+00 -0.00000000000E+00 -0.45593999997E+02  0.45594000000E+02  0.51100000000E-03 0.  1.
    9900012    2    1    2    0    0 -0.17287881301E+02 -0.23322874368E+02  0.32261372336E+02  0.47787268973E+02  0.19999990555E+02 0.  0.
        -12    1    1    2    0    0  0.17287881301E+02  0.23322874368E+02 -0.32261372336E+02  0.43400731027E+02  0.00000000000E+00 0.  1.
         11    1    3    3    0    0  0.14522213430E+00 -0.68383600331E+01  0.76019542973E+01  0.10226141345E+02  0.51100000000E-03 0. -1.
        -11    1    3    3    0    0 -0.10334193130E+01  0.25314267617E+01  0.63128037982E+00  0.28061703629E+01  0.51100000000E-03 0.  1.
         12    1    3    3    0    0 -0.16399684123E+02 -0.19015941097E+02  0.24028137659E+02  0.34754957265E+02  0.00000000000E+00 0. -1.
</event>
<event>
 7    1  0.4519840E-010  0.4778724E+02  0.7816164E-02  0.1312668E+00
        -11   -1    0    0    0    0  0.00000000000E+00  0.00000000000E+00  0.45593999997E+02  0.45594000000E+02  0.51100000000E-03 0. -1.
         11   -1    0    0    0    0 -0.00000000000E+00 -0.00000000000E+00 -0.45593999997E+02  0.45594000000E+02  0.51100000000E-03 0.  1.
    9900012    2    1    2    0    0 -0.38009602824E+02  0.17955095792E+02  0.10794006211E+02  0.47787240308E+02  0.19999859859E+02 0.  0.
        -12    1    1    2    0    0  0.38009602824E+02 -0.17955095792E+02 -0.10794006211E+02  0.43400759692E+02  0.00000000000E+00 0.  1.
         11    1    3    3    0    0  0.29800989157E+00 -0.11524614944E+01 -0.92096216579E+00  0.15050411834E+01  0.51100000000E-03 0. -1.
        -11    1    3    3    0    0 -0.17049146105E+02  0.94702644146E+01 -0.13212839415E+01  0.19547508345E+02  0.51100000000E-03 0.  1.
         12    1    3    3    0    0 -0.21258466611E+02  0.96372928717E+01  0.13036252319E+02  0.26734690779E+02  0.00000000000E+00 0. -1.
</event>
<event>
 7    1  0.4519840E-010  0.4778727E+02  0.7816164E-02  0.1312668E+00
        -11   -1    0    0    0    0  0.00000000000E+00  0.00000000000E+00  0.45593999997E+02  0.45594000000E+02  0.51100000000E-03 0. -1.
         11   -1    0    0    0    0 -0.00000000000E+00 -0.00000000000E+00 -0.45593999997E+02  0.45594000000E+02  0.51100000000E-03 0.  1.
    9900012    2    1    2    0    0  0.21096456541E+02 -0.18386290522E+02  0.33173895055E+02  0.47787268775E+02  0.19999989654E+02 0.  0.
        -12    1    1    2    0    0 -0.21096456541E+02  0.18386290522E+02 -0.33173895055E+02  0.43400731225E+02  0.00000000000E+00 0.  1.
         11    1    3    3    0    0  0.39870438905E+00  0.10599011916E+01  0.22582619863E+01  0.25262824834E+01  0.51100000000E-03 0. -1.
        -11    1    3    3    0    0  0.19501697007E+01  0.23068809257E+01 -0.60476593895E-01  0.30213439306E+01  0.51100000000E-03 0.  1.
         12    1    3    3    0    0  0.18747582451E+02 -0.21753072639E+02  0.30976109662E+02  0.42239642361E+02  0.00000000000E+00 0. -1.
</event>
<event>
 7    1  0.4519840E-010  0.4778727E+02  0.7816164E-02  0.1312668E+00
        -11   -1    0    0    0    0  0.00000000000E+00  0.00000000000E+00  0.45593999997E+02  0.45594000000E+02  0.51100000000E-03 0.  1.
         11   -1    0    0    0    0 -0.00000000000E+00 -0.00000000000E+00 -0.45593999997E+02  0.45594000000E+02  0.51100000000E-03 0. -1.
    9900012    2    1    2    0    0 -0.11024231195E+02 -0.39959058844E+02 -0.12859354590E+02  0.47787273536E+02  0.20000011359E+02 0.  0.
        -12    1    1    2    0    0  0.11024231195E+02  0.39959058844E+02  0.12859354590E+02  0.43400726464E+02  0.00000000000E+00 0.  1.
         11    1    3    3    0    0 -0.41788379649E+01 -0.80489863897E+01 -0.17985310393E+00  0.90708994063E+01  0.51100000000E-03 0. -1.
        -11    1    3    3    0    0 -0.66598000408E+00 -0.24208300028E+02 -0.15113458583E+02  0.28546487529E+02  0.51100000000E-03 0.  1.
        -12    1    3    3    0    0 -0.61794132256E+01 -0.77017724263E+01  0.24339570969E+01  0.10169886601E+02  0.00000000000E+00 0.  1.
</event>
<event>
 7    1  0.4519840E-010  0.4778727E+02  0.7816164E-02  0.1312668E+00
        -11   -1    0    0    0    0  0.00000000000E+00  0.00000000000E+00  0.45593999997E+02  0.45594000000E+02  0.51100000000E-03 0. -1.
         11   -1    0    0    0    0 -0.00000000000E+00 -0.00000000000E+00 -0.45593999997E+02  0.45594000000E+02  0.51100000000E-03 0.  1.
    9900012    2    1    2    0    0  0.30839883011E+02  0.48637854277E+01 -0.30147450926E+02  0.47787267401E+02  0.19999983388E+02 0.  0.
         12    1    1    2    0    0 -0.30839883011E+02 -0.48637854277E+01  0.30147450926E+02  0.43400732599E+02  0.00000000000E+00 0. -1.
         11    1    3    3    0    0  0.21154086663E+01 -0.19822720672E+00 -0.13530462444E+02  0.13696264529E+02  0.51100000000E-03 0. -1.
        -11    1    3    3    0    0  0.10438603743E+02  0.27872810838E+01 -0.93315054549E+01  0.14276217225E+02  0.51100000000E-03 0.  1.
         12    1    3    3    0    0  0.18285870602E+02  0.22747315506E+01 -0.72854830270E+01  0.19814785647E+02  0.00000000000E+00 0. -1.
</event>
<event>
 7    1  0.4519840E-010  0.4778727E+02  0.7816164E-02  0.1312668E+00
        -11   -1    0    0    0    0  0.00000000000E+00  0.00000000000E+00  0.45593999997E+02  0.45594000000E+02  0.51100000000E-03 0. -1.
         11   -1    0    0    0    0 -0.00000000000E+00 -0.00000000000E+00 -0.45593999997E+02  0.45594000000E+02  0.51100000000E-03 0.  1.
    9900012    2    1    2    0    0  0.31243339370E+02 -0.85363561942E+01 -0.28889581696E+02  0.47787267718E+02  0.19999984833E+02 0.  0.
         12    1    1    2    0    0 -0.31243339370E+02  0.85363561942E+01  0.28889581696E+02  0.43400732282E+02  0.00000000000E+00 0. -1.
         11    1    3    3    0    0  0.97042564203E+01 -0.67140894233E+01 -0.10946433073E+02  0.16095837559E+02  0.51100000000E-03 0. -1.
        -11    1    3    3    0    0  0.55527161196E+01 -0.50622838913E+01 -0.97745986410E-01  0.75145810955E+01  0.51100000000E-03 0.  1.
        -12    1    3    3    0    0  0.15986366830E+02  0.32400171204E+01 -0.17845402636E+02  0.24176849063E+02  0.00000000000E+00 0.  1.
</event>
<event>
 7    1  0.4519840E-010  0.4778728E+02  0.7816164E-02  0.1312668E+00
        -11   -1    0    0    0    0  0.00000000000E+00  0.00000000000E+00  0.45593999997E+02  0.45594000000E+02  0.51100000000E-03 0. -1.
         11   -1    0    0    0    0 -0.00000000000E+00 -0.00000000000E+00 -0.45593999997E+02  0.45594000000E+02  0.51100000000E-03 0.  1.
    9900012    2    1    2    0    0  0.10221416940E+02 -0.26223595938E+02  0.33037377660E+02  0.47787277992E+02  0.20000031677E+02 0.  0.
        -12    1    1    2    0    0 -0.10221416940E+02  0.26223595938E+02 -0.33037377660E+02  0.43400722008E+02  0.00000000000E+00 0.  1.
         11    1    3    3    0    0  0.77629937376E+01 -0.21302823500E+02  0.27474966580E+02  0.35622298490E+02  0.51100000000E-03 0. -1.
        -11    1    3    3    0    0 -0.16558211737E+01 -0.41879240551E+00  0.58153543403E+01  0.60609798880E+01  0.51100000000E-03 0.  1.
         12    1    3    3    0    0  0.41142443763E+01 -0.45019800323E+01 -0.25294326066E+00  0.61039996143E+01  0.00000000000E+00 0. -1.
</event>
<event>
 7    1  0.4519840E-010  0.4778727E+02  0.7816164E-02  0.1312668E+00
        -11   -1    0    0    0    0  0.00000000000E+00  0.00000000000E+00  0.45593999997E+02  0.45594000000E+02  0.51100000000E-03 0. -1.
         11   -1    0    0    0    0 -0.00000000000E+00 -0.00000000000E+00 -0.45593999997E+02  0.45594000000E+02  0.51100000000E-03 0.  1.
    9900012    2    1    2    0    0 -0.31258159905E+02  0.79295135518E+01 -0.29046063157E+02  0.47787268085E+02  0.19999986508E+02 0.  0.
         12    1    1    2    0    0  0.31258159905E+02 -0.79295135518E+01  0.29046063157E+02  0.43400731915E+02  0.00000000000E+00 0. -1.
         11    1    3    3    0    0 -0.53946426256E+01  0.42101877327E+01 -0.84847799866E+01  0.10900428500E+02  0.51100000000E-03 0. -1.
        -11    1    3    3    0    0 -0.13553026088E+02 -0.36443865781E+01 -0.17115840978E+02  0.22134093212E+02  0.51100000000E-03 0.  1.
         12    1    3    3    0    0 -0.12310491192E+02  0.73637123972E+01 -0.34454421915E+01  0.14752746373E+02  0.00000000000E+00 0. -1.
</event>
<event>
 7    1  0.4519840E-010  0.4778725E+02  0.7816164E-02  0.1312668E+00
        -11   -1    0    0    0    0  0.00000000000E+00  0.00000000000E+00  0.45593999997E+02  0.45594000000E+02  0.51100000000E-03 0.  1.
         11   -1    0    0    0    0 -0.00000000000E+00 -0.00000000000E+00 -0.45593999997E+02  0.45594000000E+02  0.51100000000E-03 0. -1.
    9900012    2    1    2    0    0 -0.12824057495E+02 -0.40048024424E+02  0.10738903636E+02  0.47787253898E+02  0.19999921823E+02 0.  0.
         12    1    1    2    0    0  0.12824057495E+02  0.40048024424E+02 -0.10738903636E+02  0.43400746102E+02  0.00000000000E+00 0. -1.
         11    1    3    3    0    0  0.22544508077E+01 -0.12313857390E+01  0.64419375314E+00  0.26483665032E+01  0.51100000000E-03 0. -1.
        -11    1    3    3    0    0 -0.12811457625E+02 -0.26935412111E+02  0.72001855624E+00  0.29835688346E+02  0.51100000000E-03 0.  1.
         12    1    3    3    0    0 -0.22670506780E+01 -0.11881226574E+02  0.93746913265E+01  0.15303199049E+02  0.00000000000E+00 0. -1.
</event>
<event>
 7    1  0.6313914E-010  0.4778727E+02  0.7816164E-02  0.1312668E+00
        -11   -1    0    0    0    0  0.00000000000E+00  0.00000000000E+00  0.45593999997E+02  0.45594000000E+02  0.51100000000E-03 0. -1.
         11   -1    0    0    0    0 -0.00000000000E+00 -0.00000000000E+00 -0.45593999997E+02  0.45594000000E+02  0.51100000000E-03 0.  1.
    9900012    2    1    2    0    0  0.21620759358E+02  0.12695635740E+02 -0.35425797595E+02  0.47787268009E+02  0.19999986162E+02 0.  0.
         12    1    1    2    0    0 -0.21620759358E+02 -0.12695635740E+02  0.35425797595E+02  0.43400731991E+02  0.00000000000E+00 0. -1.
         11    1    3    3    0    0 -0.11457435756E+01 -0.62194947118E+00 -0.72554696851E+01  0.73716612848E+01  0.51100000000E-03 0. -1.
        -11    1    3    3    0    0  0.40701620334E+01 -0.92468137790E+00 -0.64874527230E+00  0.42239940008E+01  0.51100000000E-03 0.  1.
        -12    1    3    3    0    0  0.18696340900E+02  0.14242266589E+02 -0.27521582638E+02  0.36191612724E+02  0.00000000000E+00 0.  1.
</event>
<event>
 7    1  0.4519840E-010  0.4778728E+02  0.7816164E-02  0.1312668E+00
        -11   -1    0    0    0    0  0.00000000000E+00  0.00000000000E+00  0.45593999997E+02  0.45594000000E+02  0.51100000000E-03 0. -1.
         11   -1    0    0    0    0 -0.00000000000E+00 -0.00000000000E+00 -0.45593999997E+02  0.45594000000E+02  0.51100000000E-03 0.  1.
    9900012    2    1    2    0    0 -0.24452962539E+02 -0.31956902044E+01  0.35713625507E+02  0.47787275817E+02  0.20000021760E+02 0.  0.
        -12    1    1    2    0    0  0.24452962539E+02  0.31956902044E+01 -0.35713625507E+02  0.43400724183E+02  0.00000000000E+00 0.  1.
         11    1    3    3    0    0 -0.46047735361E+01 -0.40946439844E+01 -0.46685725638E+00  0.61796443779E+01  0.51100000000E-03 0.  1.
        -11    1    3    3    0    0 -0.25681546837E+01 -0.51962991356E+00  0.20539722051E+01  0.33292995970E+01  0.51100000000E-03 0. -1.
        -12    1    3    3    0    0 -0.17280034319E+02  0.14185836935E+01  0.34126510558E+02  0.38278331842E+02  0.00000000000E+00 0.  1.
</event>
<event>
 7    1  0.4519840E-010  0.4778727E+02  0.7816164E-02  0.1312668E+00
        -11   -1    0    0    0    0  0.00000000000E+00  0.00000000000E+00  0.45593999997E+02  0.45594000000E+02  0.51100000000E-03 0.  1.
         11   -1    0    0    0    0 -0.00000000000E+00 -0.00000000000E+00 -0.45593999997E+02  0.45594000000E+02  0.51100000000E-03 0. -1.
    9900012    2    1    2    0    0 -0.22841625073E+02 -0.34973830350E+02 -0.11777703552E+02  0.47787274818E+02  0.20000017205E+02 0.  0.
        -12    1    1    2    0    0  0.22841625073E+02  0.34973830350E+02  0.11777703552E+02  0.43400725182E+02  0.00000000000E+00 0.  1.
         11    1    3    3    0    0 -0.51991640141E+01 -0.66391180555E+01 -0.88532964495E+01  0.12226612502E+02  0.51100000000E-03 0. -1.
        -11    1    3    3    0    0 -0.16835006096E+01  0.10224271896E+01 -0.62792082374E+00  0.20673210884E+01  0.51100000000E-03 0.  1.
        -12    1    3    3    0    0 -0.15958960450E+02 -0.29357139484E+02 -0.22964862792E+01  0.33493341227E+02  0.00000000000E+00 0.  1.
</event>
<event>
 7    1  0.4519840E-010  0.4778727E+02  0.7816164E-02  0.1312668E+00
        -11   -1    0    0    0    0  0.00000000000E+00  0.00000000000E+00  0.45593999997E+02  0.45594000000E+02  0.51100000000E-03 0. -1.
         11   -1    0    0    0    0 -0.00000000000E+00 -0.00000000000E+00 -0.45593999997E+02  0.45594000000E+02  0.51100000000E-03 0.  1.
    9900012    2    1    2    0    0  0.19182224478E+02 -0.17742819836E+01 -0.38891098632E+02  0.47787269992E+02  0.19999995200E+02 0.  0.
         12    1    1    2    0    0 -0.19182224478E+02  0.17742819836E+01  0.38891098632E+02  0.43400730008E+02  0.00000000000E+00 0. -1.
         11    1    3    3    0    0  0.20486419394E+02 -0.49472856118E+01 -0.25760331917E+02  0.33283084521E+02  0.51100000000E-03 0. -1.
        -11    1    3    3    0    0  0.16304433243E+01  0.55473396407E+00 -0.17172707810E+01  0.24320967088E+01  0.51100000000E-03 0.  1.
        -12    1    3    3    0    0 -0.29346382404E+01  0.26182696642E+01 -0.11413495934E+02  0.12072088761E+02  0.00000000000E+00 0.  1.
</event>
<event>
 7    1  0.4519840E-010  0.4778728E+02  0.7816164E-02  0.1312668E+00
        -11   -1    0    0    0    0  0.00000000000E+00  0.00000000000E+00  0.45593999997E+02  0.45594000000E+02  0.51100000000E-03 0. -1.
         11   -1    0    0    0    0 -0.00000000000E+00 -0.00000000000E+00 -0.45593999997E+02  0.45594000000E+02  0.51100000000E-03 0.  1.
    9900012    2    1    2    0    0  0.10144575531E+02 -0.21242002465E+01 -0.42144965252E+02  0.47787277247E+02  0.20000028280E+02 0.  0.
         12    1    1    2    0    0 -0.10144575531E+02  0.21242002465E+01  0.42144965252E+02  0.43400722753E+02  0.00000000000E+00 0. -1.
         11    1    3    3    0    0  0.16321111878E+01  0.55281606980E+01 -0.11326246320E+02  0.12708587789E+02  0.51100000000E-03 0. -1.
        -11    1    3    3    0    0  0.45759831480E+01 -0.17273413195E+01 -0.26072175061E+02  0.26526998369E+02  0.51100000000E-03 0.  1.
         12    1    3    3    0    0  0.39364811956E+01 -0.59250196250E+01 -0.47465438709E+01  0.85516910888E+01  0.00000000000E+00 0. -1.
</event>
<event>
 7    1  0.4519840E-010  0.4778727E+02  0.7816164E-02  0.1312668E+00
        -11   -1    0    0    0    0  0.00000000000E+00  0.00000000000E+00  0.45593999997E+02  0.45594000000E+02  0.51100000000E-03 0. -1.
         11   -1    0    0    0    0 -0.00000000000E+00 -0.00000000000E+00 -0.45593999997E+02  0.45594000000E+02  0.51100000000E-03 0.  1.
    9900012    2    1    2    0    0  0.51424737315E+01  0.16927797371E+02 -0.39631148872E+02  0.47787270504E+02  0.19999997536E+02 0.  0.
         12    1    1    2    0    0 -0.51424737315E+01 -0.16927797371E+02  0.39631148872E+02  0.43400729496E+02  0.00000000000E+00 0. -1.
         11    1    3    3    0    0  0.77079608798E+01 -0.10492368007E+01 -0.16048480743E+02  0.17834441208E+02  0.51100000000E-03 0.  1.
        -11    1    3    3    0    0 -0.44379550155E+00  0.80251314998E+01 -0.79859415005E+01  0.11330267073E+02  0.51100000000E-03 0. -1.
        -12    1    3    3    0    0 -0.21216916467E+01  0.99519026716E+01 -0.15596726628E+02  0.18622562223E+02  0.00000000000E+00 0.  1.
</event>
<event>
 7    1  0.4519840E-010  0.4778727E+02  0.7816164E-02  0.1312668E+00
        -11   -1    0    0    0    0  0.00000000000E+00  0.00000000000E+00  0.45593999997E+02  0.45594000000E+02  0.51100000000E-03 0.  1.
         11   -1    0    0    0    0 -0.00000000000E+00 -0.00000000000E+00 -0.45593999997E+02  0.45594000000E+02  0.51100000000E-03 0. -1.
    9900012    2    1    2    0    0 -0.39122374694E+02  0.11715703167E+02  0.14690313335E+02  0.47787271800E+02  0.20000003447E+02 0.  0.
         12    1    1    2    0    0  0.39122374694E+02 -0.11715703167E+02 -0.14690313335E+02  0.43400728200E+02  0.00000000000E+00 0. -1.
         11    1    3    3    0    0 -0.89107640918E+01  0.10495169927E+01  0.55811153146E+01  0.10566553413E+02  0.51100000000E-03 0. -1.
        -11    1    3    3    0    0 -0.30452164110E+02  0.73066320704E+01  0.46921802790E+01  0.31666034284E+02  0.51100000000E-03 0.  1.
         12    1    3    3    0    0  0.24055350826E+00  0.33595541035E+01  0.44170177413E+01  0.55546841037E+01  0.00000000000E+00 0. -1.
</event>
<event>
 7    1  0.4519840E-010  0.4778727E+02  0.7816164E-02  0.1312668E+00
        -11   -1    0    0    0    0  0.00000000000E+00  0.00000000000E+00  0.45593999997E+02  0.45594000000E+02  0.51100000000E-03 0. -1.
         11   -1    0    0    0    0 -0.00000000000E+00 -0.00000000000E+00 -0.45593999997E+02  0.45594000000E+02  0.51100000000E-03 0.  1.
    9900012    2    1    2    0    0  0.99491976285E+01  0.22243288793E+02  0.35914797965E+02  0.47787272556E+02  0.20000006894E+02 0.  0.
        -12    1    1    2    0    0 -0.99491976285E+01 -0.22243288793E+02 -0.35914797965E+02  0.43400727444E+02  0.00000000000E+00 0.  1.
         11    1    3    3    0    0 -0.81987882098E+00  0.40377797295E+01  0.80341627451E+01  0.90290441189E+01  0.51100000000E-03 0. -1.
        -11    1    3    3    0    0  0.62901115955E+01  0.17311741726E+02  0.11411651755E+02  0.21667664884E+02  0.51100000000E-03 0.  1.
        -12    1    3    3    0    0  0.44789648541E+01  0.89376733706E+00  0.16468983465E+02  0.17090563554E+02  0.00000000000E+00 0.  1.
</event>
<event>
 7    1  0.4519840E-010  0.4778727E+02  0.7816164E-02  0.1312668E+00
        -11   -1    0    0    0    0  0.00000000000E+00  0.00000000000E+00  0.45593999997E+02  0.45594000000E+02  0.51100000000E-03 0. -1.
         11   -1    0    0    0    0 -0.00000000000E+00 -0.00000000000E+00 -0.45593999997E+02  0.45594000000E+02  0.51100000000E-03 0.  1.
    9900012    2    1    2    0    0  0.16842851130E+02 -0.24433770479E+02  0.31669111017E+02  0.47787269976E+02  0.19999995129E+02 0.  0.
        -12    1    1    2    0    0 -0.16842851130E+02  0.24433770479E+02 -0.31669111017E+02  0.43400730024E+02  0.00000000000E+00 0.  1.
         11    1    3    3    0    0  0.47267176454E+01 -0.18417605155E+01  0.12895861332E+02  0.13857748059E+02  0.51100000000E-03 0. -1.
        -11    1    3    3    0    0 -0.16091789790E+00  0.12767572265E+01  0.16466783007E+01  0.20898691998E+01  0.51100000000E-03 0.  1.
        -12    1    3    3    0    0  0.12277051383E+02 -0.23868767189E+02  0.17126571384E+02  0.31839652718E+02  0.00000000000E+00 0.  1.
</event>
<event>
 7    1  0.4519840E-010  0.4778725E+02  0.7816164E-02  0.1312668E+00
        -11   -1    0    0    0    0  0.00000000000E+00  0.00000000000E+00  0.45593999997E+02  0.45594000000E+02  0.51100000000E-03 0. -1.
         11   -1    0    0    0    0 -0.00000000000E+00 -0.00000000000E+00 -0.45593999997E+02  0.45594000000E+02  0.51100000000E-03 0.  1.
    9900012    2    1    2    0    0 -0.18305738067E+01 -0.79349642907E+01  0.42629920419E+02  0.47787253766E+02  0.19999921220E+02 0.  0.
        -12    1    1    2    0    0  0.18305738067E+01  0.79349642907E+01 -0.42629920419E+02  0.43400746234E+02  0.00000000000E+00 0.  1.
         11    1    3    3    0    0  0.39270460986E+01 -0.51443588532E+01  0.15130810484E+02  0.16456838859E+02  0.51100000000E-03 0. -1.
        -11    1    3    3    0    0  0.42783916735E+01  0.73184925455E+00  0.70084572939E+01  0.82437074514E+01  0.51100000000E-03 0.  1.
         12    1    3    3    0    0 -0.10036011579E+02 -0.35224546921E+01  0.20490652641E+02  0.23086707455E+02  0.00000000000E+00 0. -1.
</event>
<event>
 7    1  0.6018221E-010  0.4778727E+02  0.7816164E-02  0.1312668E+00
        -11   -1    0    0    0    0  0.00000000000E+00  0.00000000000E+00  0.45593999997E+02  0.45594000000E+02  0.51100000000E-03 0. -1.
         11   -1    0    0    0    0 -0.00000000000E+00 -0.00000000000E+00 -0.45593999997E+02  0.45594000000E+02  0.51100000000E-03 0.  1.
    9900012    2    1    2    0    0 -0.36273669386E+02 -0.41262454764E+01 -0.23469517948E+02  0.47787271145E+02  0.20000000460E+02 0.  0.
         12    1    1    2    0    0  0.36273669386E+02  0.41262454764E+01  0.23469517948E+02  0.43400728855E+02  0.00000000000E+00 0. -1.
         11    1    3    3    0    0 -0.27446113157E+01 -0.10127003072E+01  0.21809634475E+01  0.36489799954E+01  0.51100000000E-03 0. -1.
        -11    1    3    3    0    0 -0.10866167665E+02  0.44328857612E+01 -0.58529951886E+01  0.13114176636E+02  0.51100000000E-03 0.  1.
        -12    1    3    3    0    0 -0.22662890405E+02 -0.75464309304E+01 -0.19797486206E+02  0.31024114514E+02  0.00000000000E+00 0.  1.
</event>
<event>
 7    1  0.4519840E-010  0.4778727E+02  0.7816164E-02  0.1312668E+00
        -11   -1    0    0    0    0  0.00000000000E+00  0.00000000000E+00  0.45593999997E+02  0.45594000000E+02  0.51100000000E-03 0. -1.
         11   -1    0    0    0    0 -0.00000000000E+00 -0.00000000000E+00 -0.45593999997E+02  0.45594000000E+02  0.51100000000E-03 0.  1.
    9900012    2    1    2    0    0  0.25409382969E+02  0.15957152894E+01  0.35148835745E+02  0.47787266085E+02  0.19999977386E+02 0.  0.
        -12    1    1    2    0    0 -0.25409382969E+02 -0.15957152894E+01 -0.35148835745E+02  0.43400733915E+02  0.00000000000E+00 0.  1.
         11    1    3    3    0    0  0.14307823213E+02 -0.46049157832E+01  0.11044356361E+02  0.18651993516E+02  0.51100000000E-03 0. -1.
        -11    1    3    3    0    0  0.71563087237E+01 -0.12223128937E+01  0.70408497674E+01  0.10113375750E+02  0.51100000000E-03 0.  1.
        -12    1    3    3    0    0  0.39452510329E+01  0.74229439664E+01  0.17063629617E+02  0.19021896818E+02  0.00000000000E+00 0.  1.
</event>
<event>
 7    1  0.4519840E-010  0.4778725E+02  0.7816164E-02  0.1312668E+00
        -11   -1    0    0    0    0  0.00000000000E+00  0.00000000000E+00  0.45593999997E+02  0.45594000000E+02  0.51100000000E-03 0. -1.
         11   -1    0    0    0    0 -0.00000000000E+00 -0.00000000000E+00 -0.45593999997E+02  0.45594000000E+02  0.51100000000E-03 0.  1.
    9900012    2    1    2    0    0 -0.71996438851E+01 -0.29318688680E+01  0.42698877151E+02  0.47787253036E+02  0.19999917891E+02 0.  0.
        -12    1    1    2    0    0  0.71996438851E+01  0.29318688680E+01 -0.42698877151E+02  0.43400746964E+02  0.00000000000E+00 0.  1.
         11    1    3    3    0    0 -0.68882888163E+00  0.28035249013E+01  0.25470969725E+01  0.38499273173E+01  0.51100000000E-03 0. -1.
        -11    1    3    3    0    0  0.28713119956E+01  0.80743419878E+00  0.99524015671E+00  0.31443418695E+01  0.51100000000E-03 0.  1.
         12    1    3    3    0    0 -0.93821269991E+01 -0.65428279681E+01  0.39156540021E+02  0.40792983849E+02  0.00000000000E+00 0. -1.
</event>
<event>
 7    1  0.4519840E-010  0.4778728E+02  0.7816164E-02  0.1312668E+00
        -11   -1    0    0    0    0  0.00000000000E+00  0.00000000000E+00  0.45593999997E+02  0.45594000000E+02  0.51100000000E-03 0. -1.
         11   -1    0    0    0    0 -0.00000000000E+00 -0.00000000000E+00 -0.45593999997E+02  0.45594000000E+02  0.51100000000E-03 0.  1.
    9900012    2    1    2    0    0  0.38989966230E+02 -0.12092694895E+02  0.14736761659E+02  0.47787275574E+02  0.20000020653E+02 0.  0.
        -12    1    1    2    0    0 -0.38989966230E+02  0.12092694895E+02 -0.14736761659E+02  0.43400724426E+02  0.00000000000E+00 0.  1.
         11    1    3    3    0    0  0.17776820543E+02 -0.90751340785E+01  0.98488219760E+01  0.22256969734E+02  0.51100000000E-03 0. -1.
        -11    1    3    3    0    0  0.53166001442E+01 -0.21472917756E+01  0.74542830328E+01  0.94044369771E+01  0.51100000000E-03 0.  1.
        -12    1    3    3    0    0  0.15896545543E+02 -0.87026904125E+00 -0.25663433495E+01  0.16125868863E+02  0.00000000000E+00 0.  1.
</event>
<event>
 7    1  0.4519840E-010  0.4778727E+02  0.7816164E-02  0.1312668E+00
        -11   -1    0    0    0    0  0.00000000000E+00  0.00000000000E+00  0.45593999997E+02  0.45594000000E+02  0.51100000000E-03 0. -1.
         11   -1    0    0    0    0 -0.00000000000E+00 -0.00000000000E+00 -0.45593999997E+02  0.45594000000E+02  0.51100000000E-03 0.  1.
    9900012    2    1    2    0    0  0.52022473864E+01 -0.42178836077E+02  0.88037463625E+01  0.47787267970E+02  0.19999985985E+02 0.  0.
        -12    1    1    2    0    0 -0.52022473864E+01  0.42178836077E+02 -0.88037463625E+01  0.43400732030E+02  0.00000000000E+00 0.  1.
         11    1    3    3    0    0  0.33087079528E+01 -0.21051281393E+02  0.21299444907E+01  0.21415897375E+02  0.51100000000E-03 0. -1.
        -11    1    3    3    0    0 -0.57963686275E+01 -0.11114553824E+02  0.11408193797E+01  0.12587003817E+02  0.51100000000E-03 0.  1.
         12    1    3    3    0    0  0.76899080611E+01 -0.10013000860E+02  0.55329824921E+01  0.13784366778E+02  0.00000000000E+00 0. -1.
</event>
<event>
 7    1  0.4519840E-010  0.4778727E+02  0.7816164E-02  0.1312668E+00
        -11   -1    0    0    0    0  0.00000000000E+00  0.00000000000E+00  0.45593999997E+02  0.45594000000E+02  0.51100000000E-03 0. -1.
         11   -1    0    0    0    0 -0.00000000000E+00 -0.00000000000E+00 -0.45593999997E+02  0.45594000000E+02  0.51100000000E-03 0.  1.
    9900012    2    1    2    0    0  0.21160671547E+02  0.18603856765E+02  0.33011294831E+02  0.47787273125E+02  0.20000009486E+02 0.  0.
        -12    1    1    2    0    0 -0.21160671547E+02 -0.18603856765E+02 -0.33011294831E+02  0.43400726875E+02  0.00000000000E+00 0.  1.
         11    1    3    3    0    0 -0.23557096430E+01  0.23587750729E+01  0.27490001646E+01  0.43209015185E+01  0.51100000000E-03 0. -1.
        -11    1    3    3    0    0  0.30487911106E+01 -0.20660894782E+01  0.44563508624E+01  0.57812555935E+01  0.51100000000E-03 0.  1.
         12    1    3    3    0    0  0.20467590079E+02  0.18311171170E+02  0.25805943804E+02  0.37685116013E+02  0.00000000000E+00 0. -1.
</event>
<event>
 7    1  0.4519840E-010  0.4778729E+02  0.7816164E-02  0.1312668E+00
        -11   -1    0    0    0    0  0.00000000000E+00  0.00000000000E+00  0.45593999997E+02  0.45594000000E+02  0.51100000000E-03 0. -1.
         11   -1    0    0    0    0 -0.00000000000E+00 -0.00000000000E+00 -0.45593999997E+02  0.45594000000E+02  0.51100000000E-03 0.  1.
    9900012    2    1    2    0    0  0.16339845646E+02 -0.29360370078E+02 -0.27469979420E+02  0.47787289681E+02  0.20000084971E+02 0.  0.
         12    1    1    2    0    0 -0.16339845646E+02  0.29360370078E+02  0.27469979420E+02  0.43400710319E+02  0.00000000000E+00 0. -1.
         11    1    3    3    0    0  0.17343574523E+01 -0.41346988372E+01 -0.11134762911E+02  0.12003610940E+02  0.51100000000E-03 0. -1.
        -11    1    3    3    0    0  0.56220696300E+01 -0.64909710489E+00 -0.32717183230E+01  0.65370585910E+01  0.51100000000E-03 0.  1.
        -12    1    3    3    0    0  0.89834185637E+01 -0.24576574136E+02 -0.13063498186E+02  0.29246620150E+02  0.00000000000E+00 0.  1.
</event>
<event>
 7    1  0.4519840E-010  0.4778727E+02  0.7816164E-02  0.1312668E+00
        -11   -1    0    0    0    0  0.00000000000E+00  0.00000000000E+00  0.45593999997E+02  0.45594000000E+02  0.51100000000E-03 0. -1.
         11   -1    0    0    0    0 -0.00000000000E+00 -0.00000000000E+00 -0.45593999997E+02  0.45594000000E+02  0.51100000000E-03 0.  1.
    9900012    2    1    2    0    0  0.20434805178E+02 -0.12520340021E+02  0.36184016316E+02  0.47787271738E+02  0.20000003161E+02 0.  0.
        -12    1    1    2    0    0 -0.20434805178E+02  0.12520340021E+02 -0.36184016316E+02  0.43400728262E+02  0.00000000000E+00 0.  1.
         11    1    3    3    0    0  0.17796388895E+02 -0.78794366680E+01  0.24916976725E+02  0.31617284976E+02  0.51100000000E-03 0. -1.
        -11    1    3    3    0    0  0.55823389824E+01 -0.14295590464E+01  0.23072950274E+01  0.62072343428E+01  0.51100000000E-03 0.  1.
        -12    1    3    3    0    0 -0.29439226986E+01 -0.32113443062E+01  0.89597445644E+01  0.99627524192E+01  0.00000000000E+00 0.  1.
</event>
<event>
 7    1  0.4519840E-010  0.4778727E+02  0.7816164E-02  0.1312668E+00
        -11   -1    0    0    0    0  0.00000000000E+00  0.00000000000E+00  0.45593999997E+02  0.45594000000E+02  0.51100000000E-03 0. -1.
         11   -1    0    0    0    0 -0.00000000000E+00 -0.00000000000E+00 -0.45593999997E+02  0.45594000000E+02  0.51100000000E-03 0.  1.
    9900012    2    1    2    0    0 -0.40027932385E+02  0.93720006450E+01 -0.13912353909E+02  0.47787270071E+02  0.19999995561E+02 0.  0.
         12    1    1    2    0    0  0.40027932385E+02 -0.93720006450E+01  0.13912353909E+02  0.43400729929E+02  0.00000000000E+00 0. -1.
         11    1    3    3    0    0 -0.21897509185E+02  0.72681356330E+01 -0.11515337452E+02  0.25786230841E+02  0.51100000000E-03 0. -1.
        -11    1    3    3    0    0 -0.83079194452E+01 -0.86335212613E+00 -0.68628450113E+01  0.10810436823E+02  0.51100000000E-03 0.  1.
         12    1    3    3    0    0 -0.98225037544E+01  0.29672171381E+01  0.44658285537E+01  0.11190602406E+02  0.00000000000E+00 0. -1.
</event>
<event>
 7    1  0.5683707E-010  0.4778727E+02  0.7816164E-02  0.1312668E+00
        -11   -1    0    0    0    0  0.00000000000E+00  0.00000000000E+00  0.45593999997E+02  0.45594000000E+02  0.51100000000E-03 0. -1.
         11   -1    0    0    0    0 -0.00000000000E+00 -0.00000000000E+00 -0.45593999997E+02  0.45594000000E+02  0.51100000000E-03 0.  1.
    9900012    2    1    2    0    0  0.24340479549E+01 -0.24642812251E+02 -0.35643099518E+02  0.47787270417E+02  0.19999997140E+02 0.  0.
         12    1    1    2    0    0 -0.24340479549E+01  0.24642812251E+02  0.35643099518E+02  0.43400729583E+02  0.00000000000E+00 0. -1.
         11    1    3    3    0    0  0.31338757269E+01 -0.11820967605E+01  0.12156390936E+00  0.33516127265E+01  0.51100000000E-03 0. -1.
        -11    1    3    3    0    0 -0.33875879305E+01 -0.30489483553E+01 -0.22022082462E+01  0.50617743412E+01  0.51100000000E-03 0.  1.
        -12    1    3    3    0    0  0.26877601585E+01 -0.20411767135E+02 -0.33562455181E+02  0.39373883350E+02  0.00000000000E+00 0.  1.
</event>
<event>
 7    1  0.4519840E-010  0.4778727E+02  0.7816164E-02  0.1312668E+00
        -11   -1    0    0    0    0  0.00000000000E+00  0.00000000000E+00  0.45593999997E+02  0.45594000000E+02  0.51100000000E-03 0. -1.
         11   -1    0    0    0    0 -0.00000000000E+00 -0.00000000000E+00 -0.45593999997E+02  0.45594000000E+02  0.51100000000E-03 0.  1.
    9900012    2    1    2    0    0 -0.26435717637E+02 -0.19057783639E+02 -0.28663165861E+02  0.47787270036E+02  0.19999995403E+02 0.  0.
         12    1    1    2    0    0  0.26435717637E+02  0.19057783639E+02  0.28663165861E+02  0.43400729964E+02  0.00000000000E+00 0. -1.
         11    1    3    3    0    0 -0.10432512443E+02 -0.15761605014E+00 -0.99088484531E+01  0.14389143012E+02  0.51100000000E-03 0. -1.
        -11    1    3    3    0    0 -0.11617382820E+02 -0.42969748388E+01 -0.85575422233E+01  0.15055201942E+02  0.51100000000E-03 0.  1.
         12    1    3    3    0    0 -0.43858223735E+01 -0.14603192750E+02 -0.10196775184E+02  0.18342925082E+02  0.00000000000E+00 0. -1.
</event>
<event>
 7    1  0.4519840E-010  0.4778726E+02  0.7816164E-02  0.1312668E+00
        -11   -1    0    0    0    0  0.00000000000E+00  0.00000000000E+00  0.45593999997E+02  0.45594000000E+02  0.51100000000E-03 0. -1.
         11   -1    0    0    0    0 -0.00000000000E+00 -0.00000000000E+00 -0.45593999997E+02  0.45594000000E+02  0.51100000000E-03 0.  1.
    9900012    2    1    2    0    0 -0.13090163864E+02 -0.23836875513E+02  0.33824175713E+02  0.47787263982E+02  0.19999967801E+02 0.  0.
        -12    1    1    2    0    0  0.13090163864E+02  0.23836875513E+02 -0.33824175713E+02  0.43400736018E+02  0.00000000000E+00 0.  1.
         11    1    3    3    0    0  0.19979015477E+01 -0.66130826089E+01  0.38486221550E+01  0.79079937367E+01  0.51100000000E-03 0. -1.
        -11    1    3    3    0    0  0.21480101821E+00 -0.54616287882E+01  0.18546865206E+01  0.57719486180E+01  0.51100000000E-03 0.  1.
         12    1    3    3    0    0 -0.15302866430E+02 -0.11762164116E+02  0.28120867038E+02  0.34107321628E+02  0.00000000000E+00 0. -1.
</event>
<event>
 7    1  0.4519840E-010  0.4778727E+02  0.7816164E-02  0.1312668E+00
        -11   -1    0    0    0    0  0.00000000000E+00  0.00000000000E+00  0.45593999997E+02  0.45594000000E+02  0.51100000000E-03 0. -1.
         11   -1    0    0    0    0 -0.00000000000E+00 -0.00000000000E+00 -0.45593999997E+02  0.45594000000E+02  0.51100000000E-03 0.  1.
    9900012    2    1    2    0    0  0.49387658997E+01  0.21964040180E+02  0.37105426335E+02  0.47787272665E+02  0.20000007390E+02 0.  0.
        -12    1    1    2    0    0 -0.49387658997E+01 -0.21964040180E+02 -0.37105426335E+02  0.43400727335E+02  0.00000000000E+00 0.  1.
         11    1    3    3    0    0  0.65852389932E+01  0.12878133040E+02  0.11935885001E+02  0.18753053997E+02  0.51100000000E-03 0. -1.
        -11    1    3    3    0    0 -0.84951662296E+00  0.18645389148E+00 -0.10328544371E+01  0.13502711193E+01  0.51100000000E-03 0.  1.
         12    1    3    3    0    0 -0.79695647051E+00  0.88994532485E+01  0.26202395771E+02  0.27683947549E+02  0.00000000000E+00 0. -1.
</event>
<event>
 7    1  0.4519840E-010  0.4778727E+02  0.7816164E-02  0.1312668E+00
        -11   -1    0    0    0    0  0.00000000000E+00  0.00000000000E+00  0.45593999997E+02  0.45594000000E+02  0.51100000000E-03 0. -1.
         11   -1    0    0    0    0 -0.00000000000E+00 -0.00000000000E+00 -0.45593999997E+02  0.45594000000E+02  0.51100000000E-03 0.  1.
    9900012    2    1    2    0    0 -0.27403510176E+02  0.19430836514E+02  0.27479325965E+02  0.47787272667E+02  0.20000007398E+02 0.  0.
        -12    1    1    2    0    0  0.27403510176E+02 -0.19430836514E+02 -0.27479325965E+02  0.43400727333E+02  0.00000000000E+00 0.  1.
         11    1    3    3    0    0 -0.79420950541E+01  0.17417689423E+02  0.14180120894E+02  0.23822858928E+02  0.51100000000E-03 0. -1.
        -11    1    3    3    0    0 -0.37414051742E+01  0.11346623233E+01  0.11436521838E+01  0.40735134521E+01  0.51100000000E-03 0.  1.
         12    1    3    3    0    0 -0.15720009948E+02  0.87848476733E+00  0.12155552887E+02  0.19890900287E+02  0.00000000000E+00 0. -1.
</event>
<event>
 7    1  0.4519840E-010  0.4778727E+02  0.7816164E-02  0.1312668E+00
        -11   -1    0    0    0    0  0.00000000000E+00  0.00000000000E+00  0.45593999997E+02  0.45594000000E+02  0.51100000000E-03 0. -1.
         11   -1    0    0    0    0 -0.00000000000E+00 -0.00000000000E+00 -0.45593999997E+02  0.45594000000E+02  0.51100000000E-03 0.  1.
    9900012    2    1    2    0    0 -0.70827070621E+01  0.27889180213E+02  0.32490800850E+02  0.47787271295E+02  0.20000001143E+02 0.  0.
        -12    1    1    2    0    0  0.70827070621E+01 -0.27889180213E+02 -0.32490800850E+02  0.43400728705E+02  0.00000000000E+00 0.  1.
         11    1    3    3    0    0 -0.43470472504E+01  0.21338503104E+02  0.22061856916E+02  0.30999259110E+02  0.51100000000E-03 0. -1.
        -11    1    3    3    0    0 -0.49819379074E+00  0.94511308163E+01  0.70145607119E+01  0.11780328221E+02  0.51100000000E-03 0.  1.
        -12    1    3    3    0    0 -0.22374660209E+01 -0.29004537070E+01  0.34143832213E+01  0.50076839640E+01  0.00000000000E+00 0.  1.
</event>
<event>
 7    1  0.4519840E-010  0.4778727E+02  0.7816164E-02  0.1312668E+00
        -11   -1    0    0    0    0  0.00000000000E+00  0.00000000000E+00  0.45593999997E+02  0.45594000000E+02  0.51100000000E-03 0.  1.
         11   -1    0    0    0    0 -0.00000000000E+00 -0.00000000000E+00 -0.45593999997E+02  0.45594000000E+02  0.51100000000E-03 0. -1.
    9900012    2    1    2    0    0  0.33307781792E+02  0.16129669279E+02 -0.22672643519E+02  0.47787270478E+02  0.19999997416E+02 0.  0.
         12    1    1    2    0    0 -0.33307781792E+02 -0.16129669279E+02  0.22672643519E+02  0.43400729522E+02  0.00000000000E+00 0. -1.
         11    1    3    3    0    0  0.21394603736E+02  0.22091609919E+01 -0.15959746938E+02  0.26782886026E+02  0.51100000000E-03 0. -1.
        -11    1    3    3    0    0  0.80286479680E+01  0.40622190667E+01 -0.12537579737E+01  0.90847521297E+01  0.51100000000E-03 0.  1.
        -12    1    3    3    0    0  0.38845300874E+01  0.98582892203E+01 -0.54591386076E+01  0.11919632322E+02  0.00000000000E+00 0.  1.
</event>
<event>
 7    1  0.4519840E-010  0.4778727E+02  0.7816164E-02  0.1312668E+00
        -11   -1    0    0    0    0  0.00000000000E+00  0.00000000000E+00  0.45593999997E+02  0.45594000000E+02  0.51100000000E-03 0.  1.
         11   -1    0    0    0    0 -0.00000000000E+00 -0.00000000000E+00 -0.45593999997E+02  0.45594000000E+02  0.51100000000E-03 0. -1.
    9900012    2    1    2    0    0 -0.42010664852E+02  0.67629140487E+01 -0.85434373943E+01  0.47787270856E+02  0.19999999140E+02 0.  0.
         12    1    1    2    0    0  0.42010664852E+02 -0.67629140487E+01  0.85434373943E+01  0.43400729144E+02  0.00000000000E+00 0. -1.
         11    1    3    3    0    0 -0.10826052022E+02  0.27220572041E+01 -0.53567267578E+01  0.12381741381E+02  0.51100000000E-03 0. -1.
        -11    1    3    3    0    0 -0.31880015480E+02  0.58349355712E+01 -0.49623380624E+01  0.32787294176E+02  0.51100000000E-03 0.  1.
         12    1    3    3    0    0  0.69540264986E+00 -0.17940787266E+01  0.17756274259E+01  0.26182352985E+01  0.00000000000E+00 0. -1.
</event>
<event>
 7    1  0.4519840E-010  0.4778727E+02  0.7816164E-02  0.1312668E+00
        -11   -1    0    0    0    0  0.00000000000E+00  0.00000000000E+00  0.45593999997E+02  0.45594000000E+02  0.51100000000E-03 0. -1.
         11   -1    0    0    0    0 -0.00000000000E+00 -0.00000000000E+00 -0.45593999997E+02  0.45594000000E+02  0.51100000000E-03 0.  1.
    9900012    2    1    2    0    0  0.14240537482E+02 -0.67959849834E+00 -0.40992297476E+02  0.47787271731E+02  0.20000003131E+02 0.  0.
         12    1    1    2    0    0 -0.14240537482E+02  0.67959849834E+00  0.40992297476E+02  0.43400728269E+02  0.00000000000E+00 0. -1.
         11    1    3    3    0    0 -0.19643845894E+01  0.32560869270E+01 -0.20046500198E+02  0.20403996651E+02  0.51100000000E-03 0. -1.
        -11    1    3    3    0    0  0.41432170159E+01 -0.26496213010E+01 -0.95398714716E+01  0.10732934745E+02  0.51100000000E-03 0.  1.
         12    1    3    3    0    0  0.12061705055E+02 -0.12860641244E+01 -0.11405925806E+02  0.16650340335E+02  0.00000000000E+00 0. -1.
</event>
<event>
 7    1  0.4519840E-010  0.4778727E+02  0.7816164E-02  0.1312668E+00
        -11   -1    0    0    0    0  0.00000000000E+00  0.00000000000E+00  0.45593999997E+02  0.45594000000E+02  0.51100000000E-03 0.  1.
         11   -1    0    0    0    0 -0.00000000000E+00 -0.00000000000E+00 -0.45593999997E+02  0.45594000000E+02  0.51100000000E-03 0. -1.
    9900012    2    1    2    0    0 -0.19976476912E+02  0.17133658911E+02 -0.34510888787E+02  0.47787270255E+02  0.19999996401E+02 0.  0.
         12    1    1    2    0    0  0.19976476912E+02 -0.17133658911E+02  0.34510888787E+02  0.43400729745E+02  0.00000000000E+00 0. -1.
         11    1    3    3    0    0 -0.10631981578E+02  0.28222461866E+01 -0.69920315430E+01  0.13034285987E+02  0.51100000000E-03 0. -1.
        -11    1    3    3    0    0 -0.10322947046E+02  0.45846069146E+01 -0.16817694672E+02  0.20258744053E+02  0.51100000000E-03 0.  1.
         12    1    3    3    0    0  0.97845171232E+00  0.97268058101E+01 -0.10701162572E+02  0.14494240215E+02  0.00000000000E+00 0. -1.
</event>
<event>
 7    1  0.4519840E-010  0.4778727E+02  0.7816164E-02  0.1312668E+00
        -11   -1    0    0    0    0  0.00000000000E+00  0.00000000000E+00  0.45593999997E+02  0.45594000000E+02  0.51100000000E-03 0. -1.
         11   -1    0    0    0    0 -0.00000000000E+00 -0.00000000000E+00 -0.45593999997E+02  0.45594000000E+02  0.51100000000E-03 0.  1.
    9900012    2    1    2    0    0  0.38259414558E+01  0.30555554221E+02  0.30583392223E+02  0.47787267268E+02  0.19999982783E+02 0.  0.
        -12    1    1    2    0    0 -0.38259414558E+01 -0.30555554221E+02 -0.30583392223E+02  0.43400732732E+02  0.00000000000E+00 0.  1.
         11    1    3    3    0    0  0.29887827685E+01  0.51154251802E+01  0.12197971056E+02  0.13560637719E+02  0.51100000000E-03 0. -1.
        -11    1    3    3    0    0  0.55357928024E+01  0.41986599646E+01  0.29296029969E+01  0.75403130857E+01  0.51100000000E-03 0.  1.
         12    1    3    3    0    0 -0.46986341151E+01  0.21241469076E+02  0.15455818170E+02  0.26686316463E+02  0.00000000000E+00 0. -1.
</event>
<event>
 7    1  0.4519840E-010  0.4778727E+02  0.7816164E-02  0.1312668E+00
        -11   -1    0    0    0    0  0.00000000000E+00  0.00000000000E+00  0.45593999997E+02  0.45594000000E+02  0.51100000000E-03 0. -1.
         11   -1    0    0    0    0 -0.00000000000E+00 -0.00000000000E+00 -0.45593999997E+02  0.45594000000E+02  0.51100000000E-03 0.  1.
    9900012    2    1    2    0    0  0.55701512318E+01  0.12273823861E+02  0.41254697983E+02  0.47787269101E+02  0.19999991138E+02 0.  0.
        -12    1    1    2    0    0 -0.55701512318E+01 -0.12273823861E+02 -0.41254697983E+02  0.43400730899E+02  0.00000000000E+00 0.  1.
         11    1    3    3    0    0 -0.37430964491E+01  0.72711537664E+01  0.12507215789E+02  0.14943590438E+02  0.51100000000E-03 0. -1.
        -11    1    3    3    0    0 -0.50956151286E+00 -0.28181523070E+01  0.27380608538E+01  0.39621475063E+01  0.51100000000E-03 0.  1.
         12    1    3    3    0    0  0.98228091938E+01  0.78208224020E+01  0.26009421340E+02  0.28881531157E+02  0.00000000000E+00 0. -1.
</event>
<event>
 7    1  0.4519840E-010  0.4778727E+02  0.7816164E-02  0.1312668E+00
        -11   -1    0    0    0    0  0.00000000000E+00  0.00000000000E+00  0.45593999997E+02  0.45594000000E+02  0.51100000000E-03 0. -1.
         11   -1    0    0    0    0 -0.00000000000E+00 -0.00000000000E+00 -0.45593999997E+02  0.45594000000E+02  0.51100000000E-03 0.  1.
    9900012    2    1    2    0    0 -0.42979099725E+02  0.51493476963E+01 -0.31471216517E+01  0.47787272246E+02  0.20000005479E+02 0.  0.
         12    1    1    2    0    0  0.42979099725E+02 -0.51493476963E+01  0.31471216517E+01  0.43400727754E+02  0.00000000000E+00 0. -1.
         11    1    3    3    0    0 -0.16467406006E+02  0.48080318897E+01 -0.73327170099E+01  0.18656402928E+02  0.51100000000E-03 0. -1.
        -11    1    3    3    0    0 -0.61996665410E+01  0.55993812797E+00 -0.38126900373E+01  0.72997261256E+01  0.51100000000E-03 0.  1.
        -12    1    3    3    0    0 -0.20312027178E+02 -0.21862232134E+00  0.79982853955E+01  0.21831143192E+02  0.00000000000E+00 0.  1.
</event>
<event>
 7    1  0.4519840E-010  0.4778727E+02  0.7816164E-02  0.1312668E+00
        -11   -1    0    0    0    0  0.00000000000E+00  0.00000000000E+00  0.45593999997E+02  0.45594000000E+02  0.51100000000E-03 0. -1.
         11   -1    0    0    0    0 -0.00000000000E+00 -0.00000000000E+00 -0.45593999997E+02  0.45594000000E+02  0.51100000000E-03 0.  1.
    9900012    2    1    2    0    0 -0.23809069127E+02  0.21348286664E+02 -0.29342842138E+02  0.47787268429E+02  0.19999988074E+02 0.  0.
         12    1    1    2    0    0  0.23809069127E+02 -0.21348286664E+02  0.29342842138E+02  0.43400731571E+02  0.00000000000E+00 0. -1.
         11    1    3    3    0    0 -0.25121623759E+01  0.97844778613E+00  0.77266619209E+00  0.28045201334E+01  0.51100000000E-03 0. -1.
        -11    1    3    3    0    0 -0.14975086583E+02  0.58317914387E+01 -0.21793739668E+02  0.27078221849E+02  0.51100000000E-03 0.  1.
         12    1    3    3    0    0 -0.63218201679E+01  0.14538047439E+02 -0.83217686627E+01  0.17904526446E+02  0.00000000000E+00 0. -1.
</event>
<event>
 7    1  0.4960481E-010  0.4778728E+02  0.7816164E-02  0.1312668E+00
        -11   -1    0    0    0    0  0.00000000000E+00  0.00000000000E+00  0.45593999997E+02  0.45594000000E+02  0.51100000000E-03 0. -1.
         11   -1    0    0    0    0 -0.00000000000E+00 -0.00000000000E+00 -0.45593999997E+02  0.45594000000E+02  0.51100000000E-03 0.  1.
    9900012    2    1    2    0    0  0.20266448051E+02 -0.39412172924E+01 -0.38175390060E+02  0.47787279769E+02  0.20000039777E+02 0.  0.
         12    1    1    2    0    0 -0.20266448051E+02  0.39412172924E+01  0.38175390060E+02  0.43400720231E+02  0.00000000000E+00 0. -1.
         11    1    3    3    0    0 -0.13984278922E+01 -0.61816150607E-01  0.29513901518E+00  0.14305695039E+01  0.51100000000E-03 0. -1.
        -11    1    3    3    0    0  0.42269590897E+01 -0.43321023431E+01 -0.20237455234E+02  0.21123183672E+02  0.51100000000E-03 0.  1.
        -12    1    3    3    0    0  0.17437916854E+02  0.45270120133E+00 -0.18233073842E+02  0.25233526592E+02  0.00000000000E+00 0.  1.
</event>
<event>
 7    1  0.4519840E-010  0.4778727E+02  0.7816164E-02  0.1312668E+00
        -11   -1    0    0    0    0  0.00000000000E+00  0.00000000000E+00  0.45593999997E+02  0.45594000000E+02  0.51100000000E-03 0. -1.
         11   -1    0    0    0    0 -0.00000000000E+00 -0.00000000000E+00 -0.45593999997E+02  0.45594000000E+02  0.51100000000E-03 0.  1.
    9900012    2    1    2    0    0 -0.25463281388E+02 -0.44100460650E+01 -0.34868270947E+02  0.47787268161E+02  0.19999986852E+02 0.  0.
         12    1    1    2    0    0  0.25463281388E+02  0.44100460650E+01  0.34868270947E+02  0.43400731839E+02  0.00000000000E+00 0. -1.
         11    1    3    3    0    0 -0.44310056417E+01 -0.28275566461E+00 -0.30231753614E+01  0.53715315590E+01  0.51100000000E-03 0. -1.
        -11    1    3    3    0    0 -0.15665325086E+02 -0.11113940591E+02 -0.21897050519E+02  0.29127356681E+02  0.51100000000E-03 0.  1.
         12    1    3    3    0    0 -0.53669506604E+01  0.69866501904E+01 -0.99480450668E+01  0.13288379921E+02  0.00000000000E+00 0. -1.
</event>
<event>
 7    1  0.4519840E-010  0.4778727E+02  0.7816164E-02  0.1312668E+00
        -11   -1    0    0    0    0  0.00000000000E+00  0.00000000000E+00  0.45593999997E+02  0.45594000000E+02  0.51100000000E-03 0. -1.
         11   -1    0    0    0    0 -0.00000000000E+00 -0.00000000000E+00 -0.45593999997E+02  0.45594000000E+02  0.51100000000E-03 0.  1.
    9900012    2    1    2    0    0 -0.28310709911E+02  0.11965184373E+02  0.30642477122E+02  0.47787270319E+02  0.19999996692E+02 0.  0.
        -12    1    1    2    0    0  0.28310709911E+02 -0.11965184373E+02 -0.30642477122E+02  0.43400729681E+02  0.00000000000E+00 0.  1.
         11    1    3    3    0    0 -0.18890230274E+02  0.81524851003E+01  0.14519026667E+02  0.25181460417E+02  0.51100000000E-03 0. -1.
        -11    1    3    3    0    0 -0.72129642334E+01 -0.14063782392E+01  0.23551589584E+01  0.77169635716E+01  0.51100000000E-03 0.  1.
         12    1    3    3    0    0 -0.22075154034E+01  0.52190775116E+01  0.13768291496E+02  0.14888846331E+02  0.00000000000E+00 0. -1.
</event>
<event>
 7    1  0.4519840E-010  0.4778727E+02  0.7816164E-02  0.1312668E+00
        -11   -1    0    0    0    0  0.00000000000E+00  0.00000000000E+00  0.45593999997E+02  0.45594000000E+02  0.51100000000E-03 0. -1.
         11   -1    0    0    0    0 -0.00000000000E+00 -0.00000000000E+00 -0.45593999997E+02  0.45594000000E+02  0.51100000000E-03 0.  1.
    9900012    2    1    2    0    0 -0.10107288309E+01  0.42482489111E+02 -0.88227140364E+01  0.47787265711E+02  0.19999975683E+02 0.  0.
         12    1    1    2    0    0  0.10107288309E+01 -0.42482489111E+02  0.88227140364E+01  0.43400734289E+02  0.00000000000E+00 0. -1.
         11    1    3    3    0    0  0.48487451727E+01  0.84540884435E+01 -0.22259347434E+00  0.97484095768E+01  0.51100000000E-03 0. -1.
        -11    1    3    3    0    0  0.28334398934E+01  0.21616229463E+02 -0.64381203273E+01  0.22731897225E+02  0.51100000000E-03 0.  1.
         12    1    3    3    0    0 -0.86929138971E+01  0.12412171204E+02 -0.21620002348E+01  0.15306958909E+02  0.00000000000E+00 0. -1.
</event>
<event>
 7    1  0.4519840E-010  0.4778727E+02  0.7816164E-02  0.1312668E+00
        -11   -1    0    0    0    0  0.00000000000E+00  0.00000000000E+00  0.45593999997E+02  0.45594000000E+02  0.51100000000E-03 0.  1.
         11   -1    0    0    0    0 -0.00000000000E+00 -0.00000000000E+00 -0.45593999997E+02  0.45594000000E+02  0.51100000000E-03 0. -1.
    9900012    2    1    2    0    0  0.32247989770E+02  0.22619837570E+02  0.18221773847E+02  0.47787274914E+02  0.20000017641E+02 0.  0.
        -12    1    1    2    0    0 -0.32247989770E+02 -0.22619837570E+02 -0.18221773847E+02  0.43400725086E+02  0.00000000000E+00 0.  1.
         11    1    3    3    0    0  0.89020093002E+01  0.20562170668E+01  0.71176765311E+00  0.91640826960E+01  0.51100000000E-03 0. -1.
        -11    1    3    3    0    0  0.20799706228E+02  0.98458481660E+01  0.90275531621E+01  0.24719733445E+02  0.51100000000E-03 0.  1.
        -12    1    3    3    0    0  0.25462742419E+01  0.10717772338E+02  0.84824530316E+01  0.13903458772E+02  0.00000000000E+00 0.  1.
</event>
<event>
 7    1  0.4519840E-010  0.4778725E+02  0.7816164E-02  0.1312668E+00
        -11   -1    0    0    0    0  0.00000000000E+00  0.00000000000E+00  0.45593999997E+02  0.45594000000E+02  0.51100000000E-03 0. -1.
         11   -1    0    0    0    0 -0.00000000000E+00 -0.00000000000E+00 -0.45593999997E+02  0.45594000000E+02  0.51100000000E-03 0.  1.
    9900012    2    1    2    0    0  0.24113537110E+02  0.23054137057E+02 -0.27760927856E+02  0.47787250895E+02  0.19999908133E+02 0.  0.
         12    1    1    2    0    0 -0.24113537110E+02 -0.23054137057E+02  0.27760927856E+02  0.43400749105E+02  0.00000000000E+00 0. -1.
         11    1    3    3    0    0  0.87588071330E+01  0.99274258451E+01 -0.12517860289E+02  0.18219970164E+02  0.51100000000E-03 0. -1.
        -11    1    3    3    0    0  0.16561753193E+02  0.11244088435E+02 -0.72873221813E+01  0.21303198314E+02  0.51100000000E-03 0.  1.
         12    1    3    3    0    0 -0.12070232159E+01  0.18826227770E+01 -0.79557453860E+01  0.82640824180E+01  0.00000000000E+00 0. -1.
</event>
<event>
 7    1  0.4519840E-010  0.4778727E+02  0.7816164E-02  0.1312668E+00
        -11   -1    0    0    0    0  0.00000000000E+00  0.00000000000E+00  0.45593999997E+02  0.45594000000E+02  0.51100000000E-03 0. -1.
         11   -1    0    0    0    0 -0.00000000000E+00 -0.00000000000E+00 -0.45593999997E+02  0.45594000000E+02  0.51100000000E-03 0.  1.
    9900012    2    1    2    0    0 -0.92924292824E+01 -0.25826321064E+02  0.33619568652E+02  0.47787268462E+02  0.19999988227E+02 0.  0.
        -12    1    1    2    0    0  0.92924292824E+01  0.25826321064E+02 -0.33619568652E+02  0.43400731538E+02  0.00000000000E+00 0.  1.
         11    1    3    3    0    0 -0.33476710347E+01 -0.16160651007E+02  0.19946169920E+02  0.25888670052E+02  0.51100000000E-03 0. -1.
        -11    1    3    3    0    0 -0.76693094532E+01 -0.10957112818E+02  0.14373213730E+02  0.19633285563E+02  0.51100000000E-03 0.  1.
        -12    1    3    3    0    0  0.17245512055E+01  0.12914427604E+01 -0.69981499891E+00  0.22653128474E+01  0.00000000000E+00 0.  1.
</event>
<event>
 7    1  0.4519840E-010  0.4778727E+02  0.7816164E-02  0.1312668E+00
        -11   -1    0    0    0    0  0.00000000000E+00  0.00000000000E+00  0.45593999997E+02  0.45594000000E+02  0.51100000000E-03 0. -1.
         11   -1    0    0    0    0 -0.00000000000E+00 -0.00000000000E+00 -0.45593999997E+02  0.45594000000E+02  0.51100000000E-03 0.  1.
    9900012    2    1    2    0    0 -0.40836015285E+02 -0.27265683266E+01 -0.14443318239E+02  0.47787265433E+02  0.19999974415E+02 0.  0.
         12    1    1    2    0    0  0.40836015285E+02  0.27265683266E+01  0.14443318239E+02  0.43400734567E+02  0.00000000000E+00 0. -1.
         11    1    3    3    0    0 -0.24404989984E+00 -0.34184969739E+00 -0.57111026426E+01  0.57265273268E+01  0.51100000000E-03 0. -1.
        -11    1    3    3    0    0 -0.13303334303E+02 -0.15437260802E+01 -0.58259059241E+01  0.14604895545E+02  0.51100000000E-03 0.  1.
         12    1    3    3    0    0 -0.27288631083E+02 -0.84099254911E+00 -0.29063096722E+01  0.27455842561E+02  0.00000000000E+00 0. -1.
</event>
<event>
 7    1  0.4519840E-010  0.4778727E+02  0.7816164E-02  0.1312668E+00
        -11   -1    0    0    0    0  0.00000000000E+00  0.00000000000E+00  0.45593999997E+02  0.45594000000E+02  0.51100000000E-03 0. -1.
         11   -1    0    0    0    0 -0.00000000000E+00 -0.00000000000E+00 -0.45593999997E+02  0.45594000000E+02  0.51100000000E-03 0.  1.
    9900012    2    1    2    0    0 -0.21015474435E+01  0.18838810679E+00  0.43349409168E+02  0.47787271124E+02  0.20000000365E+02 0.  0.
        -12    1    1    2    0    0  0.21015474435E+01 -0.18838810679E+00 -0.43349409168E+02  0.43400728876E+02  0.00000000000E+00 0.  1.
         11    1    3    3    0    0 -0.85886516527E+00 -0.92515742946E+00 -0.56488931844E+00  0.13829916285E+01  0.51100000000E-03 0. -1.
        -11    1    3    3    0    0 -0.61753337091E+00  0.66882414704E+01  0.10110622666E+02  0.12138311760E+02  0.51100000000E-03 0.  1.
         12    1    3    3    0    0 -0.62514890732E+00 -0.55746959342E+01  0.33803675820E+02  0.34265967736E+02  0.00000000000E+00 0. -1.
</event>
<event>
 7    1  0.4519840E-010  0.4778728E+02  0.7816164E-02  0.1312668E+00
        -11   -1    0    0    0    0  0.00000000000E+00  0.00000000000E+00  0.45593999997E+02  0.45594000000E+02  0.51100000000E-03 0.  1.
         11   -1    0    0    0    0 -0.00000000000E+00 -0.00000000000E+00 -0.45593999997E+02  0.45594000000E+02  0.51100000000E-03 0. -1.
    9900012    2    1    2    0    0 -0.37646004921E+02 -0.43482421601E+01 -0.21154051172E+02  0.47787276764E+02  0.20000026079E+02 0.  0.
         12    1    1    2    0    0  0.37646004921E+02  0.43482421601E+01  0.21154051172E+02  0.43400723236E+02  0.00000000000E+00 0. -1.
         11    1    3    3    0    0 -0.20933049540E+02 -0.58542942490E+01 -0.13201272127E+02  0.25431061917E+02  0.51100000000E-03 0. -1.
        -11    1    3    3    0    0 -0.10450211990E+02 -0.37076762920E+01 -0.17285778725E+00  0.11089800458E+02  0.51100000000E-03 0.  1.
         12    1    3    3    0    0 -0.62627433911E+01  0.52137283809E+01 -0.77799212572E+01  0.11266414389E+02  0.00000000000E+00 0. -1.
</event>
<event>
 7    1  0.4519840E-010  0.4778727E+02  0.7816164E-02  0.1312668E+00
        -11   -1    0    0    0    0  0.00000000000E+00  0.00000000000E+00  0.45593999997E+02  0.45594000000E+02  0.51100000000E-03 0. -1.
         11   -1    0    0    0    0 -0.00000000000E+00 -0.00000000000E+00 -0.45593999997E+02  0.45594000000E+02  0.51100000000E-03 0.  1.
    9900012    2    1    2    0    0  0.20633080831E+02  0.35893846037E+01  0.38013357020E+02  0.47787273988E+02  0.20000013422E+02 0.  0.
        -12    1    1    2    0    0 -0.20633080831E+02 -0.35893846037E+01 -0.38013357020E+02  0.43400726012E+02  0.00000000000E+00 0.  1.
         11    1    3    3    0    0  0.98330911981E+00 -0.46311630950E+01  0.86139871314E+01  0.98293104030E+01  0.51100000000E-03 0. -1.
        -11    1    3    3    0    0 -0.12424119708E+01  0.73091414323E+00  0.38718043252E+01  0.41314273543E+01  0.51100000000E-03 0.  1.
         12    1    3    3    0    0  0.20892183682E+02  0.74896335554E+01  0.25527565564E+02  0.33826536231E+02  0.00000000000E+00 0. -1.
</event>
<event>
 7    1  0.4519840E-010  0.4778727E+02  0.7816164E-02  0.1312668E+00
        -11   -1    0    0    0    0  0.00000000000E+00  0.00000000000E+00  0.45593999997E+02  0.45594000000E+02  0.51100000000E-03 0. -1.
         11   -1    0    0    0    0 -0.00000000000E+00 -0.00000000000E+00 -0.45593999997E+02  0.45594000000E+02  0.51100000000E-03 0.  1.
    9900012    2    1    2    0    0 -0.13003915647E+02  0.24586961394E+02 -0.33316702062E+02  0.47787272714E+02  0.20000007611E+02 0.  0.
         12    1    1    2    0    0  0.13003915647E+02 -0.24586961394E+02  0.33316702062E+02  0.43400727286E+02  0.00000000000E+00 0. -1.
         11    1    3    3    0    0  0.78135219859E-01  0.18706188353E+01 -0.39007272791E+00  0.19124531193E+01  0.51100000000E-03 0. -1.
        -11    1    3    3    0    0 -0.90188577228E+01  0.24335312309E+02 -0.32333620266E+02  0.41460948127E+02  0.51100000000E-03 0.  1.
        -12    1    3    3    0    0 -0.40631931439E+01 -0.16189697505E+01 -0.59300906726E+00  0.44138714675E+01  0.00000000000E+00 0.  1.
</event>
<event>
 7    1  0.4519840E-010  0.4778728E+02  0.7816164E-02  0.1312668E+00
        -11   -1    0    0    0    0  0.00000000000E+00  0.00000000000E+00  0.45593999997E+02  0.45594000000E+02  0.51100000000E-03 0. -1.
         11   -1    0    0    0    0 -0.00000000000E+00 -0.00000000000E+00 -0.45593999997E+02  0.45594000000E+02  0.51100000000E-03 0.  1.
    9900012    2    1    2    0    0 -0.28225804100E+02 -0.25164229381E+02  0.21299961475E+02  0.47787276317E+02  0.20000024038E+02 0.  0.
        -12    1    1    2    0    0  0.28225804100E+02  0.25164229381E+02 -0.21299961475E+02  0.43400723683E+02  0.00000000000E+00 0.  1.
         11    1    3    3    0    0 -0.19446593705E+02 -0.14541893130E+02  0.12534595673E+02  0.27326777188E+02  0.51100000000E-03 0. -1.
        -11    1    3    3    0    0 -0.75738347643E+01 -0.42776856106E+01  0.10633105928E+02  0.13737703926E+02  0.51100000000E-03 0.  1.
        -12    1    3    3    0    0 -0.12053756305E+01 -0.63446506401E+01 -0.18677401262E+01  0.67227952025E+01  0.00000000000E+00 0.  1.
</event>
<event>
 7    1  0.4519840E-010  0.4778728E+02  0.7816164E-02  0.1312668E+00
        -11   -1    0    0    0    0  0.00000000000E+00  0.00000000000E+00  0.45593999997E+02  0.45594000000E+02  0.51100000000E-03 0. -1.
         11   -1    0    0    0    0 -0.00000000000E+00 -0.00000000000E+00 -0.45593999997E+02  0.45594000000E+02  0.51100000000E-03 0.  1.
    9900012    2    1    2    0    0  0.79308015575E+01  0.28430638863E+01  0.42575132501E+02  0.47787279578E+02  0.20000038909E+02 0.  0.
        -12    1    1    2    0    0 -0.79308015575E+01 -0.28430638863E+01 -0.42575132501E+02  0.43400720422E+02  0.00000000000E+00 0.  1.
         11    1    3    3    0    0  0.10885668703E+02 -0.30741098703E+01  0.22352280348E+02  0.25051394604E+02  0.51100000000E-03 0. -1.
        -11    1    3    3    0    0 -0.12446006227E+01 -0.13667444969E+01  0.93908530483E+01  0.95710575417E+01  0.51100000000E-03 0.  1.
        -12    1    3    3    0    0 -0.17102665233E+01  0.72839182534E+01  0.10831999105E+02  0.13164827432E+02  0.00000000000E+00 0.  1.
</event>
<event>
 7    1  0.4519840E-010  0.4778727E+02  0.7816164E-02  0.1312668E+00
        -11   -1    0    0    0    0  0.00000000000E+00  0.00000000000E+00  0.45593999997E+02  0.45594000000E+02  0.51100000000E-03 0. -1.
         11   -1    0    0    0    0 -0.00000000000E+00 -0.00000000000E+00 -0.45593999997E+02  0.45594000000E+02  0.51100000000E-03 0.  1.
    9900012    2    1    2    0    0 -0.26389893897E+01  0.32380043177E+02  0.28778323202E+02  0.47787270197E+02  0.19999996135E+02 0.  0.
        -12    1    1    2    0    0  0.26389893897E+01 -0.32380043177E+02 -0.28778323202E+02  0.43400729803E+02  0.00000000000E+00 0.  1.
         11    1    3    3    0    0  0.52042403622E+01  0.68924492588E+01  0.15043072498E+02  0.17346008330E+02  0.51100000000E-03 0. -1.
        -11    1    3    3    0    0  0.36087232422E+00  0.27793101810E+01  0.32268978958E+00  0.28211563016E+01  0.51100000000E-03 0.  1.
         12    1    3    3    0    0 -0.82041020761E+01  0.22708283737E+02  0.13412560914E+02  0.27620105565E+02  0.00000000000E+00 0. -1.
</event>
<event>
 7    1  0.4519840E-010  0.4778728E+02  0.7816164E-02  0.1312668E+00
        -11   -1    0    0    0    0  0.00000000000E+00  0.00000000000E+00  0.45593999997E+02  0.45594000000E+02  0.51100000000E-03 0. -1.
         11   -1    0    0    0    0 -0.00000000000E+00 -0.00000000000E+00 -0.45593999997E+02  0.45594000000E+02  0.51100000000E-03 0.  1.
    9900012    2    1    2    0    0  0.29202892656E+01 -0.13096200219E+01 -0.43282555431E+02  0.47787276519E+02  0.20000024962E+02 0.  0.
         12    1    1    2    0    0 -0.29202892656E+01  0.13096200219E+01  0.43282555431E+02  0.43400723481E+02  0.00000000000E+00 0. -1.
         11    1    3    3    0    0 -0.22398009022E+00  0.38527895985E+01 -0.12680401163E+01  0.40622753192E+01  0.51100000000E-03 0. -1.
        -11    1    3    3    0    0  0.44294766643E+01  0.96653885688E+00 -0.85304970629E+01  0.96604265580E+01  0.51100000000E-03 0.  1.
         12    1    3    3    0    0 -0.12852073085E+01 -0.61289484773E+01 -0.33484018252E+02  0.34064574642E+02  0.00000000000E+00 0. -1.
</event>
<event>
 7    1  0.4519840E-010  0.4778727E+02  0.7816164E-02  0.1312668E+00
        -11   -1    0    0    0    0  0.00000000000E+00  0.00000000000E+00  0.45593999997E+02  0.45594000000E+02  0.51100000000E-03 0. -1.
         11   -1    0    0    0    0 -0.00000000000E+00 -0.00000000000E+00 -0.45593999997E+02  0.45594000000E+02  0.51100000000E-03 0.  1.
    9900012    2    1    2    0    0 -0.14087881263E+02 -0.35119758285E+02 -0.21254587119E+02  0.47787270812E+02  0.19999998939E+02 0.  0.
         12    1    1    2    0    0  0.14087881263E+02  0.35119758285E+02  0.21254587119E+02  0.43400729188E+02  0.00000000000E+00 0. -1.
         11    1    3    3    0    0 -0.30626365374E+01 -0.10395409287E+02  0.63348083761E+00  0.10855670179E+02  0.51100000000E-03 0. -1.
        -11    1    3    3    0    0 -0.10640494231E+02 -0.99235157190E+01 -0.78673916977E+01  0.16540620729E+02  0.51100000000E-03 0.  1.
         12    1    3    3    0    0 -0.38475049470E+00 -0.14800833279E+02 -0.14020676259E+02  0.20390979904E+02  0.00000000000E+00 0. -1.
</event>
<event>
 7    1  0.4519840E-010  0.4778727E+02  0.7816164E-02  0.1312668E+00
        -11   -1    0    0    0    0  0.00000000000E+00  0.00000000000E+00  0.45593999997E+02  0.45594000000E+02  0.51100000000E-03 0. -1.
         11   -1    0    0    0    0 -0.00000000000E+00 -0.00000000000E+00 -0.45593999997E+02  0.45594000000E+02  0.51100000000E-03 0.  1.
    9900012    2    1    2    0    0 -0.40681889716E+01 -0.13771300550E+02 -0.40956373387E+02  0.47787269576E+02  0.19999993303E+02 0.  0.
         12    1    1    2    0    0  0.40681889716E+01  0.13771300550E+02  0.40956373387E+02  0.43400730424E+02  0.00000000000E+00 0. -1.
         11    1    3    3    0    0  0.37393987719E+01  0.10226461927E+00 -0.59012888573E+01  0.69870431275E+01  0.51100000000E-03 0. -1.
        -11    1    3    3    0    0  0.34498401243E+01 -0.66366424357E+00 -0.62955545389E+01  0.72094281552E+01  0.51100000000E-03 0.  1.
        -12    1    3    3    0    0 -0.11257427868E+02 -0.13209900926E+02 -0.28759529991E+02  0.33590798293E+02  0.00000000000E+00 0.  1.
</event>
<event>
 7    1  0.4519840E-010  0.4778727E+02  0.7816164E-02  0.1312668E+00
        -11   -1    0    0    0    0  0.00000000000E+00  0.00000000000E+00  0.45593999997E+02  0.45594000000E+02  0.51100000000E-03 0. -1.
         11   -1    0    0    0    0 -0.00000000000E+00 -0.00000000000E+00 -0.45593999997E+02  0.45594000000E+02  0.51100000000E-03 0.  1.
    9900012    2    1    2    0    0 -0.29147630684E+01 -0.15027363804E+02  0.40611645099E+02  0.47787271616E+02  0.20000002605E+02 0.  0.
        -12    1    1    2    0    0  0.29147630684E+01  0.15027363804E+02 -0.40611645099E+02  0.43400728384E+02  0.00000000000E+00 0.  1.
         11    1    3    3    0    0 -0.63402984822E+00  0.19991947991E+01  0.29642977308E+00  0.21181700981E+01  0.51100000000E-03 0. -1.
        -11    1    3    3    0    0  0.41598639611E+01 -0.68517936012E+01  0.86573727652E+01  0.11798374769E+02  0.51100000000E-03 0.  1.
         12    1    3    3    0    0 -0.64405971813E+01 -0.10174765002E+02  0.31657842561E+02  0.33870726749E+02  0.00000000000E+00 0. -1.
</event>
<event>
 7    1  0.4519840E-010  0.4778728E+02  0.7816164E-02  0.1312668E+00
        -11   -1    0    0    0    0  0.00000000000E+00  0.00000000000E+00  0.45593999997E+02  0.45594000000E+02  0.51100000000E-03 0.  1.
         11   -1    0    0    0    0 -0.00000000000E+00 -0.00000000000E+00 -0.45593999997E+02  0.45594000000E+02  0.51100000000E-03 0. -1.
    9900012    2    1    2    0    0  0.13214754456E+02 -0.28730506181E+02 -0.29724578044E+02  0.47787282718E+02  0.20000053222E+02 0.  0.
         12    1    1    2    0    0 -0.13214754456E+02  0.28730506181E+02  0.29724578044E+02  0.43400717282E+02  0.00000000000E+00 0. -1.
         11    1    3    3    0    0  0.87217544904E+01 -0.18780531768E+02 -0.20796554826E+02  0.29347471233E+02  0.51100000000E-03 0. -1.
        -11    1    3    3    0    0  0.17805249225E+01  0.95045021359E+00 -0.66878468583E+01  0.69857655608E+01  0.51100000000E-03 0.  1.
        -12    1    3    3    0    0  0.27124750426E+01 -0.10900424627E+02 -0.22401763592E+01  0.11454045924E+02  0.00000000000E+00 0.  1.
</event>
<event>
 7    1  0.4519840E-010  0.4778727E+02  0.7816164E-02  0.1312668E+00
        -11   -1    0    0    0    0  0.00000000000E+00  0.00000000000E+00  0.45593999997E+02  0.45594000000E+02  0.51100000000E-03 0. -1.
         11   -1    0    0    0    0 -0.00000000000E+00 -0.00000000000E+00 -0.45593999997E+02  0.45594000000E+02  0.51100000000E-03 0.  1.
    9900012    2    1    2    0    0  0.13022046424E+02 -0.25140429277E+02  0.32893897214E+02  0.47787270153E+02  0.19999995936E+02 0.  0.
        -12    1    1    2    0    0 -0.13022046424E+02  0.25140429277E+02 -0.32893897214E+02  0.43400729847E+02  0.00000000000E+00 0.  1.
         11    1    3    3    0    0  0.37131877373E+01 -0.12009148998E+02  0.11143010431E+02  0.16798038712E+02  0.51100000000E-03 0.  1.
        -11    1    3    3    0    0  0.47660027464E+01 -0.15815991496E+02  0.14234830544E+02  0.21805750848E+02  0.51100000000E-03 0. -1.
        -12    1    3    3    0    0  0.45428559408E+01  0.26847112173E+01  0.75160562388E+01  0.91834805931E+01  0.00000000000E+00 0.  1.
</event>
<event>
 7    1  0.4519840E-010  0.4778727E+02  0.7816164E-02  0.1312668E+00
        -11   -1    0    0    0    0  0.00000000000E+00  0.00000000000E+00  0.45593999997E+02  0.45594000000E+02  0.51100000000E-03 0.  1.
         11   -1    0    0    0    0 -0.00000000000E+00 -0.00000000000E+00 -0.45593999997E+02  0.45594000000E+02  0.51100000000E-03 0. -1.
    9900012    2    1    2    0    0 -0.14886901769E+02  0.35485819613E+02  0.20068886736E+02  0.47787268984E+02  0.19999990605E+02 0.  0.
        -12    1    1    2    0    0  0.14886901769E+02 -0.35485819613E+02 -0.20068886736E+02  0.43400731016E+02  0.00000000000E+00 0.  1.
         11    1    3    3    0    0 -0.95628537584E+01  0.12901443946E+02  0.12439924162E+01  0.16107232701E+02  0.51100000000E-03 0. -1.
        -11    1    3    3    0    0 -0.31242674029E+00  0.16043273511E+01 -0.13691447591E+01  0.21321431354E+01  0.51100000000E-03 0.  1.
        -12    1    3    3    0    0 -0.50116212703E+01  0.20980048316E+02  0.20194039079E+02  0.29547893147E+02  0.00000000000E+00 0.  1.
</event>
<event>
 7    1  0.6472815E-010  0.4778727E+02  0.7816164E-02  0.1312668E+00
        -11   -1    0    0    0    0  0.00000000000E+00  0.00000000000E+00  0.45593999997E+02  0.45594000000E+02  0.51100000000E-03 0. -1.
         11   -1    0    0    0    0 -0.00000000000E+00 -0.00000000000E+00 -0.45593999997E+02  0.45594000000E+02  0.51100000000E-03 0.  1.
    9900012    2    1    2    0    0 -0.50386001688E+01  0.23541440447E+02 -0.36111441632E+02  0.47787272740E+02  0.20000007731E+02 0.  0.
         12    1    1    2    0    0  0.50386001688E+01 -0.23541440447E+02  0.36111441632E+02  0.43400727260E+02  0.00000000000E+00 0. -1.
         11    1    3    3    0    0  0.12345862499E+01 -0.10822647135E+01 -0.32789037367E+01  0.36669756059E+01  0.51100000000E-03 0. -1.
        -11    1    3    3    0    0 -0.91675782107E+00  0.44098728183E+01  0.74315365953E+00  0.45650521135E+01  0.51100000000E-03 0.  1.
        -12    1    3    3    0    0 -0.53564285975E+01  0.20213832342E+02 -0.33575691555E+02  0.39555245021E+02  0.00000000000E+00 0.  1.
</event>
<event>
 7    1  0.4519840E-010  0.4778727E+02  0.7816164E-02  0.1312668E+00
        -11   -1    0    0    0    0  0.00000000000E+00  0.00000000000E+00  0.45593999997E+02  0.45594000000E+02  0.51100000000E-03 0. -1.
         11   -1    0    0    0    0 -0.00000000000E+00 -0.00000000000E+00 -0.45593999997E+02  0.45594000000E+02  0.51100000000E-03 0.  1.
    9900012    2    1    2    0    0 -0.60204864969E+01  0.39083448570E+02  0.17884661047E+02  0.47787270621E+02  0.19999998071E+02 0.  0.
        -12    1    1    2    0    0  0.60204864969E+01 -0.39083448570E+02 -0.17884661047E+02  0.43400729379E+02  0.00000000000E+00 0.  1.
         11    1    3    3    0    0 -0.74094813507E+01  0.93145364017E+01  0.57319357208E+01  0.13210453801E+02  0.51100000000E-03 0. -1.
        -11    1    3    3    0    0 -0.53981691961E+01  0.12615451439E+02  0.32894875759E+01  0.14110654643E+02  0.51100000000E-03 0.  1.
        -12    1    3    3    0    0  0.67871640499E+01  0.17153460730E+02  0.88632377504E+01  0.20466162177E+02  0.00000000000E+00 0.  1.
</event>
<event>
 7    1  0.4519840E-010  0.4778727E+02  0.7816164E-02  0.1312668E+00
        -11   -1    0    0    0    0  0.00000000000E+00  0.00000000000E+00  0.45593999997E+02  0.45594000000E+02  0.51100000000E-03 0.  1.
         11   -1    0    0    0    0 -0.00000000000E+00 -0.00000000000E+00 -0.45593999997E+02  0.45594000000E+02  0.51100000000E-03 0. -1.
    9900012    2    1    2    0    0  0.23744909001E+02 -0.16806498515E+02  0.32207825468E+02  0.47787272850E+02  0.20000008231E+02 0.  0.
        -12    1    1    2    0    0 -0.23744909001E+02  0.16806498515E+02 -0.32207825468E+02  0.43400727150E+02  0.00000000000E+00 0.  1.
         11    1    3    3    0    0  0.10988279737E+02 -0.18441830766E+01  0.67908539628E+01  0.13048333250E+02  0.51100000000E-03 0. -1.
        -11    1    3    3    0    0  0.12302551559E+02 -0.11881332667E+02  0.26415079818E+02  0.31468639673E+02  0.51100000000E-03 0.  1.
         12    1    3    3    0    0  0.45407770449E+00 -0.30809827720E+01 -0.99810831328E+00  0.32702999263E+01  0.00000000000E+00 0. -1.
</event>
<event>
 7    1  0.4519840E-010  0.4778727E+02  0.7816164E-02  0.1312668E+00
        -11   -1    0    0    0    0  0.00000000000E+00  0.00000000000E+00  0.45593999997E+02  0.45594000000E+02  0.51100000000E-03 0. -1.
         11   -1    0    0    0    0 -0.00000000000E+00 -0.00000000000E+00 -0.45593999997E+02  0.45594000000E+02  0.51100000000E-03 0.  1.
    9900012    2    1    2    0    0 -0.36787369681E+02  0.12989687272E+02 -0.19015277376E+02  0.47787270546E+02  0.19999997726E+02 0.  0.
         12    1    1    2    0    0  0.36787369681E+02 -0.12989687272E+02  0.19015277376E+02  0.43400729454E+02  0.00000000000E+00 0. -1.
         11    1    3    3    0    0 -0.17019624185E+02 -0.35040697728E+00 -0.90895638989E+00  0.17047480589E+02  0.51100000000E-03 0. -1.
        -11    1    3    3    0    0 -0.56272573360E+01  0.13804665288E+01 -0.72194431407E+01  0.92570012686E+01  0.51100000000E-03 0.  1.
        -12    1    3    3    0    0 -0.14140488160E+02  0.11959627720E+02 -0.10886877845E+02  0.21482788688E+02  0.00000000000E+00 0.  1.
</event>
<event>
 7    1  0.4519840E-010  0.4778728E+02  0.7816164E-02  0.1312668E+00
        -11   -1    0    0    0    0  0.00000000000E+00  0.00000000000E+00  0.45593999997E+02  0.45594000000E+02  0.51100000000E-03 0. -1.
         11   -1    0    0    0    0 -0.00000000000E+00 -0.00000000000E+00 -0.45593999997E+02  0.45594000000E+02  0.51100000000E-03 0.  1.
    9900012    2    1    2    0    0 -0.32265051069E+01  0.38451064140E+02 -0.19867768562E+02  0.47787275394E+02  0.20000019832E+02 0.  0.
         12    1    1    2    0    0  0.32265051069E+01 -0.38451064140E+02  0.19867768562E+02  0.43400724606E+02  0.00000000000E+00 0. -1.
         11    1    3    3    0    0  0.26844947300E-01  0.25836787493E+01 -0.42121076087E+01  0.49414539661E+01  0.51100000000E-03 0. -1.
        -11    1    3    3    0    0  0.36312771684E+01  0.10017436381E+02  0.19348178312E+01  0.10829530268E+02  0.51100000000E-03 0.  1.
        -12    1    3    3    0    0 -0.68846272226E+01  0.25849949009E+02 -0.17590478784E+02  0.32016291160E+02  0.00000000000E+00 0.  1.
</event>
<event>
 7    1  0.4519840E-010  0.4778727E+02  0.7816164E-02  0.1312668E+00
        -11   -1    0    0    0    0  0.00000000000E+00  0.00000000000E+00  0.45593999997E+02  0.45594000000E+02  0.51100000000E-03 0. -1.
         11   -1    0    0    0    0 -0.00000000000E+00 -0.00000000000E+00 -0.45593999997E+02  0.45594000000E+02  0.51100000000E-03 0.  1.
    9900012    2    1    2    0    0  0.26847632330E+02 -0.14303967157E+02  0.30955201158E+02  0.47787270549E+02  0.19999997740E+02 0.  0.
        -12    1    1    2    0    0 -0.26847632330E+02  0.14303967157E+02 -0.30955201158E+02  0.43400729451E+02  0.00000000000E+00 0.  1.
         11    1    3    3    0    0  0.10327211899E+01  0.24428669014E-01  0.38990111947E+01  0.40335342286E+01  0.51100000000E-03 0. -1.
        -11    1    3    3    0    0  0.53255703902E+00  0.12359427419E+01  0.87965170631E+01  0.88988698251E+01  0.51100000000E-03 0.  1.
         12    1    3    3    0    0  0.25282354101E+02 -0.15564338568E+02  0.18259672900E+02  0.34854866495E+02  0.00000000000E+00 0. -1.
</event>
<event>
 7    1  0.4519840E-010  0.4778727E+02  0.7816164E-02  0.1312668E+00
        -11   -1    0    0    0    0  0.00000000000E+00  0.00000000000E+00  0.45593999997E+02  0.45594000000E+02  0.51100000000E-03 0. -1.
         11   -1    0    0    0    0 -0.00000000000E+00 -0.00000000000E+00 -0.45593999997E+02  0.45594000000E+02  0.51100000000E-03 0.  1.
    9900012    2    1    2    0    0 -0.35605610135E+02 -0.19492065858E+02  0.15359780135E+02  0.47787274772E+02  0.20000016996E+02 0.  0.
        -12    1    1    2    0    0  0.35605610135E+02  0.19492065858E+02 -0.15359780135E+02  0.43400725228E+02  0.00000000000E+00 0.  1.
         11    1    3    3    0    0 -0.33287902385E+01 -0.34584751606E+01  0.70034345705E+01  0.84905824849E+01  0.51100000000E-03 0. -1.
        -11    1    3    3    0    0 -0.42719711160E+01 -0.58924889049E+01 -0.23473832867E+01  0.76473113750E+01  0.51100000000E-03 0.  1.
         12    1    3    3    0    0 -0.28004848781E+02 -0.10141101792E+02  0.10703728851E+02  0.31649380912E+02  0.00000000000E+00 0. -1.
</event>
<event>
 7    1  0.4519840E-010  0.4778727E+02  0.7816164E-02  0.1312668E+00
        -11   -1    0    0    0    0  0.00000000000E+00  0.00000000000E+00  0.45593999997E+02  0.45594000000E+02  0.51100000000E-03 0. -1.
         11   -1    0    0    0    0 -0.00000000000E+00 -0.00000000000E+00 -0.45593999997E+02  0.45594000000E+02  0.51100000000E-03 0.  1.
    9900012    2    1    2    0    0 -0.53680546731E+00  0.20085487205E+02 -0.38469578853E+02  0.47787268975E+02  0.19999990565E+02 0.  0.
         12    1    1    2    0    0  0.53680546731E+00 -0.20085487205E+02  0.38469578853E+02  0.43400731025E+02  0.00000000000E+00 0. -1.
         11    1    3    3    0    0 -0.22420293835E+00  0.87353928443E+01 -0.19282472529E+02  0.21170052012E+02  0.51100000000E-03 0. -1.
        -11    1    3    3    0    0 -0.66974776336E+01  0.97394954211E+01 -0.13181659560E+02  0.17705087594E+02  0.51100000000E-03 0.  1.
         12    1    3    3    0    0  0.63848751046E+01  0.16105989391E+01 -0.60054467642E+01  0.89121293686E+01  0.00000000000E+00 0. -1.
</event>
<event>
 7    1  0.4519840E-010  0.4778727E+02  0.7816164E-02  0.1312668E+00
        -11   -1    0    0    0    0  0.00000000000E+00  0.00000000000E+00  0.45593999997E+02  0.45594000000E+02  0.51100000000E-03 0. -1.
         11   -1    0    0    0    0 -0.00000000000E+00 -0.00000000000E+00 -0.45593999997E+02  0.45594000000E+02  0.51100000000E-03 0.  1.
    9900012    2    1    2    0    0 -0.33248578806E+02  0.23848638537E+02  0.14470589360E+02  0.47787268334E+02  0.19999987644E+02 0.  0.
        -12    1    1    2    0    0  0.33248578806E+02 -0.23848638537E+02 -0.14470589360E+02  0.43400731666E+02  0.00000000000E+00 0.  1.
         11    1    3    3    0    0 -0.12838367516E+02  0.82358248572E+01  0.66443417523E+00  0.15267415125E+02  0.51100000000E-03 0. -1.
        -11    1    3    3    0    0 -0.22424967499E+02  0.12439315680E+02  0.12598234281E+02  0.28571511147E+02  0.51100000000E-03 0.  1.
        -12    1    3    3    0    0  0.20147562095E+01  0.31734979998E+01  0.12079209033E+01  0.39483420631E+01  0.00000000000E+00 0.  1.
</event>
<event>
 7    1  0.4519840E-010  0.4778727E+02  0.7816164E-02  0.1312668E+00
        -11   -1    0    0    0    0  0.00000000000E+00  0.00000000000E+00  0.45593999997E+02  0.45594000000E+02  0.51100000000E-03 0. -1.
         11   -1    0    0    0    0 -0.00000000000E+00 -0.00000000000E+00 -0.45593999997E+02  0.45594000000E+02  0.51100000000E-03 0.  1.
    9900012    2    1    2    0    0 -0.16916936952E+02 -0.76827876805E+01 -0.39222634836E+02  0.47787273441E+02  0.20000010927E+02 0.  0.
         12    1    1    2    0    0  0.16916936952E+02  0.76827876805E+01  0.39222634836E+02  0.43400726559E+02  0.00000000000E+00 0. -1.
         11    1    3    3    0    0  0.64317906967E+00  0.48350216949E+01 -0.89460547359E+01  0.10189357669E+02  0.51100000000E-03 0. -1.
        -11    1    3    3    0    0 -0.89551773244E+00 -0.56192001413E+00 -0.46801722939E+01  0.47980953589E+01  0.51100000000E-03 0.  1.
         12    1    3    3    0    0 -0.16664598289E+02 -0.11955889361E+02 -0.25596407806E+02  0.32799820413E+02  0.00000000000E+00 0. -1.
</event>
<event>
 7    1  0.4519840E-010  0.4778727E+02  0.7816164E-02  0.1312668E+00
        -11   -1    0    0    0    0  0.00000000000E+00  0.00000000000E+00  0.45593999997E+02  0.45594000000E+02  0.51100000000E-03 0. -1.
         11   -1    0    0    0    0 -0.00000000000E+00 -0.00000000000E+00 -0.45593999997E+02  0.45594000000E+02  0.51100000000E-03 0.  1.
    9900012    2    1    2    0    0  0.25260080334E+02 -0.10277905215E+02 -0.33762641586E+02  0.47787274650E+02  0.20000016437E+02 0.  0.
         12    1    1    2    0    0 -0.25260080334E+02  0.10277905215E+02  0.33762641586E+02  0.43400725350E+02  0.00000000000E+00 0. -1.
         11    1    3    3    0    0 -0.44806666827E+00 -0.22492375285E+01 -0.48903212330E+00  0.23449916583E+01  0.51100000000E-03 0. -1.
        -11    1    3    3    0    0 -0.12727635111E+01 -0.33209925704E+01 -0.40715898168E+01  0.54061781792E+01  0.51100000000E-03 0.  1.
        -12    1    3    3    0    0  0.26980910513E+02 -0.47076751166E+01 -0.29202019646E+02  0.40036104812E+02  0.00000000000E+00 0.  1.
</event>
<event>
 7    1  0.4519840E-010  0.4778727E+02  0.7816164E-02  0.1312668E+00
        -11   -1    0    0    0    0  0.00000000000E+00  0.00000000000E+00  0.45593999997E+02  0.45594000000E+02  0.51100000000E-03 0. -1.
         11   -1    0    0    0    0 -0.00000000000E+00 -0.00000000000E+00 -0.45593999997E+02  0.45594000000E+02  0.51100000000E-03 0.  1.
    9900012    2    1    2    0    0  0.26486355626E+02 -0.93996036289E+01  0.33071792500E+02  0.47787273717E+02  0.20000012186E+02 0.  0.
        -12    1    1    2    0    0 -0.26486355626E+02  0.93996036289E+01 -0.33071792500E+02  0.43400726283E+02  0.00000000000E+00 0.  1.
         11    1    3    3    0    0  0.92113869996E+01 -0.51206463575E+01  0.16609893778E+02  0.19671279602E+02  0.51100000000E-03 0. -1.
        -11    1    3    3    0    0  0.19259921186E+02 -0.42076113939E+01  0.17028737152E+02  0.26050459631E+02  0.51100000000E-03 0.  1.
        -12    1    3    3    0    0 -0.19849525598E+01 -0.71345877531E-01 -0.56683843089E+00  0.20655344842E+01  0.00000000000E+00 0.  1.
</event>
<event>
 7    1  0.4519840E-010  0.4778727E+02  0.7816164E-02  0.1312668E+00
        -11   -1    0    0    0    0  0.00000000000E+00  0.00000000000E+00  0.45593999997E+02  0.45594000000E+02  0.51100000000E-03 0.  1.
         11   -1    0    0    0    0 -0.00000000000E+00 -0.00000000000E+00 -0.45593999997E+02  0.45594000000E+02  0.51100000000E-03 0. -1.
    9900012    2    1    2    0    0  0.23944409536E+02  0.35660953729E+02  0.62116858328E+01  0.47787269479E+02  0.19999992863E+02 0.  0.
         12    1    1    2    0    0 -0.23944409536E+02 -0.35660953729E+02 -0.62116858328E+01  0.43400730521E+02  0.00000000000E+00 0. -1.
         11    1    3    3    0    0  0.31692738256E+01  0.45007351843E+01  0.61169387899E+01  0.82290858667E+01  0.51100000000E-03 0. -1.
        -11    1    3    3    0    0  0.13492701173E+02  0.16457623536E+02  0.60152143080E+01  0.22115360292E+02  0.51100000000E-03 0.  1.
        -12    1    3    3    0    0  0.72824345370E+01  0.14702595008E+02 -0.59204672650E+01  0.17442823320E+02  0.00000000000E+00 0.  1.
</event>
<event>
 7    1  0.4519840E-010  0.4778727E+02  0.7816164E-02  0.1312668E+00
        -11   -1    0    0    0    0  0.00000000000E+00  0.00000000000E+00  0.45593999997E+02  0.45594000000E+02  0.51100000000E-03 0. -1.
         11   -1    0    0    0    0 -0.00000000000E+00 -0.00000000000E+00 -0.45593999997E+02  0.45594000000E+02  0.51100000000E-03 0.  1.
    9900012    2    1    2    0    0 -0.32025468296E+02  0.28261858820E+01 -0.29154845213E+02  0.47787274826E+02  0.20000017241E+02 0.  0.
         12    1    1    2    0    0  0.32025468296E+02 -0.28261858820E+01  0.29154845213E+02  0.43400725174E+02  0.00000000000E+00 0. -1.
         11    1    3    3    0    0 -0.17510166504E+02 -0.48713278099E+01 -0.73031670074E+01  0.19587547428E+02  0.51100000000E-03 0. -1.
        -11    1    3    3    0    0 -0.97309163204E+01  0.12774533535E+01 -0.11743147246E+02  0.15304382608E+02  0.51100000000E-03 0.  1.
        -12    1    3    3    0    0 -0.47843854717E+01  0.64200603385E+01 -0.10108530960E+02  0.12895344790E+02  0.00000000000E+00 0.  1.
</event>
<event>
 7    1  0.4519840E-010  0.4778727E+02  0.7816164E-02  0.1312668E+00
        -11   -1    0    0    0    0  0.00000000000E+00  0.00000000000E+00  0.45593999997E+02  0.45594000000E+02  0.51100000000E-03 0.  1.
         11   -1    0    0    0    0 -0.00000000000E+00 -0.00000000000E+00 -0.45593999997E+02  0.45594000000E+02  0.51100000000E-03 0. -1.
    9900012    2    1    2    0    0 -0.26053952217E+02  0.34653781324E+02  0.19824920183E+01  0.47787271195E+02  0.20000000688E+02 0.  0.
         12    1    1    2    0    0  0.26053952217E+02 -0.34653781324E+02 -0.19824920183E+01  0.43400728805E+02  0.00000000000E+00 0. -1.
         11    1    3    3    0    0 -0.54644205982E+01  0.25773636470E+01  0.50540246444E+01  0.78769195254E+01  0.51100000000E-03 0. -1.
        -11    1    3    3    0    0 -0.16649546097E+02  0.16413933316E+02 -0.40590708395E+01  0.23729741854E+02  0.51100000000E-03 0.  1.
        -12    1    3    3    0    0 -0.39399855219E+01  0.15662484361E+02  0.98753821341E+00  0.16180609816E+02  0.00000000000E+00 0.  1.
</event>
<event>
 7    1  0.4519840E-010  0.4778728E+02  0.7816164E-02  0.1312668E+00
        -11   -1    0    0    0    0  0.00000000000E+00  0.00000000000E+00  0.45593999997E+02  0.45594000000E+02  0.51100000000E-03 0.  1.
         11   -1    0    0    0    0 -0.00000000000E+00 -0.00000000000E+00 -0.45593999997E+02  0.45594000000E+02  0.51100000000E-03 0. -1.
    9900012    2    1    2    0    0 -0.20184251416E+02  0.28939846467E+02  0.25272595551E+02  0.47787276451E+02  0.20000024649E+02 0.  0.
        -12    1    1    2    0    0  0.20184251416E+02 -0.28939846467E+02 -0.25272595551E+02  0.43400723549E+02  0.00000000000E+00 0.  1.
         11    1    3    3    0    0 -0.12638189532E+02  0.27661484886E+02  0.15895254963E+02  0.34315313074E+02  0.51100000000E-03 0. -1.
        -11    1    3    3    0    0 -0.43134729954E+01  0.33582865356E+01  0.72456214767E+01  0.90765174259E+01  0.51100000000E-03 0.  1.
        -12    1    3    3    0    0 -0.32325888887E+01 -0.20799249548E+01  0.21317191109E+01  0.43954459511E+01  0.00000000000E+00 0.  1.
</event>
<event>
 7    1  0.4519840E-010  0.4778727E+02  0.7816164E-02  0.1312668E+00
        -11   -1    0    0    0    0  0.00000000000E+00  0.00000000000E+00  0.45593999997E+02  0.45594000000E+02  0.51100000000E-03 0.  1.
         11   -1    0    0    0    0 -0.00000000000E+00 -0.00000000000E+00 -0.45593999997E+02  0.45594000000E+02  0.51100000000E-03 0. -1.
    9900012    2    1    2    0    0  0.30987655300E+02 -0.14165225347E+02  0.26883736275E+02  0.47787266525E+02  0.19999979392E+02 0.  0.
        -12    1    1    2    0    0 -0.30987655300E+02  0.14165225347E+02 -0.26883736275E+02  0.43400733475E+02  0.00000000000E+00 0.  1.
         11    1    3    3    0    0  0.75001254784E+01  0.37321811517E+01  0.52630725353E+01  0.98934822542E+01  0.51100000000E-03 0.  1.
        -11    1    3    3    0    0  0.48658795280E+01  0.55876916129E+00  0.36374954349E+01  0.61008507486E+01  0.51100000000E-03 0. -1.
        -12    1    3    3    0    0  0.18621650293E+02 -0.18456175660E+02  0.17983168305E+02  0.31792933522E+02  0.00000000000E+00 0.  1.
</event>
<event>
 7    1  0.4519840E-010  0.4778729E+02  0.7816164E-02  0.1312668E+00
        -11   -1    0    0    0    0  0.00000000000E+00  0.00000000000E+00  0.45593999997E+02  0.45594000000E+02  0.51100000000E-03 0. -1.
         11   -1    0    0    0    0 -0.00000000000E+00 -0.00000000000E+00 -0.45593999997E+02  0.45594000000E+02  0.51100000000E-03 0.  1.
    9900012    2    1    2    0    0  0.14590837137E+02  0.21032277632E+02  0.35048146748E+02  0.47787287780E+02  0.20000076304E+02 0.  0.
        -12    1    1    2    0    0 -0.14590837137E+02 -0.21032277632E+02 -0.35048146748E+02  0.43400712220E+02  0.00000000000E+00 0.  1.
         11    1    3    3    0    0  0.58527527705E+01  0.16527812833E+00  0.32564711829E+01  0.66997490012E+01  0.51100000000E-03 0. -1.
        -11    1    3    3    0    0  0.35644893531E+01  0.46478750718E+01  0.18745377102E+02  0.19639182519E+02  0.51100000000E-03 0.  1.
        -12    1    3    3    0    0  0.51735950137E+01  0.16219124432E+02  0.13046298463E+02  0.21448356260E+02  0.00000000000E+00 0.  1.
</event>
<event>
 7    1  0.4519840E-010  0.4778727E+02  0.7816164E-02  0.1312668E+00
        -11   -1    0    0    0    0  0.00000000000E+00  0.00000000000E+00  0.45593999997E+02  0.45594000000E+02  0.51100000000E-03 0. -1.
         11   -1    0    0    0    0 -0.00000000000E+00 -0.00000000000E+00 -0.45593999997E+02  0.45594000000E+02  0.51100000000E-03 0.  1.
    9900012    2    1    2    0    0 -0.30716100208E+02  0.17589349676E+02 -0.25114920306E+02  0.47787271251E+02  0.20000000941E+02 0.  0.
         12    1    1    2    0    0  0.30716100208E+02 -0.17589349676E+02  0.25114920306E+02  0.43400728749E+02  0.00000000000E+00 0. -1.
         11    1    3    3    0    0 -0.62585395001E+01  0.53681319201E+01 -0.14692727306E+02  0.16848216313E+02  0.51100000000E-03 0. -1.
        -11    1    3    3    0    0 -0.10154110268E+02  0.37008235947E+01 -0.92902957871E+01  0.14251724341E+02  0.51100000000E-03 0.  1.
        -12    1    3    3    0    0 -0.14303450440E+02  0.85203941612E+01 -0.11318972126E+01  0.16687330597E+02  0.00000000000E+00 0.  1.
</event>
<event>
 7    1  0.4519840E-010  0.4778728E+02  0.7816164E-02  0.1312668E+00
        -11   -1    0    0    0    0  0.00000000000E+00  0.00000000000E+00  0.45593999997E+02  0.45594000000E+02  0.51100000000E-03 0. -1.
         11   -1    0    0    0    0 -0.00000000000E+00 -0.00000000000E+00 -0.45593999997E+02  0.45594000000E+02  0.51100000000E-03 0.  1.
    9900012    2    1    2    0    0 -0.22801238113E+01 -0.27707062378E+00  0.43339902835E+02  0.47787275231E+02  0.20000019090E+02 0.  0.
        -12    1    1    2    0    0  0.22801238113E+01  0.27707062378E+00 -0.43339902835E+02  0.43400724769E+02  0.00000000000E+00 0.  1.
         11    1    3    3    0    0 -0.33655349736E+01 -0.45413859099E+01  0.59355103551E+01  0.81964196499E+01  0.51100000000E-03 0. -1.
        -11    1    3    3    0    0 -0.43575768578E+01  0.51225404252E+01  0.13795649032E+02  0.15347600104E+02  0.51100000000E-03 0.  1.
        -12    1    3    3    0    0  0.54429880201E+01 -0.85822513912E+00  0.23608743448E+02  0.24243255478E+02  0.00000000000E+00 0.  1.
</event>
<event>
 7    1  0.4519840E-010  0.4778727E+02  0.7816164E-02  0.1312668E+00
        -11   -1    0    0    0    0  0.00000000000E+00  0.00000000000E+00  0.45593999997E+02  0.45594000000E+02  0.51100000000E-03 0. -1.
         11   -1    0    0    0    0 -0.00000000000E+00 -0.00000000000E+00 -0.45593999997E+02  0.45594000000E+02  0.51100000000E-03 0.  1.
    9900012    2    1    2    0    0 -0.13907400937E+02 -0.84671024147E+01  0.40230778555E+02  0.47787272273E+02  0.20000005600E+02 0.  0.
        -12    1    1    2    0    0  0.13907400937E+02  0.84671024147E+01 -0.40230778555E+02  0.43400727727E+02  0.00000000000E+00 0.  1.
         11    1    3    3    0    0 -0.15885015384E+00  0.29563271656E+01  0.14043830089E+01  0.32767965421E+01  0.51100000000E-03 0. -1.
        -11    1    3    3    0    0 -0.57057444786E+01 -0.11299870336E+02  0.16617630386E+02  0.20889907361E+02  0.51100000000E-03 0.  1.
         12    1    3    3    0    0 -0.80428063049E+01 -0.12355924396E+00  0.22208765160E+02  0.23620568369E+02  0.00000000000E+00 0. -1.
</event>
<event>
 7    1  0.4519840E-010  0.4778726E+02  0.7816164E-02  0.1312668E+00
        -11   -1    0    0    0    0  0.00000000000E+00  0.00000000000E+00  0.45593999997E+02  0.45594000000E+02  0.51100000000E-03 0. -1.
         11   -1    0    0    0    0 -0.00000000000E+00 -0.00000000000E+00 -0.45593999997E+02  0.45594000000E+02  0.51100000000E-03 0.  1.
    9900012    2    1    2    0    0  0.27452203742E+02 -0.23771333057E+02  0.23768134361E+02  0.47787262949E+02  0.19999963088E+02 0.  0.
        -12    1    1    2    0    0 -0.27452203742E+02  0.23771333057E+02 -0.23768134361E+02  0.43400737051E+02  0.00000000000E+00 0.  1.
         11    1    3    3    0    0  0.17556301209E+02 -0.11598138783E+02  0.12585893065E+02  0.24518263394E+02  0.51100000000E-03 0. -1.
        -11    1    3    3    0    0  0.12105429944E+02 -0.12784545806E+02  0.79793559433E+01  0.19330187975E+02  0.51100000000E-03 0.  1.
        -12    1    3    3    0    0 -0.22095274108E+01  0.61135153284E+00  0.32028853530E+01  0.39388115797E+01  0.00000000000E+00 0.  1.
</event>
<event>
 7    1  0.4519840E-010  0.4778728E+02  0.7816164E-02  0.1312668E+00
        -11   -1    0    0    0    0  0.00000000000E+00  0.00000000000E+00  0.45593999997E+02  0.45594000000E+02  0.51100000000E-03 0.  1.
         11   -1    0    0    0    0 -0.00000000000E+00 -0.00000000000E+00 -0.45593999997E+02  0.45594000000E+02  0.51100000000E-03 0. -1.
    9900012    2    1    2    0    0  0.25537088364E+02 -0.27118014650E+02 -0.22273139179E+02  0.47787281923E+02  0.20000049602E+02 0.  0.
         12    1    1    2    0    0 -0.25537088364E+02  0.27118014650E+02  0.22273139179E+02  0.43400718077E+02  0.00000000000E+00 0. -1.
         11    1    3    3    0    0  0.21170873544E+02 -0.21883900702E+02 -0.17006796234E+02  0.34876096612E+02  0.51100000000E-03 0.  1.
        -11    1    3    3    0    0  0.32018283877E+01 -0.37792479138E+01  0.20504303686E+01  0.53608473934E+01  0.51100000000E-03 0. -1.
         12    1    3    3    0    0  0.11643864325E+01 -0.14548660348E+01 -0.73167733139E+01  0.75503379176E+01  0.00000000000E+00 0. -1.
</event>
<event>
 7    1  0.4519840E-010  0.4778726E+02  0.7816164E-02  0.1312668E+00
        -11   -1    0    0    0    0  0.00000000000E+00  0.00000000000E+00  0.45593999997E+02  0.45594000000E+02  0.51100000000E-03 0. -1.
         11   -1    0    0    0    0 -0.00000000000E+00 -0.00000000000E+00 -0.45593999997E+02  0.45594000000E+02  0.51100000000E-03 0.  1.
    9900012    2    1    2    0    0 -0.27726805160E+02  0.16197106589E+01 -0.33350032598E+02  0.47787264278E+02  0.19999969148E+02 0.  0.
         12    1    1    2    0    0  0.27726805160E+02 -0.16197106589E+01  0.33350032598E+02  0.43400735722E+02  0.00000000000E+00 0. -1.
         11    1    3    3    0    0 -0.15504508420E+02  0.10906843266E+01 -0.17053072689E+02  0.23073505629E+02  0.51100000000E-03 0. -1.
        -11    1    3    3    0    0 -0.13109864625E+02 -0.35573708900E+01 -0.15210589583E+02  0.20393270309E+02  0.51100000000E-03 0.  1.
         12    1    3    3    0    0  0.88756788561E+00  0.40863972223E+01 -0.10863703257E+01  0.43204883399E+01  0.00000000000E+00 0. -1.
</event>
<event>
 7    1  0.4519840E-010  0.4778727E+02  0.7816164E-02  0.1312668E+00
        -11   -1    0    0    0    0  0.00000000000E+00  0.00000000000E+00  0.45593999997E+02  0.45594000000E+02  0.51100000000E-03 0. -1.
         11   -1    0    0    0    0 -0.00000000000E+00 -0.00000000000E+00 -0.45593999997E+02  0.45594000000E+02  0.51100000000E-03 0.  1.
    9900012    2    1    2    0    0  0.12062776881E+02  0.19930868557E+02 -0.36617933375E+02  0.47787272446E+02  0.20000006391E+02 0.  0.
         12    1    1    2    0    0 -0.12062776881E+02 -0.19930868557E+02  0.36617933375E+02  0.43400727554E+02  0.00000000000E+00 0. -1.
         11    1    3    3    0    0  0.88385493320E+00 -0.14838801798E+01 -0.11554765224E+00  0.17310261269E+01  0.51100000000E-03 0. -1.
        -11    1    3    3    0    0  0.12975870158E+02  0.96215158456E+01 -0.20756224235E+02  0.26301475591E+02  0.51100000000E-03 0.  1.
         12    1    3    3    0    0 -0.17969482101E+01  0.11793232892E+02 -0.15746161488E+02  0.19754770728E+02  0.00000000000E+00 0. -1.
</event>
<event>
 7    1  0.4519840E-010  0.4778727E+02  0.7816164E-02  0.1312668E+00
        -11   -1    0    0    0    0  0.00000000000E+00  0.00000000000E+00  0.45593999997E+02  0.45594000000E+02  0.51100000000E-03 0. -1.
         11   -1    0    0    0    0 -0.00000000000E+00 -0.00000000000E+00 -0.45593999997E+02  0.45594000000E+02  0.51100000000E-03 0.  1.
    9900012    2    1    2    0    0  0.50436450701E+01 -0.88684776358E+01 -0.42184535363E+02  0.47787271031E+02  0.19999999941E+02 0.  0.
         12    1    1    2    0    0 -0.50436450701E+01  0.88684776358E+01  0.42184535363E+02  0.43400728969E+02  0.00000000000E+00 0. -1.
         11    1    3    3    0    0 -0.10938413538E+01 -0.11628926219E+02 -0.33108272795E+02  0.35108206187E+02  0.51100000000E-03 0.  1.
        -11    1    3    3    0    0  0.12277783705E+01 -0.17803943258E+01 -0.20793682996E+01  0.30001694067E+01  0.51100000000E-03 0. -1.
        -12    1    3    3    0    0  0.49097080534E+01  0.45408429089E+01 -0.69968942686E+01  0.96788954380E+01  0.00000000000E+00 0.  1.
</event>
<event>
 7    1  0.4519840E-010  0.4778727E+02  0.7816164E-02  0.1312668E+00
        -11   -1    0    0    0    0  0.00000000000E+00  0.00000000000E+00  0.45593999997E+02  0.45594000000E+02  0.51100000000E-03 0.  1.
         11   -1    0    0    0    0 -0.00000000000E+00 -0.00000000000E+00 -0.45593999997E+02  0.45594000000E+02  0.51100000000E-03 0. -1.
    9900012    2    1    2    0    0 -0.36644477909E+02  0.21684545570E+02  0.84015467132E+01  0.47787271147E+02  0.20000000469E+02 0.  0.
        -12    1    1    2    0    0  0.36644477909E+02 -0.21684545570E+02 -0.84015467132E+01  0.43400728853E+02  0.00000000000E+00 0.  1.
         11    1    3    3    0    0 -0.18113065986E+02  0.82186332941E+01  0.11745203726E+02  0.23099326905E+02  0.51100000000E-03 0. -1.
        -11    1    3    3    0    0 -0.20798182094E+01 -0.10322567476E+01 -0.13088932577E+01  0.26654079610E+01  0.51100000000E-03 0.  1.
        -12    1    3    3    0    0 -0.16451593713E+02  0.14498169023E+02 -0.20347637546E+01  0.22022536281E+02  0.00000000000E+00 0.  1.
</event>
<event>
 7    1  0.4519840E-010  0.4778727E+02  0.7816164E-02  0.1312668E+00
        -11   -1    0    0    0    0  0.00000000000E+00  0.00000000000E+00  0.45593999997E+02  0.45594000000E+02  0.51100000000E-03 0. -1.
         11   -1    0    0    0    0 -0.00000000000E+00 -0.00000000000E+00 -0.45593999997E+02  0.45594000000E+02  0.51100000000E-03 0.  1.
    9900012    2    1    2    0    0 -0.30038577510E+02  0.16118685443E+02  0.26860662425E+02  0.47787270223E+02  0.19999996256E+02 0.  0.
        -12    1    1    2    0    0  0.30038577510E+02 -0.16118685443E+02 -0.26860662425E+02  0.43400729777E+02  0.00000000000E+00 0.  1.
         11    1    3    3    0    0 -0.86185903890E+00  0.24581048552E+01 -0.98747769497E+00  0.27857122862E+01  0.51100000000E-03 0. -1.
        -11    1    3    3    0    0 -0.10751793556E+02  0.27373263665E+01  0.17385252953E+01  0.11230159873E+02  0.51100000000E-03 0.  1.
         12    1    3    3    0    0 -0.18424924915E+02  0.10923254221E+02  0.26109614825E+02  0.33771398064E+02  0.00000000000E+00 0. -1.
</event>
<event>
 7    1  0.4519840E-010  0.4778727E+02  0.7816164E-02  0.1312668E+00
        -11   -1    0    0    0    0  0.00000000000E+00  0.00000000000E+00  0.45593999997E+02  0.45594000000E+02  0.51100000000E-03 0. -1.
         11   -1    0    0    0    0 -0.00000000000E+00 -0.00000000000E+00 -0.45593999997E+02  0.45594000000E+02  0.51100000000E-03 0.  1.
    9900012    2    1    2    0    0 -0.10667491538E+02 -0.28048004514E+02  0.31355021966E+02  0.47787270335E+02  0.19999996766E+02 0.  0.
        -12    1    1    2    0    0  0.10667491538E+02  0.28048004514E+02 -0.31355021966E+02  0.43400729665E+02  0.00000000000E+00 0.  1.
         11    1    3    3    0    0  0.61763649891E+00  0.87977788110E+00  0.23437683814E+01  0.25785140006E+01  0.51100000000E-03 0.  1.
        -11    1    3    3    0    0  0.22309388140E+01 -0.93869767874E+01  0.14341949673E+02  0.17285367855E+02  0.51100000000E-03 0. -1.
         12    1    3    3    0    0 -0.13516066851E+02 -0.19540805608E+02  0.14669303912E+02  0.27923388479E+02  0.00000000000E+00 0. -1.
</event>
<event>
 7    1  0.4519840E-010  0.4778727E+02  0.7816164E-02  0.1312668E+00
        -11   -1    0    0    0    0  0.00000000000E+00  0.00000000000E+00  0.45593999997E+02  0.45594000000E+02  0.51100000000E-03 0. -1.
         11   -1    0    0    0    0 -0.00000000000E+00 -0.00000000000E+00 -0.45593999997E+02  0.45594000000E+02  0.51100000000E-03 0.  1.
    9900012    2    1    2    0    0 -0.38479643764E+02 -0.12298049718E+02  0.15864996184E+02  0.47787272875E+02  0.20000008348E+02 0.  0.
        -12    1    1    2    0    0  0.38479643764E+02  0.12298049718E+02 -0.15864996184E+02  0.43400727125E+02  0.00000000000E+00 0.  1.
         11    1    3    3    0    0 -0.27880495140E+02 -0.13818795989E+01  0.88562339166E+01  0.29285909239E+02  0.51100000000E-03 0. -1.
        -11    1    3    3    0    0 -0.78692752906E+00  0.21310769493E+00  0.30331821355E+01  0.31408380973E+01  0.51100000000E-03 0.  1.
         12    1    3    3    0    0 -0.98122210945E+01 -0.11129277814E+02  0.39755801318E+01  0.15360525539E+02  0.00000000000E+00 0. -1.
</event>
<event>
 7    1  0.4519840E-010  0.4778734E+02  0.7816164E-02  0.1312667E+00
        -11   -1    0    0    0    0  0.00000000000E+00  0.00000000000E+00  0.45593999997E+02  0.45594000000E+02  0.51100000000E-03 0.  1.
         11   -1    0    0    0    0 -0.00000000000E+00 -0.00000000000E+00 -0.45593999997E+02  0.45594000000E+02  0.51100000000E-03 0. -1.
    9900012    2    1    2    0    0 -0.37182277049E+02  0.21466523608E+02  0.63469857185E+01  0.47787336525E+02  0.20000298549E+02 0.  0.
        -12    1    1    2    0    0  0.37182277049E+02 -0.21466523608E+02 -0.63469857185E+01  0.43400663475E+02  0.00000000000E+00 0.  1.
         11    1    3    3    0    0 -0.19524958133E+02  0.99204313365E+01 -0.24468402654E+00  0.21902027727E+02  0.51100000000E-03 0. -1.
        -11    1    3    3    0    0 -0.14811712291E+02  0.10414991183E+02 -0.54958621878E+00  0.18115212050E+02  0.51100000000E-03 0.  1.
        -12    1    3    3    0    0 -0.28456066251E+01  0.11311010877E+01  0.71412559638E+01  0.77700967482E+01  0.00000000000E+00 0.  1.
</event>
<event>
 7    1  0.4519840E-010  0.4778727E+02  0.7816164E-02  0.1312668E+00
        -11   -1    0    0    0    0  0.00000000000E+00  0.00000000000E+00  0.45593999997E+02  0.45594000000E+02  0.51100000000E-03 0. -1.
         11   -1    0    0    0    0 -0.00000000000E+00 -0.00000000000E+00 -0.45593999997E+02  0.45594000000E+02  0.51100000000E-03 0.  1.
    9900012    2    1    2    0    0 -0.18038595338E+01  0.39324587294E+02  0.18274188115E+02  0.47787273897E+02  0.20000013004E+02 0.  0.
        -12    1    1    2    0    0  0.18038595338E+01 -0.39324587294E+02 -0.18274188115E+02  0.43400726103E+02  0.00000000000E+00 0.  1.
         11    1    3    3    0    0 -0.16844178542E+01  0.12545982992E+02  0.12120927221E+02  0.17525861739E+02  0.51100000000E-03 0. -1.
        -11    1    3    3    0    0  0.41261152749E+01  0.49093075275E+01  0.46725671285E+01  0.79346714798E+01  0.51100000000E-03 0.  1.
         12    1    3    3    0    0 -0.42455569545E+01  0.21869296774E+02  0.14806937655E+01  0.22326740677E+02  0.00000000000E+00 0. -1.
</event>
<event>
 7    1  0.4519840E-010  0.4778727E+02  0.7816164E-02  0.1312668E+00
        -11   -1    0    0    0    0  0.00000000000E+00  0.00000000000E+00  0.45593999997E+02  0.45594000000E+02  0.51100000000E-03 0. -1.
         11   -1    0    0    0    0 -0.00000000000E+00 -0.00000000000E+00 -0.45593999997E+02  0.45594000000E+02  0.51100000000E-03 0.  1.
    9900012    2    1    2    0    0  0.53302192999E+01 -0.31266180693E+02  0.29624953309E+02  0.47787272454E+02  0.20000006427E+02 0.  0.
        -12    1    1    2    0    0 -0.53302192999E+01  0.31266180693E+02 -0.29624953309E+02  0.43400727546E+02  0.00000000000E+00 0.  1.
         11    1    3    3    0    0  0.15667923835E+01 -0.30891851571E+01  0.11081755597E+02  0.11610478486E+02  0.51100000000E-03 0. -1.
        -11    1    3    3    0    0  0.13288495126E+01 -0.82573786529E+01  0.12823288647E+02  0.15309698731E+02  0.51100000000E-03 0.  1.
        -12    1    3    3    0    0  0.24345774038E+01 -0.19919616883E+02  0.57199090657E+01  0.20867095237E+02  0.00000000000E+00 0.  1.
</event>
<event>
 7    1  0.4519840E-010  0.4778727E+02  0.7816164E-02  0.1312668E+00
        -11   -1    0    0    0    0  0.00000000000E+00  0.00000000000E+00  0.45593999997E+02  0.45594000000E+02  0.51100000000E-03 0. -1.
         11   -1    0    0    0    0 -0.00000000000E+00 -0.00000000000E+00 -0.45593999997E+02  0.45594000000E+02  0.51100000000E-03 0.  1.
    9900012    2    1    2    0    0 -0.40749622476E+02  0.14737466929E+02  0.24287435428E+01  0.47787268916E+02  0.19999990297E+02 0.  0.
         12    1    1    2    0    0  0.40749622476E+02 -0.14737466929E+02 -0.24287435428E+01  0.43400731084E+02  0.00000000000E+00 0. -1.
         11    1    3    3    0    0 -0.21684163022E+01  0.26068475606E+01  0.41389761437E+01  0.53505894295E+01  0.51100000000E-03 0. -1.
        -11    1    3    3    0    0 -0.46686478383E+01  0.63402344873E+01  0.94924659368E+00  0.79306945061E+01  0.51100000000E-03 0.  1.
         12    1    3    3    0    0 -0.33912558335E+02  0.57903848806E+01 -0.26594791945E+01  0.34505984981E+02  0.00000000000E+00 0. -1.
</event>
<event>
 7    1  0.4519840E-010  0.4778727E+02  0.7816164E-02  0.1312668E+00
        -11   -1    0    0    0    0  0.00000000000E+00  0.00000000000E+00  0.45593999997E+02  0.45594000000E+02  0.51100000000E-03 0. -1.
         11   -1    0    0    0    0 -0.00000000000E+00 -0.00000000000E+00 -0.45593999997E+02  0.45594000000E+02  0.51100000000E-03 0.  1.
    9900012    2    1    2    0    0  0.18884616055E+00  0.20718886204E+02 -0.38135490660E+02  0.47787267791E+02  0.19999985166E+02 0.  0.
         12    1    1    2    0    0 -0.18884616055E+00 -0.20718886204E+02  0.38135490660E+02  0.43400732209E+02  0.00000000000E+00 0. -1.
         11    1    3    3    0    0 -0.57723297942E+01  0.16582967940E+02 -0.22564186708E+02  0.28591207372E+02  0.51100000000E-03 0. -1.
        -11    1    3    3    0    0 -0.78641168236E-01  0.11368089271E+01 -0.10977722958E+02  0.11036707868E+02  0.51100000000E-03 0.  1.
         12    1    3    3    0    0  0.60398171230E+01  0.29991093363E+01 -0.45935809946E+01  0.81593525505E+01  0.00000000000E+00 0. -1.
</event>
<event>
 7    1  0.4519840E-010  0.4778727E+02  0.7816164E-02  0.1312668E+00
        -11   -1    0    0    0    0  0.00000000000E+00  0.00000000000E+00  0.45593999997E+02  0.45594000000E+02  0.51100000000E-03 0.  1.
         11   -1    0    0    0    0 -0.00000000000E+00 -0.00000000000E+00 -0.45593999997E+02  0.45594000000E+02  0.51100000000E-03 0. -1.
    9900012    2    1    2    0    0  0.38609639414E+02  0.68447639503E+01 -0.18602913861E+02  0.47787268977E+02  0.19999990574E+02 0.  0.
        -12    1    1    2    0    0 -0.38609639414E+02 -0.68447639503E+01  0.18602913861E+02  0.43400731023E+02  0.00000000000E+00 0.  1.
         11    1    3    3    0    0  0.84891110848E+01  0.45469992135E+01 -0.49057738395E+01  0.10807720670E+02  0.51100000000E-03 0. -1.
        -11    1    3    3    0    0  0.31626664283E+01  0.71517544387E+00  0.36509907394E+01  0.48829979001E+01  0.51100000000E-03 0.  1.
        -12    1    3    3    0    0  0.26957861901E+02  0.15825892929E+01 -0.17348130761E+02  0.32096550407E+02  0.00000000000E+00 0.  1.
</event>
<event>
 7    1  0.4519840E-010  0.4778727E+02  0.7816164E-02  0.1312668E+00
        -11   -1    0    0    0    0  0.00000000000E+00  0.00000000000E+00  0.45593999997E+02  0.45594000000E+02  0.51100000000E-03 0. -1.
         11   -1    0    0    0    0 -0.00000000000E+00 -0.00000000000E+00 -0.45593999997E+02  0.45594000000E+02  0.51100000000E-03 0.  1.
    9900012    2    1    2    0    0  0.85888780950E+01 -0.58343745681E+01  0.42140414342E+02  0.47787271037E+02  0.19999999968E+02 0.  0.
        -12    1    1    2    0    0 -0.85888780950E+01  0.58343745681E+01 -0.42140414342E+02  0.43400728963E+02  0.00000000000E+00 0.  1.
         11    1    3    3    0    0  0.82195256663E+01  0.25690126135E+01  0.21010777558E+02  0.22707117867E+02  0.51100000000E-03 0. -1.
        -11    1    3    3    0    0  0.37857146626E+01 -0.31156690659E+01  0.16641497535E+02  0.17348731069E+02  0.51100000000E-03 0.  1.
        -12    1    3    3    0    0 -0.34163622339E+01 -0.52877181157E+01  0.44881392498E+01  0.77314221014E+01  0.00000000000E+00 0.  1.
</event>
<event>
 7    1  0.4519840E-010  0.4778728E+02  0.7816164E-02  0.1312668E+00
        -11   -1    0    0    0    0  0.00000000000E+00  0.00000000000E+00  0.45593999997E+02  0.45594000000E+02  0.51100000000E-03 0. -1.
         11   -1    0    0    0    0 -0.00000000000E+00 -0.00000000000E+00 -0.45593999997E+02  0.45594000000E+02  0.51100000000E-03 0.  1.
    9900012    2    1    2    0    0  0.16280679671E+02  0.22831057042E+02  0.33125585456E+02  0.47787284476E+02  0.20000061239E+02 0.  0.
        -12    1    1    2    0    0 -0.16280679671E+02 -0.22831057042E+02 -0.33125585456E+02  0.43400715524E+02  0.00000000000E+00 0.  1.
         11    1    3    3    0    0  0.15148365436E+02  0.14118601482E+02  0.20760352971E+02  0.29322348796E+02  0.51100000000E-03 0. -1.
        -11    1    3    3    0    0  0.39797505733E+01  0.43807509433E+01  0.10393540875E+01  0.60091306054E+01  0.51100000000E-03 0.  1.
         12    1    3    3    0    0 -0.28474363374E+01  0.43317046168E+01  0.11325878398E+02  0.12455805075E+02  0.00000000000E+00 0. -1.
</event>
<event>
 7    1  0.4519840E-010  0.4778727E+02  0.7816164E-02  0.1312668E+00
        -11   -1    0    0    0    0  0.00000000000E+00  0.00000000000E+00  0.45593999997E+02  0.45594000000E+02  0.51100000000E-03 0. -1.
         11   -1    0    0    0    0 -0.00000000000E+00 -0.00000000000E+00 -0.45593999997E+02  0.45594000000E+02  0.51100000000E-03 0.  1.
    9900012    2    1    2    0    0  0.22034966506E+02 -0.30150881566E+02  0.22113522318E+02  0.47787271004E+02  0.19999999815E+02 0.  0.
        -12    1    1    2    0    0 -0.22034966506E+02  0.30150881566E+02 -0.22113522318E+02  0.43400728996E+02  0.00000000000E+00 0.  1.
         11    1    3    3    0    0  0.13577014230E+01 -0.69404133399E+01 -0.22529979850E+00  0.70755530344E+01  0.51100000000E-03 0.  1.
        -11    1    3    3    0    0  0.70564015005E+00 -0.93629467167E+01  0.37320135809E+01  0.10103990542E+02  0.51100000000E-03 0. -1.
         12    1    3    3    0    0  0.19971624933E+02 -0.13847521509E+02  0.18606808535E+02  0.30607727427E+02  0.00000000000E+00 0. -1.
</event>
<event>
 7    1  0.4519840E-010  0.4778727E+02  0.7816164E-02  0.1312668E+00
        -11   -1    0    0    0    0  0.00000000000E+00  0.00000000000E+00  0.45593999997E+02  0.45594000000E+02  0.51100000000E-03 0. -1.
         11   -1    0    0    0    0 -0.00000000000E+00 -0.00000000000E+00 -0.45593999997E+02  0.45594000000E+02  0.51100000000E-03 0.  1.
    9900012    2    1    2    0    0  0.11018064395E+02  0.20216733913E+02  0.36790069518E+02  0.47787270879E+02  0.19999999244E+02 0.  0.
        -12    1    1    2    0    0 -0.11018064395E+02 -0.20216733913E+02 -0.36790069518E+02  0.43400729121E+02  0.00000000000E+00 0.  1.
         11    1    3    3    0    0  0.93958165691E+01  0.71216901302E+01  0.21601041438E+02  0.24609039616E+02  0.51100000000E-03 0. -1.
        -11    1    3    3    0    0  0.14021731575E+01  0.41581170285E+00  0.89071713997E+01  0.90264440141E+01  0.51100000000E-03 0.  1.
        -12    1    3    3    0    0  0.22007466837E+00  0.12679232080E+02  0.62818566800E+01  0.14151787249E+02  0.00000000000E+00 0.  1.
</event>
<event>
 7    1  0.4519840E-010  0.4778727E+02  0.7816164E-02  0.1312668E+00
        -11   -1    0    0    0    0  0.00000000000E+00  0.00000000000E+00  0.45593999997E+02  0.45594000000E+02  0.51100000000E-03 0. -1.
         11   -1    0    0    0    0 -0.00000000000E+00 -0.00000000000E+00 -0.45593999997E+02  0.45594000000E+02  0.51100000000E-03 0.  1.
    9900012    2    1    2    0    0 -0.81355561101E+01  0.23721140887E+02  0.35422359434E+02  0.47787270213E+02  0.19999996208E+02 0.  0.
        -12    1    1    2    0    0  0.81355561101E+01 -0.23721140887E+02 -0.35422359434E+02  0.43400729787E+02  0.00000000000E+00 0.  1.
         11    1    3    3    0    0  0.16585460615E+01 -0.73624091856E-01  0.99917892306E+00  0.19376672383E+01  0.51100000000E-03 0. -1.
        -11    1    3    3    0    0 -0.47484471607E+01  0.67726229079E+01  0.14459561697E+01  0.83968423229E+01  0.51100000000E-03 0.  1.
         12    1    3    3    0    0 -0.50456550109E+01  0.17022142071E+02  0.32977224341E+02  0.37452760652E+02  0.00000000000E+00 0. -1.
</event>
<event>
 7    1  0.4519840E-010  0.4778727E+02  0.7816164E-02  0.1312668E+00
        -11   -1    0    0    0    0  0.00000000000E+00  0.00000000000E+00  0.45593999997E+02  0.45594000000E+02  0.51100000000E-03 0. -1.
         11   -1    0    0    0    0 -0.00000000000E+00 -0.00000000000E+00 -0.45593999997E+02  0.45594000000E+02  0.51100000000E-03 0.  1.
    9900012    2    1    2    0    0  0.11342019023E+02 -0.16089904475E+02 -0.38679407835E+02  0.47787274061E+02  0.20000013753E+02 0.  0.
         12    1    1    2    0    0 -0.11342019023E+02  0.16089904475E+02  0.38679407835E+02  0.43400725939E+02  0.00000000000E+00 0. -1.
         11    1    3    3    0    0 -0.49591759592E+00  0.33433352007E+00 -0.24618416831E+01  0.25334517754E+01  0.51100000000E-03 0. -1.
        -11    1    3    3    0    0 -0.19872922976E+00  0.35459381684E+00 -0.17126257828E+02  0.17131081038E+02  0.51100000000E-03 0.  1.
         12    1    3    3    0    0  0.12036665849E+02 -0.16778831812E+02 -0.19091308324E+02  0.28122741248E+02  0.00000000000E+00 0. -1.
</event>
<event>
 7    1  0.4519840E-010  0.4778727E+02  0.7816164E-02  0.1312668E+00
        -11   -1    0    0    0    0  0.00000000000E+00  0.00000000000E+00  0.45593999997E+02  0.45594000000E+02  0.51100000000E-03 0. -1.
         11   -1    0    0    0    0 -0.00000000000E+00 -0.00000000000E+00 -0.45593999997E+02  0.45594000000E+02  0.51100000000E-03 0.  1.
    9900012    2    1    2    0    0 -0.13700902507E+02  0.88364199405E+01  0.40222207318E+02  0.47787274103E+02  0.20000013945E+02 0.  0.
        -12    1    1    2    0    0  0.13700902507E+02 -0.88364199405E+01 -0.40222207318E+02  0.43400725897E+02  0.00000000000E+00 0.  1.
         11    1    3    3    0    0 -0.79589913050E+01  0.42604772990E+00  0.18807189046E+02  0.20426390267E+02  0.51100000000E-03 0. -1.
        -11    1    3    3    0    0 -0.80204843461E+01  0.99117949158E+01  0.21046343959E+02  0.24607324964E+02  0.51100000000E-03 0.  1.
         12    1    3    3    0    0  0.22785731442E+01 -0.15014227052E+01  0.36867431318E+00  0.27535588722E+01  0.00000000000E+00 0. -1.
</event>
<event>
 7    1  0.4519840E-010  0.4778727E+02  0.7816164E-02  0.1312668E+00
        -11   -1    0    0    0    0  0.00000000000E+00  0.00000000000E+00  0.45593999997E+02  0.45594000000E+02  0.51100000000E-03 0.  1.
         11   -1    0    0    0    0 -0.00000000000E+00 -0.00000000000E+00 -0.45593999997E+02  0.45594000000E+02  0.51100000000E-03 0. -1.
    9900012    2    1    2    0    0 -0.92299391507E+01 -0.40607792654E+02 -0.12224510585E+02  0.47787271204E+02  0.20000000727E+02 0.  0.
         12    1    1    2    0    0  0.92299391507E+01  0.40607792654E+02  0.12224510585E+02  0.43400728796E+02  0.00000000000E+00 0. -1.
         11    1    3    3    0    0 -0.31921626443E+01 -0.14868636305E+02 -0.69615476705E+01  0.16725112680E+02  0.51100000000E-03 0. -1.
        -11    1    3    3    0    0  0.30618327102E+01 -0.53612016125E+01 -0.61672131250E+01  0.87265010322E+01  0.51100000000E-03 0.  1.
         12    1    3    3    0    0 -0.90996092166E+01 -0.20377954736E+02  0.90425021020E+00  0.22335657492E+02  0.00000000000E+00 0. -1.
</event>
<event>
 7    1  0.4519840E-010  0.4778727E+02  0.7816164E-02  0.1312668E+00
        -11   -1    0    0    0    0  0.00000000000E+00  0.00000000000E+00  0.45593999997E+02  0.45594000000E+02  0.51100000000E-03 0.  1.
         11   -1    0    0    0    0 -0.00000000000E+00 -0.00000000000E+00 -0.45593999997E+02  0.45594000000E+02  0.51100000000E-03 0. -1.
    9900012    2    1    2    0    0 -0.35205503183E+02  0.12471023179E+02 -0.22105867980E+02  0.47787271058E+02  0.20000000063E+02 0.  0.
         12    1    1    2    0    0  0.35205503183E+02 -0.12471023179E+02  0.22105867980E+02  0.43400728942E+02  0.00000000000E+00 0. -1.
         11    1    3    3    0    0 -0.87857099460E+01  0.91094034197E+01 -0.42828619524E+01  0.13360869608E+02  0.51100000000E-03 0.  1.
        -11    1    3    3    0    0 -0.44395343933E+01 -0.20243104543E+01  0.10121933677E+01  0.49831550366E+01  0.51100000000E-03 0. -1.
         12    1    3    3    0    0 -0.21980258844E+02  0.53859302139E+01 -0.18835199395E+02  0.29443246414E+02  0.00000000000E+00 0. -1.
</event>
<event>
 7    1  0.4519840E-010  0.4778728E+02  0.7816164E-02  0.1312668E+00
        -11   -1    0    0    0    0  0.00000000000E+00  0.00000000000E+00  0.45593999997E+02  0.45594000000E+02  0.51100000000E-03 0. -1.
         11   -1    0    0    0    0 -0.00000000000E+00 -0.00000000000E+00 -0.45593999997E+02  0.45594000000E+02  0.51100000000E-03 0.  1.
    9900012    2    1    2    0    0  0.78463477595E+01  0.20792377319E+00 -0.42685061172E+02  0.47787275896E+02  0.20000022120E+02 0.  0.
         12    1    1    2    0    0 -0.78463477595E+01 -0.20792377319E+00  0.42685061172E+02  0.43400724104E+02  0.00000000000E+00 0. -1.
         11    1    3    3    0    0  0.15959302823E+01  0.20719523935E+01 -0.20371452248E+02  0.20538647646E+02  0.51100000000E-03 0. -1.
        -11    1    3    3    0    0 -0.11649844641E+01 -0.29244963783E+01 -0.18642789685E+02  0.18906704508E+02  0.51100000000E-03 0.  1.
         12    1    3    3    0    0  0.74154019413E+01  0.10604677580E+01 -0.36708192394E+01  0.83419237413E+01  0.00000000000E+00 0. -1.
</event>
<event>
 7    1  0.4519840E-010  0.4778727E+02  0.7816164E-02  0.1312668E+00
        -11   -1    0    0    0    0  0.00000000000E+00  0.00000000000E+00  0.45593999997E+02  0.45594000000E+02  0.51100000000E-03 0.  1.
         11   -1    0    0    0    0 -0.00000000000E+00 -0.00000000000E+00 -0.45593999997E+02  0.45594000000E+02  0.51100000000E-03 0. -1.
    9900012    2    1    2    0    0  0.37800808348E+02 -0.11321449541E+02  0.18070608949E+02  0.47787271443E+02  0.20000001815E+02 0.  0.
        -12    1    1    2    0    0 -0.37800808348E+02  0.11321449541E+02 -0.18070608949E+02  0.43400728557E+02  0.00000000000E+00 0.  1.
         11    1    3    3    0    0  0.44313171085E+00  0.23108186591E+01  0.80632756932E+00  0.24872500877E+01  0.51100000000E-03 0. -1.
        -11    1    3    3    0    0  0.36139868491E+02 -0.13771667886E+02  0.19067357492E+02  0.43119752468E+02  0.51100000000E-03 0.  1.
         12    1    3    3    0    0  0.12178081462E+01  0.13939968501E+00 -0.18030761119E+01  0.21802688867E+01  0.00000000000E+00 0. -1.
</event>
<event>
 7    1  0.7945965E-010  0.4778727E+02  0.7816164E-02  0.1312668E+00
        -11   -1    0    0    0    0  0.00000000000E+00  0.00000000000E+00  0.45593999997E+02  0.45594000000E+02  0.51100000000E-03 0. -1.
         11   -1    0    0    0    0 -0.00000000000E+00 -0.00000000000E+00 -0.45593999997E+02  0.45594000000E+02  0.51100000000E-03 0.  1.
    9900012    2    1    2    0    0  0.11292911438E+02 -0.19293544523E+02 -0.37200171738E+02  0.47787268597E+02  0.19999988840E+02 0.  0.
         12    1    1    2    0    0 -0.11292911438E+02  0.19293544523E+02  0.37200171738E+02  0.43400731403E+02  0.00000000000E+00 0. -1.
         11    1    3    3    0    0  0.29414305539E+01  0.22560839768E+01 -0.51987047707E+00  0.37432865490E+01  0.51100000000E-03 0. -1.
        -11    1    3    3    0    0  0.83239376757E+01 -0.14073537160E+02 -0.20517394381E+02  0.26235774413E+02  0.51100000000E-03 0.  1.
        -12    1    3    3    0    0  0.27543208263E-01 -0.74760913395E+01 -0.16162906880E+02  0.17808207635E+02  0.00000000000E+00 0.  1.
</event>
<event>
 7    1  0.4519840E-010  0.4778726E+02  0.7816164E-02  0.1312668E+00
        -11   -1    0    0    0    0  0.00000000000E+00  0.00000000000E+00  0.45593999997E+02  0.45594000000E+02  0.51100000000E-03 0. -1.
         11   -1    0    0    0    0 -0.00000000000E+00 -0.00000000000E+00 -0.45593999997E+02  0.45594000000E+02  0.51100000000E-03 0.  1.
    9900012    2    1    2    0    0  0.18325201501E+02 -0.32012194769E+02 -0.22869859557E+02  0.47787261525E+02  0.19999956598E+02 0.  0.
         12    1    1    2    0    0 -0.18325201501E+02  0.32012194769E+02  0.22869859557E+02  0.43400738475E+02  0.00000000000E+00 0. -1.
         11    1    3    3    0    0  0.50519586054E+01 -0.91183054355E+00 -0.61094459740E+01  0.79799154795E+01  0.51100000000E-03 0. -1.
        -11    1    3    3    0    0  0.99611714132E+01 -0.14291023282E+02 -0.14220936643E+02  0.22487625967E+02  0.51100000000E-03 0.  1.
        -12    1    3    3    0    0  0.33120714826E+01 -0.16809340944E+02 -0.25394769401E+01  0.17319720079E+02  0.00000000000E+00 0.  1.
</event>
<event>
 7    1  0.4519840E-010  0.4778727E+02  0.7816164E-02  0.1312668E+00
        -11   -1    0    0    0    0  0.00000000000E+00  0.00000000000E+00  0.45593999997E+02  0.45594000000E+02  0.51100000000E-03 0.  1.
         11   -1    0    0    0    0 -0.00000000000E+00 -0.00000000000E+00 -0.45593999997E+02  0.45594000000E+02  0.51100000000E-03 0. -1.
    9900012    2    1    2    0    0  0.20746942932E+02  0.38046903925E+02  0.23707841118E+01  0.47787272396E+02  0.20000006162E+02 0.  0.
        -12    1    1    2    0    0 -0.20746942932E+02 -0.38046903925E+02 -0.23707841118E+01  0.43400727604E+02  0.00000000000E+00 0.  1.
         11    1    3    3    0    0  0.13888903975E+02  0.35814764685E+02  0.17213298509E+01  0.38452074063E+02  0.51100000000E-03 0. -1.
        -11    1    3    3    0    0  0.44948765155E+01  0.23581475360E+01 -0.22840624348E+01  0.55661221832E+01  0.51100000000E-03 0.  1.
         12    1    3    3    0    0  0.23631624415E+01 -0.12600829620E+00  0.29335166957E+01  0.37690761493E+01  0.00000000000E+00 0. -1.
</event>
<event>
 7    1  0.4519840E-010  0.4778727E+02  0.7816164E-02  0.1312668E+00
        -11   -1    0    0    0    0  0.00000000000E+00  0.00000000000E+00  0.45593999997E+02  0.45594000000E+02  0.51100000000E-03 0. -1.
         11   -1    0    0    0    0 -0.00000000000E+00 -0.00000000000E+00 -0.45593999997E+02  0.45594000000E+02  0.51100000000E-03 0.  1.
    9900012    2    1    2    0    0 -0.88198840047E+01 -0.20506995456E+02  0.37219564536E+02  0.47787271887E+02  0.20000003842E+02 0.  0.
        -12    1    1    2    0    0  0.88198840047E+01  0.20506995456E+02 -0.37219564536E+02  0.43400728113E+02  0.00000000000E+00 0.  1.
         11    1    3    3    0    0 -0.78368433038E+01 -0.75250759026E+01  0.19777239551E+02  0.22565063369E+02  0.51100000000E-03 0. -1.
        -11    1    3    3    0    0 -0.22646333946E+01  0.20695513293E+01  0.23076726256E+01  0.38388748774E+01  0.51100000000E-03 0.  1.
         12    1    3    3    0    0  0.12815926937E+01 -0.15051470883E+02  0.15134652359E+02  0.21383333641E+02  0.00000000000E+00 0. -1.
</event>
<event>
 7    1  0.4519840E-010  0.4778727E+02  0.7816164E-02  0.1312668E+00
        -11   -1    0    0    0    0  0.00000000000E+00  0.00000000000E+00  0.45593999997E+02  0.45594000000E+02  0.51100000000E-03 0. -1.
         11   -1    0    0    0    0 -0.00000000000E+00 -0.00000000000E+00 -0.45593999997E+02  0.45594000000E+02  0.51100000000E-03 0.  1.
    9900012    2    1    2    0    0  0.22187682252E+02  0.70606872197E+01  0.36626176953E+02  0.47787269754E+02  0.19999994116E+02 0.  0.
        -12    1    1    2    0    0 -0.22187682252E+02 -0.70606872197E+01 -0.36626176953E+02  0.43400730246E+02  0.00000000000E+00 0.  1.
         11    1    3    3    0    0  0.13646619652E+02  0.23344503672E+01  0.23322819045E+02  0.27122569475E+02  0.51100000000E-03 0. -1.
        -11    1    3    3    0    0  0.96840666069E+01  0.67572390189E+01  0.65130714569E+01  0.13485604372E+02  0.51100000000E-03 0.  1.
        -12    1    3    3    0    0 -0.11430040074E+01 -0.20310021664E+01  0.67902864509E+01  0.71790959073E+01  0.00000000000E+00 0.  1.
</event>
<event>
 7    1  0.4519840E-010  0.4778722E+02  0.7816164E-02  0.1312668E+00
        -11   -1    0    0    0    0  0.00000000000E+00  0.00000000000E+00  0.45593999997E+02  0.45594000000E+02  0.51100000000E-03 0. -1.
         11   -1    0    0    0    0 -0.00000000000E+00 -0.00000000000E+00 -0.45593999997E+02  0.45594000000E+02  0.51100000000E-03 0.  1.
    9900012    2    1    2    0    0 -0.38303984576E+02 -0.43945267021E+01  0.19927882934E+02  0.47787221003E+02  0.19999771839E+02 0.  0.
        -12    1    1    2    0    0  0.38303984576E+02  0.43945267021E+01 -0.19927882934E+02  0.43400778997E+02  0.00000000000E+00 0.  1.
         11    1    3    3    0    0 -0.15797869985E+02  0.55729626153E+01  0.15098378096E+02  0.22551976183E+02  0.51100000000E-03 0. -1.
        -11    1    3    3    0    0 -0.53680387310E+01 -0.20256385389E+01 -0.52472413132E-02  0.57375150634E+01  0.51100000000E-03 0.  1.
         12    1    3    3    0    0 -0.17138075860E+02 -0.79418507785E+01  0.48347520793E+01  0.19497729756E+02  0.00000000000E+00 0. -1.
</event>
<event>
 7    1  0.4519840E-010  0.4778727E+02  0.7816164E-02  0.1312668E+00
        -11   -1    0    0    0    0  0.00000000000E+00  0.00000000000E+00  0.45593999997E+02  0.45594000000E+02  0.51100000000E-03 0. -1.
         11   -1    0    0    0    0 -0.00000000000E+00 -0.00000000000E+00 -0.45593999997E+02  0.45594000000E+02  0.51100000000E-03 0.  1.
    9900012    2    1    2    0    0  0.28932275032E+02 -0.32296087396E+02  0.18732976917E+01  0.47787273694E+02  0.20000012082E+02 0.  0.
        -12    1    1    2    0    0 -0.28932275032E+02  0.32296087396E+02 -0.18732976917E+01  0.43400726306E+02  0.00000000000E+00 0.  1.
         11    1    3    3    0    0  0.21025625493E+01  0.15695481335E+01 -0.77890147895E+00  0.27369578718E+01  0.51100000000E-03 0. -1.
        -11    1    3    3    0    0  0.14389442130E+01 -0.15423435914E+00 -0.21315412370E+01  0.25763961248E+01  0.51100000000E-03 0.  1.
         12    1    3    3    0    0  0.25390768269E+02 -0.33711401171E+02  0.47837404077E+01  0.42473919698E+02  0.00000000000E+00 0. -1.
</event>
<event>
 7    1  0.4519840E-010  0.4778727E+02  0.7816164E-02  0.1312668E+00
        -11   -1    0    0    0    0  0.00000000000E+00  0.00000000000E+00  0.45593999997E+02  0.45594000000E+02  0.51100000000E-03 0. -1.
         11   -1    0    0    0    0 -0.00000000000E+00 -0.00000000000E+00 -0.45593999997E+02  0.45594000000E+02  0.51100000000E-03 0.  1.
    9900012    2    1    2    0    0  0.14835427725E+02  0.30085681789E+02 -0.27538796030E+02  0.47787269000E+02  0.19999990679E+02 0.  0.
         12    1    1    2    0    0 -0.14835427725E+02 -0.30085681789E+02  0.27538796030E+02  0.43400731000E+02  0.00000000000E+00 0. -1.
         11    1    3    3    0    0 -0.98235406503E+00  0.46780671301E+00  0.59245363916E+00  0.12388963659E+01  0.51100000000E-03 0. -1.
        -11    1    3    3    0    0 -0.42943325673E+00  0.39319555257E+01 -0.10933636645E+02  0.11627084661E+02  0.51100000000E-03 0.  1.
         12    1    3    3    0    0  0.16247215047E+02  0.25685919551E+02 -0.17197613025E+02  0.34921287973E+02  0.00000000000E+00 0. -1.
</event>
<event>
 7    1  0.4519840E-010  0.4778728E+02  0.7816164E-02  0.1312668E+00
        -11   -1    0    0    0    0  0.00000000000E+00  0.00000000000E+00  0.45593999997E+02  0.45594000000E+02  0.51100000000E-03 0. -1.
         11   -1    0    0    0    0 -0.00000000000E+00 -0.00000000000E+00 -0.45593999997E+02  0.45594000000E+02  0.51100000000E-03 0.  1.
    9900012    2    1    2    0    0 -0.17814788676E+01 -0.42379789337E+02 -0.91870840016E+01  0.47787277384E+02  0.20000028903E+02 0.  0.
         12    1    1    2    0    0  0.17814788676E+01  0.42379789337E+02  0.91870840016E+01  0.43400722616E+02  0.00000000000E+00 0. -1.
         11    1    3    3    0    0 -0.31234871018E+01 -0.82231320188E+01 -0.42724839159E+01  0.97790690224E+01  0.51100000000E-03 0. -1.
        -11    1    3    3    0    0 -0.36292019183E+01 -0.17377077175E+02  0.42494443868E+01  0.18253539261E+02  0.51100000000E-03 0.  1.
        -12    1    3    3    0    0  0.49712101524E+01 -0.16779580143E+02 -0.91640444726E+01  0.19754669100E+02  0.00000000000E+00 0.  1.
</event>
<event>
 7    1  0.4519840E-010  0.4778727E+02  0.7816164E-02  0.1312668E+00
        -11   -1    0    0    0    0  0.00000000000E+00  0.00000000000E+00  0.45593999997E+02  0.45594000000E+02  0.51100000000E-03 0. -1.
         11   -1    0    0    0    0 -0.00000000000E+00 -0.00000000000E+00 -0.45593999997E+02  0.45594000000E+02  0.51100000000E-03 0.  1.
    9900012    2    1    2    0    0  0.21926538367E+01  0.13920781399E+02  0.41049088811E+02  0.47787267543E+02  0.19999984035E+02 0.  0.
        -12    1    1    2    0    0 -0.21926538367E+01 -0.13920781399E+02 -0.41049088811E+02  0.43400732457E+02  0.00000000000E+00 0.  1.
         11    1    3    3    0    0  0.64991345979E+01 -0.26739394121E+00  0.12688340171E+02  0.14258479113E+02  0.51100000000E-03 0. -1.
        -11    1    3    3    0    0  0.29327743634E+01  0.27614218840E+01  0.40749184721E+01  0.57298845629E+01  0.51100000000E-03 0.  1.
         12    1    3    3    0    0 -0.72392551247E+01  0.11426753456E+02  0.24285830167E+02  0.27798903867E+02  0.00000000000E+00 0. -1.
</event>
<event>
 7    1  0.4519840E-010  0.4778728E+02  0.7816164E-02  0.1312668E+00
        -11   -1    0    0    0    0  0.00000000000E+00  0.00000000000E+00  0.45593999997E+02  0.45594000000E+02  0.51100000000E-03 0. -1.
         11   -1    0    0    0    0 -0.00000000000E+00 -0.00000000000E+00 -0.45593999997E+02  0.45594000000E+02  0.51100000000E-03 0.  1.
    9900012    2    1    2    0    0  0.45659726049E+01 -0.17472943363E+02  0.39464802944E+02  0.47787279649E+02  0.20000039230E+02 0.  0.
        -12    1    1    2    0    0 -0.45659726049E+01  0.17472943363E+02 -0.39464802944E+02  0.43400720351E+02  0.00000000000E+00 0.  1.
         11    1    3    3    0    0  0.25388090939E+01 -0.27401671972E+01  0.11163025392E+02  0.11771457176E+02  0.51100000000E-03 0. -1.
        -11    1    3    3    0    0 -0.48698481847E+01  0.75091889089E+00  0.94969294369E+01  0.10699110688E+02  0.51100000000E-03 0.  1.
        -12    1    3    3    0    0  0.68970116957E+01 -0.15483695057E+02  0.18804848115E+02  0.25316711784E+02  0.00000000000E+00 0.  1.
</event>
<event>
 7    1  0.4519840E-010  0.4778727E+02  0.7816164E-02  0.1312668E+00
        -11   -1    0    0    0    0  0.00000000000E+00  0.00000000000E+00  0.45593999997E+02  0.45594000000E+02  0.51100000000E-03 0.  1.
         11   -1    0    0    0    0 -0.00000000000E+00 -0.00000000000E+00 -0.45593999997E+02  0.45594000000E+02  0.51100000000E-03 0. -1.
    9900012    2    1    2    0    0  0.34377372324E+02 -0.26485743319E+02  0.57012886624E+00  0.47787269891E+02  0.19999994740E+02 0.  0.
        -12    1    1    2    0    0 -0.34377372324E+02  0.26485743319E+02 -0.57012886624E+00  0.43400730109E+02  0.00000000000E+00 0.  1.
         11    1    3    3    0    0  0.37038879016E+00 -0.20184572586E+01  0.44149015853E+00  0.20991120460E+01  0.51100000000E-03 0. -1.
        -11    1    3    3    0    0  0.42109388681E+01 -0.10087164890E+00  0.53889087073E+01  0.68397747446E+01  0.51100000000E-03 0.  1.
         12    1    3    3    0    0  0.29796044666E+02 -0.24366414412E+02 -0.52602699996E+01  0.38848383100E+02  0.00000000000E+00 0. -1.
</event>
<event>
 7    1  0.4519840E-010  0.4778727E+02  0.7816164E-02  0.1312668E+00
        -11   -1    0    0    0    0  0.00000000000E+00  0.00000000000E+00  0.45593999997E+02  0.45594000000E+02  0.51100000000E-03 0. -1.
         11   -1    0    0    0    0 -0.00000000000E+00 -0.00000000000E+00 -0.45593999997E+02  0.45594000000E+02  0.51100000000E-03 0.  1.
    9900012    2    1    2    0    0  0.79334511523E+01  0.23112620394E+02 -0.35867677174E+02  0.47787272650E+02  0.20000007321E+02 0.  0.
         12    1    1    2    0    0 -0.79334511523E+01 -0.23112620394E+02  0.35867677174E+02  0.43400727350E+02  0.00000000000E+00 0. -1.
         11    1    3    3    0    0 -0.14244031807E+01  0.18872346614E+02 -0.30588781054E+02  0.35970375558E+02  0.51100000000E-03 0. -1.
        -11    1    3    3    0    0  0.26850848464E+01  0.16391758889E+01 -0.28769516443E+01  0.42630305244E+01  0.51100000000E-03 0.  1.
         12    1    3    3    0    0  0.66727694866E+01  0.26010978911E+01 -0.24019444750E+01  0.75538665676E+01  0.00000000000E+00 0. -1.
</event>
<event>
 7    1  0.4519840E-010  0.4778727E+02  0.7816164E-02  0.1312668E+00
        -11   -1    0    0    0    0  0.00000000000E+00  0.00000000000E+00  0.45593999997E+02  0.45594000000E+02  0.51100000000E-03 0. -1.
         11   -1    0    0    0    0 -0.00000000000E+00 -0.00000000000E+00 -0.45593999997E+02  0.45594000000E+02  0.51100000000E-03 0.  1.
    9900012    2    1    2    0    0  0.10308323861E+01  0.67935646538E+01 -0.42853334000E+02  0.47787269925E+02  0.19999994898E+02 0.  0.
         12    1    1    2    0    0 -0.10308323861E+01 -0.67935646538E+01  0.42853334000E+02  0.43400730075E+02  0.00000000000E+00 0. -1.
         11    1    3    3    0    0  0.78817299681E+01  0.13991435763E+01 -0.21034451490E+02  0.22506164039E+02  0.51100000000E-03 0. -1.
        -11    1    3    3    0    0  0.22372776522E+01  0.35459092398E+00 -0.53201281480E+01  0.57822927796E+01  0.51100000000E-03 0.  1.
        -12    1    3    3    0    0 -0.90881752341E+01  0.50398301536E+01 -0.16498754362E+02  0.19498813106E+02  0.00000000000E+00 0.  1.
</event>
<event>
 7    1  0.4519840E-010  0.4778727E+02  0.7816164E-02  0.1312668E+00
        -11   -1    0    0    0    0  0.00000000000E+00  0.00000000000E+00  0.45593999997E+02  0.45594000000E+02  0.51100000000E-03 0. -1.
         11   -1    0    0    0    0 -0.00000000000E+00 -0.00000000000E+00 -0.45593999997E+02  0.45594000000E+02  0.51100000000E-03 0.  1.
    9900012    2    1    2    0    0 -0.13621266530E+02  0.12141237371E+02  0.39378606277E+02  0.47787272137E+02  0.20000004980E+02 0.  0.
        -12    1    1    2    0    0  0.13621266530E+02 -0.12141237371E+02 -0.39378606277E+02  0.43400727863E+02  0.00000000000E+00 0.  1.
         11    1    3    3    0    0 -0.25675401829E+01  0.66336646245E+01  0.21017173246E+02  0.22188270335E+02  0.51100000000E-03 0. -1.
        -11    1    3    3    0    0  0.13323953375E-01  0.60056614738E+01  0.10208577232E+02  0.11844120763E+02  0.51100000000E-03 0.  1.
        -12    1    3    3    0    0 -0.11067050300E+02 -0.49808872761E+00  0.81528557980E+01  0.13754881039E+02  0.00000000000E+00 0.  1.
</event>
<event>
 7    1  0.4519840E-010  0.4778721E+02  0.7816164E-02  0.1312668E+00
        -11   -1    0    0    0    0  0.00000000000E+00  0.00000000000E+00  0.45593999997E+02  0.45594000000E+02  0.51100000000E-03 0. -1.
         11   -1    0    0    0    0 -0.00000000000E+00 -0.00000000000E+00 -0.45593999997E+02  0.45594000000E+02  0.51100000000E-03 0.  1.
    9900012    2    1    2    0    0  0.16672996916E+02 -0.13922706187E+02 -0.37573897197E+02  0.47787212860E+02  0.19999734714E+02 0.  0.
         12    1    1    2    0    0 -0.16672996916E+02  0.13922706187E+02  0.37573897197E+02  0.43400787140E+02  0.00000000000E+00 0. -1.
         11    1    3    3    0    0  0.10937676895E+02 -0.78423963839E+01 -0.17916227961E+02  0.22408194517E+02  0.51100000000E-03 0.  1.
        -11    1    3    3    0    0  0.77616302103E+01 -0.93372490638E+01 -0.13847387874E+02  0.18416766133E+02  0.51100000000E-03 0. -1.
         12    1    3    3    0    0 -0.20263101892E+01  0.32569392608E+01 -0.58102813623E+01  0.69622522104E+01  0.00000000000E+00 0. -1.
</event>
<event>
 7    1  0.4519840E-010  0.4778727E+02  0.7816164E-02  0.1312668E+00
        -11   -1    0    0    0    0  0.00000000000E+00  0.00000000000E+00  0.45593999997E+02  0.45594000000E+02  0.51100000000E-03 0. -1.
         11   -1    0    0    0    0 -0.00000000000E+00 -0.00000000000E+00 -0.45593999997E+02  0.45594000000E+02  0.51100000000E-03 0.  1.
    9900012    2    1    2    0    0 -0.18267837299E+02  0.31650119205E+01  0.39241459979E+02  0.47787270037E+02  0.19999995407E+02 0.  0.
        -12    1    1    2    0    0  0.18267837299E+02 -0.31650119205E+01 -0.39241459979E+02  0.43400729963E+02  0.00000000000E+00 0.  1.
         11    1    3    3    0    0 -0.14714428084E+02 -0.40630096191E+00  0.22553774119E+02  0.26932363461E+02  0.51100000000E-03 0. -1.
        -11    1    3    3    0    0 -0.17757417134E+01 -0.41348243400E+01  0.48257708765E+01  0.65983403799E+01  0.51100000000E-03 0.  1.
         12    1    3    3    0    0 -0.17776675018E+01  0.77061372225E+01  0.11861914983E+02  0.14256566196E+02  0.00000000000E+00 0. -1.
</event>
<event>
 7    1  0.4519840E-010  0.4778727E+02  0.7816164E-02  0.1312668E+00
        -11   -1    0    0    0    0  0.00000000000E+00  0.00000000000E+00  0.45593999997E+02  0.45594000000E+02  0.51100000000E-03 0. -1.
         11   -1    0    0    0    0 -0.00000000000E+00 -0.00000000000E+00 -0.45593999997E+02  0.45594000000E+02  0.51100000000E-03 0.  1.
    9900012    2    1    2    0    0  0.36414716690E+01  0.26997864076E+02 -0.33785766237E+02  0.47787274421E+02  0.20000015393E+02 0.  0.
         12    1    1    2    0    0 -0.36414716690E+01 -0.26997864076E+02  0.33785766237E+02  0.43400725579E+02  0.00000000000E+00 0. -1.
         11    1    3    3    0    0  0.22338839530E+01 -0.20924569824E+00 -0.23376502673E+01  0.32401589947E+01  0.51100000000E-03 0. -1.
        -11    1    3    3    0    0  0.85914155406E+01  0.16911684180E+02 -0.19837891283E+02  0.27447393567E+02  0.51100000000E-03 0.  1.
         12    1    3    3    0    0 -0.71838278246E+01  0.10295425594E+02 -0.11610224687E+02  0.17099721859E+02  0.00000000000E+00 0. -1.
</event>
<event>
 7    1  0.4519840E-010  0.4778730E+02  0.7816164E-02  0.1312668E+00
        -11   -1    0    0    0    0  0.00000000000E+00  0.00000000000E+00  0.45593999997E+02  0.45594000000E+02  0.51100000000E-03 0. -1.
         11   -1    0    0    0    0 -0.00000000000E+00 -0.00000000000E+00 -0.45593999997E+02  0.45594000000E+02  0.51100000000E-03 0.  1.
    9900012    2    1    2    0    0 -0.26452311805E+02  0.34392967857E+02 -0.10099495902E+01  0.47787296826E+02  0.20000117547E+02 0.  0.
         12    1    1    2    0    0  0.26452311805E+02 -0.34392967857E+02  0.10099495902E+01  0.43400703174E+02  0.00000000000E+00 0. -1.
         11    1    3    3    0    0 -0.70020023477E+01  0.31047756125E+01 -0.37135625638E+01  0.85122391683E+01  0.51100000000E-03 0.  1.
        -11    1    3    3    0    0 -0.60715917775E+01  0.15986858797E+02 -0.45469691786E+01  0.17695163460E+02  0.51100000000E-03 0. -1.
         12    1    3    3    0    0 -0.13378717679E+02  0.15301333448E+02  0.72505821521E+01  0.21579894197E+02  0.00000000000E+00 0. -1.
</event>
<event>
 7    1  0.4519840E-010  0.4778726E+02  0.7816164E-02  0.1312668E+00
        -11   -1    0    0    0    0  0.00000000000E+00  0.00000000000E+00  0.45593999997E+02  0.45594000000E+02  0.51100000000E-03 0. -1.
         11   -1    0    0    0    0 -0.00000000000E+00 -0.00000000000E+00 -0.45593999997E+02  0.45594000000E+02  0.51100000000E-03 0.  1.
    9900012    2    1    2    0    0  0.15590008825E+02 -0.30440679297E+01 -0.40389473005E+02  0.47787259749E+02  0.19999948500E+02 0.  0.
         12    1    1    2    0    0 -0.15590008825E+02  0.30440679297E+01  0.40389473005E+02  0.43400740251E+02  0.00000000000E+00 0. -1.
         11    1    3    3    0    0  0.11077966737E+01  0.67018173809E+01 -0.74480262070E+01  0.10080409928E+02  0.51100000000E-03 0. -1.
        -11    1    3    3    0    0  0.17633675344E+01 -0.28478397752E+01 -0.10355771561E+02  0.10884009432E+02  0.51100000000E-03 0.  1.
         12    1    3    3    0    0  0.12718844617E+02 -0.68980455354E+01 -0.22585675237E+02  0.26822840389E+02  0.00000000000E+00 0. -1.
</event>
<event>
 7    1  0.4519840E-010  0.4778725E+02  0.7816164E-02  0.1312668E+00
        -11   -1    0    0    0    0  0.00000000000E+00  0.00000000000E+00  0.45593999997E+02  0.45594000000E+02  0.51100000000E-03 0. -1.
         11   -1    0    0    0    0 -0.00000000000E+00 -0.00000000000E+00 -0.45593999997E+02  0.45594000000E+02  0.51100000000E-03 0.  1.
    9900012    2    1    2    0    0  0.42606984621E+01 -0.42024924859E+02 -0.99688206712E+01  0.47787248320E+02  0.19999896392E+02 0.  0.
         12    1    1    2    0    0 -0.42606984621E+01  0.42024924859E+02  0.99688206712E+01  0.43400751680E+02  0.00000000000E+00 0. -1.
         11    1    3    3    0    0 -0.38481115296E+01 -0.97553163020E+00  0.11250713884E+01  0.41261859139E+01  0.51100000000E-03 0. -1.
        -11    1    3    3    0    0  0.11342725316E+00 -0.74794451474E+01 -0.23515099647E+00  0.74840003812E+01  0.51100000000E-03 0.  1.
        -12    1    3    3    0    0  0.79953827385E+01 -0.33569948081E+02 -0.10858741063E+02  0.36177062025E+02  0.00000000000E+00 0.  1.
</event>
<event>
 7    1  0.4519840E-010  0.4778727E+02  0.7816164E-02  0.1312668E+00
        -11   -1    0    0    0    0  0.00000000000E+00  0.00000000000E+00  0.45593999997E+02  0.45594000000E+02  0.51100000000E-03 0. -1.
         11   -1    0    0    0    0 -0.00000000000E+00 -0.00000000000E+00 -0.45593999997E+02  0.45594000000E+02  0.51100000000E-03 0.  1.
    9900012    2    1    2    0    0  0.39334985034E+02  0.40934567379E+01 -0.17878076166E+02  0.47787273703E+02  0.20000012122E+02 0.  0.
         12    1    1    2    0    0 -0.39334985034E+02 -0.40934567379E+01  0.17878076166E+02  0.43400726297E+02  0.00000000000E+00 0. -1.
         11    1    3    3    0    0  0.55119952178E-01  0.14436891430E+01 -0.16623475827E+01  0.22024250947E+01  0.51100000000E-03 0. -1.
        -11    1    3    3    0    0  0.16919377320E+02  0.91396279651E+01 -0.88102427397E+01  0.21152269515E+02  0.51100000000E-03 0.  1.
        -12    1    3    3    0    0  0.22360487762E+02 -0.64898603702E+01 -0.74054858434E+01  0.24432579093E+02  0.00000000000E+00 0.  1.
</event>
<event>
 7    1  0.4519840E-010  0.4778727E+02  0.7816164E-02  0.1312668E+00
        -11   -1    0    0    0    0  0.00000000000E+00  0.00000000000E+00  0.45593999997E+02  0.45594000000E+02  0.51100000000E-03 0. -1.
         11   -1    0    0    0    0 -0.00000000000E+00 -0.00000000000E+00 -0.45593999997E+02  0.45594000000E+02  0.51100000000E-03 0.  1.
    9900012    2    1    2    0    0 -0.20629584607E+02 -0.81013446405E+01 -0.37315032251E+02  0.47787272150E+02  0.20000005040E+02 0.  0.
         12    1    1    2    0    0  0.20629584607E+02  0.81013446405E+01  0.37315032251E+02  0.43400727850E+02  0.00000000000E+00 0. -1.
         11    1    3    3    0    0  0.80362919497E+00 -0.63516101330E+01 -0.13342245799E+02  0.14798793680E+02  0.51100000000E-03 0. -1.
        -11    1    3    3    0    0 -0.20030995630E+01  0.19144904292E+01 -0.41522500241E+01  0.49918796046E+01  0.51100000000E-03 0.  1.
        -12    1    3    3    0    0 -0.19430114239E+02 -0.36642249367E+01 -0.19820536428E+02  0.27996598865E+02  0.00000000000E+00 0.  1.
</event>
<event>
 7    1  0.4519840E-010  0.4778727E+02  0.7816164E-02  0.1312668E+00
        -11   -1    0    0    0    0  0.00000000000E+00  0.00000000000E+00  0.45593999997E+02  0.45594000000E+02  0.51100000000E-03 0. -1.
         11   -1    0    0    0    0 -0.00000000000E+00 -0.00000000000E+00 -0.45593999997E+02  0.45594000000E+02  0.51100000000E-03 0.  1.
    9900012    2    1    2    0    0 -0.14201711427E+02  0.27479005443E+02  0.30444033419E+02  0.47787268227E+02  0.19999987155E+02 0.  0.
        -12    1    1    2    0    0  0.14201711427E+02 -0.27479005443E+02 -0.30444033419E+02  0.43400731773E+02  0.00000000000E+00 0.  1.
         11    1    3    3    0    0  0.19517769903E+00  0.13764773964E+01 -0.88854641366E+00  0.16499391951E+01  0.51100000000E-03 0. -1.
        -11    1    3    3    0    0 -0.10374984225E+02  0.86588153796E+01  0.52391337513E+01  0.14493581482E+02  0.51100000000E-03 0.  1.
         12    1    3    3    0    0 -0.40219049018E+01  0.17443712667E+02  0.26093446081E+02  0.31643747551E+02  0.00000000000E+00 0. -1.
</event>
<event>
 7    1  0.4519840E-010  0.4778728E+02  0.7816164E-02  0.1312668E+00
        -11   -1    0    0    0    0  0.00000000000E+00  0.00000000000E+00  0.45593999997E+02  0.45594000000E+02  0.51100000000E-03 0. -1.
         11   -1    0    0    0    0 -0.00000000000E+00 -0.00000000000E+00 -0.45593999997E+02  0.45594000000E+02  0.51100000000E-03 0.  1.
    9900012    2    1    2    0    0 -0.25439508872E+02  0.21617001479E+02 -0.27733718981E+02  0.47787279578E+02  0.20000038910E+02 0.  0.
         12    1    1    2    0    0  0.25439508872E+02 -0.21617001479E+02  0.27733718981E+02  0.43400720422E+02  0.00000000000E+00 0. -1.
         11    1    3    3    0    0 -0.22359636122E+02  0.23755040409E+02 -0.27032532442E+02  0.42367594726E+02  0.51100000000E-03 0. -1.
        -11    1    3    3    0    0 -0.20783359729E+01  0.77291154601E+00  0.15971284022E+00  0.22231466723E+01  0.51100000000E-03 0.  1.
         12    1    3    3    0    0 -0.10015367771E+01 -0.29109504769E+01 -0.86089937923E+00  0.31965381800E+01  0.00000000000E+00 0. -1.
</event>
<event>
 7    1  0.4519840E-010  0.4778727E+02  0.7816164E-02  0.1312668E+00
        -11   -1    0    0    0    0  0.00000000000E+00  0.00000000000E+00  0.45593999997E+02  0.45594000000E+02  0.51100000000E-03 0. -1.
         11   -1    0    0    0    0 -0.00000000000E+00 -0.00000000000E+00 -0.45593999997E+02  0.45594000000E+02  0.51100000000E-03 0.  1.
    9900012    2    1    2    0    0 -0.13174381867E+02  0.98218357535E+01  0.40169520385E+02  0.47787272321E+02  0.20000005820E+02 0.  0.
        -12    1    1    2    0    0  0.13174381867E+02 -0.98218357535E+01 -0.40169520385E+02  0.43400727679E+02  0.00000000000E+00 0.  1.
         11    1    3    3    0    0 -0.93991239169E+01  0.28176239274E+01  0.26496810349E+02  0.28255326824E+02  0.51100000000E-03 0. -1.
        -11    1    3    3    0    0 -0.78334721850E+01  0.38170851748E+01  0.95414153706E+01  0.12921765872E+02  0.51100000000E-03 0.  1.
        -12    1    3    3    0    0  0.40582142350E+01  0.31871266512E+01  0.41312946645E+01  0.66101796248E+01  0.00000000000E+00 0.  1.
</event>
<event>
 7    1  0.4519840E-010  0.4778727E+02  0.7816164E-02  0.1312668E+00
        -11   -1    0    0    0    0  0.00000000000E+00  0.00000000000E+00  0.45593999997E+02  0.45594000000E+02  0.51100000000E-03 0. -1.
         11   -1    0    0    0    0 -0.00000000000E+00 -0.00000000000E+00 -0.45593999997E+02  0.45594000000E+02  0.51100000000E-03 0.  1.
    9900012    2    1    2    0    0 -0.26642971090E+02  0.11519384094E+02 -0.32265756495E+02  0.47787272349E+02  0.20000005949E+02 0.  0.
         12    1    1    2    0    0  0.26642971090E+02 -0.11519384094E+02  0.32265756495E+02  0.43400727651E+02  0.00000000000E+00 0. -1.
         11    1    3    3    0    0 -0.96517471739E+01  0.33838651579E+01 -0.10214615141E+02  0.14454934440E+02  0.51100000000E-03 0. -1.
        -11    1    3    3    0    0 -0.17489478246E+02  0.79858427867E+01 -0.24321531623E+02  0.31003103637E+02  0.51100000000E-03 0.  1.
         12    1    3    3    0    0  0.49825432999E+00  0.14967614913E+00  0.22703902687E+01  0.23292342731E+01  0.00000000000E+00 0. -1.
</event>
<event>
 7    1  0.4519840E-010  0.4778727E+02  0.7816164E-02  0.1312668E+00
        -11   -1    0    0    0    0  0.00000000000E+00  0.00000000000E+00  0.45593999997E+02  0.45594000000E+02  0.51100000000E-03 0. -1.
         11   -1    0    0    0    0 -0.00000000000E+00 -0.00000000000E+00 -0.45593999997E+02  0.45594000000E+02  0.51100000000E-03 0.  1.
    9900012    2    1    2    0    0  0.19553303803E+02  0.16032443303E+02 -0.35273960859E+02  0.47787271405E+02  0.20000001646E+02 0.  0.
         12    1    1    2    0    0 -0.19553303803E+02 -0.16032443303E+02  0.35273960859E+02  0.43400728595E+02  0.00000000000E+00 0. -1.
         11    1    3    3    0    0  0.81702612210E+01  0.16366719237E+02 -0.23760799803E+02  0.29986634932E+02  0.51100000000E-03 0. -1.
        -11    1    3    3    0    0  0.82966470211E+01  0.31154229489E+01 -0.65959919072E+01  0.11047502951E+02  0.51100000000E-03 0.  1.
        -12    1    3    3    0    0  0.30863955604E+01 -0.34496988829E+01 -0.49171691490E+01  0.67531335229E+01  0.00000000000E+00 0.  1.
</event>
<event>
 7    1  0.4519840E-010  0.4778727E+02  0.7816164E-02  0.1312668E+00
        -11   -1    0    0    0    0  0.00000000000E+00  0.00000000000E+00  0.45593999997E+02  0.45594000000E+02  0.51100000000E-03 0. -1.
         11   -1    0    0    0    0 -0.00000000000E+00 -0.00000000000E+00 -0.45593999997E+02  0.45594000000E+02  0.51100000000E-03 0.  1.
    9900012    2    1    2    0    0  0.12033999741E+02  0.26067571289E+02  0.32546700795E+02  0.47787272411E+02  0.20000006229E+02 0.  0.
        -12    1    1    2    0    0 -0.12033999741E+02 -0.26067571289E+02 -0.32546700795E+02  0.43400727589E+02  0.00000000000E+00 0.  1.
         11    1    3    3    0    0  0.10152462594E+02  0.20392802138E+02  0.23401880309E+02  0.32658641705E+02  0.51100000000E-03 0. -1.
        -11    1    3    3    0    0  0.57244355616E+01  0.22418055490E+01  0.75460670920E+01  0.97333438980E+01  0.51100000000E-03 0.  1.
        -12    1    3    3    0    0 -0.38428984153E+01  0.34329636026E+01  0.15987533937E+01  0.53952868080E+01  0.00000000000E+00 0.  1.
</event>
<event>
 7    1  0.4519840E-010  0.4778727E+02  0.7816164E-02  0.1312668E+00
        -11   -1    0    0    0    0  0.00000000000E+00  0.00000000000E+00  0.45593999997E+02  0.45594000000E+02  0.51100000000E-03 0. -1.
         11   -1    0    0    0    0 -0.00000000000E+00 -0.00000000000E+00 -0.45593999997E+02  0.45594000000E+02  0.51100000000E-03 0.  1.
    9900012    2    1    2    0    0 -0.10020534611E+02 -0.27314988397E+02  0.32204096517E+02  0.47787268008E+02  0.19999986154E+02 0.  0.
        -12    1    1    2    0    0  0.10020534611E+02  0.27314988397E+02 -0.32204096517E+02  0.43400731992E+02  0.00000000000E+00 0.  1.
         11    1    3    3    0    0 -0.13494615793E+01 -0.12637995348E+02  0.15931593704E+02  0.20380276033E+02  0.51100000000E-03 0. -1.
        -11    1    3    3    0    0 -0.97115717263E+01 -0.15296024807E+02  0.17839360003E+02  0.25426870941E+02  0.51100000000E-03 0.  1.
        -12    1    3    3    0    0  0.10404986948E+01  0.61903175753E+00 -0.15668571907E+01  0.19801210333E+01  0.00000000000E+00 0.  1.
</event>
<event>
 7    1  0.4519840E-010  0.4778727E+02  0.7816164E-02  0.1312668E+00
        -11   -1    0    0    0    0  0.00000000000E+00  0.00000000000E+00  0.45593999997E+02  0.45594000000E+02  0.51100000000E-03 0. -1.
         11   -1    0    0    0    0 -0.00000000000E+00 -0.00000000000E+00 -0.45593999997E+02  0.45594000000E+02  0.51100000000E-03 0.  1.
    9900012    2    1    2    0    0  0.32336993797E+01  0.35914940783E+02 -0.24151261644E+02  0.47787271641E+02  0.20000002719E+02 0.  0.
         12    1    1    2    0    0 -0.32336993797E+01 -0.35914940783E+02  0.24151261644E+02  0.43400728359E+02  0.00000000000E+00 0. -1.
         11    1    3    3    0    0 -0.20302701046E+01  0.44272427711E+01 -0.10902906446E+01  0.49911130225E+01  0.51100000000E-03 0. -1.
        -11    1    3    3    0    0 -0.57313245195E+01  0.15385249668E+02 -0.12391971363E+02  0.20569757962E+02  0.51100000000E-03 0.  1.
         12    1    3    3    0    0  0.10995294004E+02  0.16102448344E+02 -0.10668999636E+02  0.22226400656E+02  0.00000000000E+00 0. -1.
</event>
<event>
 7    1  0.4519840E-010  0.4778724E+02  0.7816164E-02  0.1312668E+00
        -11   -1    0    0    0    0  0.00000000000E+00  0.00000000000E+00  0.45593999997E+02  0.45594000000E+02  0.51100000000E-03 0. -1.
         11   -1    0    0    0    0 -0.00000000000E+00 -0.00000000000E+00 -0.45593999997E+02  0.45594000000E+02  0.51100000000E-03 0.  1.
    9900012    2    1    2    0    0 -0.18890677428E+02 -0.32596639192E+02 -0.21545933578E+02  0.47787241550E+02  0.19999865523E+02 0.  0.
         12    1    1    2    0    0  0.18890677428E+02  0.32596639192E+02  0.21545933578E+02  0.43400758450E+02  0.00000000000E+00 0. -1.
         11    1    3    3    0    0 -0.41248714391E+01 -0.84397145792E+01 -0.14899845968E+02  0.17613879661E+02  0.51100000000E-03 0. -1.
        -11    1    3    3    0    0 -0.10589489954E+01  0.13342779821E+00 -0.14534751461E+01  0.18032654308E+01  0.51100000000E-03 0.  1.
        -12    1    3    3    0    0 -0.13706856994E+02 -0.24290352411E+02 -0.51926124637E+01  0.28370096459E+02  0.00000000000E+00 0.  1.
</event>
<event>
 7    1  0.4519840E-010  0.4778728E+02  0.7816164E-02  0.1312668E+00
        -11   -1    0    0    0    0  0.00000000000E+00  0.00000000000E+00  0.45593999997E+02  0.45594000000E+02  0.51100000000E-03 0.  1.
         11   -1    0    0    0    0 -0.00000000000E+00 -0.00000000000E+00 -0.45593999997E+02  0.45594000000E+02  0.51100000000E-03 0. -1.
    9900012    2    1    2    0    0  0.15342245440E+02  0.40092554409E+02 -0.63894779474E+01  0.47787276013E+02  0.20000022652E+02 0.  0.
         12    1    1    2    0    0 -0.15342245440E+02 -0.40092554409E+02  0.63894779474E+01  0.43400723987E+02  0.00000000000E+00 0. -1.
         11    1    3    3    0    0  0.27158266417E+01  0.19063690968E+01 -0.32572201062E+01  0.46496710166E+01  0.51100000000E-03 0. -1.
        -11    1    3    3    0    0  0.17433487690E+01 -0.17428065888E+00  0.23038543430E+01  0.28943710497E+01  0.51100000000E-03 0.  1.
        -12    1    3    3    0    0  0.10883070030E+02  0.38360465971E+02 -0.54361121842E+01  0.40243233946E+02  0.00000000000E+00 0.  1.
</event>
<event>
 7    1  0.4519840E-010  0.4778727E+02  0.7816164E-02  0.1312668E+00
        -11   -1    0    0    0    0  0.00000000000E+00  0.00000000000E+00  0.45593999997E+02  0.45594000000E+02  0.51100000000E-03 0. -1.
         11   -1    0    0    0    0 -0.00000000000E+00 -0.00000000000E+00 -0.45593999997E+02  0.45594000000E+02  0.51100000000E-03 0.  1.
    9900012    2    1    2    0    0 -0.40025082038E+01  0.12137493515E+02  0.41476312742E+02  0.47787270290E+02  0.19999996559E+02 0.  0.
        -12    1    1    2    0    0  0.40025082038E+01 -0.12137493515E+02 -0.41476312742E+02  0.43400729710E+02  0.00000000000E+00 0.  1.
         11    1    3    3    0    0 -0.96114193245E+00  0.40904495265E+01  0.38800069299E+00  0.42197293683E+01  0.51100000000E-03 0. -1.
        -11    1    3    3    0    0  0.31588921250E+01  0.27739961856E+01  0.48139007163E+01  0.63911888302E+01  0.51100000000E-03 0.  1.
         12    1    3    3    0    0 -0.62002583964E+01  0.52730478029E+01  0.36274411332E+02  0.37176352091E+02  0.00000000000E+00 0. -1.
</event>
<event>
 7    1  0.4519840E-010  0.4778727E+02  0.7816164E-02  0.1312668E+00
        -11   -1    0    0    0    0  0.00000000000E+00  0.00000000000E+00  0.45593999997E+02  0.45594000000E+02  0.51100000000E-03 0. -1.
         11   -1    0    0    0    0 -0.00000000000E+00 -0.00000000000E+00 -0.45593999997E+02  0.45594000000E+02  0.51100000000E-03 0.  1.
    9900012    2    1    2    0    0  0.21625729482E+02 -0.32296559963E+02  0.19310183372E+02  0.47787272553E+02  0.20000006879E+02 0.  0.
        -12    1    1    2    0    0 -0.21625729482E+02  0.32296559963E+02 -0.19310183372E+02  0.43400727447E+02  0.00000000000E+00 0.  1.
         11    1    3    3    0    0  0.86664284562E+01 -0.15060624513E+02  0.29167491632E+01  0.17619217316E+02  0.51100000000E-03 0. -1.
        -11    1    3    3    0    0  0.13691542506E+02 -0.13864414587E+02  0.79460783199E+01  0.21043300335E+02  0.51100000000E-03 0.  1.
        -12    1    3    3    0    0 -0.73224148057E+00 -0.33715208628E+01  0.84473558889E+01  0.91247549024E+01  0.00000000000E+00 0.  1.
</event>
<event>
 7    1  0.4519840E-010  0.4778727E+02  0.7816164E-02  0.1312668E+00
        -11   -1    0    0    0    0  0.00000000000E+00  0.00000000000E+00  0.45593999997E+02  0.45594000000E+02  0.51100000000E-03 0. -1.
         11   -1    0    0    0    0 -0.00000000000E+00 -0.00000000000E+00 -0.45593999997E+02  0.45594000000E+02  0.51100000000E-03 0.  1.
    9900012    2    1    2    0    0  0.41982441965E+02  0.84660125939E+01  0.70302482862E+01  0.47787271970E+02  0.20000004219E+02 0.  0.
        -12    1    1    2    0    0 -0.41982441965E+02 -0.84660125939E+01 -0.70302482862E+01  0.43400728030E+02  0.00000000000E+00 0.  1.
         11    1    3    3    0    0  0.11107115798E+02  0.48023031821E+01  0.13006305972E+01  0.12170529052E+02  0.51100000000E-03 0. -1.
        -11    1    3    3    0    0  0.16999334773E+02 -0.30469351342E+01 -0.35417780168E+01  0.17629673514E+02  0.51100000000E-03 0.  1.
        -12    1    3    3    0    0  0.13875991395E+02  0.67106445460E+01  0.92713957058E+01  0.17987069404E+02  0.00000000000E+00 0.  1.
</event>
<event>
 7    1  0.4519840E-010  0.4778727E+02  0.7816164E-02  0.1312668E+00
        -11   -1    0    0    0    0  0.00000000000E+00  0.00000000000E+00  0.45593999997E+02  0.45594000000E+02  0.51100000000E-03 0. -1.
         11   -1    0    0    0    0 -0.00000000000E+00 -0.00000000000E+00 -0.45593999997E+02  0.45594000000E+02  0.51100000000E-03 0.  1.
    9900012    2    1    2    0    0 -0.19639256692E+02 -0.61426669992E+01  0.38212439099E+02  0.47787271168E+02  0.20000000562E+02 0.  0.
        -12    1    1    2    0    0  0.19639256692E+02  0.61426669992E+01 -0.38212439099E+02  0.43400728832E+02  0.00000000000E+00 0.  1.
         11    1    3    3    0    0 -0.93812962208E+01 -0.29513422967E+01  0.10731973395E+02  0.14556592780E+02  0.51100000000E-03 0. -1.
        -11    1    3    3    0    0 -0.92452592191E+01 -0.78761540773E+01  0.12194506882E+02  0.17210886655E+02  0.51100000000E-03 0.  1.
        -12    1    3    3    0    0 -0.10127012525E+01  0.46848293748E+01  0.15285958821E+02  0.16019791733E+02  0.00000000000E+00 0.  1.
</event>
<event>
 7    1  0.4519840E-010  0.4778727E+02  0.7816164E-02  0.1312668E+00
        -11   -1    0    0    0    0  0.00000000000E+00  0.00000000000E+00  0.45593999997E+02  0.45594000000E+02  0.51100000000E-03 0. -1.
         11   -1    0    0    0    0 -0.00000000000E+00 -0.00000000000E+00 -0.45593999997E+02  0.45594000000E+02  0.51100000000E-03 0.  1.
    9900012    2    1    2    0    0  0.17648496873E+01  0.35574586683E+02  0.24798338197E+02  0.47787268562E+02  0.19999988680E+02 0.  0.
        -12    1    1    2    0    0 -0.17648496873E+01 -0.35574586683E+02 -0.24798338197E+02  0.43400731438E+02  0.00000000000E+00 0.  1.
         11    1    3    3    0    0  0.14713679328E+01  0.17814855195E+02  0.11753999443E+02  0.21393702166E+02  0.51100000000E-03 0. -1.
        -11    1    3    3    0    0  0.68802663406E+01  0.95132296630E+01  0.37347547615E+01  0.12320227146E+02  0.51100000000E-03 0.  1.
        -12    1    3    3    0    0 -0.65867845862E+01  0.82465018251E+01  0.93095839918E+01  0.14073339250E+02  0.00000000000E+00 0.  1.
</event>
<event>
 7    1  0.4519840E-010  0.4778727E+02  0.7816164E-02  0.1312668E+00
        -11   -1    0    0    0    0  0.00000000000E+00  0.00000000000E+00  0.45593999997E+02  0.45594000000E+02  0.51100000000E-03 0. -1.
         11   -1    0    0    0    0 -0.00000000000E+00 -0.00000000000E+00 -0.45593999997E+02  0.45594000000E+02  0.51100000000E-03 0.  1.
    9900012    2    1    2    0    0 -0.26025391595E+02  0.12772849413E+02  0.32297933808E+02  0.47787271687E+02  0.20000002930E+02 0.  0.
        -12    1    1    2    0    0  0.26025391595E+02 -0.12772849413E+02 -0.32297933808E+02  0.43400728313E+02  0.00000000000E+00 0.  1.
         11    1    3    3    0    0 -0.55075258772E+01  0.25316586600E+01  0.15322324888E+01  0.62521894980E+01  0.51100000000E-03 0. -1.
        -11    1    3    3    0    0 -0.90091449993E+01  0.12749846873E+02  0.13528934078E+02  0.20658057664E+02  0.51100000000E-03 0.  1.
         12    1    3    3    0    0 -0.11508720719E+02 -0.25086561190E+01  0.17236767241E+02  0.20877024525E+02  0.00000000000E+00 0. -1.
</event>
<event>
 7    1  0.4519840E-010  0.4778730E+02  0.7816164E-02  0.1312668E+00
        -11   -1    0    0    0    0  0.00000000000E+00  0.00000000000E+00  0.45593999997E+02  0.45594000000E+02  0.51100000000E-03 0. -1.
         11   -1    0    0    0    0 -0.00000000000E+00 -0.00000000000E+00 -0.45593999997E+02  0.45594000000E+02  0.51100000000E-03 0.  1.
    9900012    2    1    2    0    0 -0.23279963720E+02  0.89671677569E+00  0.36617751770E+02  0.47787302350E+02  0.20000142735E+02 0.  0.
        -12    1    1    2    0    0  0.23279963720E+02 -0.89671677569E+00 -0.36617751770E+02  0.43400697650E+02  0.00000000000E+00 0.  1.
         11    1    3    3    0    0 -0.13867746005E+01  0.35430181451E+01  0.78174390767E+01  0.86941632920E+01  0.51100000000E-03 0. -1.
        -11    1    3    3    0    0 -0.16829926915E+01 -0.45826843193E+01  0.15721981849E+01  0.51288660894E+01  0.51100000000E-03 0.  1.
        -12    1    3    3    0    0 -0.20210196428E+02  0.19363829498E+01  0.27228114509E+02  0.33964272969E+02  0.00000000000E+00 0.  1.
</event>
<event>
 7    1  0.4519840E-010  0.4778728E+02  0.7816164E-02  0.1312668E+00
        -11   -1    0    0    0    0  0.00000000000E+00  0.00000000000E+00  0.45593999997E+02  0.45594000000E+02  0.51100000000E-03 0. -1.
         11   -1    0    0    0    0 -0.00000000000E+00 -0.00000000000E+00 -0.45593999997E+02  0.45594000000E+02  0.51100000000E-03 0.  1.
    9900012    2    1    2    0    0 -0.59351677563E+01 -0.42644862172E+02  0.54600725511E+01  0.47787275602E+02  0.20000020781E+02 0.  0.
        -12    1    1    2    0    0  0.59351677563E+01  0.42644862172E+02 -0.54600725511E+01  0.43400724398E+02  0.00000000000E+00 0.  1.
         11    1    3    3    0    0  0.89723161892E-02 -0.24204624733E+02  0.43881603293E+01  0.24599184749E+02  0.51100000000E-03 0. -1.
        -11    1    3    3    0    0 -0.65474739107E+01 -0.14416635738E+02  0.58793370615E+01  0.16890097843E+02  0.51100000000E-03 0.  1.
        -12    1    3    3    0    0  0.60333383818E+00 -0.40236017015E+01 -0.48074248397E+01  0.62979930106E+01  0.00000000000E+00 0.  1.
</event>
<event>
 7    1  0.4519840E-010  0.4778727E+02  0.7816164E-02  0.1312668E+00
        -11   -1    0    0    0    0  0.00000000000E+00  0.00000000000E+00  0.45593999997E+02  0.45594000000E+02  0.51100000000E-03 0. -1.
         11   -1    0    0    0    0 -0.00000000000E+00 -0.00000000000E+00 -0.45593999997E+02  0.45594000000E+02  0.51100000000E-03 0.  1.
    9900012    2    1    2    0    0 -0.92786312251E+01  0.11829492856E+02  0.40713551763E+02  0.47787271944E+02  0.20000004101E+02 0.  0.
        -12    1    1    2    0    0  0.92786312251E+01 -0.11829492856E+02 -0.40713551763E+02  0.43400728056E+02  0.00000000000E+00 0.  1.
         11    1    3    3    0    0 -0.48761935545E+01 -0.21335250698E+01  0.17566547756E+02  0.18355184367E+02  0.51100000000E-03 0. -1.
        -11    1    3    3    0    0 -0.51891043603E+01  0.60383500972E+01  0.44758792711E+01  0.91335629121E+01  0.51100000000E-03 0.  1.
        -12    1    3    3    0    0  0.78666668980E+00  0.79246678286E+01  0.18671124736E+02  0.20298524665E+02  0.00000000000E+00 0.  1.
</event>
<event>
 7    1  0.4519840E-010  0.4778727E+02  0.7816164E-02  0.1312668E+00
        -11   -1    0    0    0    0  0.00000000000E+00  0.00000000000E+00  0.45593999997E+02  0.45594000000E+02  0.51100000000E-03 0. -1.
         11   -1    0    0    0    0 -0.00000000000E+00 -0.00000000000E+00 -0.45593999997E+02  0.45594000000E+02  0.51100000000E-03 0.  1.
    9900012    2    1    2    0    0 -0.29672120786E+02 -0.10338624711E+02 -0.29938291736E+02  0.47787271608E+02  0.20000002571E+02 0.  0.
         12    1    1    2    0    0  0.29672120786E+02  0.10338624711E+02  0.29938291736E+02  0.43400728392E+02  0.00000000000E+00 0. -1.
         11    1    3    3    0    0 -0.20767672856E+02 -0.87451172996E+01 -0.17371883298E+02  0.28452691296E+02  0.51100000000E-03 0. -1.
        -11    1    3    3    0    0 -0.10951052954E+02 -0.31484003419E+01 -0.12273877086E+02  0.16747717590E+02  0.51100000000E-03 0.  1.
        -12    1    3    3    0    0  0.20466050236E+01  0.15548929307E+01 -0.29253135252E+00  0.25868627217E+01  0.00000000000E+00 0.  1.
</event>
<event>
 7    1  0.4519840E-010  0.4778727E+02  0.7816164E-02  0.1312668E+00
        -11   -1    0    0    0    0  0.00000000000E+00  0.00000000000E+00  0.45593999997E+02  0.45594000000E+02  0.51100000000E-03 0. -1.
         11   -1    0    0    0    0 -0.00000000000E+00 -0.00000000000E+00 -0.45593999997E+02  0.45594000000E+02  0.51100000000E-03 0.  1.
    9900012    2    1    2    0    0 -0.11219993340E+02 -0.35412770798E+02  0.22442609707E+02  0.47787270552E+02  0.19999997753E+02 0.  0.
        -12    1    1    2    0    0  0.11219993340E+02  0.35412770798E+02 -0.22442609707E+02  0.43400729448E+02  0.00000000000E+00 0.  1.
         11    1    3    3    0    0 -0.46404053651E+01 -0.12903376247E+02  0.13396841400E+02  0.19170441839E+02  0.51100000000E-03 0. -1.
        -11    1    3    3    0    0 -0.96975540597E+01 -0.95016710261E+01  0.62753484342E+01  0.14956747817E+02  0.51100000000E-03 0.  1.
        -12    1    3    3    0    0  0.31179660844E+01 -0.13007723525E+02  0.27704198730E+01  0.13660080896E+02  0.00000000000E+00 0.  1.
</event>
<event>
 7    1  0.4519840E-010  0.4778727E+02  0.7816164E-02  0.1312668E+00
        -11   -1    0    0    0    0  0.00000000000E+00  0.00000000000E+00  0.45593999997E+02  0.45594000000E+02  0.51100000000E-03 0. -1.
         11   -1    0    0    0    0 -0.00000000000E+00 -0.00000000000E+00 -0.45593999997E+02  0.45594000000E+02  0.51100000000E-03 0.  1.
    9900012    2    1    2    0    0 -0.24641600118E+02 -0.29930371997E+02 -0.19508652073E+02  0.47787272703E+02  0.20000007560E+02 0.  0.
         12    1    1    2    0    0  0.24641600118E+02  0.29930371997E+02  0.19508652073E+02  0.43400727297E+02  0.00000000000E+00 0. -1.
         11    1    3    3    0    0 -0.14428779715E+02 -0.47910334409E+01 -0.27490536002E+01  0.15449950856E+02  0.51100000000E-03 0.  1.
        -11    1    3    3    0    0  0.94673426096E-01 -0.17859424369E+01  0.21350269099E-01  0.17885775188E+01  0.51100000000E-03 0. -1.
        -12    1    3    3    0    0 -0.10307493829E+02 -0.23353396119E+02 -0.16780948742E+02  0.30548744328E+02  0.00000000000E+00 0.  1.
</event>
<event>
 7    1  0.4519840E-010  0.4778728E+02  0.7816164E-02  0.1312668E+00
        -11   -1    0    0    0    0  0.00000000000E+00  0.00000000000E+00  0.45593999997E+02  0.45594000000E+02  0.51100000000E-03 0. -1.
         11   -1    0    0    0    0 -0.00000000000E+00 -0.00000000000E+00 -0.45593999997E+02  0.45594000000E+02  0.51100000000E-03 0.  1.
    9900012    2    1    2    0    0  0.27416232339E+00 -0.64499931846E+01 -0.42917885593E+02  0.47787280181E+02  0.20000041656E+02 0.  0.
         12    1    1    2    0    0 -0.27416232339E+00  0.64499931846E+01  0.42917885593E+02  0.43400719819E+02  0.00000000000E+00 0. -1.
         11    1    3    3    0    0  0.23536114566E+01  0.19611684322E+01 -0.30157727859E+01  0.42989015184E+01  0.51100000000E-03 0. -1.
        -11    1    3    3    0    0 -0.12447452401E+00  0.25040616900E+01 -0.23833158496E+02  0.23964666971E+02  0.51100000000E-03 0.  1.
         12    1    3    3    0    0 -0.19549746092E+01 -0.10915223307E+02 -0.16068954311E+02  0.19523711691E+02  0.00000000000E+00 0. -1.
</event>
<event>
 7    1  0.4519840E-010  0.4778727E+02  0.7816164E-02  0.1312668E+00
        -11   -1    0    0    0    0  0.00000000000E+00  0.00000000000E+00  0.45593999997E+02  0.45594000000E+02  0.51100000000E-03 0. -1.
         11   -1    0    0    0    0 -0.00000000000E+00 -0.00000000000E+00 -0.45593999997E+02  0.45594000000E+02  0.51100000000E-03 0.  1.
    9900012    2    1    2    0    0 -0.12996765316E+02 -0.75089400740E+01 -0.40722514596E+02  0.47787270920E+02  0.19999999432E+02 0.  0.
         12    1    1    2    0    0  0.12996765316E+02  0.75089400740E+01  0.40722514596E+02  0.43400729080E+02  0.00000000000E+00 0. -1.
         11    1    3    3    0    0  0.20663279385E+01 -0.36512704409E+01 -0.11643671194E+02  0.12376452081E+02  0.51100000000E-03 0. -1.
        -11    1    3    3    0    0 -0.80855910226E+01 -0.85397879068E+01 -0.18107196195E+02  0.21591093395E+02  0.51100000000E-03 0.  1.
         12    1    3    3    0    0 -0.69775022317E+01  0.46821182737E+01 -0.10971647207E+02  0.13819725444E+02  0.00000000000E+00 0. -1.
</event>
<event>
 7    1  0.4519840E-010  0.4778727E+02  0.7816164E-02  0.1312668E+00
        -11   -1    0    0    0    0  0.00000000000E+00  0.00000000000E+00  0.45593999997E+02  0.45594000000E+02  0.51100000000E-03 0. -1.
         11   -1    0    0    0    0 -0.00000000000E+00 -0.00000000000E+00 -0.45593999997E+02  0.45594000000E+02  0.51100000000E-03 0.  1.
    9900012    2    1    2    0    0  0.64307454449E+01 -0.13023539065E+02  0.40898118091E+02  0.47787272815E+02  0.20000008074E+02 0.  0.
        -12    1    1    2    0    0 -0.64307454449E+01  0.13023539065E+02 -0.40898118091E+02  0.43400727185E+02  0.00000000000E+00 0.  1.
         11    1    3    3    0    0  0.32692099157E+01 -0.87335676779E+01  0.18019796445E+02  0.20289800443E+02  0.51100000000E-03 0. -1.
        -11    1    3    3    0    0 -0.34510405826E+01 -0.68849570630E+01  0.85645401590E+01  0.11517971317E+02  0.51100000000E-03 0.  1.
         12    1    3    3    0    0  0.66125761118E+01  0.25949856759E+01  0.14313781487E+02  0.15979501055E+02  0.00000000000E+00 0. -1.
</event>
<event>
 7    1  0.4519840E-010  0.4778727E+02  0.7816164E-02  0.1312668E+00
        -11   -1    0    0    0    0  0.00000000000E+00  0.00000000000E+00  0.45593999997E+02  0.45594000000E+02  0.51100000000E-03 0. -1.
         11   -1    0    0    0    0 -0.00000000000E+00 -0.00000000000E+00 -0.45593999997E+02  0.45594000000E+02  0.51100000000E-03 0.  1.
    9900012    2    1    2    0    0  0.13191400576E+02 -0.30462349359E+02 -0.27958100792E+02  0.47787272154E+02  0.20000005060E+02 0.  0.
         12    1    1    2    0    0 -0.13191400576E+02  0.30462349359E+02  0.27958100792E+02  0.43400727846E+02  0.00000000000E+00 0. -1.
         11    1    3    3    0    0  0.42845767236E+00 -0.74236338574E+01 -0.89722370201E+01  0.11653109157E+02  0.51100000000E-03 0. -1.
        -11    1    3    3    0    0  0.44895502266E+01 -0.49564640737E+00 -0.91120778230E+01  0.10170137124E+02  0.51100000000E-03 0.  1.
         12    1    3    3    0    0  0.82733926768E+01 -0.22543069095E+02 -0.98737859491E+01  0.25964025873E+02  0.00000000000E+00 0. -1.
</event>
<event>
 7    1  0.4519840E-010  0.4778728E+02  0.7816164E-02  0.1312668E+00
        -11   -1    0    0    0    0  0.00000000000E+00  0.00000000000E+00  0.45593999997E+02  0.45594000000E+02  0.51100000000E-03 0.  1.
         11   -1    0    0    0    0 -0.00000000000E+00 -0.00000000000E+00 -0.45593999997E+02  0.45594000000E+02  0.51100000000E-03 0. -1.
    9900012    2    1    2    0    0  0.23250653784E+02  0.36615594745E+02 -0.15258601929E+01  0.47787275015E+02  0.20000018102E+02 0.  0.
        -12    1    1    2    0    0 -0.23250653784E+02 -0.36615594745E+02  0.15258601929E+01  0.43400724985E+02  0.00000000000E+00 0.  1.
         11    1    3    3    0    0  0.27775844386E+01  0.18697476584E+01  0.41829461716E+00  0.33743002634E+01  0.51100000000E-03 0. -1.
        -11    1    3    3    0    0  0.59976742849E+01  0.46596270419E+01  0.64749559996E+01  0.99804447023E+01  0.51100000000E-03 0.  1.
         12    1    3    3    0    0  0.14475395061E+02  0.30086220045E+02 -0.84191108097E+01  0.34432530049E+02  0.00000000000E+00 0. -1.
</event>
<event>
 7    1  0.4519840E-010  0.4778726E+02  0.7816164E-02  0.1312668E+00
        -11   -1    0    0    0    0  0.00000000000E+00  0.00000000000E+00  0.45593999997E+02  0.45594000000E+02  0.51100000000E-03 0. -1.
         11   -1    0    0    0    0 -0.00000000000E+00 -0.00000000000E+00 -0.45593999997E+02  0.45594000000E+02  0.51100000000E-03 0.  1.
    9900012    2    1    2    0    0 -0.20169293903E+02 -0.25013159953E+02  0.29174746199E+02  0.47787258034E+02  0.19999940681E+02 0.  0.
        -12    1    1    2    0    0  0.20169293903E+02  0.25013159953E+02 -0.29174746199E+02  0.43400741966E+02  0.00000000000E+00 0.  1.
         11    1    3    3    0    0 -0.71254029698E+01 -0.21211264989E+02  0.13929329226E+02  0.26357453269E+02  0.51100000000E-03 0. -1.
        -11    1    3    3    0    0 -0.31866524843E+01 -0.92993152137E+00  0.34893071098E+00  0.33378555379E+01  0.51100000000E-03 0.  1.
         12    1    3    3    0    0 -0.98572384491E+01 -0.28719634429E+01  0.14896486263E+02  0.18091949227E+02  0.00000000000E+00 0. -1.
</event>
<event>
 7    1  0.4519840E-010  0.4778726E+02  0.7816164E-02  0.1312668E+00
        -11   -1    0    0    0    0  0.00000000000E+00  0.00000000000E+00  0.45593999997E+02  0.45594000000E+02  0.51100000000E-03 0. -1.
         11   -1    0    0    0    0 -0.00000000000E+00 -0.00000000000E+00 -0.45593999997E+02  0.45594000000E+02  0.51100000000E-03 0.  1.
    9900012    2    1    2    0    0 -0.12926113011E+02  0.24546889003E+02 -0.33376491514E+02  0.47787258726E+02  0.19999943835E+02 0.  0.
         12    1    1    2    0    0  0.12926113011E+02 -0.24546889003E+02  0.33376491514E+02  0.43400741274E+02  0.00000000000E+00 0. -1.
         11    1    3    3    0    0 -0.90258348854E+01  0.14464441598E+02 -0.12255547721E+02  0.20997243065E+02  0.51100000000E-03 0.  1.
        -11    1    3    3    0    0  0.90748391281E+00 -0.26853615636E+01 -0.38307187701E+01  0.47654066286E+01  0.51100000000E-03 0. -1.
         12    1    3    3    0    0 -0.48077620389E+01  0.12767808969E+02 -0.17290225023E+02  0.22024609033E+02  0.00000000000E+00 0. -1.
</event>
<event>
 7    1  0.4519840E-010  0.4778727E+02  0.7816164E-02  0.1312668E+00
        -11   -1    0    0    0    0  0.00000000000E+00  0.00000000000E+00  0.45593999997E+02  0.45594000000E+02  0.51100000000E-03 0. -1.
         11   -1    0    0    0    0 -0.00000000000E+00 -0.00000000000E+00 -0.45593999997E+02  0.45594000000E+02  0.51100000000E-03 0.  1.
    9900012    2    1    2    0    0  0.16700152351E+02  0.26389271459E+02 -0.30138588048E+02  0.47787271594E+02  0.20000002504E+02 0.  0.
         12    1    1    2    0    0 -0.16700152351E+02 -0.26389271459E+02  0.30138588048E+02  0.43400728406E+02  0.00000000000E+00 0. -1.
         11    1    3    3    0    0  0.84396896846E+00 -0.31455700738E+00 -0.43411739223E+01  0.44336239145E+01  0.51100000000E-03 0. -1.
        -11    1    3    3    0    0  0.18272171909E+02  0.17475806283E+02 -0.18068777211E+02  0.31076627579E+02  0.51100000000E-03 0.  1.
        -12    1    3    3    0    0 -0.24159885268E+01  0.92280221839E+01 -0.77286369147E+01  0.12277020100E+02  0.00000000000E+00 0.  1.
</event>
<event>
 7    1  0.4519840E-010  0.4778728E+02  0.7816164E-02  0.1312668E+00
        -11   -1    0    0    0    0  0.00000000000E+00  0.00000000000E+00  0.45593999997E+02  0.45594000000E+02  0.51100000000E-03 0. -1.
         11   -1    0    0    0    0 -0.00000000000E+00 -0.00000000000E+00 -0.45593999997E+02  0.45594000000E+02  0.51100000000E-03 0.  1.
    9900012    2    1    2    0    0  0.62542068874E+01 -0.34663533433E+02  0.25356397374E+02  0.47787279480E+02  0.20000038462E+02 0.  0.
        -12    1    1    2    0    0 -0.62542068874E+01  0.34663533433E+02 -0.25356397374E+02  0.43400720520E+02  0.00000000000E+00 0.  1.
         11    1    3    3    0    0  0.72909583260E+01 -0.69602195667E+01  0.72872509348E+01  0.12438117067E+02  0.51100000000E-03 0. -1.
        -11    1    3    3    0    0  0.34324233510E+01 -0.23578465523E+02  0.11706747227E+02  0.26547570461E+02  0.51100000000E-03 0.  1.
        -12    1    3    3    0    0 -0.44691747896E+01 -0.41248483426E+01  0.63623992126E+01  0.88015919521E+01  0.00000000000E+00 0.  1.
</event>
<event>
 7    1  0.4519840E-010  0.4778728E+02  0.7816164E-02  0.1312668E+00
        -11   -1    0    0    0    0  0.00000000000E+00  0.00000000000E+00  0.45593999997E+02  0.45594000000E+02  0.51100000000E-03 0. -1.
         11   -1    0    0    0    0 -0.00000000000E+00 -0.00000000000E+00 -0.45593999997E+02  0.45594000000E+02  0.51100000000E-03 0.  1.
    9900012    2    1    2    0    0  0.33134636823E+02  0.21882482648E+02  0.17517868113E+02  0.47787275266E+02  0.20000019248E+02 0.  0.
        -12    1    1    2    0    0 -0.33134636823E+02 -0.21882482648E+02 -0.17517868113E+02  0.43400724734E+02  0.00000000000E+00 0.  1.
         11    1    3    3    0    0  0.13343792998E+02  0.13727916145E+02  0.25408444521E+01  0.19312389393E+02  0.51100000000E-03 0. -1.
        -11    1    3    3    0    0 -0.34263681438E+00  0.30197364090E+01  0.33795226009E+00  0.30578456399E+01  0.51100000000E-03 0.  1.
        -12    1    3    3    0    0  0.20133480639E+02  0.51348300933E+01  0.14639071401E+02  0.25417040233E+02  0.00000000000E+00 0.  1.
</event>
<event>
 7    1  0.4519840E-010  0.4778727E+02  0.7816164E-02  0.1312668E+00
        -11   -1    0    0    0    0  0.00000000000E+00  0.00000000000E+00  0.45593999997E+02  0.45594000000E+02  0.51100000000E-03 0. -1.
         11   -1    0    0    0    0 -0.00000000000E+00 -0.00000000000E+00 -0.45593999997E+02  0.45594000000E+02  0.51100000000E-03 0.  1.
    9900012    2    1    2    0    0  0.16596965289E+02  0.35223155889E+02 -0.19170112176E+02  0.47787272259E+02  0.20000005539E+02 0.  0.
         12    1    1    2    0    0 -0.16596965289E+02 -0.35223155889E+02  0.19170112176E+02  0.43400727741E+02  0.00000000000E+00 0. -1.
         11    1    3    3    0    0  0.13483339812E+02  0.26892874646E+02 -0.20321393821E+02  0.36304079747E+02  0.51100000000E-03 0. -1.
        -11    1    3    3    0    0 -0.26133188846E+00  0.48204343254E+01 -0.24626601010E+01  0.54193704870E+01  0.51100000000E-03 0.  1.
        -12    1    3    3    0    0  0.33749573657E+01  0.35098469178E+01  0.36139417461E+01  0.60638220250E+01  0.00000000000E+00 0.  1.
</event>
<event>
 7    1  0.4519840E-010  0.4778727E+02  0.7816164E-02  0.1312668E+00
        -11   -1    0    0    0    0  0.00000000000E+00  0.00000000000E+00  0.45593999997E+02  0.45594000000E+02  0.51100000000E-03 0. -1.
         11   -1    0    0    0    0 -0.00000000000E+00 -0.00000000000E+00 -0.45593999997E+02  0.45594000000E+02  0.51100000000E-03 0.  1.
    9900012    2    1    2    0    0  0.11429817160E+02 -0.62041217495E+00  0.41864036626E+02  0.47787271962E+02  0.20000004184E+02 0.  0.
        -12    1    1    2    0    0 -0.11429817160E+02  0.62041217495E+00 -0.41864036626E+02  0.43400728038E+02  0.00000000000E+00 0.  1.
         11    1    3    3    0    0  0.63707377133E+01 -0.22388325863E+01  0.74378563868E+01  0.10045913510E+02  0.51100000000E-03 0.  1.
        -11    1    3    3    0    0 -0.21947732601E+00 -0.57919355519E+01  0.87015297969E+01  0.10455204867E+02  0.51100000000E-03 0. -1.
         12    1    3    3    0    0  0.52785567732E+01  0.74103559633E+01  0.25724650442E+02  0.27286153585E+02  0.00000000000E+00 0. -1.
</event>
<event>
 7    1  0.4519840E-010  0.4778727E+02  0.7816164E-02  0.1312668E+00
        -11   -1    0    0    0    0  0.00000000000E+00  0.00000000000E+00  0.45593999997E+02  0.45594000000E+02  0.51100000000E-03 0. -1.
         11   -1    0    0    0    0 -0.00000000000E+00 -0.00000000000E+00 -0.45593999997E+02  0.45594000000E+02  0.51100000000E-03 0.  1.
    9900012    2    1    2    0    0 -0.12149625680E+02  0.20559343688E+02  0.36239800364E+02  0.47787272500E+02  0.20000006638E+02 0.  0.
        -12    1    1    2    0    0  0.12149625680E+02 -0.20559343688E+02 -0.36239800364E+02  0.43400727500E+02  0.00000000000E+00 0.  1.
         11    1    3    3    0    0  0.23173829383E-02  0.11408143165E+02  0.15342092086E+02  0.19118721863E+02  0.51100000000E-03 0. -1.
        -11    1    3    3    0    0 -0.69511680395E+01  0.11336333245E+02  0.17843699821E+02  0.22253737037E+02  0.51100000000E-03 0.  1.
        -12    1    3    3    0    0 -0.52007750237E+01 -0.21851327227E+01  0.30540084579E+01  0.64148136001E+01  0.00000000000E+00 0.  1.
</event>
<event>
 7    1  0.4519840E-010  0.4778727E+02  0.7816164E-02  0.1312668E+00
        -11   -1    0    0    0    0  0.00000000000E+00  0.00000000000E+00  0.45593999997E+02  0.45594000000E+02  0.51100000000E-03 0. -1.
         11   -1    0    0    0    0 -0.00000000000E+00 -0.00000000000E+00 -0.45593999997E+02  0.45594000000E+02  0.51100000000E-03 0.  1.
    9900012    2    1    2    0    0 -0.38674209195E+01 -0.11621586719E+01 -0.43212447414E+02  0.47787272255E+02  0.20000005518E+02 0.  0.
         12    1    1    2    0    0  0.38674209195E+01  0.11621586719E+01  0.43212447414E+02  0.43400727745E+02  0.00000000000E+00 0. -1.
         11    1    3    3    0    0  0.30419233109E+01  0.51832905277E+01 -0.25519838383E+02  0.26217969973E+02  0.51100000000E-03 0. -1.
        -11    1    3    3    0    0 -0.30104447122E+01  0.14201374318E+01 -0.29066328889E+01  0.44190590291E+01  0.51100000000E-03 0.  1.
        -12    1    3    3    0    0 -0.38988995182E+01 -0.77655866314E+01 -0.14785976141E+02  0.17150243253E+02  0.00000000000E+00 0.  1.
</event>
<event>
 7    1  0.4519840E-010  0.4778727E+02  0.7816164E-02  0.1312668E+00
        -11   -1    0    0    0    0  0.00000000000E+00  0.00000000000E+00  0.45593999997E+02  0.45594000000E+02  0.51100000000E-03 0. -1.
         11   -1    0    0    0    0 -0.00000000000E+00 -0.00000000000E+00 -0.45593999997E+02  0.45594000000E+02  0.51100000000E-03 0.  1.
    9900012    2    1    2    0    0 -0.28636260898E+02  0.26238126846E+02  0.19368748429E+02  0.47787272422E+02  0.20000006281E+02 0.  0.
        -12    1    1    2    0    0  0.28636260898E+02 -0.26238126846E+02 -0.19368748429E+02  0.43400727578E+02  0.00000000000E+00 0.  1.
         11    1    3    3    0    0 -0.41198478742E+01  0.95891127757E+01  0.67252379453E+01  0.12415838917E+02  0.51100000000E-03 0. -1.
        -11    1    3    3    0    0 -0.13694147037E+02  0.16979803345E+02  0.58329008224E+01  0.22580215167E+02  0.51100000000E-03 0.  1.
        -12    1    3    3    0    0 -0.10822265986E+02 -0.33078927473E+00  0.68106096617E+01  0.12791218339E+02  0.00000000000E+00 0.  1.
</event>
<event>
 7    1  0.4519840E-010  0.4778727E+02  0.7816164E-02  0.1312668E+00
        -11   -1    0    0    0    0  0.00000000000E+00  0.00000000000E+00  0.45593999997E+02  0.45594000000E+02  0.51100000000E-03 0. -1.
         11   -1    0    0    0    0 -0.00000000000E+00 -0.00000000000E+00 -0.45593999997E+02  0.45594000000E+02  0.51100000000E-03 0.  1.
    9900012    2    1    2    0    0  0.21554080925E+02 -0.16523329347E+01  0.37633961843E+02  0.47787266220E+02  0.19999978003E+02 0.  0.
        -12    1    1    2    0    0 -0.21554080925E+02  0.16523329347E+01 -0.37633961843E+02  0.43400733780E+02  0.00000000000E+00 0.  1.
         11    1    3    3    0    0  0.20703449709E+02 -0.38784615041E+01  0.17334924743E+02  0.27279569454E+02  0.51100000000E-03 0.  1.
        -11    1    3    3    0    0  0.45708601212E+00  0.49166233562E+00  0.17623057273E+01  0.18858370058E+01  0.51100000000E-03 0. -1.
        -12    1    3    3    0    0  0.39354520431E+00  0.17344662337E+01  0.18536731373E+02  0.18621859760E+02  0.00000000000E+00 0.  1.
</event>
<event>
 7    1  0.4519840E-010  0.4778724E+02  0.7816164E-02  0.1312668E+00
        -11   -1    0    0    0    0  0.00000000000E+00  0.00000000000E+00  0.45593999997E+02  0.45594000000E+02  0.51100000000E-03 0. -1.
         11   -1    0    0    0    0 -0.00000000000E+00 -0.00000000000E+00 -0.45593999997E+02  0.45594000000E+02  0.51100000000E-03 0.  1.
    9900012    2    1    2    0    0  0.52600589533E+01  0.14653349475E+02 -0.40512184947E+02  0.47787239635E+02  0.19999856793E+02 0.  0.
         12    1    1    2    0    0 -0.52600589533E+01 -0.14653349475E+02  0.40512184947E+02  0.43400760365E+02  0.00000000000E+00 0. -1.
         11    1    3    3    0    0  0.38543718067E+01  0.44701352437E+01 -0.83773316139E+01  0.10247827885E+02  0.51100000000E-03 0. -1.
        -11    1    3    3    0    0  0.61538625166E+00  0.99177987431E+01 -0.34039529940E+02  0.35460273983E+02  0.51100000000E-03 0.  1.
         12    1    3    3    0    0  0.79030089496E+00  0.26541548797E+00  0.19046766062E+01  0.20791377684E+01  0.00000000000E+00 0. -1.
</event>
<event>
 7    1  0.4519840E-010  0.4778727E+02  0.7816164E-02  0.1312668E+00
        -11   -1    0    0    0    0  0.00000000000E+00  0.00000000000E+00  0.45593999997E+02  0.45594000000E+02  0.51100000000E-03 0. -1.
         11   -1    0    0    0    0 -0.00000000000E+00 -0.00000000000E+00 -0.45593999997E+02  0.45594000000E+02  0.51100000000E-03 0.  1.
    9900012    2    1    2    0    0  0.18449488810E+02  0.27761155045E+02  0.27794925018E+02  0.47787271624E+02  0.20000002645E+02 0.  0.
        -12    1    1    2    0    0 -0.18449488810E+02 -0.27761155045E+02 -0.27794925018E+02  0.43400728376E+02  0.00000000000E+00 0.  1.
         11    1    3    3    0    0  0.12528954409E+02  0.92345467915E+01  0.11229509971E+02  0.19192536244E+02  0.51100000000E-03 0. -1.
        -11    1    3    3    0    0  0.71982013134E+01  0.15162535608E+02  0.66627158107E+01  0.18058470878E+02  0.51100000000E-03 0.  1.
         12    1    3    3    0    0 -0.12776669130E+01  0.33640726459E+01  0.99026992364E+01  0.10536264503E+02  0.00000000000E+00 0. -1.
</event>
<event>
 7    1  0.4519840E-010  0.4778727E+02  0.7816164E-02  0.1312668E+00
        -11   -1    0    0    0    0  0.00000000000E+00  0.00000000000E+00  0.45593999997E+02  0.45594000000E+02  0.51100000000E-03 0.  1.
         11   -1    0    0    0    0 -0.00000000000E+00 -0.00000000000E+00 -0.45593999997E+02  0.45594000000E+02  0.51100000000E-03 0. -1.
    9900012    2    1    2    0    0 -0.11891367929E+02 -0.28133526618E+02 -0.30833800348E+02  0.47787271952E+02  0.20000004140E+02 0.  0.
         12    1    1    2    0    0  0.11891367929E+02  0.28133526618E+02  0.30833800348E+02  0.43400728048E+02  0.00000000000E+00 0. -1.
         11    1    3    3    0    0 -0.34092138659E+01 -0.22094261338E+00  0.77966072395E+00  0.35042011825E+01  0.51100000000E-03 0. -1.
        -11    1    3    3    0    0 -0.41814381144E+01 -0.10531479280E+02 -0.54356952611E+01  0.12567548041E+02  0.51100000000E-03 0.  1.
         12    1    3    3    0    0 -0.43007159483E+01 -0.17381104724E+02 -0.26177765811E+02  0.31715522729E+02  0.00000000000E+00 0. -1.
</event>
<event>
 7    1  0.4519840E-010  0.4778727E+02  0.7816164E-02  0.1312668E+00
        -11   -1    0    0    0    0  0.00000000000E+00  0.00000000000E+00  0.45593999997E+02  0.45594000000E+02  0.51100000000E-03 0. -1.
         11   -1    0    0    0    0 -0.00000000000E+00 -0.00000000000E+00 -0.45593999997E+02  0.45594000000E+02  0.51100000000E-03 0.  1.
    9900012    2    1    2    0    0 -0.20807751833E+02  0.22567907542E+02 -0.30681434045E+02  0.47787269797E+02  0.19999994310E+02 0.  0.
         12    1    1    2    0    0  0.20807751833E+02 -0.22567907542E+02  0.30681434045E+02  0.43400730203E+02  0.00000000000E+00 0. -1.
         11    1    3    3    0    0 -0.82741827437E+01  0.11235513622E+02 -0.14183742582E+02  0.19896668574E+02  0.51100000000E-03 0.  1.
        -11    1    3    3    0    0 -0.10656264021E+02  0.67022083159E+00 -0.41156274672E+01  0.11443056784E+02  0.51100000000E-03 0. -1.
         12    1    3    3    0    0 -0.18773050677E+01  0.10662173088E+02 -0.12382063995E+02  0.16447544439E+02  0.00000000000E+00 0. -1.
</event>
<event>
 7    1  0.4519840E-010  0.4778727E+02  0.7816164E-02  0.1312668E+00
        -11   -1    0    0    0    0  0.00000000000E+00  0.00000000000E+00  0.45593999997E+02  0.45594000000E+02  0.51100000000E-03 0. -1.
         11   -1    0    0    0    0 -0.00000000000E+00 -0.00000000000E+00 -0.45593999997E+02  0.45594000000E+02  0.51100000000E-03 0.  1.
    9900012    2    1    2    0    0  0.42856868835E+02 -0.55932414167E+01  0.39531957154E+01  0.47787270603E+02  0.19999997986E+02 0.  0.
        -12    1    1    2    0    0 -0.42856868835E+02  0.55932414167E+01 -0.39531957154E+01  0.43400729397E+02  0.00000000000E+00 0.  1.
         11    1    3    3    0    0  0.32441826438E+01 -0.10090846661E+00  0.19681061012E+01  0.37958326401E+01  0.51100000000E-03 0. -1.
        -11    1    3    3    0    0 -0.19105704715E+01  0.51385042182E+00 -0.13028503957E+00  0.19827496653E+01  0.51100000000E-03 0.  1.
         12    1    3    3    0    0  0.41523256662E+02 -0.60061833719E+01  0.21153746538E+01  0.42008688297E+02  0.00000000000E+00 0. -1.
</event>
<event>
 7    1  0.4519840E-010  0.4778727E+02  0.7816164E-02  0.1312668E+00
        -11   -1    0    0    0    0  0.00000000000E+00  0.00000000000E+00  0.45593999997E+02  0.45594000000E+02  0.51100000000E-03 0. -1.
         11   -1    0    0    0    0 -0.00000000000E+00 -0.00000000000E+00 -0.45593999997E+02  0.45594000000E+02  0.51100000000E-03 0.  1.
    9900012    2    1    2    0    0  0.18012937636E+02 -0.13887551203E+02 -0.36963400182E+02  0.47787274733E+02  0.20000016818E+02 0.  0.
         12    1    1    2    0    0 -0.18012937636E+02  0.13887551203E+02  0.36963400182E+02  0.43400725267E+02  0.00000000000E+00 0. -1.
         11    1    3    3    0    0  0.82154218673E+01 -0.43062873950E+01 -0.23560159072E+02  0.25320315230E+02  0.51100000000E-03 0.  1.
        -11    1    3    3    0    0  0.87884871341E+01 -0.56487689451E+01 -0.14850190707E+02  0.18156934240E+02  0.51100000000E-03 0. -1.
         12    1    3    3    0    0  0.10090286341E+01 -0.39324948627E+01  0.14469495970E+01  0.43100252628E+01  0.00000000000E+00 0. -1.
</event>
<event>
 7    1  0.4519840E-010  0.4778727E+02  0.7816164E-02  0.1312668E+00
        -11   -1    0    0    0    0  0.00000000000E+00  0.00000000000E+00  0.45593999997E+02  0.45594000000E+02  0.51100000000E-03 0. -1.
         11   -1    0    0    0    0 -0.00000000000E+00 -0.00000000000E+00 -0.45593999997E+02  0.45594000000E+02  0.51100000000E-03 0.  1.
    9900012    2    1    2    0    0  0.14822654584E+02  0.40791077542E+02 -0.15368305917E-01  0.47787270373E+02  0.19999996940E+02 0.  0.
        -12    1    1    2    0    0 -0.14822654584E+02 -0.40791077542E+02  0.15368305917E-01  0.43400729627E+02  0.00000000000E+00 0.  1.
         11    1    3    3    0    0  0.12248045851E+02  0.25845529448E+02  0.70279623262E+01  0.29451626005E+02  0.51100000000E-03 0. -1.
        -11    1    3    3    0    0  0.31447124798E+00 -0.51390515453E+00  0.67885006981E+00  0.90764990610E+00  0.51100000000E-03 0.  1.
         12    1    3    3    0    0  0.22601374854E+01  0.15459453248E+02 -0.77221807019E+01  0.17427994462E+02  0.00000000000E+00 0. -1.
</event>
<event>
 7    1  0.4519840E-010  0.4778726E+02  0.7816164E-02  0.1312668E+00
        -11   -1    0    0    0    0  0.00000000000E+00  0.00000000000E+00  0.45593999997E+02  0.45594000000E+02  0.51100000000E-03 0. -1.
         11   -1    0    0    0    0 -0.00000000000E+00 -0.00000000000E+00 -0.45593999997E+02  0.45594000000E+02  0.51100000000E-03 0.  1.
    9900012    2    1    2    0    0 -0.59223230958E+01 -0.25777397989E+02 -0.34410401155E+02  0.47787264227E+02  0.19999968918E+02 0.  0.
         12    1    1    2    0    0  0.59223230958E+01  0.25777397989E+02  0.34410401155E+02  0.43400735773E+02  0.00000000000E+00 0. -1.
         11    1    3    3    0    0  0.12430142435E+01 -0.19480561927E+02 -0.22693900633E+02  0.29934102686E+02  0.51100000000E-03 0.  1.
        -11    1    3    3    0    0  0.10518657320E+01 -0.27789316209E+01  0.17536885259E+00  0.29765142310E+01  0.51100000000E-03 0. -1.
         12    1    3    3    0    0 -0.82172030713E+01 -0.35179044407E+01 -0.11891869375E+02  0.14876647310E+02  0.00000000000E+00 0. -1.
</event>
<event>
 7    1  0.4519840E-010  0.4778727E+02  0.7816164E-02  0.1312668E+00
        -11   -1    0    0    0    0  0.00000000000E+00  0.00000000000E+00  0.45593999997E+02  0.45594000000E+02  0.51100000000E-03 0. -1.
         11   -1    0    0    0    0 -0.00000000000E+00 -0.00000000000E+00 -0.45593999997E+02  0.45594000000E+02  0.51100000000E-03 0.  1.
    9900012    2    1    2    0    0  0.50465099236E+01 -0.39695876967E+02 -0.16804563619E+02  0.47787271101E+02  0.20000000256E+02 0.  0.
         12    1    1    2    0    0 -0.50465099236E+01  0.39695876967E+02  0.16804563619E+02  0.43400728899E+02  0.00000000000E+00 0. -1.
         11    1    3    3    0    0 -0.23163967524E+01 -0.10305015595E+02 -0.39937523714E+01  0.11291992676E+02  0.51100000000E-03 0. -1.
        -11    1    3    3    0    0 -0.53149693836E+00 -0.25254463191E+02 -0.93887144034E+01  0.26948438887E+02  0.51100000000E-03 0.  1.
         12    1    3    3    0    0  0.78944036144E+01 -0.41363981809E+01 -0.34220968438E+01  0.95468395370E+01  0.00000000000E+00 0. -1.
</event>
<event>
 7    1  0.4519840E-010  0.4778728E+02  0.7816164E-02  0.1312668E+00
        -11   -1    0    0    0    0  0.00000000000E+00  0.00000000000E+00  0.45593999997E+02  0.45594000000E+02  0.51100000000E-03 0. -1.
         11   -1    0    0    0    0 -0.00000000000E+00 -0.00000000000E+00 -0.45593999997E+02  0.45594000000E+02  0.51100000000E-03 0.  1.
    9900012    2    1    2    0    0  0.22138298248E+02  0.60380089952E+00  0.37324976800E+02  0.47787277449E+02  0.20000029199E+02 0.  0.
        -12    1    1    2    0    0 -0.22138298248E+02 -0.60380089952E+00 -0.37324976800E+02  0.43400722551E+02  0.00000000000E+00 0.  1.
         11    1    3    3    0    0  0.51258285162E+01 -0.35178368590E+01  0.34100721738E+01  0.70906901381E+01  0.51100000000E-03 0. -1.
        -11    1    3    3    0    0  0.81398922375E+01 -0.14039606955E+01  0.43439945554E+01  0.93326973717E+01  0.51100000000E-03 0.  1.
        -12    1    3    3    0    0  0.88725774944E+01  0.55255984540E+01  0.29570910071E+02  0.31363889939E+02  0.00000000000E+00 0.  1.
</event>
<event>
 7    1  0.4519840E-010  0.4778727E+02  0.7816164E-02  0.1312668E+00
        -11   -1    0    0    0    0  0.00000000000E+00  0.00000000000E+00  0.45593999997E+02  0.45594000000E+02  0.51100000000E-03 0. -1.
         11   -1    0    0    0    0 -0.00000000000E+00 -0.00000000000E+00 -0.45593999997E+02  0.45594000000E+02  0.51100000000E-03 0.  1.
    9900012    2    1    2    0    0  0.12052422854E+02 -0.63994743585E+01  0.41199626632E+02  0.47787269553E+02  0.19999993201E+02 0.  0.
        -12    1    1    2    0    0 -0.12052422854E+02  0.63994743585E+01 -0.41199626632E+02  0.43400730447E+02  0.00000000000E+00 0.  1.
         11    1    3    3    0    0  0.38352441220E+01 -0.90982360374E+01  0.84177824617E+01  0.12974824018E+02  0.51100000000E-03 0. -1.
        -11    1    3    3    0    0  0.76858125064E+01  0.25114123653E+01  0.15159317355E+02  0.17180914087E+02  0.51100000000E-03 0.  1.
        -12    1    3    3    0    0  0.53136622545E+00  0.18734931349E+00  0.17622526816E+02  0.17631531448E+02  0.00000000000E+00 0.  1.
</event>
<event>
 7    1  0.4519840E-010  0.4778727E+02  0.7816164E-02  0.1312668E+00
        -11   -1    0    0    0    0  0.00000000000E+00  0.00000000000E+00  0.45593999997E+02  0.45594000000E+02  0.51100000000E-03 0. -1.
         11   -1    0    0    0    0 -0.00000000000E+00 -0.00000000000E+00 -0.45593999997E+02  0.45594000000E+02  0.51100000000E-03 0.  1.
    9900012    2    1    2    0    0 -0.38217465066E+02 -0.35869667071E+01  0.20252957126E+02  0.47787271451E+02  0.20000001852E+02 0.  0.
        -12    1    1    2    0    0  0.38217465066E+02  0.35869667071E+01 -0.20252957126E+02  0.43400728549E+02  0.00000000000E+00 0.  1.
         11    1    3    3    0    0 -0.22597282614E+01 -0.18868669590E+01 -0.70077470618E+00  0.30261731917E+01  0.51100000000E-03 0.  1.
        -11    1    3    3    0    0 -0.52778632813E+01 -0.36906037394E+01  0.10443958621E+02  0.12269990575E+02  0.51100000000E-03 0. -1.
         12    1    3    3    0    0 -0.30679873524E+02  0.19905039913E+01  0.10509773212E+02  0.32491107684E+02  0.00000000000E+00 0. -1.
</event>
<event>
 7    1  0.4519840E-010  0.4778727E+02  0.7816164E-02  0.1312668E+00
        -11   -1    0    0    0    0  0.00000000000E+00  0.00000000000E+00  0.45593999997E+02  0.45594000000E+02  0.51100000000E-03 0. -1.
         11   -1    0    0    0    0 -0.00000000000E+00 -0.00000000000E+00 -0.45593999997E+02  0.45594000000E+02  0.51100000000E-03 0.  1.
    9900012    2    1    2    0    0 -0.14065888632E+02  0.83670695210E+01  0.40196594604E+02  0.47787270823E+02  0.19999998989E+02 0.  0.
        -12    1    1    2    0    0  0.14065888632E+02 -0.83670695210E+01 -0.40196594604E+02  0.43400729177E+02  0.00000000000E+00 0.  1.
         11    1    3    3    0    0 -0.34952840336E+00 -0.16669771448E+01  0.43895684284E+00  0.17588821100E+01  0.51100000000E-03 0. -1.
        -11    1    3    3    0    0 -0.37167611656E+01  0.46229914621E+01  0.15021293487E+01  0.61190486567E+01  0.51100000000E-03 0.  1.
         12    1    3    3    0    0 -0.99995990635E+01  0.54110552036E+01  0.38255508412E+02  0.39909340056E+02  0.00000000000E+00 0. -1.
</event>
<event>
 7    1  0.4519840E-010  0.4778727E+02  0.7816164E-02  0.1312668E+00
        -11   -1    0    0    0    0  0.00000000000E+00  0.00000000000E+00  0.45593999997E+02  0.45594000000E+02  0.51100000000E-03 0. -1.
         11   -1    0    0    0    0 -0.00000000000E+00 -0.00000000000E+00 -0.45593999997E+02  0.45594000000E+02  0.51100000000E-03 0.  1.
    9900012    2    1    2    0    0  0.38234473480E+02 -0.65257083217E+01  0.19472122126E+02  0.47787269920E+02  0.19999994875E+02 0.  0.
        -12    1    1    2    0    0 -0.38234473480E+02  0.65257083217E+01 -0.19472122126E+02  0.43400730080E+02  0.00000000000E+00 0.  1.
         11    1    3    3    0    0  0.66727831013E+01 -0.14697784726E+01 -0.55640970878E+00  0.68553537546E+01  0.51100000000E-03 0. -1.
        -11    1    3    3    0    0  0.32686316979E+02 -0.30921048104E+01  0.20377774074E+02  0.38642076889E+02  0.51100000000E-03 0.  1.
        -12    1    3    3    0    0 -0.11246266005E+01 -0.19638250387E+01 -0.34924223933E+00  0.22898392771E+01  0.00000000000E+00 0.  1.
</event>
<event>
 7    1  0.4519840E-010  0.4778727E+02  0.7816164E-02  0.1312668E+00
        -11   -1    0    0    0    0  0.00000000000E+00  0.00000000000E+00  0.45593999997E+02  0.45594000000E+02  0.51100000000E-03 0. -1.
         11   -1    0    0    0    0 -0.00000000000E+00 -0.00000000000E+00 -0.45593999997E+02  0.45594000000E+02  0.51100000000E-03 0.  1.
    9900012    2    1    2    0    0 -0.31380532413E+02  0.80355789352E+00  0.29970647436E+02  0.47787271578E+02  0.20000002432E+02 0.  0.
        -12    1    1    2    0    0  0.31380532413E+02 -0.80355789352E+00 -0.29970647436E+02  0.43400728422E+02  0.00000000000E+00 0.  1.
         11    1    3    3    0    0 -0.29409031472E+02  0.46877291389E+01  0.25386817790E+02  0.39132549807E+02  0.51100000000E-03 0. -1.
        -11    1    3    3    0    0 -0.39075931565E+01 -0.17911681562E+01  0.36945612277E+01  0.56680993787E+01  0.51100000000E-03 0.  1.
        -12    1    3    3    0    0  0.19360922152E+01 -0.20930030891E+01  0.88926841827E+00  0.29866223927E+01  0.00000000000E+00 0.  1.
</event>
<event>
 7    1  0.4823360E-010  0.4778728E+02  0.7816164E-02  0.1312668E+00
        -11   -1    0    0    0    0  0.00000000000E+00  0.00000000000E+00  0.45593999997E+02  0.45594000000E+02  0.51100000000E-03 0. -1.
         11   -1    0    0    0    0 -0.00000000000E+00 -0.00000000000E+00 -0.45593999997E+02  0.45594000000E+02  0.51100000000E-03 0.  1.
    9900012    2    1    2    0    0 -0.22715834512E+01 -0.72403830337E+01 -0.42732183914E+02  0.47787276736E+02  0.20000025948E+02 0.  0.
         12    1    1    2    0    0  0.22715834512E+01  0.72403830337E+01  0.42732183914E+02  0.43400723264E+02  0.00000000000E+00 0. -1.
         11    1    3    3    0    0  0.60892829076E+01 -0.31189906008E+01 -0.10434124922E+02  0.12477116328E+02  0.51100000000E-03 0. -1.
        -11    1    3    3    0    0  0.10894295938E+01  0.24066003954E+01 -0.42850577684E+01  0.50339152399E+01  0.51100000000E-03 0.  1.
        -12    1    3    3    0    0 -0.94502959526E+01 -0.65279928283E+01 -0.28013001223E+02  0.30276245168E+02  0.00000000000E+00 0.  1.
</event>
<event>
 7    1  0.4519840E-010  0.4778727E+02  0.7816164E-02  0.1312668E+00
        -11   -1    0    0    0    0  0.00000000000E+00  0.00000000000E+00  0.45593999997E+02  0.45594000000E+02  0.51100000000E-03 0. -1.
         11   -1    0    0    0    0 -0.00000000000E+00 -0.00000000000E+00 -0.45593999997E+02  0.45594000000E+02  0.51100000000E-03 0.  1.
    9900012    2    1    2    0    0 -0.82033452164E+01 -0.18025014464E+02 -0.38619002275E+02  0.47787270100E+02  0.19999995692E+02 0.  0.
         12    1    1    2    0    0  0.82033452164E+01  0.18025014464E+02  0.38619002275E+02  0.43400729900E+02  0.00000000000E+00 0. -1.
         11    1    3    3    0    0 -0.54046095324E+01 -0.42370394101E+01 -0.59886862725E+01  0.91118972059E+01  0.51100000000E-03 0. -1.
        -11    1    3    3    0    0 -0.77315979148E+01 -0.28373300493E+01 -0.92115756524E+01  0.12356422394E+02  0.51100000000E-03 0.  1.
        -12    1    3    3    0    0  0.49328622307E+01 -0.10950645004E+02 -0.23418740350E+02  0.26318950499E+02  0.00000000000E+00 0.  1.
</event>
<event>
 7    1  0.4519840E-010  0.4778727E+02  0.7816164E-02  0.1312668E+00
        -11   -1    0    0    0    0  0.00000000000E+00  0.00000000000E+00  0.45593999997E+02  0.45594000000E+02  0.51100000000E-03 0. -1.
         11   -1    0    0    0    0 -0.00000000000E+00 -0.00000000000E+00 -0.45593999997E+02  0.45594000000E+02  0.51100000000E-03 0.  1.
    9900012    2    1    2    0    0 -0.17499189303E+01  0.29816438741E+02 -0.31488739597E+02  0.47787274697E+02  0.20000016653E+02 0.  0.
         12    1    1    2    0    0  0.17499189303E+01 -0.29816438741E+02  0.31488739597E+02  0.43400725303E+02  0.00000000000E+00 0. -1.
         11    1    3    3    0    0  0.33467807237E+01  0.56804373971E+01  0.12222490403E+00  0.65941829989E+01  0.51100000000E-03 0. -1.
        -11    1    3    3    0    0 -0.34645237093E+01  0.11183366839E+02 -0.78939307945E+01  0.14120366923E+02  0.51100000000E-03 0.  1.
        -12    1    3    3    0    0 -0.16321759447E+01  0.12952634505E+02 -0.23717033706E+02  0.27072724775E+02  0.00000000000E+00 0.  1.
</event>
<event>
 7    1  0.4519840E-010  0.4778727E+02  0.7816164E-02  0.1312668E+00
        -11   -1    0    0    0    0  0.00000000000E+00  0.00000000000E+00  0.45593999997E+02  0.45594000000E+02  0.51100000000E-03 0. -1.
         11   -1    0    0    0    0 -0.00000000000E+00 -0.00000000000E+00 -0.45593999997E+02  0.45594000000E+02  0.51100000000E-03 0.  1.
    9900012    2    1    2    0    0  0.80289435543E+01 -0.18417118848E+02 -0.38470365228E+02  0.47787271872E+02  0.20000003774E+02 0.  0.
         12    1    1    2    0    0 -0.80289435543E+01  0.18417118848E+02  0.38470365228E+02  0.43400728128E+02  0.00000000000E+00 0. -1.
         11    1    3    3    0    0  0.10184503853E+02 -0.14504853185E+02 -0.22969402298E+02  0.29012209962E+02  0.51100000000E-03 0.  1.
        -11    1    3    3    0    0  0.33161597120E+01 -0.28186868303E+01 -0.36653362248E+01  0.56900439880E+01  0.51100000000E-03 0. -1.
         12    1    3    3    0    0 -0.54717200111E+01 -0.10935788326E+01 -0.11835626704E+02  0.13085017922E+02  0.00000000000E+00 0. -1.
</event>
<event>
 7    1  0.4519840E-010  0.4778732E+02  0.7816164E-02  0.1312668E+00
        -11   -1    0    0    0    0  0.00000000000E+00  0.00000000000E+00  0.45593999997E+02  0.45594000000E+02  0.51100000000E-03 0.  1.
         11   -1    0    0    0    0 -0.00000000000E+00 -0.00000000000E+00 -0.45593999997E+02  0.45594000000E+02  0.51100000000E-03 0. -1.
    9900012    2    1    2    0    0 -0.35915100576E+02  0.24123025150E+02 -0.34357329550E+01  0.47787319675E+02  0.20000221725E+02 0.  0.
         12    1    1    2    0    0  0.35915100576E+02 -0.24123025150E+02  0.34357329550E+01  0.43400680325E+02  0.00000000000E+00 0. -1.
         11    1    3    3    0    0 -0.46658372714E+01  0.11181461799E+02 -0.10598048449E+01  0.12162167240E+02  0.51100000000E-03 0. -1.
        -11    1    3    3    0    0 -0.94412576835E+01  0.57345413540E+01  0.40658457106E+01  0.11770871369E+02  0.51100000000E-03 0.  1.
         12    1    3    3    0    0 -0.21808005621E+02  0.72070219967E+01 -0.64417738206E+01  0.23854281066E+02  0.00000000000E+00 0. -1.
</event>
<event>
 7    1  0.4519840E-010  0.4778727E+02  0.7816164E-02  0.1312668E+00
        -11   -1    0    0    0    0  0.00000000000E+00  0.00000000000E+00  0.45593999997E+02  0.45594000000E+02  0.51100000000E-03 0. -1.
         11   -1    0    0    0    0 -0.00000000000E+00 -0.00000000000E+00 -0.45593999997E+02  0.45594000000E+02  0.51100000000E-03 0.  1.
    9900012    2    1    2    0    0 -0.49681882713E+01  0.42871788394E+02  0.45770959594E+01  0.47787274865E+02  0.20000017421E+02 0.  0.
        -12    1    1    2    0    0  0.49681882713E+01 -0.42871788394E+02 -0.45770959594E+01  0.43400725135E+02  0.00000000000E+00 0.  1.
         11    1    3    3    0    0 -0.41709907840E+01  0.37713902455E+02  0.33160184461E+01  0.38088470448E+02  0.51100000000E-03 0. -1.
        -11    1    3    3    0    0  0.20176448115E+00  0.51602413479E+01 -0.25496621490E+01  0.57593035178E+01  0.51100000000E-03 0.  1.
        -12    1    3    3    0    0 -0.99896196849E+00 -0.23554088550E-02  0.38107396623E+01  0.39395008994E+01  0.00000000000E+00 0.  1.
</event>
<event>
 7    1  0.4519840E-010  0.4778727E+02  0.7816164E-02  0.1312668E+00
        -11   -1    0    0    0    0  0.00000000000E+00  0.00000000000E+00  0.45593999997E+02  0.45594000000E+02  0.51100000000E-03 0. -1.
         11   -1    0    0    0    0 -0.00000000000E+00 -0.00000000000E+00 -0.45593999997E+02  0.45594000000E+02  0.51100000000E-03 0.  1.
    9900012    2    1    2    0    0  0.12418398977E+02 -0.19246767878E+02 -0.36864193457E+02  0.47787268830E+02  0.19999989903E+02 0.  0.
         12    1    1    2    0    0 -0.12418398977E+02  0.19246767878E+02  0.36864193457E+02  0.43400731170E+02  0.00000000000E+00 0. -1.
         11    1    3    3    0    0 -0.10515912596E+01 -0.63133285193E+01 -0.14391726738E+02  0.15750738393E+02  0.51100000000E-03 0. -1.
        -11    1    3    3    0    0  0.10643347500E+02 -0.11187973132E+02 -0.23872487276E+02  0.28431448043E+02  0.51100000000E-03 0.  1.
        -12    1    3    3    0    0  0.28266427366E+01 -0.17454662262E+01  0.14000205571E+01  0.36050823940E+01  0.00000000000E+00 0.  1.
</event>
<event>
 7    1  0.4519840E-010  0.4778728E+02  0.7816164E-02  0.1312668E+00
        -11   -1    0    0    0    0  0.00000000000E+00  0.00000000000E+00  0.45593999997E+02  0.45594000000E+02  0.51100000000E-03 0. -1.
         11   -1    0    0    0    0 -0.00000000000E+00 -0.00000000000E+00 -0.45593999997E+02  0.45594000000E+02  0.51100000000E-03 0.  1.
    9900012    2    1    2    0    0 -0.30962907356E+01 -0.36269122039E+01 -0.43137934773E+02  0.47787275065E+02  0.20000018329E+02 0.  0.
         12    1    1    2    0    0  0.30962907356E+01  0.36269122039E+01  0.43137934773E+02  0.43400724935E+02  0.00000000000E+00 0. -1.
         11    1    3    3    0    0 -0.82874859885E+00 -0.47426841847E+01 -0.33642839223E+01  0.58735239921E+01  0.51100000000E-03 0. -1.
        -11    1    3    3    0    0 -0.71768079689E+01 -0.19396121168E+01 -0.21786057162E+02  0.23019577640E+02  0.51100000000E-03 0.  1.
         12    1    3    3    0    0  0.49092658321E+01  0.30553840976E+01 -0.17987593688E+02  0.18894173432E+02  0.00000000000E+00 0. -1.
</event>
<event>
 7    1  0.4519840E-010  0.4778724E+02  0.7816164E-02  0.1312668E+00
        -11   -1    0    0    0    0  0.00000000000E+00  0.00000000000E+00  0.45593999997E+02  0.45594000000E+02  0.51100000000E-03 0. -1.
         11   -1    0    0    0    0 -0.00000000000E+00 -0.00000000000E+00 -0.45593999997E+02  0.45594000000E+02  0.51100000000E-03 0.  1.
    9900012    2    1    2    0    0 -0.12100991398E+02  0.22077162927E+01 -0.41621118931E+02  0.47787244878E+02  0.19999880698E+02 0.  0.
         12    1    1    2    0    0  0.12100991398E+02 -0.22077162927E+01  0.41621118931E+02  0.43400755122E+02  0.00000000000E+00 0. -1.
         11    1    3    3    0    0  0.93094195045E+00  0.99135535034E+00 -0.89093324272E+01  0.90125269989E+01  0.51100000000E-03 0. -1.
        -11    1    3    3    0    0 -0.91849893242E+01  0.70914305834E+01 -0.11128839407E+02  0.16078043519E+02  0.51100000000E-03 0.  1.
        -12    1    3    3    0    0 -0.38469440247E+01 -0.58750696410E+01 -0.21582947097E+02  0.22696674360E+02  0.00000000000E+00 0.  1.
</event>
<event>
 7    1  0.4519840E-010  0.4778727E+02  0.7816164E-02  0.1312668E+00
        -11   -1    0    0    0    0  0.00000000000E+00  0.00000000000E+00  0.45593999997E+02  0.45594000000E+02  0.51100000000E-03 0. -1.
         11   -1    0    0    0    0 -0.00000000000E+00 -0.00000000000E+00 -0.45593999997E+02  0.45594000000E+02  0.51100000000E-03 0.  1.
    9900012    2    1    2    0    0  0.35377165416E+02 -0.19176140733E+02  0.16258992975E+02  0.47787273522E+02  0.20000011296E+02 0.  0.
        -12    1    1    2    0    0 -0.35377165416E+02  0.19176140733E+02 -0.16258992975E+02  0.43400726478E+02  0.00000000000E+00 0.  1.
         11    1    3    3    0    0  0.30782146884E+02 -0.17317398165E+02  0.19768234121E+02  0.40474880191E+02  0.51100000000E-03 0. -1.
        -11    1    3    3    0    0 -0.66164597538E+00 -0.48978302607E+00  0.39132597605E-01  0.82413253223E+00  0.51100000000E-03 0.  1.
         12    1    3    3    0    0  0.52566645072E+01 -0.13689595416E+01 -0.35483737429E+01  0.64882607984E+01  0.00000000000E+00 0. -1.
</event>
<event>
 7    1  0.4519840E-010  0.4778727E+02  0.7816164E-02  0.1312668E+00
        -11   -1    0    0    0    0  0.00000000000E+00  0.00000000000E+00  0.45593999997E+02  0.45594000000E+02  0.51100000000E-03 0. -1.
         11   -1    0    0    0    0 -0.00000000000E+00 -0.00000000000E+00 -0.45593999997E+02  0.45594000000E+02  0.51100000000E-03 0.  1.
    9900012    2    1    2    0    0  0.21650823577E+02  0.22082608572E+02  0.30450347854E+02  0.47787269046E+02  0.19999990890E+02 0.  0.
        -12    1    1    2    0    0 -0.21650823577E+02 -0.22082608572E+02 -0.30450347854E+02  0.43400730954E+02  0.00000000000E+00 0.  1.
         11    1    3    3    0    0  0.79366527525E+01  0.18064293532E+02  0.18525609997E+02  0.27064873614E+02  0.51100000000E-03 0. -1.
        -11    1    3    3    0    0 -0.26307599019E+00  0.81230202989E+00  0.44880791802E+01  0.45685773008E+01  0.51100000000E-03 0.  1.
        -12    1    3    3    0    0  0.13977246815E+02  0.32060130093E+01  0.74366586765E+01  0.16153818131E+02  0.00000000000E+00 0.  1.
</event>
<event>
 7    1  0.4519840E-010  0.4778728E+02  0.7816164E-02  0.1312668E+00
        -11   -1    0    0    0    0  0.00000000000E+00  0.00000000000E+00  0.45593999997E+02  0.45594000000E+02  0.51100000000E-03 0. -1.
         11   -1    0    0    0    0 -0.00000000000E+00 -0.00000000000E+00 -0.45593999997E+02  0.45594000000E+02  0.51100000000E-03 0.  1.
    9900012    2    1    2    0    0  0.16500218191E+02 -0.26623976052E+02 -0.30042123904E+02  0.47787279847E+02  0.20000040132E+02 0.  0.
         12    1    1    2    0    0 -0.16500218191E+02  0.26623976052E+02  0.30042123904E+02  0.43400720153E+02  0.00000000000E+00 0. -1.
         11    1    3    3    0    0  0.93464208751E+01 -0.16223328170E+02 -0.11128675758E+02  0.21780711294E+02  0.51100000000E-03 0.  1.
        -11    1    3    3    0    0  0.92526096633E+01 -0.72788747398E+01 -0.74262369409E+01  0.13919116295E+02  0.51100000000E-03 0. -1.
        -12    1    3    3    0    0 -0.20988123475E+01 -0.31217731427E+01 -0.11487211205E+02  0.12087452258E+02  0.00000000000E+00 0.  1.
</event>
<event>
 7    1  0.5453544E-010  0.4778726E+02  0.7816164E-02  0.1312668E+00
        -11   -1    0    0    0    0  0.00000000000E+00  0.00000000000E+00  0.45593999997E+02  0.45594000000E+02  0.51100000000E-03 0. -1.
         11   -1    0    0    0    0 -0.00000000000E+00 -0.00000000000E+00 -0.45593999997E+02  0.45594000000E+02  0.51100000000E-03 0.  1.
    9900012    2    1    2    0    0 -0.34164460131E+01  0.39811533391E+02 -0.16940894902E+02  0.47787260209E+02  0.19999950598E+02 0.  0.
         12    1    1    2    0    0  0.34164460131E+01 -0.39811533391E+02  0.16940894902E+02  0.43400739791E+02  0.00000000000E+00 0. -1.
         11    1    3    3    0    0  0.15081741334E+01  0.19865541748E+01  0.20272467180E+01  0.32141431553E+01  0.51100000000E-03 0.  1.
        -11    1    3    3    0    0  0.21493559758E+01  0.54988185066E+00 -0.15372939625E+00  0.22239006608E+01  0.51100000000E-03 0. -1.
        -12    1    3    3    0    0 -0.70739761223E+01  0.37275097366E+02 -0.18814412223E+02  0.42349216393E+02  0.00000000000E+00 0.  1.
</event>
<event>
 7    1  0.4519840E-010  0.4778727E+02  0.7816164E-02  0.1312668E+00
        -11   -1    0    0    0    0  0.00000000000E+00  0.00000000000E+00  0.45593999997E+02  0.45594000000E+02  0.51100000000E-03 0. -1.
         11   -1    0    0    0    0 -0.00000000000E+00 -0.00000000000E+00 -0.45593999997E+02  0.45594000000E+02  0.51100000000E-03 0.  1.
    9900012    2    1    2    0    0 -0.12054681316E+02 -0.28076874026E+00 -0.41692074247E+02  0.47787271576E+02  0.20000002422E+02 0.  0.
         12    1    1    2    0    0  0.12054681316E+02  0.28076874026E+00  0.41692074247E+02  0.43400728424E+02  0.00000000000E+00 0. -1.
         11    1    3    3    0    0 -0.11286780432E+02  0.51279620933E+01 -0.18381736304E+02  0.22171505081E+02  0.51100000000E-03 0. -1.
        -11    1    3    3    0    0 -0.22063553895E+01 -0.52411757798E+00 -0.60585743450E+00  0.23472892520E+01  0.51100000000E-03 0.  1.
        -12    1    3    3    0    0  0.14384545056E+01 -0.48846132556E+01 -0.22704480509E+02  0.23268477243E+02  0.00000000000E+00 0.  1.
</event>
<event>
 7    1  0.4519840E-010  0.4778727E+02  0.7816164E-02  0.1312668E+00
        -11   -1    0    0    0    0  0.00000000000E+00  0.00000000000E+00  0.45593999997E+02  0.45594000000E+02  0.51100000000E-03 0. -1.
         11   -1    0    0    0    0 -0.00000000000E+00 -0.00000000000E+00 -0.45593999997E+02  0.45594000000E+02  0.51100000000E-03 0.  1.
    9900012    2    1    2    0    0  0.20461222357E+01 -0.93483004041E+01 -0.42332563973E+02  0.47787270638E+02  0.19999998147E+02 0.  0.
         12    1    1    2    0    0 -0.20461222357E+01  0.93483004041E+01  0.42332563973E+02  0.43400729362E+02  0.00000000000E+00 0. -1.
         11    1    3    3    0    0  0.44391101018E+01 -0.77044288683E+01 -0.75283738922E+01  0.11650765486E+02  0.51100000000E-03 0. -1.
        -11    1    3    3    0    0  0.33739435702E+01 -0.11237786897E+01 -0.87180918228E+01  0.94154925017E+01  0.51100000000E-03 0.  1.
        -12    1    3    3    0    0 -0.57669314364E+01 -0.52009284615E+00 -0.26086098258E+02  0.26721012651E+02  0.00000000000E+00 0.  1.
</event>
<event>
 7    1  0.4519840E-010  0.4778727E+02  0.7816164E-02  0.1312668E+00
        -11   -1    0    0    0    0  0.00000000000E+00  0.00000000000E+00  0.45593999997E+02  0.45594000000E+02  0.51100000000E-03 0. -1.
         11   -1    0    0    0    0 -0.00000000000E+00 -0.00000000000E+00 -0.45593999997E+02  0.45594000000E+02  0.51100000000E-03 0.  1.
    9900012    2    1    2    0    0 -0.53499617091E+01 -0.25595905005E+02  0.34638862830E+02  0.47787271187E+02  0.20000000652E+02 0.  0.
        -12    1    1    2    0    0  0.53499617091E+01  0.25595905005E+02 -0.34638862830E+02  0.43400728813E+02  0.00000000000E+00 0.  1.
         11    1    3    3    0    0  0.20358901533E+01 -0.21188437800E+01  0.18988701338E+01  0.34985791011E+01  0.51100000000E-03 0. -1.
        -11    1    3    3    0    0  0.32207810517E+01  0.80598636882E+00  0.33429946805E+01  0.47115452141E+01  0.51100000000E-03 0.  1.
         12    1    3    3    0    0 -0.10606632914E+02 -0.24283047594E+02  0.29396998016E+02  0.39577146872E+02  0.00000000000E+00 0. -1.
</event>
<event>
 7    1  0.4519840E-010  0.4778727E+02  0.7816164E-02  0.1312668E+00
        -11   -1    0    0    0    0  0.00000000000E+00  0.00000000000E+00  0.45593999997E+02  0.45594000000E+02  0.51100000000E-03 0. -1.
         11   -1    0    0    0    0 -0.00000000000E+00 -0.00000000000E+00 -0.45593999997E+02  0.45594000000E+02  0.51100000000E-03 0.  1.
    9900012    2    1    2    0    0 -0.28195256864E+02  0.26419358455E+02  0.19765325916E+02  0.47787272825E+02  0.20000008117E+02 0.  0.
        -12    1    1    2    0    0  0.28195256864E+02 -0.26419358455E+02 -0.19765325916E+02  0.43400727175E+02  0.00000000000E+00 0.  1.
         11    1    3    3    0    0 -0.33216436428E+01  0.19679829834E+01  0.96292505308E+00  0.39791328744E+01  0.51100000000E-03 0. -1.
        -11    1    3    3    0    0 -0.22066369660E+02  0.11468236820E+02  0.17608616997E+02  0.30471437749E+02  0.51100000000E-03 0.  1.
        -12    1    3    3    0    0 -0.28072435612E+01  0.12983138652E+02  0.11937838656E+01  0.13336702201E+02  0.00000000000E+00 0.  1.
</event>
<event>
 7    1  0.4519840E-010  0.4778728E+02  0.7816164E-02  0.1312668E+00
        -11   -1    0    0    0    0  0.00000000000E+00  0.00000000000E+00  0.45593999997E+02  0.45594000000E+02  0.51100000000E-03 0. -1.
         11   -1    0    0    0    0 -0.00000000000E+00 -0.00000000000E+00 -0.45593999997E+02  0.45594000000E+02  0.51100000000E-03 0.  1.
    9900012    2    1    2    0    0  0.15898928664E+01 -0.66755381851E+00 -0.43366449543E+02  0.47787281880E+02  0.20000049402E+02 0.  0.
         12    1    1    2    0    0 -0.15898928664E+01  0.66755381851E+00  0.43366449543E+02  0.43400718120E+02  0.00000000000E+00 0. -1.
         11    1    3    3    0    0  0.52874831243E+01 -0.42312493432E+01 -0.13727956010E+02  0.15307440193E+02  0.51100000000E-03 0. -1.
        -11    1    3    3    0    0  0.30162412834E+01  0.44955740421E+01 -0.19840228895E+02  0.20565567833E+02  0.51100000000E-03 0.  1.
         12    1    3    3    0    0 -0.67138315413E+01 -0.93187851750E+00 -0.97982646377E+01  0.11914273853E+02  0.00000000000E+00 0. -1.
</event>
<event>
 7    1  0.4519840E-010  0.4778725E+02  0.7816164E-02  0.1312668E+00
        -11   -1    0    0    0    0  0.00000000000E+00  0.00000000000E+00  0.45593999997E+02  0.45594000000E+02  0.51100000000E-03 0. -1.
         11   -1    0    0    0    0 -0.00000000000E+00 -0.00000000000E+00 -0.45593999997E+02  0.45594000000E+02  0.51100000000E-03 0.  1.
    9900012    2    1    2    0    0 -0.16864746899E+02 -0.33479756840E+02  0.21870324739E+02  0.47787252193E+02  0.19999914047E+02 0.  0.
        -12    1    1    2    0    0  0.16864746899E+02  0.33479756840E+02 -0.21870324739E+02  0.43400747807E+02  0.00000000000E+00 0.  1.
         11    1    3    3    0    0  0.10581079500E+01 -0.23749608368E+01  0.64534643539E+01  0.69575307285E+01  0.51100000000E-03 0.  1.
        -11    1    3    3    0    0  0.15615181686E+01 -0.40625870077E+01  0.75684957526E+00  0.44176660950E+01  0.51100000000E-03 0. -1.
        -12    1    3    3    0    0 -0.19484373018E+02 -0.27042208995E+02  0.14660010810E+02  0.36412055369E+02  0.00000000000E+00 0.  1.
</event>
<event>
 7    1  0.4519840E-010  0.4778725E+02  0.7816164E-02  0.1312668E+00
        -11   -1    0    0    0    0  0.00000000000E+00  0.00000000000E+00  0.45593999997E+02  0.45594000000E+02  0.51100000000E-03 0. -1.
         11   -1    0    0    0    0 -0.00000000000E+00 -0.00000000000E+00 -0.45593999997E+02  0.45594000000E+02  0.51100000000E-03 0.  1.
    9900012    2    1    2    0    0  0.19302777116E+02  0.95615888589E+01  0.37677628326E+02  0.47787252746E+02  0.19999916571E+02 0.  0.
        -12    1    1    2    0    0 -0.19302777116E+02 -0.95615888589E+01 -0.37677628326E+02  0.43400747254E+02  0.00000000000E+00 0.  1.
         11    1    3    3    0    0  0.47964243107E+01 -0.81413602614E+00  0.80008041138E+00  0.49303785416E+01  0.51100000000E-03 0. -1.
        -11    1    3    3    0    0  0.60670073094E+01  0.82079353830E+01  0.88605433193E+01  0.13516212825E+02  0.51100000000E-03 0.  1.
         12    1    3    3    0    0  0.84393454962E+01  0.21677895021E+01  0.28017004595E+02  0.29340661380E+02  0.00000000000E+00 0. -1.
</event>
<event>
 7    1  0.4519840E-010  0.4778728E+02  0.7816164E-02  0.1312668E+00
        -11   -1    0    0    0    0  0.00000000000E+00  0.00000000000E+00  0.45593999997E+02  0.45594000000E+02  0.51100000000E-03 0. -1.
         11   -1    0    0    0    0 -0.00000000000E+00 -0.00000000000E+00 -0.45593999997E+02  0.45594000000E+02  0.51100000000E-03 0.  1.
    9900012    2    1    2    0    0 -0.20749575917E+02  0.32425477320E+02 -0.20041609263E+02  0.47787279015E+02  0.20000036343E+02 0.  0.
         12    1    1    2    0    0  0.20749575917E+02 -0.32425477320E+02  0.20041609263E+02  0.43400720985E+02  0.00000000000E+00 0. -1.
         11    1    3    3    0    0  0.85360786966E+00  0.12078826899E+00 -0.19665812554E+00  0.88425724794E+00  0.51100000000E-03 0. -1.
        -11    1    3    3    0    0 -0.71684869180E+01  0.16855883081E+02 -0.17998044542E+02  0.25679517260E+02  0.51100000000E-03 0.  1.
        -12    1    3    3    0    0 -0.14434696869E+02  0.15448805970E+02 -0.18469065949E+01  0.21223504507E+02  0.00000000000E+00 0.  1.
</event>
<event>
 7    1  0.4519840E-010  0.4778727E+02  0.7816164E-02  0.1312668E+00
        -11   -1    0    0    0    0  0.00000000000E+00  0.00000000000E+00  0.45593999997E+02  0.45594000000E+02  0.51100000000E-03 0. -1.
         11   -1    0    0    0    0 -0.00000000000E+00 -0.00000000000E+00 -0.45593999997E+02  0.45594000000E+02  0.51100000000E-03 0.  1.
    9900012    2    1    2    0    0 -0.20246255388E+02 -0.65073844836E+01 -0.37833399533E+02  0.47787273851E+02  0.20000012795E+02 0.  0.
         12    1    1    2    0    0  0.20246255388E+02  0.65073844836E+01  0.37833399533E+02  0.43400726149E+02  0.00000000000E+00 0. -1.
         11    1    3    3    0    0 -0.35528217123E+01 -0.19934943134E+01 -0.26137627659E+01  0.48402807516E+01  0.51100000000E-03 0. -1.
        -11    1    3    3    0    0  0.10377537295E+01 -0.25065016268E+01 -0.17814349201E+02  0.18019725884E+02  0.51100000000E-03 0.  1.
        -12    1    3    3    0    0 -0.17731187405E+02 -0.20073885434E+01 -0.17405287566E+02  0.24927267215E+02  0.00000000000E+00 0.  1.
</event>
<event>
 7    1  0.4519840E-010  0.4778727E+02  0.7816164E-02  0.1312668E+00
        -11   -1    0    0    0    0  0.00000000000E+00  0.00000000000E+00  0.45593999997E+02  0.45594000000E+02  0.51100000000E-03 0. -1.
         11   -1    0    0    0    0 -0.00000000000E+00 -0.00000000000E+00 -0.45593999997E+02  0.45594000000E+02  0.51100000000E-03 0.  1.
    9900012    2    1    2    0    0 -0.12191353027E+02  0.50327989147E+01 -0.41348093575E+02  0.47787274247E+02  0.20000014604E+02 0.  0.
         12    1    1    2    0    0  0.12191353027E+02 -0.50327989147E+01  0.41348093575E+02  0.43400725753E+02  0.00000000000E+00 0. -1.
         11    1    3    3    0    0 -0.46743145760E+01  0.22659677511E+01  0.19326852327E+00  0.51981900300E+01  0.51100000000E-03 0. -1.
        -11    1    3    3    0    0 -0.41819786396E+01  0.61927857837E+00 -0.10884743217E+02  0.11676903976E+02  0.51100000000E-03 0.  1.
         12    1    3    3    0    0 -0.33350598118E+01  0.21475525852E+01 -0.30656618881E+02  0.30912180242E+02  0.00000000000E+00 0. -1.
</event>
<event>
 7    1  0.4519840E-010  0.4778726E+02  0.7816164E-02  0.1312668E+00
        -11   -1    0    0    0    0  0.00000000000E+00  0.00000000000E+00  0.45593999997E+02  0.45594000000E+02  0.51100000000E-03 0. -1.
         11   -1    0    0    0    0 -0.00000000000E+00 -0.00000000000E+00 -0.45593999997E+02  0.45594000000E+02  0.51100000000E-03 0.  1.
    9900012    2    1    2    0    0  0.20076038149E+02  0.30845741022E+02  0.23002540576E+02  0.47787263602E+02  0.19999966067E+02 0.  0.
        -12    1    1    2    0    0 -0.20076038149E+02 -0.30845741022E+02 -0.23002540576E+02  0.43400736398E+02  0.00000000000E+00 0.  1.
         11    1    3    3    0    0  0.10715697367E+02  0.20578960597E+02  0.17138499287E+02  0.28845241330E+02  0.51100000000E-03 0. -1.
        -11    1    3    3    0    0 -0.99373781262E+00  0.71189132038E+01  0.22198788160E+01  0.75229184671E+01  0.51100000000E-03 0.  1.
        -12    1    3    3    0    0  0.10354078594E+02  0.31478672216E+01  0.36441624726E+01  0.11419103805E+02  0.00000000000E+00 0.  1.
</event>
<event>
 7    1  0.4519840E-010  0.4778727E+02  0.7816164E-02  0.1312668E+00
        -11   -1    0    0    0    0  0.00000000000E+00  0.00000000000E+00  0.45593999997E+02  0.45594000000E+02  0.51100000000E-03 0.  1.
         11   -1    0    0    0    0 -0.00000000000E+00 -0.00000000000E+00 -0.45593999997E+02  0.45594000000E+02  0.51100000000E-03 0. -1.
    9900012    2    1    2    0    0 -0.25486457978E+02 -0.34249251714E+02 -0.78136126230E+01  0.47787270450E+02  0.19999997291E+02 0.  0.
         12    1    1    2    0    0  0.25486457978E+02  0.34249251714E+02  0.78136126230E+01  0.43400729550E+02  0.00000000000E+00 0. -1.
         11    1    3    3    0    0 -0.17141032134E+02 -0.23128310409E+02 -0.36039627243E+01  0.29012450303E+02  0.51100000000E-03 0.  1.
        -11    1    3    3    0    0 -0.40808475736E+01 -0.64119451948E+01  0.38438511390E+01  0.85171327299E+01  0.51100000000E-03 0. -1.
         12    1    3    3    0    0 -0.42645782706E+01 -0.47089961098E+01 -0.80535010377E+01  0.10257687417E+02  0.00000000000E+00 0. -1.
</event>
<event>
 7    1  0.4519840E-010  0.4778727E+02  0.7816164E-02  0.1312668E+00
        -11   -1    0    0    0    0  0.00000000000E+00  0.00000000000E+00  0.45593999997E+02  0.45594000000E+02  0.51100000000E-03 0. -1.
         11   -1    0    0    0    0 -0.00000000000E+00 -0.00000000000E+00 -0.45593999997E+02  0.45594000000E+02  0.51100000000E-03 0.  1.
    9900012    2    1    2    0    0 -0.21528782587E+02  0.19476413635E+02 -0.32261495690E+02  0.47787271067E+02  0.20000000102E+02 0.  0.
         12    1    1    2    0    0  0.21528782587E+02 -0.19476413635E+02  0.32261495690E+02  0.43400728933E+02  0.00000000000E+00 0. -1.
         11    1    3    3    0    0 -0.12463353677E+02  0.14550962187E+01 -0.10955162734E+02  0.16657373162E+02  0.51100000000E-03 0. -1.
        -11    1    3    3    0    0 -0.93057593844E+01  0.71359917334E+01 -0.12360079247E+02  0.17037931066E+02  0.51100000000E-03 0.  1.
        -12    1    3    3    0    0  0.24033047418E+00  0.10885325683E+02 -0.89462537092E+01  0.14091966839E+02  0.00000000000E+00 0.  1.
</event>
<event>
 7    1  0.4519840E-010  0.4778727E+02  0.7816164E-02  0.1312668E+00
        -11   -1    0    0    0    0  0.00000000000E+00  0.00000000000E+00  0.45593999997E+02  0.45594000000E+02  0.51100000000E-03 0. -1.
         11   -1    0    0    0    0 -0.00000000000E+00 -0.00000000000E+00 -0.45593999997E+02  0.45594000000E+02  0.51100000000E-03 0.  1.
    9900012    2    1    2    0    0 -0.36085682252E+02 -0.70065831761E+01  0.23072816842E+02  0.47787267881E+02  0.19999985578E+02 0.  0.
        -12    1    1    2    0    0  0.36085682252E+02  0.70065831761E+01 -0.23072816842E+02  0.43400732119E+02  0.00000000000E+00 0.  1.
         11    1    3    3    0    0 -0.35221324138E+01 -0.83637883356E+00  0.56947511504E+00  0.36645939013E+01  0.51100000000E-03 0.  1.
        -11    1    3    3    0    0 -0.10331317951E+02  0.21817416132E+01 -0.11282177590E+01  0.10619275053E+02  0.51100000000E-03 0. -1.
         12    1    3    3    0    0 -0.22232231887E+02 -0.83519459557E+01  0.23631559486E+02  0.33503398927E+02  0.00000000000E+00 0. -1.
</event>
<event>
 7    1  0.4519840E-010  0.4778727E+02  0.7816164E-02  0.1312668E+00
        -11   -1    0    0    0    0  0.00000000000E+00  0.00000000000E+00  0.45593999997E+02  0.45594000000E+02  0.51100000000E-03 0. -1.
         11   -1    0    0    0    0 -0.00000000000E+00 -0.00000000000E+00 -0.45593999997E+02  0.45594000000E+02  0.51100000000E-03 0.  1.
    9900012    2    1    2    0    0  0.84566009686E+01  0.18945672361E+02  0.38120474050E+02  0.47787272553E+02  0.20000006877E+02 0.  0.
        -12    1    1    2    0    0 -0.84566009686E+01 -0.18945672361E+02 -0.38120474050E+02  0.43400727447E+02  0.00000000000E+00 0.  1.
         11    1    3    3    0    0  0.55940068156E+01  0.22465077550E+02  0.30194642485E+02  0.38048509257E+02  0.51100000000E-03 0. -1.
        -11    1    3    3    0    0  0.16063131514E+01  0.45774290500E-01  0.11370956079E+01  0.19685842396E+01  0.51100000000E-03 0.  1.
         12    1    3    3    0    0  0.12562810017E+01 -0.35651794798E+01  0.67887359566E+01  0.77701790563E+01  0.00000000000E+00 0. -1.
</event>
<event>
 7    1  0.4519840E-010  0.4778727E+02  0.7816164E-02  0.1312668E+00
        -11   -1    0    0    0    0  0.00000000000E+00  0.00000000000E+00  0.45593999997E+02  0.45594000000E+02  0.51100000000E-03 0. -1.
         11   -1    0    0    0    0 -0.00000000000E+00 -0.00000000000E+00 -0.45593999997E+02  0.45594000000E+02  0.51100000000E-03 0.  1.
    9900012    2    1    2    0    0  0.25084652665E+02  0.17149474401E+02 -0.30988372734E+02  0.47787268252E+02  0.19999987267E+02 0.  0.
         12    1    1    2    0    0 -0.25084652665E+02 -0.17149474401E+02  0.30988372734E+02  0.43400731748E+02  0.00000000000E+00 0. -1.
         11    1    3    3    0    0  0.59816742240E+01 -0.23185213705E+01 -0.65427414199E+00  0.64485690492E+01  0.51100000000E-03 0. -1.
        -11    1    3    3    0    0  0.10387269241E+01  0.39620961402E+01 -0.29184600797E+01  0.50293706311E+01  0.51100000000E-03 0.  1.
         12    1    3    3    0    0  0.18064251517E+02  0.15505899632E+02 -0.27415638512E+02  0.36309328571E+02  0.00000000000E+00 0. -1.
</event>
<event>
 7    1  0.4519840E-010  0.4778727E+02  0.7816164E-02  0.1312668E+00
        -11   -1    0    0    0    0  0.00000000000E+00  0.00000000000E+00  0.45593999997E+02  0.45594000000E+02  0.51100000000E-03 0. -1.
         11   -1    0    0    0    0 -0.00000000000E+00 -0.00000000000E+00 -0.45593999997E+02  0.45594000000E+02  0.51100000000E-03 0.  1.
    9900012    2    1    2    0    0 -0.12488626826E+01  0.25635651125E+02 -0.34998241257E+02  0.47787272383E+02  0.20000006104E+02 0.  0.
         12    1    1    2    0    0  0.12488626826E+01 -0.25635651125E+02  0.34998241257E+02  0.43400727617E+02  0.00000000000E+00 0. -1.
         11    1    3    3    0    0 -0.14042515860E+01 -0.64048073063E-01 -0.12597384316E+01  0.18875820114E+01  0.51100000000E-03 0. -1.
        -11    1    3    3    0    0 -0.59419083928E+01  0.23993673125E+02 -0.25565977224E+02  0.35561521580E+02  0.51100000000E-03 0.  1.
        -12    1    3    3    0    0  0.60972972963E+01  0.17060260732E+01 -0.81725256006E+01  0.10338168792E+02  0.00000000000E+00 0.  1.
</event>
<event>
 7    1  0.4519840E-010  0.4778727E+02  0.7816164E-02  0.1312668E+00
        -11   -1    0    0    0    0  0.00000000000E+00  0.00000000000E+00  0.45593999997E+02  0.45594000000E+02  0.51100000000E-03 0. -1.
         11   -1    0    0    0    0 -0.00000000000E+00 -0.00000000000E+00 -0.45593999997E+02  0.45594000000E+02  0.51100000000E-03 0.  1.
    9900012    2    1    2    0    0 -0.76830069623E+01  0.75279743427E+01  0.42046690417E+02  0.47787272256E+02  0.20000005524E+02 0.  0.
        -12    1    1    2    0    0  0.76830069623E+01 -0.75279743427E+01 -0.42046690417E+02  0.43400727744E+02  0.00000000000E+00 0.  1.
         11    1    3    3    0    0  0.24043197881E+01 -0.25436372289E+00  0.25342207537E+01  0.35025318895E+01  0.51100000000E-03 0. -1.
        -11    1    3    3    0    0 -0.68491525284E+01  0.23770108846E+01  0.41262180220E+01  0.83418670889E+01  0.51100000000E-03 0.  1.
         12    1    3    3    0    0 -0.32381742220E+01  0.54053271809E+01  0.35386251641E+02  0.35942873278E+02  0.00000000000E+00 0. -1.
</event>
<event>
 7    1  0.4519840E-010  0.4778727E+02  0.7816164E-02  0.1312668E+00
        -11   -1    0    0    0    0  0.00000000000E+00  0.00000000000E+00  0.45593999997E+02  0.45594000000E+02  0.51100000000E-03 0. -1.
         11   -1    0    0    0    0 -0.00000000000E+00 -0.00000000000E+00 -0.45593999997E+02  0.45594000000E+02  0.51100000000E-03 0.  1.
    9900012    2    1    2    0    0 -0.36157846001E+01 -0.11437711250E+02 -0.41710051977E+02  0.47787267600E+02  0.19999984297E+02 0.  0.
         12    1    1    2    0    0  0.36157846001E+01  0.11437711250E+02  0.41710051977E+02  0.43400732400E+02  0.00000000000E+00 0. -1.
         11    1    3    3    0    0  0.72831157927E+00  0.33621454840E+00 -0.81448364739E+01  0.81842433632E+01  0.51100000000E-03 0. -1.
        -11    1    3    3    0    0 -0.11737346240E+00 -0.15331791854E+02 -0.26719700965E+02  0.30806168829E+02  0.51100000000E-03 0.  1.
         12    1    3    3    0    0 -0.42267227170E+01  0.35578660549E+01 -0.68455145375E+01  0.87968554082E+01  0.00000000000E+00 0. -1.
</event>
<event>
 7    1  0.4519840E-010  0.4778727E+02  0.7816164E-02  0.1312668E+00
        -11   -1    0    0    0    0  0.00000000000E+00  0.00000000000E+00  0.45593999997E+02  0.45594000000E+02  0.51100000000E-03 0. -1.
         11   -1    0    0    0    0 -0.00000000000E+00 -0.00000000000E+00 -0.45593999997E+02  0.45594000000E+02  0.51100000000E-03 0.  1.
    9900012    2    1    2    0    0  0.90096112899E+01  0.11626098146E+02 -0.40832386514E+02  0.47787273715E+02  0.20000012176E+02 0.  0.
         12    1    1    2    0    0 -0.90096112899E+01 -0.11626098146E+02  0.40832386514E+02  0.43400726285E+02  0.00000000000E+00 0. -1.
         11    1    3    3    0    0  0.12367807640E+01 -0.85589671066E+00 -0.72136123579E+00  0.16680971588E+01  0.51100000000E-03 0. -1.
        -11    1    3    3    0    0  0.10941944426E+02  0.14025099095E+02 -0.38131320608E+02  0.42076444289E+02  0.51100000000E-03 0.  1.
         12    1    3    3    0    0 -0.31691138998E+01 -0.15431042391E+01 -0.19797046699E+01  0.40427322671E+01  0.00000000000E+00 0. -1.
</event>
<event>
 7    1  0.4519840E-010  0.4778727E+02  0.7816164E-02  0.1312668E+00
        -11   -1    0    0    0    0  0.00000000000E+00  0.00000000000E+00  0.45593999997E+02  0.45594000000E+02  0.51100000000E-03 0. -1.
         11   -1    0    0    0    0 -0.00000000000E+00 -0.00000000000E+00 -0.45593999997E+02  0.45594000000E+02  0.51100000000E-03 0.  1.
    9900012    2    1    2    0    0 -0.60194785198E+01  0.13378231864E+01  0.42960440323E+02  0.47787270452E+02  0.19999997300E+02 0.  0.
        -12    1    1    2    0    0  0.60194785198E+01 -0.13378231864E+01 -0.42960440323E+02  0.43400729548E+02  0.00000000000E+00 0.  1.
         11    1    3    3    0    0  0.34581377077E+01  0.31957224969E+01  0.18330147270E+02  0.18925265067E+02  0.51100000000E-03 0. -1.
        -11    1    3    3    0    0 -0.68575126095E+00 -0.53351140327E+01  0.11349281020E+02  0.12559453669E+02  0.51100000000E-03 0.  1.
        -12    1    3    3    0    0 -0.87918649666E+01  0.34772147223E+01  0.13281012033E+02  0.16302551716E+02  0.00000000000E+00 0.  1.
</event>
<event>
 7    1  0.4519840E-010  0.4778729E+02  0.7816164E-02  0.1312668E+00
        -11   -1    0    0    0    0  0.00000000000E+00  0.00000000000E+00  0.45593999997E+02  0.45594000000E+02  0.51100000000E-03 0. -1.
         11   -1    0    0    0    0 -0.00000000000E+00 -0.00000000000E+00 -0.45593999997E+02  0.45594000000E+02  0.51100000000E-03 0.  1.
    9900012    2    1    2    0    0 -0.24128828909E+02  0.10690279146E+02  0.34454880620E+02  0.47787294346E+02  0.20000106240E+02 0.  0.
        -12    1    1    2    0    0  0.24128828909E+02 -0.10690279146E+02 -0.34454880620E+02  0.43400705654E+02  0.00000000000E+00 0.  1.
         11    1    3    3    0    0  0.92056263100E+00 -0.20991953640E+01  0.23903645378E+01  0.33117819400E+01  0.51100000000E-03 0. -1.
        -11    1    3    3    0    0 -0.29544218324E+01  0.18136292459E+01 -0.62352723323E+00  0.35223068970E+01  0.51100000000E-03 0.  1.
         12    1    3    3    0    0 -0.22094969707E+02  0.10975845264E+02  0.32688043316E+02  0.40953205509E+02  0.00000000000E+00 0. -1.
</event>
<event>
 7    1  0.4519840E-010  0.4778727E+02  0.7816164E-02  0.1312668E+00
        -11   -1    0    0    0    0  0.00000000000E+00  0.00000000000E+00  0.45593999997E+02  0.45594000000E+02  0.51100000000E-03 0. -1.
         11   -1    0    0    0    0 -0.00000000000E+00 -0.00000000000E+00 -0.45593999997E+02  0.45594000000E+02  0.51100000000E-03 0.  1.
    9900012    2    1    2    0    0 -0.25585477893E+02  0.27964846239E+02 -0.21141759379E+02  0.47787270815E+02  0.19999998954E+02 0.  0.
         12    1    1    2    0    0  0.25585477893E+02 -0.27964846239E+02  0.21141759379E+02  0.43400729185E+02  0.00000000000E+00 0. -1.
         11    1    3    3    0    0  0.29285007099E+01  0.25392209524E+01 -0.30073174569E+00  0.38876984576E+01  0.51100000000E-03 0. -1.
        -11    1    3    3    0    0 -0.29995992557E-01 -0.16607629373E+00 -0.52608679926E+00  0.55249314601E+00  0.51100000000E-03 0.  1.
        -12    1    3    3    0    0 -0.28483982610E+02  0.25591701580E+02 -0.20314940834E+02  0.43347079212E+02  0.00000000000E+00 0.  1.
</event>
<event>
 7    1  0.4519840E-010  0.4778727E+02  0.7816164E-02  0.1312668E+00
        -11   -1    0    0    0    0  0.00000000000E+00  0.00000000000E+00  0.45593999997E+02  0.45594000000E+02  0.51100000000E-03 0. -1.
         11   -1    0    0    0    0 -0.00000000000E+00 -0.00000000000E+00 -0.45593999997E+02  0.45594000000E+02  0.51100000000E-03 0.  1.
    9900012    2    1    2    0    0  0.24465545430E+02 -0.27720468539E+01 -0.35740401970E+02  0.47787268555E+02  0.19999988651E+02 0.  0.
         12    1    1    2    0    0 -0.24465545430E+02  0.27720468539E+01  0.35740401970E+02  0.43400731445E+02  0.00000000000E+00 0. -1.
         11    1    3    3    0    0  0.57434952365E+01  0.55715646965E+01 -0.10505559985E+02  0.13205940389E+02  0.51100000000E-03 0. -1.
        -11    1    3    3    0    0  0.27110205480E+01 -0.98670708478E+00 -0.12531163017E+02  0.12858976246E+02  0.51100000000E-03 0.  1.
         12    1    3    3    0    0  0.16011029645E+02 -0.73569044656E+01 -0.12703678969E+02  0.21722351921E+02  0.00000000000E+00 0. -1.
</event>
<event>
 7    1  0.4519840E-010  0.4778728E+02  0.7816164E-02  0.1312668E+00
        -11   -1    0    0    0    0  0.00000000000E+00  0.00000000000E+00  0.45593999997E+02  0.45594000000E+02  0.51100000000E-03 0. -1.
         11   -1    0    0    0    0 -0.00000000000E+00 -0.00000000000E+00 -0.45593999997E+02  0.45594000000E+02  0.51100000000E-03 0.  1.
    9900012    2    1    2    0    0  0.35504115169E+02 -0.11031067880E+02 -0.22391860815E+02  0.47787284761E+02  0.20000062537E+02 0.  0.
         12    1    1    2    0    0 -0.35504115169E+02  0.11031067880E+02  0.22391860815E+02  0.43400715239E+02  0.00000000000E+00 0. -1.
         11    1    3    3    0    0  0.12416589742E+02  0.57729925545E+00 -0.68225145741E+01  0.14179269397E+02  0.51100000000E-03 0. -1.
        -11    1    3    3    0    0  0.78717989426E+01 -0.12227502046E+02 -0.70985905385E+01  0.16182305545E+02  0.51100000000E-03 0.  1.
        -12    1    3    3    0    0  0.15215726484E+02  0.61913491055E+00 -0.84707557028E+01  0.17425709818E+02  0.00000000000E+00 0.  1.
</event>
<event>
 7    1  0.4519840E-010  0.4778727E+02  0.7816164E-02  0.1312668E+00
        -11   -1    0    0    0    0  0.00000000000E+00  0.00000000000E+00  0.45593999997E+02  0.45594000000E+02  0.51100000000E-03 0.  1.
         11   -1    0    0    0    0 -0.00000000000E+00 -0.00000000000E+00 -0.45593999997E+02  0.45594000000E+02  0.51100000000E-03 0. -1.
    9900012    2    1    2    0    0  0.41769068641E+02  0.11369744047E+02  0.31140646062E+01  0.47787267596E+02  0.19999984279E+02 0.  0.
         12    1    1    2    0    0 -0.41769068641E+02 -0.11369744047E+02 -0.31140646062E+01  0.43400732404E+02  0.00000000000E+00 0. -1.
         11    1    3    3    0    0  0.36061334442E+01  0.77951414311E+00 -0.65329616204E+00  0.37468168961E+01  0.51100000000E-03 0. -1.
        -11    1    3    3    0    0  0.40326387068E+02  0.10306585778E+02  0.41357887271E+01  0.41827597983E+02  0.51100000000E-03 0.  1.
         12    1    3    3    0    0 -0.21634518713E+01  0.28364412577E+00 -0.36842795879E+00  0.22128527177E+01  0.00000000000E+00 0. -1.
</event>
<event>
 7    1  0.4519840E-010  0.4778727E+02  0.7816164E-02  0.1312668E+00
        -11   -1    0    0    0    0  0.00000000000E+00  0.00000000000E+00  0.45593999997E+02  0.45594000000E+02  0.51100000000E-03 0. -1.
         11   -1    0    0    0    0 -0.00000000000E+00 -0.00000000000E+00 -0.45593999997E+02  0.45594000000E+02  0.51100000000E-03 0.  1.
    9900012    2    1    2    0    0 -0.14079220444E+02  0.40235428698E+02 -0.81553122983E+01  0.47787270865E+02  0.19999999181E+02 0.  0.
         12    1    1    2    0    0  0.14079220444E+02 -0.40235428698E+02  0.81553122983E+01  0.43400729135E+02  0.00000000000E+00 0. -1.
         11    1    3    3    0    0 -0.50504500506E+01  0.24435508260E+02  0.24177494903E+00  0.24953147397E+02  0.51100000000E-03 0.  1.
        -11    1    3    3    0    0 -0.83356906176E+01  0.85453834904E+01 -0.30129897938E+00  0.11941444570E+02  0.51100000000E-03 0. -1.
         12    1    3    3    0    0 -0.69307977592E+00  0.72545369469E+01 -0.80957882680E+01  0.10892678898E+02  0.00000000000E+00 0. -1.
</event>
<event>
 7    1  0.4519840E-010  0.4778726E+02  0.7816164E-02  0.1312668E+00
        -11   -1    0    0    0    0  0.00000000000E+00  0.00000000000E+00  0.45593999997E+02  0.45594000000E+02  0.51100000000E-03 0. -1.
         11   -1    0    0    0    0 -0.00000000000E+00 -0.00000000000E+00 -0.45593999997E+02  0.45594000000E+02  0.51100000000E-03 0.  1.
    9900012    2    1    2    0    0  0.17246893462E+02  0.10524898862E+02 -0.38410874737E+02  0.47787261202E+02  0.19999955125E+02 0.  0.
         12    1    1    2    0    0 -0.17246893462E+02 -0.10524898862E+02  0.38410874737E+02  0.43400738798E+02  0.00000000000E+00 0. -1.
         11    1    3    3    0    0  0.77552114598E+01  0.12421265482E+01 -0.44740132865E+01  0.90389699798E+01  0.51100000000E-03 0. -1.
        -11    1    3    3    0    0 -0.77622427331E+00  0.46886468430E+01 -0.25219702812E+01  0.53801735754E+01  0.51100000000E-03 0.  1.
        -12    1    3    3    0    0  0.10267906276E+02  0.45941254705E+01 -0.31414891169E+02  0.33368117647E+02  0.00000000000E+00 0.  1.
</event>
<event>
 7    1  0.4519840E-010  0.4778727E+02  0.7816164E-02  0.1312668E+00
        -11   -1    0    0    0    0  0.00000000000E+00  0.00000000000E+00  0.45593999997E+02  0.45594000000E+02  0.51100000000E-03 0. -1.
         11   -1    0    0    0    0 -0.00000000000E+00 -0.00000000000E+00 -0.45593999997E+02  0.45594000000E+02  0.51100000000E-03 0.  1.
    9900012    2    1    2    0    0 -0.22757792112E+02  0.18332336505E+02 -0.32087874209E+02  0.47787270342E+02  0.19999996798E+02 0.  0.
         12    1    1    2    0    0  0.22757792112E+02 -0.18332336505E+02  0.32087874209E+02  0.43400729658E+02  0.00000000000E+00 0. -1.
         11    1    3    3    0    0  0.20955680561E+01  0.60914057640E+01 -0.68121467563E+01  0.93756052258E+01  0.51100000000E-03 0. -1.
        -11    1    3    3    0    0 -0.36921905043E+01 -0.10769292480E+01 -0.43578647037E+01  0.58123172971E+01  0.51100000000E-03 0.  1.
         12    1    3    3    0    0 -0.21161169664E+02  0.13317859989E+02 -0.20917862749E+02  0.32599347819E+02  0.00000000000E+00 0. -1.
</event>
<event>
 7    1  0.4519840E-010  0.4778726E+02  0.7816164E-02  0.1312668E+00
        -11   -1    0    0    0    0  0.00000000000E+00  0.00000000000E+00  0.45593999997E+02  0.45594000000E+02  0.51100000000E-03 0. -1.
         11   -1    0    0    0    0 -0.00000000000E+00 -0.00000000000E+00 -0.45593999997E+02  0.45594000000E+02  0.51100000000E-03 0.  1.
    9900012    2    1    2    0    0 -0.21770526563E+02 -0.32465960598E+02 -0.18858155104E+02  0.47787257630E+02  0.19999938836E+02 0.  0.
         12    1    1    2    0    0  0.21770526563E+02  0.32465960598E+02  0.18858155104E+02  0.43400742370E+02  0.00000000000E+00 0. -1.
         11    1    3    3    0    0 -0.69380502274E+01 -0.38483843098E+01  0.50913422515E+00  0.79502088447E+01  0.51100000000E-03 0. -1.
        -11    1    3    3    0    0 -0.10655341008E+02 -0.91450854588E+01 -0.37649817707E+01  0.14537674093E+02  0.51100000000E-03 0.  1.
         12    1    3    3    0    0 -0.41771353274E+01 -0.19472490830E+02 -0.15602307558E+02  0.25299374692E+02  0.00000000000E+00 0. -1.
</event>
<event>
 7    1  0.4519840E-010  0.4778727E+02  0.7816164E-02  0.1312668E+00
        -11   -1    0    0    0    0  0.00000000000E+00  0.00000000000E+00  0.45593999997E+02  0.45594000000E+02  0.51100000000E-03 0. -1.
         11   -1    0    0    0    0 -0.00000000000E+00 -0.00000000000E+00 -0.45593999997E+02  0.45594000000E+02  0.51100000000E-03 0.  1.
    9900012    2    1    2    0    0  0.36497201386E+01 -0.30672571721E+02 -0.30487639498E+02  0.47787271029E+02  0.19999999928E+02 0.  0.
         12    1    1    2    0    0 -0.36497201386E+01  0.30672571721E+02  0.30487639498E+02  0.43400728971E+02  0.00000000000E+00 0. -1.
         11    1    3    3    0    0 -0.51808025843E+00  0.92447493528E+00  0.12365168210E+00  0.10669353587E+01  0.51100000000E-03 0.  1.
        -11    1    3    3    0    0  0.19749277769E+01  0.30705142829E+00  0.54630938008E+00  0.20719735769E+01  0.51100000000E-03 0. -1.
        -12    1    3    3    0    0  0.21928726202E+01 -0.31904098084E+02 -0.31157600560E+02  0.44648362093E+02  0.00000000000E+00 0.  1.
</event>
<event>
 7    1  0.4519840E-010  0.4778727E+02  0.7816164E-02  0.1312668E+00
        -11   -1    0    0    0    0  0.00000000000E+00  0.00000000000E+00  0.45593999997E+02  0.45594000000E+02  0.51100000000E-03 0. -1.
         11   -1    0    0    0    0 -0.00000000000E+00 -0.00000000000E+00 -0.45593999997E+02  0.45594000000E+02  0.51100000000E-03 0.  1.
    9900012    2    1    2    0    0 -0.41040994611E+02 -0.59261093746E+01 -0.12811771829E+02  0.47787268343E+02  0.19999987682E+02 0.  0.
         12    1    1    2    0    0  0.41040994611E+02  0.59261093746E+01  0.12811771829E+02  0.43400731657E+02  0.00000000000E+00 0. -1.
         11    1    3    3    0    0 -0.46171510945E+01  0.32544851457E+01 -0.21204883599E+01  0.60337574477E+01  0.51100000000E-03 0. -1.
        -11    1    3    3    0    0 -0.11433066491E+02  0.73082224459E+00  0.26228753678E+01  0.11752811834E+02  0.51100000000E-03 0.  1.
        -12    1    3    3    0    0 -0.24990777026E+02 -0.99114167649E+01 -0.13314158837E+02  0.30000699061E+02  0.00000000000E+00 0.  1.
</event>
<event>
 7    1  0.4519840E-010  0.4778727E+02  0.7816164E-02  0.1312668E+00
        -11   -1    0    0    0    0  0.00000000000E+00  0.00000000000E+00  0.45593999997E+02  0.45594000000E+02  0.51100000000E-03 0. -1.
         11   -1    0    0    0    0 -0.00000000000E+00 -0.00000000000E+00 -0.45593999997E+02  0.45594000000E+02  0.51100000000E-03 0.  1.
    9900012    2    1    2    0    0 -0.12322768044E+02  0.28208089779E+02 -0.30595361512E+02  0.47787273194E+02  0.20000009802E+02 0.  0.
         12    1    1    2    0    0  0.12322768044E+02 -0.28208089779E+02  0.30595361512E+02  0.43400726806E+02  0.00000000000E+00 0. -1.
         11    1    3    3    0    0 -0.74047078865E+01  0.14948857943E+02 -0.86566353410E+01  0.18794557414E+02  0.51100000000E-03 0. -1.
        -11    1    3    3    0    0 -0.69415320453E+01  0.29255189033E+01 -0.49779106199E+01  0.90290155826E+01  0.51100000000E-03 0.  1.
        -12    1    3    3    0    0  0.20234718874E+01  0.10333712933E+02 -0.16960815551E+02  0.19963700198E+02  0.00000000000E+00 0.  1.
</event>
<event>
 7    1  0.4519840E-010  0.4778727E+02  0.7816164E-02  0.1312668E+00
        -11   -1    0    0    0    0  0.00000000000E+00  0.00000000000E+00  0.45593999997E+02  0.45594000000E+02  0.51100000000E-03 0. -1.
         11   -1    0    0    0    0 -0.00000000000E+00 -0.00000000000E+00 -0.45593999997E+02  0.45594000000E+02  0.51100000000E-03 0.  1.
    9900012    2    1    2    0    0  0.85475421064E+01  0.24042757616E+02  0.35107103796E+02  0.47787269513E+02  0.19999993017E+02 0.  0.
        -12    1    1    2    0    0 -0.85475421064E+01 -0.24042757616E+02 -0.35107103796E+02  0.43400730487E+02  0.00000000000E+00 0.  1.
         11    1    3    3    0    0  0.21516280902E+01  0.13323163920E+02  0.18856053305E+02  0.23188077686E+02  0.51100000000E-03 0. -1.
        -11    1    3    3    0    0  0.22060435756E+01  0.23579822441E+01  0.14783611312E+02  0.15132146980E+02  0.51100000000E-03 0.  1.
        -12    1    3    3    0    0  0.41898704406E+01  0.83616114523E+01  0.14674391788E+01  0.94670448468E+01  0.00000000000E+00 0.  1.
</event>
<event>
 7    1  0.4519840E-010  0.4778727E+02  0.7816164E-02  0.1312668E+00
        -11   -1    0    0    0    0  0.00000000000E+00  0.00000000000E+00  0.45593999997E+02  0.45594000000E+02  0.51100000000E-03 0. -1.
         11   -1    0    0    0    0 -0.00000000000E+00 -0.00000000000E+00 -0.45593999997E+02  0.45594000000E+02  0.51100000000E-03 0.  1.
    9900012    2    1    2    0    0  0.14085752988E+02 -0.24766420991E+02 -0.32738953310E+02  0.47787272935E+02  0.20000008618E+02 0.  0.
         12    1    1    2    0    0 -0.14085752988E+02  0.24766420991E+02  0.32738953310E+02  0.43400727065E+02  0.00000000000E+00 0. -1.
         11    1    3    3    0    0  0.13185806178E+02 -0.80265236205E+01 -0.16478627355E+02  0.22579542196E+02  0.51100000000E-03 0. -1.
        -11    1    3    3    0    0  0.43172031425E+01 -0.11865044236E+02 -0.13966885173E+02  0.18827941985E+02  0.51100000000E-03 0.  1.
        -12    1    3    3    0    0 -0.34172563322E+01 -0.48748531347E+01 -0.22934407818E+01  0.63797887539E+01  0.00000000000E+00 0.  1.
</event>
<event>
 7    1  0.4519840E-010  0.4778727E+02  0.7816164E-02  0.1312668E+00
        -11   -1    0    0    0    0  0.00000000000E+00  0.00000000000E+00  0.45593999997E+02  0.45594000000E+02  0.51100000000E-03 0. -1.
         11   -1    0    0    0    0 -0.00000000000E+00 -0.00000000000E+00 -0.45593999997E+02  0.45594000000E+02  0.51100000000E-03 0.  1.
    9900012    2    1    2    0    0 -0.11338938924E+02 -0.11474867930E+02 -0.40291183416E+02  0.47787267392E+02  0.19999983345E+02 0.  0.
         12    1    1    2    0    0  0.11338938924E+02  0.11474867930E+02  0.40291183416E+02  0.43400732608E+02  0.00000000000E+00 0. -1.
         11    1    3    3    0    0 -0.12590357461E+01 -0.39553797457E+01 -0.99236777623E+01  0.10756838780E+02  0.51100000000E-03 0. -1.
        -11    1    3    3    0    0 -0.65991406930E+01 -0.11158028843E+02 -0.10945378963E+02  0.16966189509E+02  0.51100000000E-03 0.  1.
         12    1    3    3    0    0 -0.34807624846E+01  0.36385406591E+01 -0.19422126690E+02  0.20064239103E+02  0.00000000000E+00 0. -1.
</event>
<event>
 7    1  0.4519840E-010  0.4778727E+02  0.7816164E-02  0.1312668E+00
        -11   -1    0    0    0    0  0.00000000000E+00  0.00000000000E+00  0.45593999997E+02  0.45594000000E+02  0.51100000000E-03 0. -1.
         11   -1    0    0    0    0 -0.00000000000E+00 -0.00000000000E+00 -0.45593999997E+02  0.45594000000E+02  0.51100000000E-03 0.  1.
    9900012    2    1    2    0    0 -0.19387632942E+02  0.10744308889E+02  0.37313577787E+02  0.47787267611E+02  0.19999984348E+02 0.  0.
        -12    1    1    2    0    0  0.19387632942E+02 -0.10744308889E+02 -0.37313577787E+02  0.43400732389E+02  0.00000000000E+00 0.  1.
         11    1    3    3    0    0 -0.10580092950E+01  0.42309562124E+01  0.70329682819E+01  0.82754466499E+01  0.51100000000E-03 0. -1.
        -11    1    3    3    0    0 -0.15742533188E+02  0.75661468522E+01  0.12414761346E+02  0.21428957719E+02  0.51100000000E-03 0.  1.
        -12    1    3    3    0    0 -0.25870904591E+01 -0.10527941758E+01  0.17865848159E+02  0.18082863243E+02  0.00000000000E+00 0.  1.
</event>
<event>
 7    1  0.4519840E-010  0.4778727E+02  0.7816164E-02  0.1312668E+00
        -11   -1    0    0    0    0  0.00000000000E+00  0.00000000000E+00  0.45593999997E+02  0.45594000000E+02  0.51100000000E-03 0. -1.
         11   -1    0    0    0    0 -0.00000000000E+00 -0.00000000000E+00 -0.45593999997E+02  0.45594000000E+02  0.51100000000E-03 0.  1.
    9900012    2    1    2    0    0  0.22252776549E+02  0.10017564021E+02 -0.35889913692E+02  0.47787267773E+02  0.19999985084E+02 0.  0.
         12    1    1    2    0    0 -0.22252776549E+02 -0.10017564021E+02  0.35889913692E+02  0.43400732227E+02  0.00000000000E+00 0. -1.
         11    1    3    3    0    0  0.25337788911E+01  0.36315597629E+01 -0.22106941349E+01  0.49492858676E+01  0.51100000000E-03 0. -1.
        -11    1    3    3    0    0  0.21811503152E+02  0.54704803819E+01 -0.33747202522E+02  0.40552946917E+02  0.51100000000E-03 0.  1.
         12    1    3    3    0    0 -0.20925054947E+01  0.91552387590E+00  0.67982965034E-01  0.22850349879E+01  0.00000000000E+00 0. -1.
</event>
<event>
 7    1  0.4519840E-010  0.4778728E+02  0.7816164E-02  0.1312668E+00
        -11   -1    0    0    0    0  0.00000000000E+00  0.00000000000E+00  0.45593999997E+02  0.45594000000E+02  0.51100000000E-03 0. -1.
         11   -1    0    0    0    0 -0.00000000000E+00 -0.00000000000E+00 -0.45593999997E+02  0.45594000000E+02  0.51100000000E-03 0.  1.
    9900012    2    1    2    0    0 -0.43645380776E+01 -0.27904572897E+02 -0.32953123066E+02  0.47787277644E+02  0.20000030089E+02 0.  0.
         12    1    1    2    0    0  0.43645380776E+01  0.27904572897E+02  0.32953123066E+02  0.43400722356E+02  0.00000000000E+00 0. -1.
         11    1    3    3    0    0  0.14513772696E+00 -0.50984740798E+01 -0.21248756872E+01  0.55254501943E+01  0.51100000000E-03 0. -1.
        -11    1    3    3    0    0  0.40283509374E-02 -0.19512912759E+02 -0.31047501225E+02  0.36670166527E+02  0.51100000000E-03 0.  1.
        -12    1    3    3    0    0 -0.45137041555E+01 -0.32931860585E+01  0.21925384585E+00  0.55916609222E+01  0.00000000000E+00 0.  1.
</event>
<event>
 7    1  0.4519840E-010  0.4778726E+02  0.7816164E-02  0.1312668E+00
        -11   -1    0    0    0    0  0.00000000000E+00  0.00000000000E+00  0.45593999997E+02  0.45594000000E+02  0.51100000000E-03 0. -1.
         11   -1    0    0    0    0 -0.00000000000E+00 -0.00000000000E+00 -0.45593999997E+02  0.45594000000E+02  0.51100000000E-03 0.  1.
    9900012    2    1    2    0    0 -0.17785192652E+02  0.23209853761E+02  0.32072012694E+02  0.47787258215E+02  0.19999941503E+02 0.  0.
        -12    1    1    2    0    0  0.17785192652E+02 -0.23209853761E+02 -0.32072012694E+02  0.43400741785E+02  0.00000000000E+00 0.  1.
         11    1    3    3    0    0 -0.29742023504E+01 -0.74121815908E+00  0.41265572145E+00  0.30928254051E+01  0.51100000000E-03 0.  1.
        -11    1    3    3    0    0  0.15219988007E+01  0.51880317307E+01  0.11382399907E+02  0.12601237300E+02  0.51100000000E-03 0. -1.
         12    1    3    3    0    0 -0.16332989102E+02  0.18763040189E+02  0.20276957066E+02  0.32093195509E+02  0.00000000000E+00 0. -1.
</event>
<event>
 7    1  0.4519840E-010  0.4778727E+02  0.7816164E-02  0.1312668E+00
        -11   -1    0    0    0    0  0.00000000000E+00  0.00000000000E+00  0.45593999997E+02  0.45594000000E+02  0.51100000000E-03 0. -1.
         11   -1    0    0    0    0 -0.00000000000E+00 -0.00000000000E+00 -0.45593999997E+02  0.45594000000E+02  0.51100000000E-03 0.  1.
    9900012    2    1    2    0    0  0.25259746102E+02  0.28871890412E+02  0.20297350491E+02  0.47787271134E+02  0.20000000410E+02 0.  0.
        -12    1    1    2    0    0 -0.25259746102E+02 -0.28871890412E+02 -0.20297350491E+02  0.43400728866E+02  0.00000000000E+00 0.  1.
         11    1    3    3    0    0  0.68713139160E+01  0.95827154361E+01  0.98417172225E+01  0.15359127196E+02  0.51100000000E-03 0. -1.
        -11    1    3    3    0    0  0.15206046079E+02  0.21032713489E+02  0.59214638727E+01  0.26620717660E+02  0.51100000000E-03 0.  1.
        -12    1    3    3    0    0  0.31823861068E+01 -0.17435385126E+01  0.45341693959E+01  0.58074262792E+01  0.00000000000E+00 0.  1.
</event>
<event>
 7    1  0.4519840E-010  0.4778727E+02  0.7816164E-02  0.1312668E+00
        -11   -1    0    0    0    0  0.00000000000E+00  0.00000000000E+00  0.45593999997E+02  0.45594000000E+02  0.51100000000E-03 0. -1.
         11   -1    0    0    0    0 -0.00000000000E+00 -0.00000000000E+00 -0.45593999997E+02  0.45594000000E+02  0.51100000000E-03 0.  1.
    9900012    2    1    2    0    0 -0.19821961558E+02 -0.19126272328E+02  0.33539510016E+02  0.47787272065E+02  0.20000004654E+02 0.  0.
        -12    1    1    2    0    0  0.19821961558E+02  0.19126272328E+02 -0.33539510016E+02  0.43400727935E+02  0.00000000000E+00 0.  1.
         11    1    3    3    0    0 -0.26110747398E+01 -0.16372335355E+01  0.13525851605E+02  0.13872523449E+02  0.51100000000E-03 0. -1.
        -11    1    3    3    0    0 -0.39708938084E+01  0.81992530956E+00  0.54809019298E+00  0.40915373970E+01  0.51100000000E-03 0.  1.
         12    1    3    3    0    0 -0.13239993010E+02 -0.18308964102E+02  0.19465568218E+02  0.29823211220E+02  0.00000000000E+00 0. -1.
</event>
<event>
 7    1  0.4519840E-010  0.4778727E+02  0.7816164E-02  0.1312668E+00
        -11   -1    0    0    0    0  0.00000000000E+00  0.00000000000E+00  0.45593999997E+02  0.45594000000E+02  0.51100000000E-03 0. -1.
         11   -1    0    0    0    0 -0.00000000000E+00 -0.00000000000E+00 -0.45593999997E+02  0.45594000000E+02  0.51100000000E-03 0.  1.
    9900012    2    1    2    0    0  0.11678378407E+01 -0.19490288494E+02  0.38760657961E+02  0.47787265025E+02  0.19999972554E+02 0.  0.
        -12    1    1    2    0    0 -0.11678378407E+01  0.19490288494E+02 -0.38760657961E+02  0.43400734975E+02  0.00000000000E+00 0.  1.
         11    1    3    3    0    0  0.44458391789E+01  0.58845201210E+00  0.37653690686E+01  0.58557464306E+01  0.51100000000E-03 0.  1.
        -11    1    3    3    0    0  0.11519001349E+01 -0.39627358311E+00  0.87179648922E+01  0.88026597569E+01  0.51100000000E-03 0. -1.
        -12    1    3    3    0    0 -0.44299014731E+01 -0.19682466923E+02  0.26277324001E+02  0.33128858837E+02  0.00000000000E+00 0.  1.
</event>
<event>
 7    1  0.4519840E-010  0.4778727E+02  0.7816164E-02  0.1312668E+00
        -11   -1    0    0    0    0  0.00000000000E+00  0.00000000000E+00  0.45593999997E+02  0.45594000000E+02  0.51100000000E-03 0. -1.
         11   -1    0    0    0    0 -0.00000000000E+00 -0.00000000000E+00 -0.45593999997E+02  0.45594000000E+02  0.51100000000E-03 0.  1.
    9900012    2    1    2    0    0  0.80765070733E+00 -0.40967566601E+01 -0.43199396461E+02  0.47787267640E+02  0.19999984479E+02 0.  0.
         12    1    1    2    0    0 -0.80765070733E+00  0.40967566601E+01  0.43199396461E+02  0.43400732360E+02  0.00000000000E+00 0. -1.
         11    1    3    3    0    0  0.53076320082E+00 -0.70424148061E+01 -0.87163079831E+01  0.11218348408E+02  0.51100000000E-03 0. -1.
        -11    1    3    3    0    0  0.26673766155E+01  0.22693250063E+01 -0.20851178508E+01  0.40758374239E+01  0.51100000000E-03 0.  1.
        -12    1    3    3    0    0 -0.23904891090E+01  0.67633313975E+00 -0.32397970627E+02  0.32493081809E+02  0.00000000000E+00 0.  1.
</event>
<event>
 7    1  0.4519840E-010  0.4778725E+02  0.7816164E-02  0.1312668E+00
        -11   -1    0    0    0    0  0.00000000000E+00  0.00000000000E+00  0.45593999997E+02  0.45594000000E+02  0.51100000000E-03 0. -1.
         11   -1    0    0    0    0 -0.00000000000E+00 -0.00000000000E+00 -0.45593999997E+02  0.45594000000E+02  0.51100000000E-03 0.  1.
    9900012    2    1    2    0    0  0.32503410959E+02 -0.64373369543E+01  0.28030588359E+02  0.47787252140E+02  0.19999913808E+02 0.  0.
        -12    1    1    2    0    0 -0.32503410959E+02  0.64373369543E+01 -0.28030588359E+02  0.43400747860E+02  0.00000000000E+00 0.  1.
         11    1    3    3    0    0  0.19694064944E+02 -0.36423810691E+01  0.19337906470E+02  0.27840218404E+02  0.51100000000E-03 0. -1.
        -11    1    3    3    0    0  0.11394486157E+02 -0.27540107795E+01  0.60688278600E+00  0.11738279138E+02  0.51100000000E-03 0.  1.
         12    1    3    3    0    0  0.14148598585E+01 -0.40945105771E-01  0.80857991032E+01  0.82087545985E+01  0.00000000000E+00 0. -1.
</event>
<event>
 7    1  0.4519840E-010  0.4778727E+02  0.7816164E-02  0.1312668E+00
        -11   -1    0    0    0    0  0.00000000000E+00  0.00000000000E+00  0.45593999997E+02  0.45594000000E+02  0.51100000000E-03 0.  1.
         11   -1    0    0    0    0 -0.00000000000E+00 -0.00000000000E+00 -0.45593999997E+02  0.45594000000E+02  0.51100000000E-03 0. -1.
    9900012    2    1    2    0    0 -0.26052910024E+02  0.33584924998E+02  0.87705115564E+01  0.47787272117E+02  0.20000004891E+02 0.  0.
         12    1    1    2    0    0  0.26052910024E+02 -0.33584924998E+02 -0.87705115564E+01  0.43400727883E+02  0.00000000000E+00 0. -1.
         11    1    3    3    0    0 -0.10155581790E+02  0.13473889474E+02  0.11679317412E+02  0.20520428711E+02  0.51100000000E-03 0. -1.
        -11    1    3    3    0    0 -0.16897918903E+00 -0.65471788880E+00  0.69404473038E+00  0.96897256366E+00  0.51100000000E-03 0.  1.
        -12    1    3    3    0    0 -0.15728349045E+02  0.20765753413E+02 -0.36028505858E+01  0.26297870842E+02  0.00000000000E+00 0.  1.
</event>
<event>
 7    1  0.4519840E-010  0.4778727E+02  0.7816164E-02  0.1312668E+00
        -11   -1    0    0    0    0  0.00000000000E+00  0.00000000000E+00  0.45593999997E+02  0.45594000000E+02  0.51100000000E-03 0. -1.
         11   -1    0    0    0    0 -0.00000000000E+00 -0.00000000000E+00 -0.45593999997E+02  0.45594000000E+02  0.51100000000E-03 0.  1.
    9900012    2    1    2    0    0 -0.34209611990E+02  0.25116927899E+01  0.26589791736E+02  0.47787272153E+02  0.20000005052E+02 0.  0.
        -12    1    1    2    0    0  0.34209611990E+02 -0.25116927899E+01 -0.26589791736E+02  0.43400727847E+02  0.00000000000E+00 0.  1.
         11    1    3    3    0    0 -0.17053943668E+02  0.10045565743E+01  0.70930034272E+01  0.18497481624E+02  0.51100000000E-03 0. -1.
        -11    1    3    3    0    0 -0.88942699101E+01  0.12717409339E+01  0.10120616715E+01  0.90415502721E+01  0.51100000000E-03 0.  1.
         12    1    3    3    0    0 -0.82613984118E+01  0.23539528172E+00  0.18484726637E+02  0.20248240257E+02  0.00000000000E+00 0. -1.
</event>
<event>
 7    1  0.4519840E-010  0.4778727E+02  0.7816164E-02  0.1312668E+00
        -11   -1    0    0    0    0  0.00000000000E+00  0.00000000000E+00  0.45593999997E+02  0.45594000000E+02  0.51100000000E-03 0. -1.
         11   -1    0    0    0    0 -0.00000000000E+00 -0.00000000000E+00 -0.45593999997E+02  0.45594000000E+02  0.51100000000E-03 0.  1.
    9900012    2    1    2    0    0 -0.89155452196E+01  0.37084721928E+01  0.42312929919E+02  0.47787265549E+02  0.19999974943E+02 0.  0.
        -12    1    1    2    0    0  0.89155452196E+01 -0.37084721928E+01 -0.42312929919E+02  0.43400734451E+02  0.00000000000E+00 0.  1.
         11    1    3    3    0    0 -0.85489739446E+00 -0.42630578899E+01  0.19541803710E+01  0.47668997589E+01  0.51100000000E-03 0. -1.
        -11    1    3    3    0    0  0.36736835251E+00  0.47156075188E+01  0.69166652434E+01  0.83792703816E+01  0.51100000000E-03 0.  1.
        -12    1    3    3    0    0 -0.84280161777E+01  0.32559225639E+01  0.33442084305E+02  0.34641095408E+02  0.00000000000E+00 0.  1.
</event>
<event>
 7    1  0.4519840E-010  0.4778727E+02  0.7816164E-02  0.1312668E+00
        -11   -1    0    0    0    0  0.00000000000E+00  0.00000000000E+00  0.45593999997E+02  0.45594000000E+02  0.51100000000E-03 0. -1.
         11   -1    0    0    0    0 -0.00000000000E+00 -0.00000000000E+00 -0.45593999997E+02  0.45594000000E+02  0.51100000000E-03 0.  1.
    9900012    2    1    2    0    0 -0.32516913255E+02  0.24208407812E+02  0.15499252730E+02  0.47787268536E+02  0.19999988564E+02 0.  0.
        -12    1    1    2    0    0  0.32516913255E+02 -0.24208407812E+02 -0.15499252730E+02  0.43400731464E+02  0.00000000000E+00 0.  1.
         11    1    3    3    0    0 -0.23120317989E+01  0.83260309494E+01  0.55415556476E+01  0.10265335926E+02  0.51100000000E-03 0. -1.
        -11    1    3    3    0    0 -0.53293751580E+01  0.84094410832E+01  0.82780577688E+00  0.99903053793E+01  0.51100000000E-03 0.  1.
         12    1    3    3    0    0 -0.24875506298E+02  0.74729357789E+01  0.91298913060E+01  0.27531627231E+02  0.00000000000E+00 0. -1.
</event>
<event>
 7    1  0.4519840E-010  0.4778727E+02  0.7816164E-02  0.1312668E+00
        -11   -1    0    0    0    0  0.00000000000E+00  0.00000000000E+00  0.45593999997E+02  0.45594000000E+02  0.51100000000E-03 0. -1.
         11   -1    0    0    0    0 -0.00000000000E+00 -0.00000000000E+00 -0.45593999997E+02  0.45594000000E+02  0.51100000000E-03 0.  1.
    9900012    2    1    2    0    0 -0.38205142891E+02 -0.72532154452E+01  0.19271246407E+02  0.47787274019E+02  0.20000013562E+02 0.  0.
        -12    1    1    2    0    0  0.38205142891E+02  0.72532154452E+01 -0.19271246407E+02  0.43400725981E+02  0.00000000000E+00 0.  1.
         11    1    3    3    0    0 -0.30262594812E+01  0.35883932349E+01  0.44909371547E+01  0.64964089499E+01  0.51100000000E-03 0.  1.
        -11    1    3    3    0    0 -0.12846411847E+02 -0.52317779742E+01 -0.10668620427E+00  0.13871307809E+02  0.51100000000E-03 0. -1.
        -12    1    3    3    0    0 -0.22332471562E+02 -0.56098307058E+01  0.14886995457E+02  0.27419557261E+02  0.00000000000E+00 0.  1.
</event>
<event>
 7    1  0.4519840E-010  0.4778725E+02  0.7816164E-02  0.1312668E+00
        -11   -1    0    0    0    0  0.00000000000E+00  0.00000000000E+00  0.45593999997E+02  0.45594000000E+02  0.51100000000E-03 0. -1.
         11   -1    0    0    0    0 -0.00000000000E+00 -0.00000000000E+00 -0.45593999997E+02  0.45594000000E+02  0.51100000000E-03 0.  1.
    9900012    2    1    2    0    0  0.85286598065E+01  0.57130454143E+01 -0.42169283381E+02  0.47787246702E+02  0.19999889013E+02 0.  0.
         12    1    1    2    0    0 -0.85286598065E+01 -0.57130454143E+01  0.42169283381E+02  0.43400753298E+02  0.00000000000E+00 0. -1.
         11    1    3    3    0    0  0.41325510974E+01  0.30275762734E+01 -0.29522522535E+02  0.29963703606E+02  0.51100000000E-03 0. -1.
        -11    1    3    3    0    0  0.31346646039E+01  0.45516897885E+01 -0.14098946083E+02  0.15143456773E+02  0.51100000000E-03 0.  1.
         12    1    3    3    0    0  0.12614441052E+01 -0.18662206476E+01  0.14521852380E+01  0.26800863235E+01  0.00000000000E+00 0. -1.
</event>
<event>
 7    1  0.4519840E-010  0.4778727E+02  0.7816164E-02  0.1312668E+00
        -11   -1    0    0    0    0  0.00000000000E+00  0.00000000000E+00  0.45593999997E+02  0.45594000000E+02  0.51100000000E-03 0. -1.
         11   -1    0    0    0    0 -0.00000000000E+00 -0.00000000000E+00 -0.45593999997E+02  0.45594000000E+02  0.51100000000E-03 0.  1.
    9900012    2    1    2    0    0 -0.81048463401E+01 -0.17714143832E+02  0.38783294294E+02  0.47787270257E+02  0.19999996410E+02 0.  0.
        -12    1    1    2    0    0  0.81048463401E+01  0.17714143832E+02 -0.38783294294E+02  0.43400729743E+02  0.00000000000E+00 0.  1.
         11    1    3    3    0    0 -0.23391056704E+01 -0.72644582038E+01  0.32882676607E+02  0.33756691032E+02  0.51100000000E-03 0. -1.
        -11    1    3    3    0    0 -0.23736366612E+01 -0.28064973353E+01  0.40440114093E+01  0.54648519497E+01  0.51100000000E-03 0.  1.
        -12    1    3    3    0    0 -0.33921040085E+01 -0.76431882928E+01  0.18566062781E+01  0.85657272753E+01  0.00000000000E+00 0.  1.
</event>
<event>
 7    1  0.4519840E-010  0.4778726E+02  0.7816164E-02  0.1312668E+00
        -11   -1    0    0    0    0  0.00000000000E+00  0.00000000000E+00  0.45593999997E+02  0.45594000000E+02  0.51100000000E-03 0. -1.
         11   -1    0    0    0    0 -0.00000000000E+00 -0.00000000000E+00 -0.45593999997E+02  0.45594000000E+02  0.51100000000E-03 0.  1.
    9900012    2    1    2    0    0 -0.91762636007E+01 -0.23829159231E+02 -0.35094033613E+02  0.47787264538E+02  0.19999970337E+02 0.  0.
         12    1    1    2    0    0  0.91762636007E+01  0.23829159231E+02  0.35094033613E+02  0.43400735462E+02  0.00000000000E+00 0. -1.
         11    1    3    3    0    0  0.39770132784E+00 -0.86739851138E+01 -0.15436766987E+02  0.17711294684E+02  0.51100000000E-03 0. -1.
        -11    1    3    3    0    0 -0.72779014186E+01 -0.29607114577E+01 -0.14788680929E+02  0.16746305422E+02  0.51100000000E-03 0.  1.
        -12    1    3    3    0    0 -0.22960635099E+01 -0.12194462660E+02 -0.48685856972E+01  0.13329664433E+02  0.00000000000E+00 0.  1.
</event>
<event>
 7    1  0.4519840E-010  0.4778727E+02  0.7816164E-02  0.1312668E+00
        -11   -1    0    0    0    0  0.00000000000E+00  0.00000000000E+00  0.45593999997E+02  0.45594000000E+02  0.51100000000E-03 0. -1.
         11   -1    0    0    0    0 -0.00000000000E+00 -0.00000000000E+00 -0.45593999997E+02  0.45594000000E+02  0.51100000000E-03 0.  1.
    9900012    2    1    2    0    0 -0.18125444613E+02 -0.11486985661E+02  0.37724537105E+02  0.47787270953E+02  0.19999999584E+02 0.  0.
        -12    1    1    2    0    0  0.18125444613E+02  0.11486985661E+02 -0.37724537105E+02  0.43400729047E+02  0.00000000000E+00 0.  1.
         11    1    3    3    0    0 -0.95651311548E+01 -0.92114973869E+01  0.17258933966E+02  0.21776460227E+02  0.51100000000E-03 0. -1.
        -11    1    3    3    0    0 -0.11142748424E+02 -0.10160600882E+01  0.20242446856E+02  0.23128983452E+02  0.51100000000E-03 0.  1.
         12    1    3    3    0    0  0.25824349661E+01 -0.12594281863E+01  0.22315628321E+00  0.28818272740E+01  0.00000000000E+00 0. -1.
</event>
<event>
 7    1  0.4519840E-010  0.4778727E+02  0.7816164E-02  0.1312668E+00
        -11   -1    0    0    0    0  0.00000000000E+00  0.00000000000E+00  0.45593999997E+02  0.45594000000E+02  0.51100000000E-03 0.  1.
         11   -1    0    0    0    0 -0.00000000000E+00 -0.00000000000E+00 -0.45593999997E+02  0.45594000000E+02  0.51100000000E-03 0. -1.
    9900012    2    1    2    0    0 -0.36568079997E+02 -0.15005094563E+02  0.17923334833E+02  0.47787271100E+02  0.20000000254E+02 0.  0.
         12    1    1    2    0    0  0.36568079997E+02  0.15005094563E+02 -0.17923334833E+02  0.43400728900E+02  0.00000000000E+00 0. -1.
         11    1    3    3    0    0 -0.17481156394E+02 -0.12537974967E+02  0.10425190503E+02  0.23905569277E+02  0.51100000000E-03 0.  1.
        -11    1    3    3    0    0 -0.12730839462E+02  0.25505000900E+01  0.20763330807E+00  0.12985470187E+02  0.51100000000E-03 0. -1.
         12    1    3    3    0    0 -0.63560841398E+01 -0.50176196857E+01  0.72905110220E+01  0.10896231636E+02  0.00000000000E+00 0. -1.
</event>
<event>
 7    1  0.4519840E-010  0.4778727E+02  0.7816164E-02  0.1312668E+00
        -11   -1    0    0    0    0  0.00000000000E+00  0.00000000000E+00  0.45593999997E+02  0.45594000000E+02  0.51100000000E-03 0.  1.
         11   -1    0    0    0    0 -0.00000000000E+00 -0.00000000000E+00 -0.45593999997E+02  0.45594000000E+02  0.51100000000E-03 0. -1.
    9900012    2    1    2    0    0  0.36937747601E+02  0.10994147522E+02  0.19958826335E+02  0.47787271593E+02  0.20000002503E+02 0.  0.
        -12    1    1    2    0    0 -0.36937747601E+02 -0.10994147522E+02 -0.19958826335E+02  0.43400728407E+02  0.00000000000E+00 0.  1.
         11    1    3    3    0    0  0.11334965096E+02 -0.35710744866E+00 -0.18787211693E+01  0.11495153455E+02  0.51100000000E-03 0. -1.
        -11    1    3    3    0    0  0.22402504666E+01  0.35684735362E+01  0.45731017334E+01  0.62181979107E+01  0.51100000000E-03 0.  1.
         12    1    3    3    0    0  0.23362532038E+02  0.77827814340E+01  0.17264445771E+02  0.30073920228E+02  0.00000000000E+00 0. -1.
</event>
<event>
 7    1  0.4519840E-010  0.4778727E+02  0.7816164E-02  0.1312668E+00
        -11   -1    0    0    0    0  0.00000000000E+00  0.00000000000E+00  0.45593999997E+02  0.45594000000E+02  0.51100000000E-03 0. -1.
         11   -1    0    0    0    0 -0.00000000000E+00 -0.00000000000E+00 -0.45593999997E+02  0.45594000000E+02  0.51100000000E-03 0.  1.
    9900012    2    1    2    0    0  0.21905206660E+02  0.33028543709E+02  0.17688987601E+02  0.47787273501E+02  0.20000011199E+02 0.  0.
        -12    1    1    2    0    0 -0.21905206660E+02 -0.33028543709E+02 -0.17688987601E+02  0.43400726499E+02  0.00000000000E+00 0.  1.
         11    1    3    3    0    0  0.45532515051E+01  0.63850819415E+01  0.67299397393E+01  0.10334092114E+02  0.51100000000E-03 0. -1.
        -11    1    3    3    0    0 -0.31635346782E+01  0.21541713244E+01  0.63646872444E+00  0.38798838196E+01  0.51100000000E-03 0.  1.
        -12    1    3    3    0    0  0.20515489833E+02  0.24489290443E+02  0.10322579137E+02  0.33573297567E+02  0.00000000000E+00 0.  1.
</event>
<event>
 7    1  0.4519840E-010  0.4778727E+02  0.7816164E-02  0.1312668E+00
        -11   -1    0    0    0    0  0.00000000000E+00  0.00000000000E+00  0.45593999997E+02  0.45594000000E+02  0.51100000000E-03 0. -1.
         11   -1    0    0    0    0 -0.00000000000E+00 -0.00000000000E+00 -0.45593999997E+02  0.45594000000E+02  0.51100000000E-03 0.  1.
    9900012    2    1    2    0    0 -0.18864028252E+02 -0.18605765564E+02  0.34374367373E+02  0.47787271822E+02  0.20000003544E+02 0.  0.
        -12    1    1    2    0    0  0.18864028252E+02  0.18605765564E+02 -0.34374367373E+02  0.43400728178E+02  0.00000000000E+00 0.  1.
         11    1    3    3    0    0 -0.72417244919E+01 -0.13668685996E+02  0.20336938570E+02  0.25551254786E+02  0.51100000000E-03 0. -1.
        -11    1    3    3    0    0 -0.10649623404E+02 -0.84512420227E+01  0.11242893937E+02  0.17642013341E+02  0.51100000000E-03 0.  1.
        -12    1    3    3    0    0 -0.97268035534E+00  0.35141624547E+01  0.27945348653E+01  0.45940036945E+01  0.00000000000E+00 0.  1.
</event>
<event>
 7    1  0.4519840E-010  0.4778728E+02  0.7816164E-02  0.1312668E+00
        -11   -1    0    0    0    0  0.00000000000E+00  0.00000000000E+00  0.45593999997E+02  0.45594000000E+02  0.51100000000E-03 0.  1.
         11   -1    0    0    0    0 -0.00000000000E+00 -0.00000000000E+00 -0.45593999997E+02  0.45594000000E+02  0.51100000000E-03 0. -1.
    9900012    2    1    2    0    0  0.32840665870E+02 -0.28262269113E+02  0.25214042424E+01  0.47787278007E+02  0.20000031743E+02 0.  0.
        -12    1    1    2    0    0 -0.32840665870E+02  0.28262269113E+02 -0.25214042424E+01  0.43400721993E+02  0.00000000000E+00 0.  1.
         11    1    3    3    0    0  0.12497360625E+02 -0.66023857568E+01  0.34171452562E+01  0.14541403035E+02  0.51100000000E-03 0. -1.
        -11    1    3    3    0    0  0.10195399867E+02 -0.79851240791E+01  0.67219992259E+01  0.14590875877E+02  0.51100000000E-03 0.  1.
         12    1    3    3    0    0  0.10147905378E+02 -0.13674759277E+02 -0.76177402397E+01  0.18654999095E+02  0.00000000000E+00 0. -1.
</event>
<event>
 7    1  0.4519840E-010  0.4778727E+02  0.7816164E-02  0.1312668E+00
        -11   -1    0    0    0    0  0.00000000000E+00  0.00000000000E+00  0.45593999997E+02  0.45594000000E+02  0.51100000000E-03 0. -1.
         11   -1    0    0    0    0 -0.00000000000E+00 -0.00000000000E+00 -0.45593999997E+02  0.45594000000E+02  0.51100000000E-03 0.  1.
    9900012    2    1    2    0    0  0.13277571547E+02 -0.10719151245E+02  0.39905252808E+02  0.47787270614E+02  0.19999998038E+02 0.  0.
        -12    1    1    2    0    0 -0.13277571547E+02  0.10719151245E+02 -0.39905252808E+02  0.43400729386E+02  0.00000000000E+00 0.  1.
         11    1    3    3    0    0  0.22714809599E+01 -0.11075003394E+01  0.15881607864E+01  0.29847006043E+01  0.51100000000E-03 0. -1.
        -11    1    3    3    0    0  0.85805462423E+01 -0.52350245479E+01  0.52137482758E+01  0.11323180965E+02  0.51100000000E-03 0.  1.
         12    1    3    3    0    0  0.24255443444E+01 -0.43766263575E+01  0.33103343746E+02  0.33479389044E+02  0.00000000000E+00 0. -1.
</event>
<event>
 7    1  0.4519840E-010  0.4778728E+02  0.7816164E-02  0.1312668E+00
        -11   -1    0    0    0    0  0.00000000000E+00  0.00000000000E+00  0.45593999997E+02  0.45594000000E+02  0.51100000000E-03 0. -1.
         11   -1    0    0    0    0 -0.00000000000E+00 -0.00000000000E+00 -0.45593999997E+02  0.45594000000E+02  0.51100000000E-03 0.  1.
    9900012    2    1    2    0    0  0.52141218061E+01  0.74744385404E+01 -0.42433107554E+02  0.47787275186E+02  0.20000018881E+02 0.  0.
         12    1    1    2    0    0 -0.52141218061E+01 -0.74744385404E+01  0.42433107554E+02  0.43400724814E+02  0.00000000000E+00 0. -1.
         11    1    3    3    0    0 -0.23248492167E+01  0.42002943782E+01 -0.12056021098E+02  0.12976711514E+02  0.51100000000E-03 0.  1.
        -11    1    3    3    0    0  0.43233715605E+01  0.60129491910E+01 -0.29604294204E+02  0.30516574762E+02  0.51100000000E-03 0. -1.
         12    1    3    3    0    0  0.32155994623E+01 -0.27388050288E+01 -0.77279225178E+00  0.42939889092E+01  0.00000000000E+00 0. -1.
</event>
<event>
 7    1  0.5790827E-010  0.4778727E+02  0.7816164E-02  0.1312668E+00
        -11   -1    0    0    0    0  0.00000000000E+00  0.00000000000E+00  0.45593999997E+02  0.45594000000E+02  0.51100000000E-03 0. -1.
         11   -1    0    0    0    0 -0.00000000000E+00 -0.00000000000E+00 -0.45593999997E+02  0.45594000000E+02  0.51100000000E-03 0.  1.
    9900012    2    1    2    0    0 -0.36157688974E+02 -0.80224232364E+01 -0.22624893019E+02  0.47787268086E+02  0.19999986512E+02 0.  0.
         12    1    1    2    0    0  0.36157688974E+02  0.80224232364E+01  0.22624893019E+02  0.43400731914E+02  0.00000000000E+00 0. -1.
         11    1    3    3    0    0 -0.86940266436E+00 -0.22003163809E+01 -0.40579298638E+01  0.46972383599E+01  0.51100000000E-03 0. -1.
        -11    1    3    3    0    0 -0.19065611661E+02 -0.10558878041E+02 -0.12558816012E+02  0.25153753465E+02  0.51100000000E-03 0.  1.
        -12    1    3    3    0    0 -0.16222674649E+02  0.47367711855E+01 -0.60081471423E+01  0.17936276261E+02  0.00000000000E+00 0.  1.
</event>
<event>
 7    1  0.4519840E-010  0.4778729E+02  0.7816164E-02  0.1312668E+00
        -11   -1    0    0    0    0  0.00000000000E+00  0.00000000000E+00  0.45593999997E+02  0.45594000000E+02  0.51100000000E-03 0. -1.
         11   -1    0    0    0    0 -0.00000000000E+00 -0.00000000000E+00 -0.45593999997E+02  0.45594000000E+02  0.51100000000E-03 0.  1.
    9900012    2    1    2    0    0 -0.31294039734E+02  0.53750127144E+01 -0.29587401095E+02  0.47787285857E+02  0.20000067537E+02 0.  0.
         12    1    1    2    0    0  0.31294039734E+02 -0.53750127144E+01  0.29587401095E+02  0.43400714143E+02  0.00000000000E+00 0. -1.
         11    1    3    3    0    0 -0.11030311018E+02  0.39689541303E+01 -0.20682099751E+01  0.11903690638E+02  0.51100000000E-03 0. -1.
        -11    1    3    3    0    0 -0.97438450081E+01  0.60769280459E+01 -0.12753839092E+02  0.17161934094E+02  0.51100000000E-03 0.  1.
         12    1    3    3    0    0 -0.10519883708E+02 -0.46708694618E+01 -0.14765352028E+02  0.18721661124E+02  0.00000000000E+00 0. -1.
</event>
<event>
 7    1  0.4519840E-010  0.4778727E+02  0.7816164E-02  0.1312668E+00
        -11   -1    0    0    0    0  0.00000000000E+00  0.00000000000E+00  0.45593999997E+02  0.45594000000E+02  0.51100000000E-03 0. -1.
         11   -1    0    0    0    0 -0.00000000000E+00 -0.00000000000E+00 -0.45593999997E+02  0.45594000000E+02  0.51100000000E-03 0.  1.
    9900012    2    1    2    0    0  0.24960114117E+02 -0.23804564727E+02 -0.26343092253E+02  0.47787272955E+02  0.20000008711E+02 0.  0.
         12    1    1    2    0    0 -0.24960114117E+02  0.23804564727E+02  0.26343092253E+02  0.43400727045E+02  0.00000000000E+00 0. -1.
         11    1    3    3    0    0  0.31328568782E+01  0.13122892150E+01 -0.18342533122E+01  0.38602306508E+01  0.51100000000E-03 0. -1.
        -11    1    3    3    0    0  0.10528982445E+02 -0.20135911875E+01 -0.66148033274E+01  0.12596413939E+02  0.51100000000E-03 0.  1.
        -12    1    3    3    0    0  0.11298274794E+02 -0.23103262755E+02 -0.17894035614E+02  0.31330628366E+02  0.00000000000E+00 0.  1.
</event>
<event>
 7    1  0.4519840E-010  0.4778727E+02  0.7816164E-02  0.1312668E+00
        -11   -1    0    0    0    0  0.00000000000E+00  0.00000000000E+00  0.45593999997E+02  0.45594000000E+02  0.51100000000E-03 0. -1.
         11   -1    0    0    0    0 -0.00000000000E+00 -0.00000000000E+00 -0.45593999997E+02  0.45594000000E+02  0.51100000000E-03 0.  1.
    9900012    2    1    2    0    0  0.20097793377E+02  0.18641940773E+02 -0.33647883581E+02  0.47787270469E+02  0.19999997374E+02 0.  0.
         12    1    1    2    0    0 -0.20097793377E+02 -0.18641940773E+02  0.33647883581E+02  0.43400729531E+02  0.00000000000E+00 0. -1.
         11    1    3    3    0    0  0.37879835470E+01  0.55884893855E+01 -0.43303009051E+01  0.80206944309E+01  0.51100000000E-03 0.  1.
        -11    1    3    3    0    0  0.16697853277E+01  0.49864343982E+01  0.80217344872E+00  0.53194166552E+01  0.51100000000E-03 0. -1.
         12    1    3    3    0    0  0.14640024503E+02  0.80670169890E+01 -0.30119756124E+02  0.34447159382E+02  0.00000000000E+00 0. -1.
</event>
<event>
 7    1  0.4519840E-010  0.4778727E+02  0.7816164E-02  0.1312668E+00
        -11   -1    0    0    0    0  0.00000000000E+00  0.00000000000E+00  0.45593999997E+02  0.45594000000E+02  0.51100000000E-03 0. -1.
         11   -1    0    0    0    0 -0.00000000000E+00 -0.00000000000E+00 -0.45593999997E+02  0.45594000000E+02  0.51100000000E-03 0.  1.
    9900012    2    1    2    0    0  0.10906021465E+02 -0.13265231395E+02 -0.39858697103E+02  0.47787269558E+02  0.19999993222E+02 0.  0.
         12    1    1    2    0    0 -0.10906021465E+02  0.13265231395E+02  0.39858697103E+02  0.43400730442E+02  0.00000000000E+00 0. -1.
         11    1    3    3    0    0 -0.17056578839E+01  0.27564321608E+00 -0.14324470760E+02  0.14428295493E+02  0.51100000000E-03 0. -1.
        -11    1    3    3    0    0  0.68469701108E+01 -0.30007590901E+01 -0.17151502803E+02  0.18709879836E+02  0.51100000000E-03 0.  1.
         12    1    3    3    0    0  0.57647092378E+01 -0.10540115521E+02 -0.83827235399E+01  0.14649094229E+02  0.00000000000E+00 0. -1.
</event>
<event>
 7    1  0.4519840E-010  0.4778727E+02  0.7816164E-02  0.1312668E+00
        -11   -1    0    0    0    0  0.00000000000E+00  0.00000000000E+00  0.45593999997E+02  0.45594000000E+02  0.51100000000E-03 0. -1.
         11   -1    0    0    0    0 -0.00000000000E+00 -0.00000000000E+00 -0.45593999997E+02  0.45594000000E+02  0.51100000000E-03 0.  1.
    9900012    2    1    2    0    0 -0.91018018989E+01 -0.24361319408E+02 -0.34746317087E+02  0.47787271525E+02  0.20000002189E+02 0.  0.
         12    1    1    2    0    0  0.91018018989E+01  0.24361319408E+02  0.34746317087E+02  0.43400728475E+02  0.00000000000E+00 0. -1.
         11    1    3    3    0    0  0.13410714798E+01 -0.78345851173E+01 -0.13671373862E+02  0.15814096882E+02  0.51100000000E-03 0.  1.
        -11    1    3    3    0    0 -0.85830701137E+01 -0.61087613014E+01 -0.28751969033E+01  0.10920293710E+02  0.51100000000E-03 0. -1.
         12    1    3    3    0    0 -0.18598032650E+01 -0.10417972989E+02 -0.18199746322E+02  0.21052880933E+02  0.00000000000E+00 0. -1.
</event>
<event>
 7    1  0.4519840E-010  0.4778727E+02  0.7816164E-02  0.1312668E+00
        -11   -1    0    0    0    0  0.00000000000E+00  0.00000000000E+00  0.45593999997E+02  0.45594000000E+02  0.51100000000E-03 0. -1.
         11   -1    0    0    0    0 -0.00000000000E+00 -0.00000000000E+00 -0.45593999997E+02  0.45594000000E+02  0.51100000000E-03 0.  1.
    9900012    2    1    2    0    0 -0.85761661730E+01 -0.59652977790E+01 -0.42124671476E+02  0.47787270158E+02  0.19999995959E+02 0.  0.
         12    1    1    2    0    0  0.85761661730E+01  0.59652977790E+01  0.42124671476E+02  0.43400729842E+02  0.00000000000E+00 0. -1.
         11    1    3    3    0    0  0.11901616567E+01 -0.43957053622E+01 -0.37316232765E+01  0.58875905886E+01  0.51100000000E-03 0. -1.
        -11    1    3    3    0    0  0.26601767927E+01  0.84155938805E+00 -0.15416995095E+02  0.15667434404E+02  0.51100000000E-03 0.  1.
        -12    1    3    3    0    0 -0.12426504623E+02 -0.24111518049E+01 -0.22976053105E+02  0.26232245166E+02  0.00000000000E+00 0.  1.
</event>
<event>
 7    1  0.4519840E-010  0.4778728E+02  0.7816164E-02  0.1312668E+00
        -11   -1    0    0    0    0  0.00000000000E+00  0.00000000000E+00  0.45593999997E+02  0.45594000000E+02  0.51100000000E-03 0. -1.
         11   -1    0    0    0    0 -0.00000000000E+00 -0.00000000000E+00 -0.45593999997E+02  0.45594000000E+02  0.51100000000E-03 0.  1.
    9900012    2    1    2    0    0  0.27502913478E+01  0.35459418363E+01 -0.43168101981E+02  0.47787276105E+02  0.20000023073E+02 0.  0.
         12    1    1    2    0    0 -0.27502913478E+01 -0.35459418363E+01  0.43168101981E+02  0.43400723895E+02  0.00000000000E+00 0. -1.
         11    1    3    3    0    0  0.15437533987E+01  0.75196511557E-01  0.16295817795E+01  0.22459666312E+01  0.51100000000E-03 0. -1.
        -11    1    3    3    0    0 -0.18511772603E+01  0.29194490107E+01 -0.95401966998E+01  0.10147186463E+02  0.51100000000E-03 0.  1.
         12    1    3    3    0    0  0.30577152094E+01  0.55129631404E+00 -0.35257487060E+02  0.35394123011E+02  0.00000000000E+00 0. -1.
</event>
<event>
 7    1  0.5267027E-010  0.4778727E+02  0.7816164E-02  0.1312668E+00
        -11   -1    0    0    0    0  0.00000000000E+00  0.00000000000E+00  0.45593999997E+02  0.45594000000E+02  0.51100000000E-03 0. -1.
         11   -1    0    0    0    0 -0.00000000000E+00 -0.00000000000E+00 -0.45593999997E+02  0.45594000000E+02  0.51100000000E-03 0.  1.
    9900012    2    1    2    0    0  0.23534799387E+01  0.22141054093E+02 -0.37253969805E+02  0.47787269471E+02  0.19999992826E+02 0.  0.
         12    1    1    2    0    0 -0.23534799387E+01 -0.22141054093E+02  0.37253969805E+02  0.43400730529E+02  0.00000000000E+00 0. -1.
         11    1    3    3    0    0  0.70630738699E+01  0.50011336953E+01 -0.15766189573E+02  0.17985301906E+02  0.51100000000E-03 0. -1.
        -11    1    3    3    0    0  0.12755644010E+01  0.48188928102E+00  0.60597621555E+00  0.14921425050E+01  0.51100000000E-03 0.  1.
        -12    1    3    3    0    0 -0.59851583322E+01  0.16658031117E+02 -0.22093756448E+02  0.28309825060E+02  0.00000000000E+00 0.  1.
</event>
<event>
 7    1  0.4519840E-010  0.4778727E+02  0.7816164E-02  0.1312668E+00
        -11   -1    0    0    0    0  0.00000000000E+00  0.00000000000E+00  0.45593999997E+02  0.45594000000E+02  0.51100000000E-03 0. -1.
         11   -1    0    0    0    0 -0.00000000000E+00 -0.00000000000E+00 -0.45593999997E+02  0.45594000000E+02  0.51100000000E-03 0.  1.
    9900012    2    1    2    0    0 -0.83204601972E+01 -0.21375299160E+02  0.36844128728E+02  0.47787270815E+02  0.19999998952E+02 0.  0.
        -12    1    1    2    0    0  0.83204601972E+01  0.21375299160E+02 -0.36844128728E+02  0.43400729185E+02  0.00000000000E+00 0.  1.
         11    1    3    3    0    0 -0.45673082222E+01 -0.70432136369E+01  0.20230784089E+02  0.21903236926E+02  0.51100000000E-03 0. -1.
        -11    1    3    3    0    0 -0.46436477020E+01 -0.16586512298E+02  0.15661223379E+02  0.23279814694E+02  0.51100000000E-03 0.  1.
         12    1    3    3    0    0  0.89049572697E+00  0.22544267742E+01  0.95212126003E+00  0.26042191946E+01  0.00000000000E+00 0. -1.
</event>
<event>
 7    1  0.4519840E-010  0.4778727E+02  0.7816164E-02  0.1312668E+00
        -11   -1    0    0    0    0  0.00000000000E+00  0.00000000000E+00  0.45593999997E+02  0.45594000000E+02  0.51100000000E-03 0. -1.
         11   -1    0    0    0    0 -0.00000000000E+00 -0.00000000000E+00 -0.45593999997E+02  0.45594000000E+02  0.51100000000E-03 0.  1.
    9900012    2    1    2    0    0  0.18475449026E+01 -0.12148088208E+02 -0.41624918430E+02  0.47787270703E+02  0.19999998441E+02 0.  0.
         12    1    1    2    0    0 -0.18475449026E+01  0.12148088208E+02  0.41624918430E+02  0.43400729297E+02  0.00000000000E+00 0. -1.
         11    1    3    3    0    0  0.16643137924E+01 -0.15355075650E+00 -0.15891709253E+01  0.23062919861E+01  0.51100000000E-03 0. -1.
        -11    1    3    3    0    0  0.43928309195E+01 -0.31550777573E+01 -0.32960811913E+02  0.33401595791E+02  0.51100000000E-03 0.  1.
         12    1    3    3    0    0 -0.42095998092E+01 -0.88394596943E+01 -0.70749355909E+01  0.12079382925E+02  0.00000000000E+00 0. -1.
</event>
<event>
 7    1  0.4519840E-010  0.4778727E+02  0.7816164E-02  0.1312668E+00
        -11   -1    0    0    0    0  0.00000000000E+00  0.00000000000E+00  0.45593999997E+02  0.45594000000E+02  0.51100000000E-03 0. -1.
         11   -1    0    0    0    0 -0.00000000000E+00 -0.00000000000E+00 -0.45593999997E+02  0.45594000000E+02  0.51100000000E-03 0.  1.
    9900012    2    1    2    0    0  0.42426622377E+02 -0.46843379247E+01 -0.78525093690E+01  0.47787271763E+02  0.20000003277E+02 0.  0.
         12    1    1    2    0    0 -0.42426622377E+02  0.46843379247E+01  0.78525093690E+01  0.43400728237E+02  0.00000000000E+00 0. -1.
         11    1    3    3    0    0  0.88407365253E+01 -0.53822609186E+01 -0.35935677238E+01  0.10956326216E+02  0.51100000000E-03 0. -1.
        -11    1    3    3    0    0  0.13855878687E+02 -0.68384507787E+01 -0.22650362807E+01  0.15616663307E+02  0.51100000000E-03 0.  1.
        -12    1    3    3    0    0  0.19730007165E+02  0.75363737726E+01 -0.19939053645E+01  0.21214282240E+02  0.00000000000E+00 0.  1.
</event>
<event>
 7    1  0.4519840E-010  0.4778727E+02  0.7816164E-02  0.1312668E+00
        -11   -1    0    0    0    0  0.00000000000E+00  0.00000000000E+00  0.45593999997E+02  0.45594000000E+02  0.51100000000E-03 0. -1.
         11   -1    0    0    0    0 -0.00000000000E+00 -0.00000000000E+00 -0.45593999997E+02  0.45594000000E+02  0.51100000000E-03 0.  1.
    9900012    2    1    2    0    0  0.27956756580E+02 -0.20507969766E+02  0.26104907686E+02  0.47787271116E+02  0.20000000326E+02 0.  0.
        -12    1    1    2    0    0 -0.27956756580E+02  0.20507969766E+02 -0.26104907686E+02  0.43400728884E+02  0.00000000000E+00 0.  1.
         11    1    3    3    0    0  0.13572015272E+02 -0.11343612007E+02  0.14610774351E+02  0.22942359497E+02  0.51100000000E-03 0. -1.
        -11    1    3    3    0    0  0.22396674169E+01 -0.54257450644E+01  0.10586687825E+02  0.12105072450E+02  0.51100000000E-03 0.  1.
        -12    1    3    3    0    0  0.12145073891E+02 -0.37386126947E+01  0.90744550930E+00  0.12739839169E+02  0.00000000000E+00 0.  1.
</event>
<event>
 7    1  0.4909182E-010  0.4778727E+02  0.7816164E-02  0.1312668E+00
        -11   -1    0    0    0    0  0.00000000000E+00  0.00000000000E+00  0.45593999997E+02  0.45594000000E+02  0.51100000000E-03 0. -1.
         11   -1    0    0    0    0 -0.00000000000E+00 -0.00000000000E+00 -0.45593999997E+02  0.45594000000E+02  0.51100000000E-03 0.  1.
    9900012    2    1    2    0    0  0.17020011807E+02  0.29483160520E+02 -0.26919984310E+02  0.47787272916E+02  0.20000008534E+02 0.  0.
         12    1    1    2    0    0 -0.17020011807E+02 -0.29483160520E+02  0.26919984310E+02  0.43400727084E+02  0.00000000000E+00 0. -1.
         11    1    3    3    0    0  0.73675369581E+01  0.41771964450E+01 -0.10400131742E+02  0.13412393950E+02  0.51100000000E-03 0.  1.
        -11    1    3    3    0    0  0.46775564373E+01  0.18327170885E+01  0.36153526177E+00  0.50367741816E+01  0.51100000000E-03 0. -1.
        -12    1    3    3    0    0  0.49749184120E+01  0.23473246986E+02 -0.16881387830E+02  0.29338104785E+02  0.00000000000E+00 0.  1.
</event>
<event>
 7    1  0.4519840E-010  0.4778726E+02  0.7816164E-02  0.1312668E+00
        -11   -1    0    0    0    0  0.00000000000E+00  0.00000000000E+00  0.45593999997E+02  0.45594000000E+02  0.51100000000E-03 0. -1.
         11   -1    0    0    0    0 -0.00000000000E+00 -0.00000000000E+00 -0.45593999997E+02  0.45594000000E+02  0.51100000000E-03 0.  1.
    9900012    2    1    2    0    0 -0.11057628080E+02 -0.23075914278E+02 -0.35055026682E+02  0.47787264359E+02  0.19999969516E+02 0.  0.
         12    1    1    2    0    0  0.11057628080E+02  0.23075914278E+02  0.35055026682E+02  0.43400735641E+02  0.00000000000E+00 0. -1.
         11    1    3    3    0    0 -0.77861504584E+01 -0.10386848400E+02 -0.76043876411E+01  0.15044516287E+02  0.51100000000E-03 0. -1.
        -11    1    3    3    0    0  0.29784411448E+01 -0.18660216739E+01 -0.12791797208E+01  0.37402472592E+01  0.51100000000E-03 0.  1.
         12    1    3    3    0    0 -0.62499187665E+01 -0.10823044204E+02 -0.26171459320E+02  0.29002500813E+02  0.00000000000E+00 0. -1.
</event>
<event>
 7    1  0.4519840E-010  0.4778726E+02  0.7816164E-02  0.1312668E+00
        -11   -1    0    0    0    0  0.00000000000E+00  0.00000000000E+00  0.45593999997E+02  0.45594000000E+02  0.51100000000E-03 0. -1.
         11   -1    0    0    0    0 -0.00000000000E+00 -0.00000000000E+00 -0.45593999997E+02  0.45594000000E+02  0.51100000000E-03 0.  1.
    9900012    2    1    2    0    0 -0.77739030981E+01 -0.32428855872E+02  0.27776965556E+02  0.47787261780E+02  0.19999957760E+02 0.  0.
        -12    1    1    2    0    0  0.77739030981E+01  0.32428855872E+02 -0.27776965556E+02  0.43400738220E+02  0.00000000000E+00 0.  1.
         11    1    3    3    0    0 -0.62863657867E+01 -0.18116981619E+02  0.13933921520E+02  0.23704379068E+02  0.51100000000E-03 0. -1.
        -11    1    3    3    0    0 -0.62645674180E+01 -0.10044728631E+02  0.43110819438E+01  0.12598682709E+02  0.51100000000E-03 0.  1.
        -12    1    3    3    0    0  0.47770301065E+01 -0.42671456210E+01  0.95319620924E+01  0.11484200003E+02  0.00000000000E+00 0.  1.
</event>
<event>
 7    1  0.4519840E-010  0.4778728E+02  0.7816164E-02  0.1312668E+00
        -11   -1    0    0    0    0  0.00000000000E+00  0.00000000000E+00  0.45593999997E+02  0.45594000000E+02  0.51100000000E-03 0. -1.
         11   -1    0    0    0    0 -0.00000000000E+00 -0.00000000000E+00 -0.45593999997E+02  0.45594000000E+02  0.51100000000E-03 0.  1.
    9900012    2    1    2    0    0  0.29176034568E+02 -0.14083841257E+02  0.28879524867E+02  0.47787279565E+02  0.20000038850E+02 0.  0.
        -12    1    1    2    0    0 -0.29176034568E+02  0.14083841257E+02 -0.28879524867E+02  0.43400720435E+02  0.00000000000E+00 0.  1.
         11    1    3    3    0    0  0.19351593985E+02 -0.50318238533E+01  0.16103053233E+02  0.25673172082E+02  0.51100000000E-03 0. -1.
        -11    1    3    3    0    0  0.50233931136E+01  0.18485383389E+00 -0.71059660826E+00  0.50767703429E+01  0.51100000000E-03 0.  1.
         12    1    3    3    0    0  0.48010474700E+01 -0.92368712378E+01  0.13487068242E+02  0.17037337141E+02  0.00000000000E+00 0. -1.
</event>
<event>
 7    1  0.4519840E-010  0.4778727E+02  0.7816164E-02  0.1312668E+00
        -11   -1    0    0    0    0  0.00000000000E+00  0.00000000000E+00  0.45593999997E+02  0.45594000000E+02  0.51100000000E-03 0.  1.
         11   -1    0    0    0    0 -0.00000000000E+00 -0.00000000000E+00 -0.45593999997E+02  0.45594000000E+02  0.51100000000E-03 0. -1.
    9900012    2    1    2    0    0 -0.41804776480E+02 -0.11088021206E+02 -0.36110694072E+01  0.47787269901E+02  0.19999994787E+02 0.  0.
        -12    1    1    2    0    0  0.41804776480E+02  0.11088021206E+02  0.36110694072E+01  0.43400730099E+02  0.00000000000E+00 0.  1.
         11    1    3    3    0    0 -0.36284169061E+02 -0.82131291143E+01 -0.63943138959E+01  0.37747631247E+02  0.51100000000E-03 0. -1.
        -11    1    3    3    0    0 -0.53942519380E+01 -0.78539395318E+00 -0.11618522446E+01  0.55735714342E+01  0.51100000000E-03 0.  1.
        -12    1    3    3    0    0 -0.12635548138E+00 -0.20894981385E+01  0.39450967333E+01  0.44660672200E+01  0.00000000000E+00 0.  1.
</event>
<event>
 7    1  0.4519840E-010  0.4778727E+02  0.7816164E-02  0.1312668E+00
        -11   -1    0    0    0    0  0.00000000000E+00  0.00000000000E+00  0.45593999997E+02  0.45594000000E+02  0.51100000000E-03 0. -1.
         11   -1    0    0    0    0 -0.00000000000E+00 -0.00000000000E+00 -0.45593999997E+02  0.45594000000E+02  0.51100000000E-03 0.  1.
    9900012    2    1    2    0    0 -0.84229768842E+01  0.14227071376E+02  0.40128132333E+02  0.47787273001E+02  0.20000008919E+02 0.  0.
        -12    1    1    2    0    0  0.84229768842E+01 -0.14227071376E+02 -0.40128132333E+02  0.43400726999E+02  0.00000000000E+00 0.  1.
         11    1    3    3    0    0 -0.76535551343E+01  0.89081023412E+01  0.22761561915E+02  0.25612885323E+02  0.51100000000E-03 0. -1.
        -11    1    3    3    0    0  0.85464960861E+00  0.90061579024E+01  0.14956233546E+02  0.17479422996E+02  0.51100000000E-03 0.  1.
        -12    1    3    3    0    0 -0.16240713585E+01 -0.36871888676E+01  0.24103368716E+01  0.46949646812E+01  0.00000000000E+00 0.  1.
</event>
<event>
 7    1  0.4519840E-010  0.4778727E+02  0.7816164E-02  0.1312668E+00
        -11   -1    0    0    0    0  0.00000000000E+00  0.00000000000E+00  0.45593999997E+02  0.45594000000E+02  0.51100000000E-03 0. -1.
         11   -1    0    0    0    0 -0.00000000000E+00 -0.00000000000E+00 -0.45593999997E+02  0.45594000000E+02  0.51100000000E-03 0.  1.
    9900012    2    1    2    0    0 -0.92042791484E+01  0.30039269033E+02 -0.29942387599E+02  0.47787274040E+02  0.20000013658E+02 0.  0.
         12    1    1    2    0    0  0.92042791484E+01 -0.30039269033E+02  0.29942387599E+02  0.43400725960E+02  0.00000000000E+00 0. -1.
         11    1    3    3    0    0  0.26152031041E+01  0.10945368683E+02 -0.11778605693E+02  0.16290363262E+02  0.51100000000E-03 0.  1.
        -11    1    3    3    0    0 -0.85985915077E+01  0.36899409172E+01 -0.35097166551E+01  0.99934754290E+01  0.51100000000E-03 0. -1.
         12    1    3    3    0    0 -0.32208907448E+01  0.15403959433E+02 -0.14654065252E+02  0.21503435349E+02  0.00000000000E+00 0. -1.
</event>
<event>
 7    1  0.4519840E-010  0.4778725E+02  0.7816164E-02  0.1312668E+00
        -11   -1    0    0    0    0  0.00000000000E+00  0.00000000000E+00  0.45593999997E+02  0.45594000000E+02  0.51100000000E-03 0. -1.
         11   -1    0    0    0    0 -0.00000000000E+00 -0.00000000000E+00 -0.45593999997E+02  0.45594000000E+02  0.51100000000E-03 0.  1.
    9900012    2    1    2    0    0  0.15314395165E+02 -0.93771400081E+01 -0.39511566311E+02  0.47787247399E+02  0.19999892189E+02 0.  0.
         12    1    1    2    0    0 -0.15314395165E+02  0.93771400081E+01  0.39511566311E+02  0.43400752601E+02  0.00000000000E+00 0. -1.
         11    1    3    3    0    0  0.44569459734E+01 -0.42344084060E+01 -0.69180336521E+01  0.92549322975E+01  0.51100000000E-03 0.  1.
        -11    1    3    3    0    0 -0.45098505709E+01 -0.15244152606E+01 -0.72207836768E+01  0.86488329401E+01  0.51100000000E-03 0. -1.
         12    1    3    3    0    0  0.15367299763E+02 -0.36183163415E+01 -0.25372748982E+02  0.29883482161E+02  0.00000000000E+00 0. -1.
</event>
<event>
 7    1  0.4519840E-010  0.4778727E+02  0.7816164E-02  0.1312668E+00
        -11   -1    0    0    0    0  0.00000000000E+00  0.00000000000E+00  0.45593999997E+02  0.45594000000E+02  0.51100000000E-03 0. -1.
         11   -1    0    0    0    0 -0.00000000000E+00 -0.00000000000E+00 -0.45593999997E+02  0.45594000000E+02  0.51100000000E-03 0.  1.
    9900012    2    1    2    0    0 -0.73034703171E+01 -0.31756964892E+02  0.28666668845E+02  0.47787269586E+02  0.19999993349E+02 0.  0.
        -12    1    1    2    0    0  0.73034703171E+01  0.31756964892E+02 -0.28666668845E+02  0.43400730414E+02  0.00000000000E+00 0.  1.
         11    1    3    3    0    0 -0.28299551948E+01 -0.36986313506E+01 -0.21383162073E+01  0.51245406366E+01  0.51100000000E-03 0. -1.
        -11    1    3    3    0    0  0.11305497299E+01 -0.22473974810E+01  0.56657687422E+01  0.61991833197E+01  0.51100000000E-03 0.  1.
         12    1    3    3    0    0 -0.56040648522E+01 -0.25810936060E+02  0.25139216311E+02  0.36463545629E+02  0.00000000000E+00 0. -1.
</event>
<event>
 7    1  0.4519840E-010  0.4778727E+02  0.7816164E-02  0.1312668E+00
        -11   -1    0    0    0    0  0.00000000000E+00  0.00000000000E+00  0.45593999997E+02  0.45594000000E+02  0.51100000000E-03 0. -1.
         11   -1    0    0    0    0 -0.00000000000E+00 -0.00000000000E+00 -0.45593999997E+02  0.45594000000E+02  0.51100000000E-03 0.  1.
    9900012    2    1    2    0    0  0.11424997847E+02 -0.70767048577E+01  0.41267576142E+02  0.47787272263E+02  0.20000005558E+02 0.  0.
        -12    1    1    2    0    0 -0.11424997847E+02  0.70767048577E+01 -0.41267576142E+02  0.43400727737E+02  0.00000000000E+00 0.  1.
         11    1    3    3    0    0  0.26050398326E+01 -0.98577957303E+01  0.26151353483E+02  0.28068766600E+02  0.51100000000E-03 0. -1.
        -11    1    3    3    0    0  0.15478354164E+01  0.36837207931E+01  0.10035041836E+02  0.10801280399E+02  0.51100000000E-03 0.  1.
        -12    1    3    3    0    0  0.72721225981E+01 -0.90262992053E+00  0.50811808225E+01  0.89172252639E+01  0.00000000000E+00 0.  1.
</event>
<event>
 7    1  0.4519840E-010  0.4778726E+02  0.7816164E-02  0.1312668E+00
        -11   -1    0    0    0    0  0.00000000000E+00  0.00000000000E+00  0.45593999997E+02  0.45594000000E+02  0.51100000000E-03 0. -1.
         11   -1    0    0    0    0 -0.00000000000E+00 -0.00000000000E+00 -0.45593999997E+02  0.45594000000E+02  0.51100000000E-03 0.  1.
    9900012    2    1    2    0    0 -0.24293221650E+01 -0.77121717542E+01  0.42640879592E+02  0.47787264848E+02  0.19999971747E+02 0.  0.
        -12    1    1    2    0    0  0.24293221650E+01  0.77121717542E+01 -0.42640879592E+02  0.43400735152E+02  0.00000000000E+00 0.  1.
         11    1    3    3    0    0 -0.38448164693E+01 -0.12386828951E+02  0.27874345083E+02  0.30744028025E+02  0.51100000000E-03 0. -1.
        -11    1    3    3    0    0  0.81236374623E+00 -0.33580899324E+00  0.10198214044E+02  0.10236028159E+02  0.51100000000E-03 0.  1.
        -12    1    3    3    0    0  0.60313055800E+00  0.50104661900E+01  0.45683204660E+01  0.68072086637E+01  0.00000000000E+00 0.  1.
</event>
<event>
 7    1  0.4519840E-010  0.4778727E+02  0.7816164E-02  0.1312668E+00
        -11   -1    0    0    0    0  0.00000000000E+00  0.00000000000E+00  0.45593999997E+02  0.45594000000E+02  0.51100000000E-03 0. -1.
         11   -1    0    0    0    0 -0.00000000000E+00 -0.00000000000E+00 -0.45593999997E+02  0.45594000000E+02  0.51100000000E-03 0.  1.
    9900012    2    1    2    0    0 -0.52978351638E+01 -0.19084353621E+02  0.38617916588E+02  0.47787273138E+02  0.20000009544E+02 0.  0.
        -12    1    1    2    0    0  0.52978351638E+01  0.19084353621E+02 -0.38617916588E+02  0.43400726862E+02  0.00000000000E+00 0.  1.
         11    1    3    3    0    0 -0.11788805861E+01 -0.13282739181E+02  0.21322672411E+02  0.25149100950E+02  0.51100000000E-03 0. -1.
        -11    1    3    3    0    0  0.45931081664E+01 -0.21966400938E+01  0.72737331173E+01  0.88785733118E+01  0.51100000000E-03 0.  1.
         12    1    3    3    0    0 -0.87120627441E+01 -0.36049743458E+01  0.10021511060E+02  0.13759598876E+02  0.00000000000E+00 0. -1.
</event>
<event>
 7    1  0.4519840E-010  0.4778725E+02  0.7816164E-02  0.1312668E+00
        -11   -1    0    0    0    0  0.00000000000E+00  0.00000000000E+00  0.45593999997E+02  0.45594000000E+02  0.51100000000E-03 0. -1.
         11   -1    0    0    0    0 -0.00000000000E+00 -0.00000000000E+00 -0.45593999997E+02  0.45594000000E+02  0.51100000000E-03 0.  1.
    9900012    2    1    2    0    0 -0.20955466507E+02 -0.36539183393E+02 -0.10458586336E+02  0.47787245079E+02  0.19999881613E+02 0.  0.
         12    1    1    2    0    0  0.20955466507E+02  0.36539183393E+02  0.10458586336E+02  0.43400754921E+02  0.00000000000E+00 0. -1.
         11    1    3    3    0    0 -0.22056938758E+01 -0.82246310154E+01  0.17152268598E+01  0.86862905923E+01  0.51100000000E-03 0. -1.
        -11    1    3    3    0    0 -0.15270990666E+02 -0.27747990599E+02 -0.63640672105E+01  0.32305657243E+02  0.51100000000E-03 0.  1.
         12    1    3    3    0    0 -0.34787819655E+01 -0.56656177882E+00 -0.58097459852E+01  0.67952972433E+01  0.00000000000E+00 0. -1.
</event>
<event>
 7    1  0.4519840E-010  0.4778727E+02  0.7816164E-02  0.1312668E+00
        -11   -1    0    0    0    0  0.00000000000E+00  0.00000000000E+00  0.45593999997E+02  0.45594000000E+02  0.51100000000E-03 0. -1.
         11   -1    0    0    0    0 -0.00000000000E+00 -0.00000000000E+00 -0.45593999997E+02  0.45594000000E+02  0.51100000000E-03 0.  1.
    9900012    2    1    2    0    0  0.20859791594E+02 -0.10514597872E+02 -0.36577799746E+02  0.47787272955E+02  0.20000008711E+02 0.  0.
         12    1    1    2    0    0 -0.20859791594E+02  0.10514597872E+02  0.36577799746E+02  0.43400727045E+02  0.00000000000E+00 0. -1.
         11    1    3    3    0    0  0.46682864805E+01 -0.83106495494E+01 -0.20426966916E+02  0.22541534381E+02  0.51100000000E-03 0. -1.
        -11    1    3    3    0    0  0.70765924725E+01 -0.62388103244E+01 -0.76969024386E+01  0.12175517348E+02  0.51100000000E-03 0.  1.
        -12    1    3    3    0    0  0.91149126414E+01  0.40348620016E+01 -0.84539303913E+01  0.13070221226E+02  0.00000000000E+00 0.  1.
</event>
<event>
 7    1  0.4519840E-010  0.4778727E+02  0.7816164E-02  0.1312668E+00
        -11   -1    0    0    0    0  0.00000000000E+00  0.00000000000E+00  0.45593999997E+02  0.45594000000E+02  0.51100000000E-03 0. -1.
         11   -1    0    0    0    0 -0.00000000000E+00 -0.00000000000E+00 -0.45593999997E+02  0.45594000000E+02  0.51100000000E-03 0.  1.
    9900012    2    1    2    0    0  0.31967316790E+02  0.15006550108E+02  0.25229294758E+02  0.47787271862E+02  0.20000003728E+02 0.  0.
        -12    1    1    2    0    0 -0.31967316790E+02 -0.15006550108E+02 -0.25229294758E+02  0.43400728138E+02  0.00000000000E+00 0.  1.
         11    1    3    3    0    0  0.11848345580E+02  0.75285185921E+01  0.63026457056E+01  0.15387827278E+02  0.51100000000E-03 0. -1.
        -11    1    3    3    0    0  0.74373012014E+01 -0.44715831414E+01  0.81903109215E+01  0.11932715458E+02  0.51100000000E-03 0.  1.
        -12    1    3    3    0    0  0.12681670009E+02  0.11949614658E+02  0.10736338131E+02  0.20466729126E+02  0.00000000000E+00 0.  1.
</event>
<event>
 7    1  0.4519840E-010  0.4778727E+02  0.7816164E-02  0.1312668E+00
        -11   -1    0    0    0    0  0.00000000000E+00  0.00000000000E+00  0.45593999997E+02  0.45594000000E+02  0.51100000000E-03 0.  1.
         11   -1    0    0    0    0 -0.00000000000E+00 -0.00000000000E+00 -0.45593999997E+02  0.45594000000E+02  0.51100000000E-03 0. -1.
    9900012    2    1    2    0    0  0.42210247465E+02  0.55348496290E+01  0.84429719506E+01  0.47787270435E+02  0.19999997220E+02 0.  0.
        -12    1    1    2    0    0 -0.42210247465E+02 -0.55348496290E+01 -0.84429719506E+01  0.43400729565E+02  0.00000000000E+00 0.  1.
         11    1    3    3    0    0  0.14493785221E+02  0.29685121120E+01  0.69444547207E+01  0.16343418426E+02  0.51100000000E-03 0. -1.
        -11    1    3    3    0    0  0.23410012494E+02  0.73880260356E+01 -0.85739416655E+00  0.24563117447E+02  0.51100000000E-03 0.  1.
        -12    1    3    3    0    0  0.43064497490E+01 -0.48216885185E+01  0.23559113965E+01  0.68807345624E+01  0.00000000000E+00 0.  1.
</event>
<event>
 7    1  0.4519840E-010  0.4778725E+02  0.7816164E-02  0.1312668E+00
        -11   -1    0    0    0    0  0.00000000000E+00  0.00000000000E+00  0.45593999997E+02  0.45594000000E+02  0.51100000000E-03 0. -1.
         11   -1    0    0    0    0 -0.00000000000E+00 -0.00000000000E+00 -0.45593999997E+02  0.45594000000E+02  0.51100000000E-03 0.  1.
    9900012    2    1    2    0    0  0.35205641940E+02 -0.23820001216E+02 -0.87632981937E+01  0.47787250265E+02  0.19999905258E+02 0.  0.
         12    1    1    2    0    0 -0.35205641940E+02  0.23820001216E+02  0.87632981937E+01  0.43400749735E+02  0.00000000000E+00 0. -1.
         11    1    3    3    0    0  0.20861687144E+02 -0.18239007555E+02 -0.13040071393E+02  0.30625395496E+02  0.51100000000E-03 0. -1.
        -11    1    3    3    0    0  0.22581629947E+01 -0.32772183266E+01 -0.39918589141E+00  0.39998512107E+01  0.51100000000E-03 0.  1.
        -12    1    3    3    0    0  0.12085791801E+02 -0.23037753345E+01  0.46759590909E+01  0.13162003558E+02  0.00000000000E+00 0.  1.
</event>
<event>
 7    1  0.4519840E-010  0.4778726E+02  0.7816164E-02  0.1312668E+00
        -11   -1    0    0    0    0  0.00000000000E+00  0.00000000000E+00  0.45593999997E+02  0.45594000000E+02  0.51100000000E-03 0. -1.
         11   -1    0    0    0    0 -0.00000000000E+00 -0.00000000000E+00 -0.45593999997E+02  0.45594000000E+02  0.51100000000E-03 0.  1.
    9900012    2    1    2    0    0  0.17099560737E+02  0.32653396489E+00  0.39888874961E+02  0.47787263284E+02  0.19999964618E+02 0.  0.
        -12    1    1    2    0    0 -0.17099560737E+02 -0.32653396489E+00 -0.39888874961E+02  0.43400736716E+02  0.00000000000E+00 0.  1.
         11    1    3    3    0    0  0.12255811639E+02  0.70172091407E+01  0.27344608336E+02  0.30776188009E+02  0.51100000000E-03 0. -1.
        -11    1    3    3    0    0  0.51566994127E+00  0.17415489835E+01  0.33251382784E+01  0.37888590871E+01  0.51100000000E-03 0.  1.
        -12    1    3    3    0    0  0.43280791570E+01 -0.84322241593E+01  0.92191283467E+01  0.13222216188E+02  0.00000000000E+00 0.  1.
</event>
<event>
 7    1  0.4519840E-010  0.4778727E+02  0.7816164E-02  0.1312668E+00
        -11   -1    0    0    0    0  0.00000000000E+00  0.00000000000E+00  0.45593999997E+02  0.45594000000E+02  0.51100000000E-03 0. -1.
         11   -1    0    0    0    0 -0.00000000000E+00 -0.00000000000E+00 -0.45593999997E+02  0.45594000000E+02  0.51100000000E-03 0.  1.
    9900012    2    1    2    0    0  0.23063636916E+02 -0.22900702331E+02 -0.28761950341E+02  0.47787270715E+02  0.19999998497E+02 0.  0.
         12    1    1    2    0    0 -0.23063636916E+02  0.22900702331E+02  0.28761950341E+02  0.43400729285E+02  0.00000000000E+00 0. -1.
         11    1    3    3    0    0  0.78685403442E+01 -0.60839546366E+01 -0.12246760172E+02  0.15776931455E+02  0.51100000000E-03 0. -1.
        -11    1    3    3    0    0  0.16340490976E+01 -0.53306512435E+01 -0.12648575715E+02  0.13822895030E+02  0.51100000000E-03 0.  1.
         12    1    3    3    0    0  0.13561047474E+02 -0.11486096451E+02 -0.38666144547E+01  0.18187444230E+02  0.00000000000E+00 0. -1.
</event>
