<event>
 7    1  0.8398055E-009  0.4614232E+02  0.7816164E-02  0.1320468E+00
        -11   -1    0    0    0    0  0.00000000000E+00  0.00000000000E+00  0.45593999997E+02  0.45594000000E+02  0.51100000000E-03 0.  1.
         11   -1    0    0    0    0 -0.00000000000E+00 -0.00000000000E+00 -0.45593999997E+02  0.45594000000E+02  0.51100000000E-03 0. -1.
    9900012    2    1    2    0    0 -0.38992703149E+02  0.94181942718E+00 -0.22534318978E+02  0.46142318137E+02  0.10000003427E+02 0.  0.
         12    1    1    2    0    0  0.38992703149E+02 -0.94181942718E+00  0.22534318978E+02  0.45045681863E+02  0.00000000000E+00 0. -1.
         11    1    3    3    0    0 -0.56282830318E+01 -0.12159985505E+01 -0.58978415035E+01  0.82426183354E+01  0.51100000000E-03 0. -1.
        -11    1    3    3    0    0 -0.19456667067E+02  0.42753908598E+01 -0.85993356929E+01  0.21697682710E+02  0.51100000000E-03 0.  1.
        -12    1    3    3    0    0 -0.13907753050E+02 -0.21175728821E+01 -0.80371417816E+01  0.16202017091E+02  0.00000000000E+00 0.  1.
</event>
<event>
 7    1  0.8398055E-009  0.4614232E+02  0.7816164E-02  0.1320468E+00
        -11   -1    0    0    0    0  0.00000000000E+00  0.00000000000E+00  0.45593999997E+02  0.45594000000E+02  0.51100000000E-03 0. -1.
         11   -1    0    0    0    0 -0.00000000000E+00 -0.00000000000E+00 -0.45593999997E+02  0.45594000000E+02  0.51100000000E-03 0.  1.
    9900012    2    1    2    0    0 -0.19893286545E+01  0.21461442976E+02 -0.39554550334E+02  0.46142318573E+02  0.10000007401E+02 0.  0.
         12    1    1    2    0    0  0.19893286545E+01 -0.21461442976E+02  0.39554550334E+02  0.45045681427E+02  0.00000000000E+00 0. -1.
         11    1    3    3    0    0  0.14704107359E+01  0.17577329134E+01 -0.27187044551E+01  0.35557118700E+01  0.51100000000E-03 0. -1.
        -11    1    3    3    0    0 -0.57389043588E+01  0.13472347485E+02 -0.27125915842E+02  0.30826197958E+02  0.51100000000E-03 0.  1.
        -12    1    3    3    0    0  0.22791649684E+01  0.62313625769E+01 -0.97099300376E+01  0.11760408745E+02  0.00000000000E+00 0.  1.
</event>
<event>
 7    1  0.8398055E-009  0.4614232E+02  0.7816164E-02  0.1320468E+00
        -11   -1    0    0    0    0  0.00000000000E+00  0.00000000000E+00  0.45593999997E+02  0.45594000000E+02  0.51100000000E-03 0. -1.
         11   -1    0    0    0    0 -0.00000000000E+00 -0.00000000000E+00 -0.45593999997E+02  0.45594000000E+02  0.51100000000E-03 0.  1.
    9900012    2    1    2    0    0  0.98128992008E+00  0.14256350409E+02  0.42718930320E+02  0.46142318025E+02  0.10000002407E+02 0.  0.
        -12    1    1    2    0    0 -0.98128992008E+00 -0.14256350409E+02 -0.42718930320E+02  0.45045681975E+02  0.00000000000E+00 0.  1.
         11    1    3    3    0    0  0.30762955822E+01  0.56627228256E+01  0.11331284893E+02  0.13035645051E+02  0.51100000000E-03 0. -1.
        -11    1    3    3    0    0  0.18618355197E+01  0.21420047420E+01  0.10979072010E+02  0.11339957596E+02  0.51100000000E-03 0.  1.
        -12    1    3    3    0    0 -0.39568411819E+01  0.64516228414E+01  0.20408573418E+02  0.21766715379E+02  0.00000000000E+00 0.  1.
</event>
<event>
 7    1  0.8398055E-009  0.4614232E+02  0.7816164E-02  0.1320468E+00
        -11   -1    0    0    0    0  0.00000000000E+00  0.00000000000E+00  0.45593999997E+02  0.45594000000E+02  0.51100000000E-03 0. -1.
         11   -1    0    0    0    0 -0.00000000000E+00 -0.00000000000E+00 -0.45593999997E+02  0.45594000000E+02  0.51100000000E-03 0.  1.
    9900012    2    1    2    0    0  0.37505208542E+02  0.11709992066E+02  0.22030640770E+02  0.46142315249E+02  0.99999770894E+01 0.  0.
        -12    1    1    2    0    0 -0.37505208542E+02 -0.11709992066E+02 -0.22030640770E+02  0.45045684751E+02  0.00000000000E+00 0.  1.
         11    1    3    3    0    0  0.56671128967E+01  0.38980431397E+01  0.22259454870E+01  0.72295049952E+01  0.51100000000E-03 0. -1.
        -11    1    3    3    0    0  0.10430789924E+02  0.51429001863E+01  0.94414254052E+01  0.14979696749E+02  0.51100000000E-03 0.  1.
        -12    1    3    3    0    0  0.21407305722E+02  0.26690487400E+01  0.10363269878E+02  0.23933113504E+02  0.00000000000E+00 0.  1.
</event>
<event>
 7    1  0.8398055E-009  0.4614232E+02  0.7816164E-02  0.1320468E+00
        -11   -1    0    0    0    0  0.00000000000E+00  0.00000000000E+00  0.45593999997E+02  0.45594000000E+02  0.51100000000E-03 0. -1.
         11   -1    0    0    0    0 -0.00000000000E+00 -0.00000000000E+00 -0.45593999997E+02  0.45594000000E+02  0.51100000000E-03 0.  1.
    9900012    2    1    2    0    0 -0.40263935203E+01 -0.79539121046E+01  0.44154693163E+02  0.46142317734E+02  0.99999997514E+01 0.  0.
        -12    1    1    2    0    0  0.40263935203E+01  0.79539121046E+01 -0.44154693163E+02  0.45045682266E+02  0.00000000000E+00 0.  1.
         11    1    3    3    0    0 -0.24283230484E+01  0.57212443799E+00  0.21651956393E+02  0.21795212665E+02  0.51100000000E-03 0. -1.
        -11    1    3    3    0    0  0.83857214559E+00 -0.19395097747E+01  0.73191697968E+01  0.76180803478E+01  0.51100000000E-03 0.  1.
        -12    1    3    3    0    0 -0.24366426175E+01 -0.65865267679E+01  0.15183566973E+02  0.16729024721E+02  0.00000000000E+00 0.  1.
</event>
<event>
 7    1  0.8398055E-009  0.4614232E+02  0.7816164E-02  0.1320468E+00
        -11   -1    0    0    0    0  0.00000000000E+00  0.00000000000E+00  0.45593999997E+02  0.45594000000E+02  0.51100000000E-03 0. -1.
         11   -1    0    0    0    0 -0.00000000000E+00 -0.00000000000E+00 -0.45593999997E+02  0.45594000000E+02  0.51100000000E-03 0.  1.
    9900012    2    1    2    0    0  0.25557729920E+02 -0.93394204338E+01  0.35898344321E+02  0.46142318102E+02  0.10000003106E+02 0.  0.
        -12    1    1    2    0    0 -0.25557729920E+02  0.93394204338E+01 -0.35898344321E+02  0.45045681898E+02  0.00000000000E+00 0.  1.
         11    1    3    3    0    0  0.17908606393E+01 -0.13654543339E+01  0.51508764137E+01  0.56216701662E+01  0.51100000000E-03 0. -1.
        -11    1    3    3    0    0  0.17109628351E+02 -0.77163455580E+01  0.26981613018E+02  0.32867747297E+02  0.51100000000E-03 0.  1.
        -12    1    3    3    0    0  0.66572409292E+01 -0.25762054187E+00  0.37658548895E+01  0.76529006384E+01  0.00000000000E+00 0.  1.
</event>
<event>
 7    1  0.8398055E-009  0.4614232E+02  0.7816164E-02  0.1320468E+00
        -11   -1    0    0    0    0  0.00000000000E+00  0.00000000000E+00  0.45593999997E+02  0.45594000000E+02  0.51100000000E-03 0. -1.
         11   -1    0    0    0    0 -0.00000000000E+00 -0.00000000000E+00 -0.45593999997E+02  0.45594000000E+02  0.51100000000E-03 0.  1.
    9900012    2    1    2    0    0  0.45513839798E+01  0.11277298223E+02  0.43373045540E+02  0.46142316180E+02  0.99999855858E+01 0.  0.
        -12    1    1    2    0    0 -0.45513839798E+01 -0.11277298223E+02 -0.43373045540E+02  0.45045683820E+02  0.00000000000E+00 0.  1.
         11    1    3    3    0    0  0.29243923834E+01  0.56831221317E+01  0.11840178153E+02  0.13455101892E+02  0.51100000000E-03 0. -1.
        -11    1    3    3    0    0  0.16407353247E+01  0.68851422490E+01  0.23223239567E+02  0.24277892257E+02  0.51100000000E-03 0.  1.
        -12    1    3    3    0    0 -0.13743728369E-01 -0.12909661580E+01  0.83096278200E+01  0.84093220308E+01  0.00000000000E+00 0.  1.
</event>
<event>
 7    1  0.8398055E-009  0.4614232E+02  0.7816164E-02  0.1320468E+00
        -11   -1    0    0    0    0  0.00000000000E+00  0.00000000000E+00  0.45593999997E+02  0.45594000000E+02  0.51100000000E-03 0. -1.
         11   -1    0    0    0    0 -0.00000000000E+00 -0.00000000000E+00 -0.45593999997E+02  0.45594000000E+02  0.51100000000E-03 0.  1.
    9900012    2    1    2    0    0  0.43119880506E+01 -0.27423930487E+02 -0.35474615031E+02  0.46142317455E+02  0.99999972111E+01 0.  0.
         12    1    1    2    0    0 -0.43119880506E+01  0.27423930487E+02  0.35474615031E+02  0.45045682545E+02  0.00000000000E+00 0. -1.
         11    1    3    3    0    0  0.36060254842E+01 -0.15977449745E+02 -0.22840860691E+02  0.28106711610E+02  0.51100000000E-03 0.  1.
        -11    1    3    3    0    0  0.25227161720E+00 -0.95377074814E+01 -0.12911353635E+02  0.16054113426E+02  0.51100000000E-03 0. -1.
         12    1    3    3    0    0  0.45369094915E+00 -0.19087732606E+01  0.27759929457E+00  0.19814924189E+01  0.00000000000E+00 0. -1.
</event>
<event>
 7    1  0.8398055E-009  0.4614232E+02  0.7816164E-02  0.1320468E+00
        -11   -1    0    0    0    0  0.00000000000E+00  0.00000000000E+00  0.45593999997E+02  0.45594000000E+02  0.51100000000E-03 0.  1.
         11   -1    0    0    0    0 -0.00000000000E+00 -0.00000000000E+00 -0.45593999997E+02  0.45594000000E+02  0.51100000000E-03 0. -1.
    9900012    2    1    2    0    0 -0.95358289049E+01  0.43956475981E+02  0.24513990917E+01  0.46142321283E+02  0.10000032116E+02 0.  0.
         12    1    1    2    0    0  0.95358289049E+01 -0.43956475981E+02 -0.24513990917E+01  0.45045678717E+02  0.00000000000E+00 0. -1.
         11    1    3    3    0    0  0.13057941575E+01  0.21618839749E+01  0.54674556825E+00  0.25841384793E+01  0.51100000000E-03 0. -1.
        -11    1    3    3    0    0 -0.68572589764E+01  0.17274114768E+02  0.21937384329E+01  0.18714420382E+02  0.51100000000E-03 0.  1.
         12    1    3    3    0    0 -0.39843640860E+01  0.24520477238E+02 -0.28908490942E+00  0.24843762421E+02  0.00000000000E+00 0. -1.
</event>
<event>
 7    1  0.8398055E-009  0.4614232E+02  0.7816164E-02  0.1320468E+00
        -11   -1    0    0    0    0  0.00000000000E+00  0.00000000000E+00  0.45593999997E+02  0.45594000000E+02  0.51100000000E-03 0. -1.
         11   -1    0    0    0    0 -0.00000000000E+00 -0.00000000000E+00 -0.45593999997E+02  0.45594000000E+02  0.51100000000E-03 0.  1.
    9900012    2    1    2    0    0 -0.26707781806E+02 -0.20135406646E+02 -0.30172390949E+02  0.46142318904E+02  0.10000010424E+02 0.  0.
         12    1    1    2    0    0  0.26707781806E+02  0.20135406646E+02  0.30172390949E+02  0.45045681096E+02  0.00000000000E+00 0. -1.
         11    1    3    3    0    0 -0.41567165493E+01 -0.17660756699E-01 -0.65502569942E+01  0.77578651267E+01  0.51100000000E-03 0. -1.
        -11    1    3    3    0    0 -0.88770701553E+01 -0.76714246807E+01 -0.10037639847E+02  0.15440445108E+02  0.51100000000E-03 0.  1.
         12    1    3    3    0    0 -0.13673995101E+02 -0.12446321208E+02 -0.13584494108E+02  0.22944008669E+02  0.00000000000E+00 0. -1.
</event>
<event>
 7    1  0.8398055E-009  0.4614232E+02  0.7816164E-02  0.1320468E+00
        -11   -1    0    0    0    0  0.00000000000E+00  0.00000000000E+00  0.45593999997E+02  0.45594000000E+02  0.51100000000E-03 0.  1.
         11   -1    0    0    0    0 -0.00000000000E+00 -0.00000000000E+00 -0.45593999997E+02  0.45594000000E+02  0.51100000000E-03 0. -1.
    9900012    2    1    2    0    0  0.34584641186E+02  0.19231904521E+02  0.21520910530E+02  0.46142321544E+02  0.10000034499E+02 0.  0.
        -12    1    1    2    0    0 -0.34584641186E+02 -0.19231904521E+02 -0.21520910530E+02  0.45045678456E+02  0.00000000000E+00 0.  1.
         11    1    3    3    0    0  0.21630755245E+02  0.11301205976E+02  0.16170716550E+02  0.29276251519E+02  0.51100000000E-03 0. -1.
        -11    1    3    3    0    0  0.10014834068E+02  0.38325568509E+01  0.49400307360E+01  0.11806324465E+02  0.51100000000E-03 0.  1.
         12    1    3    3    0    0  0.29390518722E+01  0.40981416943E+01  0.41016324462E+00  0.50597455609E+01  0.00000000000E+00 0. -1.
</event>
<event>
 7    1  0.8398055E-009  0.4614232E+02  0.7816164E-02  0.1320468E+00
        -11   -1    0    0    0    0  0.00000000000E+00  0.00000000000E+00  0.45593999997E+02  0.45594000000E+02  0.51100000000E-03 0. -1.
         11   -1    0    0    0    0 -0.00000000000E+00 -0.00000000000E+00 -0.45593999997E+02  0.45594000000E+02  0.51100000000E-03 0.  1.
    9900012    2    1    2    0    0  0.54809928968E+01  0.74767985884E+01  0.44081398148E+02  0.46142318043E+02  0.10000002571E+02 0.  0.
        -12    1    1    2    0    0 -0.54809928968E+01 -0.74767985884E+01 -0.44081398148E+02  0.45045681957E+02  0.00000000000E+00 0.  1.
         11    1    3    3    0    0 -0.88041063734E+00  0.17259911997E+00  0.17224555669E+02  0.17247905136E+02  0.51100000000E-03 0. -1.
        -11    1    3    3    0    0  0.39404343559E+00 -0.17362372748E+00  0.52092931344E+01  0.52270594648E+01  0.51100000000E-03 0.  1.
         12    1    3    3    0    0  0.59673600986E+01  0.74778231959E+01  0.21647549345E+02  0.23667353442E+02  0.00000000000E+00 0. -1.
</event>
<event>
 7    1  0.8398055E-009  0.4614233E+02  0.7816164E-02  0.1320468E+00
        -11   -1    0    0    0    0  0.00000000000E+00  0.00000000000E+00  0.45593999997E+02  0.45594000000E+02  0.51100000000E-03 0. -1.
         11   -1    0    0    0    0 -0.00000000000E+00 -0.00000000000E+00 -0.45593999997E+02  0.45594000000E+02  0.51100000000E-03 0.  1.
    9900012    2    1    2    0    0  0.46279444552E+01 -0.60784630261E+01 -0.44393092473E+02  0.46142331596E+02  0.10000126161E+02 0.  0.
         12    1    1    2    0    0 -0.46279444552E+01  0.60784630261E+01  0.44393092473E+02  0.45045668404E+02  0.00000000000E+00 0. -1.
         11    1    3    3    0    0 -0.48251578337E+00  0.78440928000E+00 -0.12630174874E+02  0.12663705501E+02  0.51100000000E-03 0. -1.
        -11    1    3    3    0    0  0.42314953730E+01 -0.87921722258E+00 -0.16617870106E+02  0.17170678004E+02  0.51100000000E-03 0.  1.
        -12    1    3    3    0    0  0.87896486554E+00 -0.59836550835E+01 -0.15145047493E+02  0.16307948092E+02  0.00000000000E+00 0.  1.
</event>
<event>
 7    1  0.8398055E-009  0.4614232E+02  0.7816164E-02  0.1320468E+00
        -11   -1    0    0    0    0  0.00000000000E+00  0.00000000000E+00  0.45593999997E+02  0.45594000000E+02  0.51100000000E-03 0. -1.
         11   -1    0    0    0    0 -0.00000000000E+00 -0.00000000000E+00 -0.45593999997E+02  0.45594000000E+02  0.51100000000E-03 0.  1.
    9900012    2    1    2    0    0  0.22031722337E+02 -0.34157528424E+02  0.19415970744E+02  0.46142318108E+02  0.10000003161E+02 0.  0.
        -12    1    1    2    0    0 -0.22031722337E+02  0.34157528424E+02 -0.19415970744E+02  0.45045681892E+02  0.00000000000E+00 0.  1.
         11    1    3    3    0    0  0.94828865113E+01 -0.16234155049E+02  0.51956868541E+01  0.19505591221E+02  0.51100000000E-03 0. -1.
        -11    1    3    3    0    0  0.23039006403E+01 -0.76051410043E+00  0.77343579587E+00  0.25464765950E+01  0.51100000000E-03 0.  1.
        -12    1    3    3    0    0  0.10244935186E+02 -0.17162859275E+02  0.13446848094E+02  0.24090250292E+02  0.00000000000E+00 0.  1.
</event>
<event>
 7    1  0.8398055E-009  0.4614232E+02  0.7816164E-02  0.1320468E+00
        -11   -1    0    0    0    0  0.00000000000E+00  0.00000000000E+00  0.45593999997E+02  0.45594000000E+02  0.51100000000E-03 0.  1.
         11   -1    0    0    0    0 -0.00000000000E+00 -0.00000000000E+00 -0.45593999997E+02  0.45594000000E+02  0.51100000000E-03 0. -1.
    9900012    2    1    2    0    0 -0.24690802419E+02  0.34077335929E+02  0.16069004815E+02  0.46142318033E+02  0.10000002480E+02 0.  0.
        -12    1    1    2    0    0  0.24690802419E+02 -0.34077335929E+02 -0.16069004815E+02  0.45045681967E+02  0.00000000000E+00 0.  1.
         11    1    3    3    0    0 -0.11617698537E+02  0.18878324512E+02  0.73042843464E+01  0.23339122214E+02  0.51100000000E-03 0.  1.
        -11    1    3    3    0    0 -0.13702898592E+02  0.15088138895E+02  0.82746528188E+01  0.21997528149E+02  0.51100000000E-03 0. -1.
        -12    1    3    3    0    0  0.62979470967E+00  0.11087252226E+00  0.49006764954E+00  0.80566766948E+00  0.00000000000E+00 0.  1.
</event>
<event>
 7    1  0.8398055E-009  0.4614232E+02  0.7816164E-02  0.1320468E+00
        -11   -1    0    0    0    0  0.00000000000E+00  0.00000000000E+00  0.45593999997E+02  0.45594000000E+02  0.51100000000E-03 0. -1.
         11   -1    0    0    0    0 -0.00000000000E+00 -0.00000000000E+00 -0.45593999997E+02  0.45594000000E+02  0.51100000000E-03 0.  1.
    9900012    2    1    2    0    0  0.34194100242E+02 -0.99534325770E+01  0.27582714953E+02  0.46142317903E+02  0.10000001292E+02 0.  0.
        -12    1    1    2    0    0 -0.34194100242E+02  0.99534325770E+01 -0.27582714953E+02  0.45045682097E+02  0.00000000000E+00 0.  1.
         11    1    3    3    0    0  0.10787660737E+02 -0.39915446379E+01  0.86666089980E+01  0.14401950026E+02  0.51100000000E-03 0. -1.
        -11    1    3    3    0    0  0.83681933669E+01 -0.17987648587E+01  0.11832857961E+02  0.14604065976E+02  0.51100000000E-03 0.  1.
        -12    1    3    3    0    0  0.15038246138E+02 -0.41631230805E+01  0.70832479948E+01  0.17136301901E+02  0.00000000000E+00 0.  1.
</event>
<event>
 7    1  0.8398055E-009  0.4614232E+02  0.7816164E-02  0.1320468E+00
        -11   -1    0    0    0    0  0.00000000000E+00  0.00000000000E+00  0.45593999997E+02  0.45594000000E+02  0.51100000000E-03 0. -1.
         11   -1    0    0    0    0 -0.00000000000E+00 -0.00000000000E+00 -0.45593999997E+02  0.45594000000E+02  0.51100000000E-03 0.  1.
    9900012    2    1    2    0    0 -0.14117783553E+02 -0.41677169303E+02  0.96340617047E+01  0.46142318759E+02  0.10000009097E+02 0.  0.
        -12    1    1    2    0    0  0.14117783553E+02  0.41677169303E+02 -0.96340617047E+01  0.45045681241E+02  0.00000000000E+00 0.  1.
         11    1    3    3    0    0 -0.92036232639E+01 -0.24097456190E+02  0.61071402164E+01  0.26508323936E+02  0.51100000000E-03 0. -1.
        -11    1    3    3    0    0  0.18188626463E+00 -0.91069720755E+01 -0.80765478638E-01  0.91091463003E+01  0.51100000000E-03 0.  1.
        -12    1    3    3    0    0 -0.50960465537E+01 -0.84727410372E+01  0.36076869670E+01  0.10524848522E+02  0.00000000000E+00 0.  1.
</event>
<event>
 7    1  0.8455097E-009  0.4614232E+02  0.7816164E-02  0.1320468E+00
        -11   -1    0    0    0    0  0.00000000000E+00  0.00000000000E+00  0.45593999997E+02  0.45594000000E+02  0.51100000000E-03 0. -1.
         11   -1    0    0    0    0 -0.00000000000E+00 -0.00000000000E+00 -0.45593999997E+02  0.45594000000E+02  0.51100000000E-03 0.  1.
    9900012    2    1    2    0    0  0.24830760956E+02  0.13903784365E+02 -0.34917498243E+02  0.46142316601E+02  0.99999894211E+01 0.  0.
         12    1    1    2    0    0 -0.24830760956E+02 -0.13903784365E+02  0.34917498243E+02  0.45045683399E+02  0.00000000000E+00 0. -1.
         11    1    3    3    0    0  0.21520799171E+01  0.41361824326E+00 -0.76373606871E+01  0.79455526269E+01  0.51100000000E-03 0. -1.
        -11    1    3    3    0    0  0.13810607116E+02  0.69008402738E+01 -0.18422371217E+02  0.24036185782E+02  0.51100000000E-03 0.  1.
         12    1    3    3    0    0  0.88680739230E+01  0.65893258481E+01 -0.88577663386E+01  0.14160578192E+02  0.00000000000E+00 0. -1.
</event>
<event>
 7    1  0.8398055E-009  0.4614232E+02  0.7816164E-02  0.1320468E+00
        -11   -1    0    0    0    0  0.00000000000E+00  0.00000000000E+00  0.45593999997E+02  0.45594000000E+02  0.51100000000E-03 0. -1.
         11   -1    0    0    0    0 -0.00000000000E+00 -0.00000000000E+00 -0.45593999997E+02  0.45594000000E+02  0.51100000000E-03 0.  1.
    9900012    2    1    2    0    0 -0.30063350899E+02 -0.99836964220E+01  0.32025525079E+02  0.46142317431E+02  0.99999969866E+01 0.  0.
        -12    1    1    2    0    0  0.30063350899E+02  0.99836964220E+01 -0.32025525079E+02  0.45045682569E+02  0.00000000000E+00 0.  1.
         11    1    3    3    0    0 -0.37141087892E+01  0.46911728506E+00  0.18103582946E+01  0.41583737856E+01  0.51100000000E-03 0. -1.
        -11    1    3    3    0    0 -0.21974146722E+01 -0.27469803870E+01  0.19759455520E+01  0.40347110892E+01  0.51100000000E-03 0.  1.
         12    1    3    3    0    0 -0.24151827438E+02 -0.77058333201E+01  0.28239221233E+02  0.37949232556E+02  0.00000000000E+00 0. -1.
</event>
<event>
 7    1  0.8398055E-009  0.4614232E+02  0.7816164E-02  0.1320468E+00
        -11   -1    0    0    0    0  0.00000000000E+00  0.00000000000E+00  0.45593999997E+02  0.45594000000E+02  0.51100000000E-03 0. -1.
         11   -1    0    0    0    0 -0.00000000000E+00 -0.00000000000E+00 -0.45593999997E+02  0.45594000000E+02  0.51100000000E-03 0.  1.
    9900012    2    1    2    0    0  0.14733086008E+02 -0.97900327648E+00  0.42556917540E+02  0.46142317618E+02  0.99999986945E+01 0.  0.
        -12    1    1    2    0    0 -0.14733086008E+02  0.97900327648E+00 -0.42556917540E+02  0.45045682382E+02  0.00000000000E+00 0.  1.
         11    1    3    3    0    0  0.10741013858E+02  0.60446812853E+00  0.23458127126E+02  0.25807334015E+02  0.51100000000E-03 0. -1.
        -11    1    3    3    0    0  0.68152934060E+00  0.41393530845E+00 -0.50760840728E-01  0.79900037907E+00  0.51100000000E-03 0.  1.
        -12    1    3    3    0    0  0.33105428091E+01 -0.19974067135E+01  0.19149551255E+02  0.19535983224E+02  0.00000000000E+00 0.  1.
</event>
<event>
 7    1  0.8398055E-009  0.4614232E+02  0.7816164E-02  0.1320468E+00
        -11   -1    0    0    0    0  0.00000000000E+00  0.00000000000E+00  0.45593999997E+02  0.45594000000E+02  0.51100000000E-03 0. -1.
         11   -1    0    0    0    0 -0.00000000000E+00 -0.00000000000E+00 -0.45593999997E+02  0.45594000000E+02  0.51100000000E-03 0.  1.
    9900012    2    1    2    0    0 -0.52638524244E+01  0.20625446687E+02 -0.39698820753E+02  0.46142316937E+02  0.99999924857E+01 0.  0.
         12    1    1    2    0    0  0.52638524244E+01 -0.20625446687E+02  0.39698820753E+02  0.45045683063E+02  0.00000000000E+00 0. -1.
         11    1    3    3    0    0 -0.24907511284E+01  0.34232743266E+01 -0.70220917758E+01  0.81995378813E+01  0.51100000000E-03 0. -1.
        -11    1    3    3    0    0  0.92007805238E+00  0.10254207389E+02 -0.11953364029E+02  0.15775874767E+02  0.51100000000E-03 0.  1.
        -12    1    3    3    0    0 -0.36931793484E+01  0.69479649720E+01 -0.20723364949E+02  0.22166904289E+02  0.00000000000E+00 0.  1.
</event>
<event>
 7    1  0.8398055E-009  0.4614232E+02  0.7816164E-02  0.1320468E+00
        -11   -1    0    0    0    0  0.00000000000E+00  0.00000000000E+00  0.45593999997E+02  0.45594000000E+02  0.51100000000E-03 0. -1.
         11   -1    0    0    0    0 -0.00000000000E+00 -0.00000000000E+00 -0.45593999997E+02  0.45594000000E+02  0.51100000000E-03 0.  1.
    9900012    2    1    2    0    0  0.17061747278E+02  0.26310890228E+02  0.32338015775E+02  0.46142318420E+02  0.10000006009E+02 0.  0.
        -12    1    1    2    0    0 -0.17061747278E+02 -0.26310890228E+02 -0.32338015775E+02  0.45045681580E+02  0.00000000000E+00 0.  1.
         11    1    3    3    0    0  0.11346501956E+01 -0.51297605167E-01  0.61583976058E-01  0.11374776296E+01  0.51100000000E-03 0. -1.
        -11    1    3    3    0    0  0.67141617862E+01  0.63302819185E+01  0.80330479752E+01  0.12234471696E+02  0.51100000000E-03 0.  1.
         12    1    3    3    0    0  0.92129352959E+01  0.20031905915E+02  0.24243383823E+02  0.32770369094E+02  0.00000000000E+00 0. -1.
</event>
<event>
 7    1  0.8398055E-009  0.4614232E+02  0.7816164E-02  0.1320468E+00
        -11   -1    0    0    0    0  0.00000000000E+00  0.00000000000E+00  0.45593999997E+02  0.45594000000E+02  0.51100000000E-03 0. -1.
         11   -1    0    0    0    0 -0.00000000000E+00 -0.00000000000E+00 -0.45593999997E+02  0.45594000000E+02  0.51100000000E-03 0.  1.
    9900012    2    1    2    0    0 -0.36987993733E+02 -0.23787349794E+02  0.97551947293E+01  0.46142317467E+02  0.99999973201E+01 0.  0.
        -12    1    1    2    0    0  0.36987993733E+02  0.23787349794E+02 -0.97551947293E+01  0.45045682533E+02  0.00000000000E+00 0.  1.
         11    1    3    3    0    0 -0.90557760722E+01 -0.51884270023E+01  0.55718147137E+00  0.10451665249E+02  0.51100000000E-03 0. -1.
        -11    1    3    3    0    0 -0.13024092340E+02 -0.10763757078E+02  0.83004903807E+01  0.18825078712E+02  0.51100000000E-03 0.  1.
        -12    1    3    3    0    0 -0.14908125321E+02 -0.78351657143E+01  0.89752287727E+00  0.16865573506E+02  0.00000000000E+00 0.  1.
</event>
<event>
 7    1  0.8398055E-009  0.4614232E+02  0.7816164E-02  0.1320468E+00
        -11   -1    0    0    0    0  0.00000000000E+00  0.00000000000E+00  0.45593999997E+02  0.45594000000E+02  0.51100000000E-03 0. -1.
         11   -1    0    0    0    0 -0.00000000000E+00 -0.00000000000E+00 -0.45593999997E+02  0.45594000000E+02  0.51100000000E-03 0.  1.
    9900012    2    1    2    0    0 -0.14514916964E+02  0.21556763062E+02  0.36793158668E+02  0.46142319043E+02  0.10000011686E+02 0.  0.
        -12    1    1    2    0    0  0.14514916964E+02 -0.21556763062E+02 -0.36793158668E+02  0.45045680957E+02  0.00000000000E+00 0.  1.
         11    1    3    3    0    0 -0.11677003880E+02  0.11605911652E+02  0.25850303646E+02  0.30647802593E+02  0.51100000000E-03 0. -1.
        -11    1    3    3    0    0  0.64472066240E+00  0.11784746591E+01  0.53921864085E+00  0.14474889493E+01  0.51100000000E-03 0.  1.
         12    1    3    3    0    0 -0.34826337464E+01  0.87723767511E+01  0.10403636380E+02  0.14047027501E+02  0.00000000000E+00 0. -1.
</event>
<event>
 7    1  0.8398055E-009  0.4614232E+02  0.7816164E-02  0.1320468E+00
        -11   -1    0    0    0    0  0.00000000000E+00  0.00000000000E+00  0.45593999997E+02  0.45594000000E+02  0.51100000000E-03 0. -1.
         11   -1    0    0    0    0 -0.00000000000E+00 -0.00000000000E+00 -0.45593999997E+02  0.45594000000E+02  0.51100000000E-03 0.  1.
    9900012    2    1    2    0    0  0.85335493104E+01  0.42177131964E+02 -0.13318466956E+02  0.46142317781E+02  0.10000000180E+02 0.  0.
         12    1    1    2    0    0 -0.85335493104E+01 -0.42177131964E+02  0.13318466956E+02  0.45045682219E+02  0.00000000000E+00 0. -1.
         11    1    3    3    0    0  0.66561065142E+01  0.13987997724E+02 -0.62906988707E+01  0.16719471487E+02  0.51100000000E-03 0. -1.
        -11    1    3    3    0    0 -0.46072976329E+00  0.14555426055E+02 -0.52317970183E+01  0.15473991077E+02  0.51100000000E-03 0.  1.
         12    1    3    3    0    0  0.23381725595E+01  0.13633708184E+02 -0.17959710669E+01  0.13948855216E+02  0.00000000000E+00 0. -1.
</event>
<event>
 7    1  0.8398055E-009  0.4614232E+02  0.7816164E-02  0.1320468E+00
        -11   -1    0    0    0    0  0.00000000000E+00  0.00000000000E+00  0.45593999997E+02  0.45594000000E+02  0.51100000000E-03 0. -1.
         11   -1    0    0    0    0 -0.00000000000E+00 -0.00000000000E+00 -0.45593999997E+02  0.45594000000E+02  0.51100000000E-03 0.  1.
    9900012    2    1    2    0    0 -0.20587523759E+01  0.30887134815E+02 -0.32723996254E+02  0.46142317751E+02  0.99999999102E+01 0.  0.
         12    1    1    2    0    0  0.20587523759E+01 -0.30887134815E+02  0.32723996254E+02  0.45045682249E+02  0.00000000000E+00 0. -1.
         11    1    3    3    0    0  0.87538589844E+00  0.34568649724E+01 -0.30051139317E+01  0.46633599381E+01  0.51100000000E-03 0. -1.
        -11    1    3    3    0    0 -0.57113219182E+01  0.22952570654E+02 -0.23788098622E+02  0.33545690244E+02  0.51100000000E-03 0.  1.
        -12    1    3    3    0    0  0.27771836438E+01  0.44776991890E+01 -0.59307837002E+01  0.79332675688E+01  0.00000000000E+00 0.  1.
</event>
<event>
 7    1  0.8398055E-009  0.4614232E+02  0.7816164E-02  0.1320468E+00
        -11   -1    0    0    0    0  0.00000000000E+00  0.00000000000E+00  0.45593999997E+02  0.45594000000E+02  0.51100000000E-03 0. -1.
         11   -1    0    0    0    0 -0.00000000000E+00 -0.00000000000E+00 -0.45593999997E+02  0.45594000000E+02  0.51100000000E-03 0.  1.
    9900012    2    1    2    0    0  0.42945293931E+02 -0.53641348181E+01 -0.12491648908E+02  0.46142317570E+02  0.99999982550E+01 0.  0.
         12    1    1    2    0    0 -0.42945293931E+02  0.53641348181E+01  0.12491648908E+02  0.45045682430E+02  0.00000000000E+00 0. -1.
         11    1    3    3    0    0  0.17827328087E+02  0.97401156849E+00 -0.62660092495E+01  0.18921553780E+02  0.51100000000E-03 0. -1.
        -11    1    3    3    0    0  0.56583405523E+01  0.81867342509E+00 -0.67699960199E+00  0.57572018121E+01  0.51100000000E-03 0.  1.
        -12    1    3    3    0    0  0.19459625291E+02 -0.71568198117E+01 -0.55486400569E+01  0.21463561978E+02  0.00000000000E+00 0.  1.
</event>
<event>
 7    1  0.8398055E-009  0.4614232E+02  0.7816164E-02  0.1320468E+00
        -11   -1    0    0    0    0  0.00000000000E+00  0.00000000000E+00  0.45593999997E+02  0.45594000000E+02  0.51100000000E-03 0. -1.
         11   -1    0    0    0    0 -0.00000000000E+00 -0.00000000000E+00 -0.45593999997E+02  0.45594000000E+02  0.51100000000E-03 0.  1.
    9900012    2    1    2    0    0 -0.33273846429E+02  0.17687619926E+02  0.24680210246E+02  0.46142317270E+02  0.99999955198E+01 0.  0.
        -12    1    1    2    0    0  0.33273846429E+02 -0.17687619926E+02 -0.24680210246E+02  0.45045682730E+02  0.00000000000E+00 0.  1.
         11    1    3    3    0    0 -0.76531954444E+01  0.45384364230E+01  0.31938000182E+01  0.94535265639E+01  0.51100000000E-03 0. -1.
        -11    1    3    3    0    0 -0.29609974052E+01  0.40082715999E+01  0.58280094980E+01  0.76680794090E+01  0.51100000000E-03 0.  1.
         12    1    3    3    0    0 -0.22659653580E+02  0.91409119033E+01  0.15658400730E+02  0.29020711297E+02  0.00000000000E+00 0. -1.
</event>
<event>
 7    1  0.8398055E-009  0.4614232E+02  0.7816164E-02  0.1320468E+00
        -11   -1    0    0    0    0  0.00000000000E+00  0.00000000000E+00  0.45593999997E+02  0.45594000000E+02  0.51100000000E-03 0. -1.
         11   -1    0    0    0    0 -0.00000000000E+00 -0.00000000000E+00 -0.45593999997E+02  0.45594000000E+02  0.51100000000E-03 0.  1.
    9900012    2    1    2    0    0 -0.22029460840E+02  0.23225596360E+02  0.31692081206E+02  0.46142317828E+02  0.10000000606E+02 0.  0.
        -12    1    1    2    0    0  0.22029460840E+02 -0.23225596360E+02 -0.31692081206E+02  0.45045682172E+02  0.00000000000E+00 0.  1.
         11    1    3    3    0    0 -0.12819262056E+02  0.10002361117E+02  0.15563009847E+02  0.22507509487E+02  0.51100000000E-03 0. -1.
        -11    1    3    3    0    0 -0.50717867925E+01  0.11595674614E+02  0.10392184510E+02  0.16376208052E+02  0.51100000000E-03 0.  1.
         12    1    3    3    0    0 -0.41384119918E+01  0.16275606295E+01  0.57368868497E+01  0.72586002881E+01  0.00000000000E+00 0. -1.
</event>
<event>
 7    1  0.8398055E-009  0.4614232E+02  0.7816164E-02  0.1320468E+00
        -11   -1    0    0    0    0  0.00000000000E+00  0.00000000000E+00  0.45593999997E+02  0.45594000000E+02  0.51100000000E-03 0. -1.
         11   -1    0    0    0    0 -0.00000000000E+00 -0.00000000000E+00 -0.45593999997E+02  0.45594000000E+02  0.51100000000E-03 0.  1.
    9900012    2    1    2    0    0  0.17511469390E+02  0.86245619907E+01 -0.40596537710E+02  0.46142317590E+02  0.99999984422E+01 0.  0.
         12    1    1    2    0    0 -0.17511469390E+02 -0.86245619907E+01  0.40596537710E+02  0.45045682410E+02  0.00000000000E+00 0. -1.
         11    1    3    3    0    0 -0.52908778494E+00  0.13192445962E+01 -0.24196763666E+01  0.28062740723E+01  0.51100000000E-03 0. -1.
        -11    1    3    3    0    0  0.15929547613E+02  0.55839994020E+01 -0.27083100393E+02  0.31912785269E+02  0.51100000000E-03 0.  1.
        -12    1    3    3    0    0  0.21110095624E+01  0.17213179926E+01 -0.11093760950E+02  0.11423258249E+02  0.00000000000E+00 0.  1.
</event>
<event>
 7    1  0.8398055E-009  0.4614232E+02  0.7816164E-02  0.1320468E+00
        -11   -1    0    0    0    0  0.00000000000E+00  0.00000000000E+00  0.45593999997E+02  0.45594000000E+02  0.51100000000E-03 0. -1.
         11   -1    0    0    0    0 -0.00000000000E+00 -0.00000000000E+00 -0.45593999997E+02  0.45594000000E+02  0.51100000000E-03 0.  1.
    9900012    2    1    2    0    0  0.22810297450E+01 -0.34717031795E+02  0.28611851525E+02  0.46142318287E+02  0.10000004793E+02 0.  0.
        -12    1    1    2    0    0 -0.22810297450E+01  0.34717031795E+02 -0.28611851525E+02  0.45045681713E+02  0.00000000000E+00 0.  1.
         11    1    3    3    0    0  0.41240701396E+00 -0.17108417984E+02  0.12671594066E+02  0.21294068233E+02  0.51100000000E-03 0. -1.
        -11    1    3    3    0    0  0.41437965975E+01 -0.15155786459E+02  0.13332355868E+02  0.20606324919E+02  0.51100000000E-03 0.  1.
        -12    1    3    3    0    0 -0.22751738664E+01 -0.24528273518E+01  0.26079015913E+01  0.42419251349E+01  0.00000000000E+00 0.  1.
</event>
<event>
 7    1  0.8398055E-009  0.4614232E+02  0.7816164E-02  0.1320468E+00
        -11   -1    0    0    0    0  0.00000000000E+00  0.00000000000E+00  0.45593999997E+02  0.45594000000E+02  0.51100000000E-03 0. -1.
         11   -1    0    0    0    0 -0.00000000000E+00 -0.00000000000E+00 -0.45593999997E+02  0.45594000000E+02  0.51100000000E-03 0.  1.
    9900012    2    1    2    0    0  0.13878538083E+01 -0.16767981771E+01 -0.44993056092E+02  0.46142324438E+02  0.10000060884E+02 0.  0.
         12    1    1    2    0    0 -0.13878538083E+01  0.16767981771E+01  0.44993056092E+02  0.45045675562E+02  0.00000000000E+00 0. -1.
         11    1    3    3    0    0 -0.36589845683E+01  0.39291208389E+00 -0.16778169664E+02  0.17177005720E+02  0.51100000000E-03 0. -1.
        -11    1    3    3    0    0  0.39647191380E+00 -0.18503324838E+01 -0.85354453920E+01  0.87426968711E+01  0.51100000000E-03 0.  1.
         12    1    3    3    0    0  0.46503664628E+01 -0.21937777713E+00 -0.19679441036E+02  0.20222621846E+02  0.00000000000E+00 0. -1.
</event>
<event>
 7    1  0.8398055E-009  0.4614231E+02  0.7816164E-02  0.1320468E+00
        -11   -1    0    0    0    0  0.00000000000E+00  0.00000000000E+00  0.45593999997E+02  0.45594000000E+02  0.51100000000E-03 0. -1.
         11   -1    0    0    0    0 -0.00000000000E+00 -0.00000000000E+00 -0.45593999997E+02  0.45594000000E+02  0.51100000000E-03 0.  1.
    9900012    2    1    2    0    0 -0.39396549717E+02  0.19160961492E+02  0.10482517839E+02  0.46142314799E+02  0.99999729933E+01 0.  0.
         12    1    1    2    0    0  0.39396549717E+02 -0.19160961492E+02 -0.10482517839E+02  0.45045685201E+02  0.00000000000E+00 0. -1.
         11    1    3    3    0    0 -0.36533134914E+01  0.21055240043E+01 -0.11690853038E+01  0.43756932602E+01  0.51100000000E-03 0. -1.
        -11    1    3    3    0    0 -0.25628465360E+01 -0.13417741417E+00  0.17568319884E+01  0.31100875940E+01  0.51100000000E-03 0.  1.
        -12    1    3    3    0    0 -0.33180389690E+02  0.17189614902E+02  0.98947711549E+01  0.38656533945E+02  0.00000000000E+00 0.  1.
</event>
<event>
 7    1  0.8398055E-009  0.4614232E+02  0.7816164E-02  0.1320468E+00
        -11   -1    0    0    0    0  0.00000000000E+00  0.00000000000E+00  0.45593999997E+02  0.45594000000E+02  0.51100000000E-03 0. -1.
         11   -1    0    0    0    0 -0.00000000000E+00 -0.00000000000E+00 -0.45593999997E+02  0.45594000000E+02  0.51100000000E-03 0.  1.
    9900012    2    1    2    0    0  0.95170119733E+01 -0.24631959312E+02  0.36493925488E+02  0.46142317255E+02  0.99999953868E+01 0.  0.
        -12    1    1    2    0    0 -0.95170119733E+01  0.24631959312E+02 -0.36493925488E+02  0.45045682745E+02  0.00000000000E+00 0.  1.
         11    1    3    3    0    0  0.37129013091E+01 -0.12920393448E+02  0.22656546585E+02  0.26344663718E+02  0.51100000000E-03 0. -1.
        -11    1    3    3    0    0  0.44624559319E+01 -0.83353200437E+01  0.12991076815E+02  0.16067331771E+02  0.51100000000E-03 0.  1.
        -12    1    3    3    0    0  0.13416547323E+01 -0.33762458194E+01  0.84630208804E+00  0.37303217660E+01  0.00000000000E+00 0.  1.
</event>
<event>
 7    1  0.8398055E-009  0.4614232E+02  0.7816164E-02  0.1320468E+00
        -11   -1    0    0    0    0  0.00000000000E+00  0.00000000000E+00  0.45593999997E+02  0.45594000000E+02  0.51100000000E-03 0. -1.
         11   -1    0    0    0    0 -0.00000000000E+00 -0.00000000000E+00 -0.45593999997E+02  0.45594000000E+02  0.51100000000E-03 0.  1.
    9900012    2    1    2    0    0  0.79571021835E+00  0.44352453726E+02  0.78319918515E+01  0.46142318713E+02  0.10000008681E+02 0.  0.
        -12    1    1    2    0    0 -0.79571021835E+00 -0.44352453726E+02 -0.78319918515E+01  0.45045681287E+02  0.00000000000E+00 0.  1.
         11    1    3    3    0    0 -0.22440731194E+01  0.91575866298E+01 -0.71111069786E+00  0.94553125666E+01  0.51100000000E-03 0. -1.
        -11    1    3    3    0    0  0.19511929230E+01  0.61560868435E+01  0.29262851674E+01  0.70899720867E+01  0.51100000000E-03 0.  1.
        -12    1    3    3    0    0  0.10885904147E+01  0.29038780252E+02  0.56168173819E+01  0.29597034060E+02  0.00000000000E+00 0.  1.
</event>
<event>
 7    1  0.8398055E-009  0.4614232E+02  0.7816164E-02  0.1320468E+00
        -11   -1    0    0    0    0  0.00000000000E+00  0.00000000000E+00  0.45593999997E+02  0.45594000000E+02  0.51100000000E-03 0.  1.
         11   -1    0    0    0    0 -0.00000000000E+00 -0.00000000000E+00 -0.45593999997E+02  0.45594000000E+02  0.51100000000E-03 0. -1.
    9900012    2    1    2    0    0  0.43101780729E+02  0.12988973505E+02 -0.16237599855E+01  0.46142317285E+02  0.99999956617E+01 0.  0.
        -12    1    1    2    0    0 -0.43101780729E+02 -0.12988973505E+02  0.16237599855E+01  0.45045682715E+02  0.00000000000E+00 0.  1.
         11    1    3    3    0    0  0.24407149159E+02  0.50196930316E+01 -0.20509092452E+00  0.24918834458E+02  0.51100000000E-03 0. -1.
        -11    1    3    3    0    0  0.33098147880E+01  0.47240695109E+00  0.18183583268E+01  0.38058467551E+01  0.51100000000E-03 0.  1.
        -12    1    3    3    0    0  0.15384816782E+02  0.74968735222E+01 -0.32370273877E+01  0.17417636072E+02  0.00000000000E+00 0.  1.
</event>
<event>
 7    1  0.8398055E-009  0.4614232E+02  0.7816164E-02  0.1320468E+00
        -11   -1    0    0    0    0  0.00000000000E+00  0.00000000000E+00  0.45593999997E+02  0.45594000000E+02  0.51100000000E-03 0.  1.
         11   -1    0    0    0    0 -0.00000000000E+00 -0.00000000000E+00 -0.45593999997E+02  0.45594000000E+02  0.51100000000E-03 0. -1.
    9900012    2    1    2    0    0 -0.26487142845E+02 -0.35485131961E+02 -0.82674167366E+01  0.46142317567E+02  0.99999982279E+01 0.  0.
        -12    1    1    2    0    0  0.26487142845E+02  0.35485131961E+02  0.82674167366E+01  0.45045682433E+02  0.00000000000E+00 0.  1.
         11    1    3    3    0    0 -0.68211502152E+01 -0.13479497331E+02  0.68837673416E+00  0.15122790792E+02  0.51100000000E-03 0. -1.
        -11    1    3    3    0    0 -0.17266785175E+02 -0.18943146052E+02 -0.65864099444E+01  0.26464418544E+02  0.51100000000E-03 0.  1.
        -12    1    3    3    0    0 -0.23992074544E+01 -0.30624885777E+01 -0.23693835263E+01  0.45551082306E+01  0.00000000000E+00 0.  1.
</event>
<event>
 7    1  0.8398055E-009  0.4614232E+02  0.7816164E-02  0.1320468E+00
        -11   -1    0    0    0    0  0.00000000000E+00  0.00000000000E+00  0.45593999997E+02  0.45594000000E+02  0.51100000000E-03 0.  1.
         11   -1    0    0    0    0 -0.00000000000E+00 -0.00000000000E+00 -0.45593999997E+02  0.45594000000E+02  0.51100000000E-03 0. -1.
    9900012    2    1    2    0    0  0.34795908707E+02 -0.28498930010E+02  0.24837813142E+01  0.46142318253E+02  0.10000004484E+02 0.  0.
        -12    1    1    2    0    0 -0.34795908707E+02  0.28498930010E+02 -0.24837813142E+01  0.45045681747E+02  0.00000000000E+00 0.  1.
         11    1    3    3    0    0  0.49308754880E+01 -0.19721213128E+01  0.23189916561E+01  0.57948699824E+01  0.51100000000E-03 0. -1.
        -11    1    3    3    0    0  0.85097298354E+01 -0.50203818498E+01  0.15829868715E+01  0.10006277204E+02  0.51100000000E-03 0.  1.
         12    1    3    3    0    0  0.21355303383E+02 -0.21506426847E+02 -0.14181972134E+01  0.30341171066E+02  0.00000000000E+00 0. -1.
</event>
<event>
 7    1  0.8398055E-009  0.4614232E+02  0.7816164E-02  0.1320468E+00
        -11   -1    0    0    0    0  0.00000000000E+00  0.00000000000E+00  0.45593999997E+02  0.45594000000E+02  0.51100000000E-03 0. -1.
         11   -1    0    0    0    0 -0.00000000000E+00 -0.00000000000E+00 -0.45593999997E+02  0.45594000000E+02  0.51100000000E-03 0.  1.
    9900012    2    1    2    0    0 -0.25484379704E+01  0.30293468431E+02  0.33240406997E+02  0.46142318487E+02  0.10000006623E+02 0.  0.
        -12    1    1    2    0    0  0.25484379704E+01 -0.30293468431E+02 -0.33240406997E+02  0.45045681513E+02  0.00000000000E+00 0.  1.
         11    1    3    3    0    0 -0.29845283057E+01  0.88715402639E+01  0.64177096256E+01  0.11348948540E+02  0.51100000000E-03 0. -1.
        -11    1    3    3    0    0 -0.22473961364E+01  0.75530487263E+01  0.11627661772E+02  0.14046417800E+02  0.51100000000E-03 0.  1.
         12    1    3    3    0    0  0.26834864717E+01  0.13868879440E+02  0.15195035599E+02  0.20746952148E+02  0.00000000000E+00 0. -1.
</event>
<event>
 7    1  0.8398055E-009  0.4614232E+02  0.7816164E-02  0.1320468E+00
        -11   -1    0    0    0    0  0.00000000000E+00  0.00000000000E+00  0.45593999997E+02  0.45594000000E+02  0.51100000000E-03 0. -1.
         11   -1    0    0    0    0 -0.00000000000E+00 -0.00000000000E+00 -0.45593999997E+02  0.45594000000E+02  0.51100000000E-03 0.  1.
    9900012    2    1    2    0    0  0.10778352632E+02 -0.48032728158E+01  0.43472625622E+02  0.46142317702E+02  0.99999994617E+01 0.  0.
        -12    1    1    2    0    0 -0.10778352632E+02  0.48032728158E+01 -0.43472625622E+02  0.45045682298E+02  0.00000000000E+00 0.  1.
         11    1    3    3    0    0  0.96446618369E+01 -0.48615395043E+01  0.28205496428E+02  0.30202716720E+02  0.51100000000E-03 0. -1.
        -11    1    3    3    0    0  0.69285377327E+00  0.15761311939E+01  0.22820007760E+01  0.28586296882E+01  0.51100000000E-03 0.  1.
         12    1    3    3    0    0  0.44083702188E+00 -0.15178645054E+01  0.12985128418E+02  0.13080971293E+02  0.00000000000E+00 0. -1.
</event>
<event>
 7    1  0.8398055E-009  0.4614232E+02  0.7816164E-02  0.1320468E+00
        -11   -1    0    0    0    0  0.00000000000E+00  0.00000000000E+00  0.45593999997E+02  0.45594000000E+02  0.51100000000E-03 0.  1.
         11   -1    0    0    0    0 -0.00000000000E+00 -0.00000000000E+00 -0.45593999997E+02  0.45594000000E+02  0.51100000000E-03 0. -1.
    9900012    2    1    2    0    0 -0.47069744147E+01  0.44154320313E+02  0.75732323273E+01  0.46142318095E+02  0.10000003044E+02 0.  0.
        -12    1    1    2    0    0  0.47069744147E+01 -0.44154320313E+02 -0.75732323273E+01  0.45045681905E+02  0.00000000000E+00 0.  1.
         11    1    3    3    0    0  0.25324638610E+01  0.10714480810E+02  0.10457839646E+01  0.11059255698E+02  0.51100000000E-03 0.  1.
        -11    1    3    3    0    0 -0.17824947213E+01  0.86660657763E+01  0.35815755311E+01  0.95449288639E+01  0.51100000000E-03 0. -1.
        -12    1    3    3    0    0 -0.54569435544E+01  0.24773773726E+02  0.29458728316E+01  0.25538133533E+02  0.00000000000E+00 0.  1.
</event>
<event>
 7    1  0.8398055E-009  0.4614232E+02  0.7816164E-02  0.1320468E+00
        -11   -1    0    0    0    0  0.00000000000E+00  0.00000000000E+00  0.45593999997E+02  0.45594000000E+02  0.51100000000E-03 0. -1.
         11   -1    0    0    0    0 -0.00000000000E+00 -0.00000000000E+00 -0.45593999997E+02  0.45594000000E+02  0.51100000000E-03 0.  1.
    9900012    2    1    2    0    0  0.11112289639E+02 -0.11509709288E+02  0.42108871746E+02  0.46142317980E+02  0.10000001999E+02 0.  0.
        -12    1    1    2    0    0 -0.11112289639E+02  0.11509709288E+02 -0.42108871746E+02  0.45045682020E+02  0.00000000000E+00 0.  1.
         11    1    3    3    0    0  0.32739417353E+01 -0.42207039931E+01  0.13296708270E+02  0.14329532015E+02  0.51100000000E-03 0. -1.
        -11    1    3    3    0    0  0.60861431468E+01 -0.96000259434E+00  0.87387233610E+01  0.10692428612E+02  0.51100000000E-03 0.  1.
        -12    1    3    3    0    0  0.17522047566E+01 -0.63290027002E+01  0.20073440115E+02  0.21120357353E+02  0.00000000000E+00 0.  1.
</event>
<event>
 7    1  0.8398055E-009  0.4614232E+02  0.7816164E-02  0.1320468E+00
        -11   -1    0    0    0    0  0.00000000000E+00  0.00000000000E+00  0.45593999997E+02  0.45594000000E+02  0.51100000000E-03 0. -1.
         11   -1    0    0    0    0 -0.00000000000E+00 -0.00000000000E+00 -0.45593999997E+02  0.45594000000E+02  0.51100000000E-03 0.  1.
    9900012    2    1    2    0    0  0.29864951131E+02  0.32157658286E+02 -0.10152985037E+02  0.46142318768E+02  0.10000009183E+02 0.  0.
         12    1    1    2    0    0 -0.29864951131E+02 -0.32157658286E+02  0.10152985037E+02  0.45045681232E+02  0.00000000000E+00 0. -1.
         11    1    3    3    0    0  0.21423913293E+01  0.47316161616E+00 -0.10244682277E+00  0.21964102839E+01  0.51100000000E-03 0. -1.
        -11    1    3    3    0    0  0.28151854795E+02  0.30901223457E+02 -0.10228214452E+02  0.43035205479E+02  0.51100000000E-03 0.  1.
         12    1    3    3    0    0 -0.42929499346E+00  0.78327321340E+00  0.17767623736E+00  0.91070300513E+00  0.00000000000E+00 0. -1.
</event>
<event>
 7    1  0.8398055E-009  0.4614232E+02  0.7816164E-02  0.1320468E+00
        -11   -1    0    0    0    0  0.00000000000E+00  0.00000000000E+00  0.45593999997E+02  0.45594000000E+02  0.51100000000E-03 0. -1.
         11   -1    0    0    0    0 -0.00000000000E+00 -0.00000000000E+00 -0.45593999997E+02  0.45594000000E+02  0.51100000000E-03 0.  1.
    9900012    2    1    2    0    0  0.68790358313E+00 -0.14441816116E+02  0.42662327186E+02  0.46142318465E+02  0.10000006415E+02 0.  0.
        -12    1    1    2    0    0 -0.68790358313E+00  0.14441816116E+02 -0.42662327186E+02  0.45045681535E+02  0.00000000000E+00 0.  1.
         11    1    3    3    0    0  0.19468822155E+01 -0.12975781028E+01  0.73879196393E+01  0.77495429641E+01  0.51100000000E-03 0.  1.
        -11    1    3    3    0    0  0.53050785976E+00  0.13292586793E+00  0.78691133316E+01  0.78880956360E+01  0.51100000000E-03 0. -1.
         12    1    3    3    0    0 -0.17894864921E+01 -0.13277163881E+02  0.27405294215E+02  0.30504679865E+02  0.00000000000E+00 0. -1.
</event>
<event>
 7    1  0.8398055E-009  0.4614232E+02  0.7816164E-02  0.1320468E+00
        -11   -1    0    0    0    0  0.00000000000E+00  0.00000000000E+00  0.45593999997E+02  0.45594000000E+02  0.51100000000E-03 0.  1.
         11   -1    0    0    0    0 -0.00000000000E+00 -0.00000000000E+00 -0.45593999997E+02  0.45594000000E+02  0.51100000000E-03 0. -1.
    9900012    2    1    2    0    0 -0.50527906498E+01  0.40685236808E+02  0.18662639490E+02  0.46142319849E+02  0.10000019040E+02 0.  0.
        -12    1    1    2    0    0  0.50527906498E+01 -0.40685236808E+02 -0.18662639490E+02  0.45045680151E+02  0.00000000000E+00 0.  1.
         11    1    3    3    0    0 -0.28733414347E+01  0.11007215294E+02  0.18496034234E+01  0.11525446309E+02  0.51100000000E-03 0. -1.
        -11    1    3    3    0    0 -0.16841441476E+01  0.27040645829E+02  0.13258781796E+02  0.30163357959E+02  0.51100000000E-03 0.  1.
        -12    1    3    3    0    0 -0.49530506747E+00  0.26373756853E+01  0.35542542707E+01  0.44535155816E+01  0.00000000000E+00 0.  1.
</event>
<event>
 7    1  0.8398055E-009  0.4614232E+02  0.7816164E-02  0.1320468E+00
        -11   -1    0    0    0    0  0.00000000000E+00  0.00000000000E+00  0.45593999997E+02  0.45594000000E+02  0.51100000000E-03 0. -1.
         11   -1    0    0    0    0 -0.00000000000E+00 -0.00000000000E+00 -0.45593999997E+02  0.45594000000E+02  0.51100000000E-03 0.  1.
    9900012    2    1    2    0    0 -0.11893676794E+02  0.36385110945E+02  0.23744004107E+02  0.46142316775E+02  0.99999910107E+01 0.  0.
        -12    1    1    2    0    0  0.11893676794E+02 -0.36385110945E+02 -0.23744004107E+02  0.45045683225E+02  0.00000000000E+00 0.  1.
         11    1    3    3    0    0 -0.77067114329E+00  0.83615146422E+00  0.43750244592E+00  0.12183972807E+01  0.51100000000E-03 0. -1.
        -11    1    3    3    0    0 -0.13930338276E+01  0.10193099492E+01  0.36020686266E+01  0.39943002728E+01  0.51100000000E-03 0.  1.
         12    1    3    3    0    0 -0.97299718229E+01  0.34529649531E+02  0.19704433035E+02  0.40929619222E+02  0.00000000000E+00 0. -1.
</event>
<event>
 7    1  0.8398055E-009  0.4614232E+02  0.7816164E-02  0.1320468E+00
        -11   -1    0    0    0    0  0.00000000000E+00  0.00000000000E+00  0.45593999997E+02  0.45594000000E+02  0.51100000000E-03 0. -1.
         11   -1    0    0    0    0 -0.00000000000E+00 -0.00000000000E+00 -0.45593999997E+02  0.45594000000E+02  0.51100000000E-03 0.  1.
    9900012    2    1    2    0    0 -0.72625783102E+01 -0.37888514980E+01  0.44294616879E+02  0.46142317367E+02  0.99999964082E+01 0.  0.
        -12    1    1    2    0    0  0.72625783102E+01  0.37888514980E+01 -0.44294616879E+02  0.45045682633E+02  0.00000000000E+00 0.  1.
         11    1    3    3    0    0  0.19451664436E+00 -0.14107774248E+01  0.14277969960E+02  0.14348817237E+02  0.51100000000E-03 0. -1.
        -11    1    3    3    0    0 -0.59137692218E+01 -0.28284757035E+01  0.29315598010E+02  0.30039594340E+02  0.51100000000E-03 0.  1.
        -12    1    3    3    0    0 -0.15433257328E+01  0.45040163025E+00  0.70104890986E+00  0.17539057900E+01  0.00000000000E+00 0.  1.
</event>
<event>
 7    1  0.8398055E-009  0.4614232E+02  0.7816164E-02  0.1320468E+00
        -11   -1    0    0    0    0  0.00000000000E+00  0.00000000000E+00  0.45593999997E+02  0.45594000000E+02  0.51100000000E-03 0. -1.
         11   -1    0    0    0    0 -0.00000000000E+00 -0.00000000000E+00 -0.45593999997E+02  0.45594000000E+02  0.51100000000E-03 0.  1.
    9900012    2    1    2    0    0 -0.82316894684E+01  0.15703989182E+02 -0.41409389019E+02  0.46142317780E+02  0.10000000176E+02 0.  0.
         12    1    1    2    0    0  0.82316894684E+01 -0.15703989182E+02  0.41409389019E+02  0.45045682220E+02  0.00000000000E+00 0. -1.
         11    1    3    3    0    0 -0.66305944800E+01  0.11654478248E+02 -0.37151222346E+02  0.39496898213E+02  0.51100000000E-03 0. -1.
        -11    1    3    3    0    0  0.29630338080E+00  0.23757381950E+01 -0.29431341990E+01  0.37939381702E+01  0.51100000000E-03 0.  1.
         12    1    3    3    0    0 -0.18973983693E+01  0.16737727381E+01 -0.13150324737E+01  0.28514813970E+01  0.00000000000E+00 0. -1.
</event>
<event>
 7    1  0.8398055E-009  0.4614232E+02  0.7816164E-02  0.1320468E+00
        -11   -1    0    0    0    0  0.00000000000E+00  0.00000000000E+00  0.45593999997E+02  0.45594000000E+02  0.51100000000E-03 0. -1.
         11   -1    0    0    0    0 -0.00000000000E+00 -0.00000000000E+00 -0.45593999997E+02  0.45594000000E+02  0.51100000000E-03 0.  1.
    9900012    2    1    2    0    0  0.39937825766E+02  0.22612402581E+01 -0.20711598473E+02  0.46142318234E+02  0.10000004315E+02 0.  0.
         12    1    1    2    0    0 -0.39937825766E+02 -0.22612402581E+01  0.20711598473E+02  0.45045681766E+02  0.00000000000E+00 0. -1.
         11    1    3    3    0    0 -0.13741579432E+00 -0.48570286581E+00 -0.57576398889E+00  0.76569890062E+00  0.51100000000E-03 0. -1.
        -11    1    3    3    0    0  0.11745017766E+02 -0.20640265774E+01 -0.61768286307E+01  0.13429775137E+02  0.51100000000E-03 0.  1.
        -12    1    3    3    0    0  0.28330223795E+02  0.48109697014E+01 -0.13959005853E+02  0.31946844197E+02  0.00000000000E+00 0.  1.
</event>
<event>
 7    1  0.8398055E-009  0.4614232E+02  0.7816164E-02  0.1320468E+00
        -11   -1    0    0    0    0  0.00000000000E+00  0.00000000000E+00  0.45593999997E+02  0.45594000000E+02  0.51100000000E-03 0. -1.
         11   -1    0    0    0    0 -0.00000000000E+00 -0.00000000000E+00 -0.45593999997E+02  0.45594000000E+02  0.51100000000E-03 0.  1.
    9900012    2    1    2    0    0  0.30306661147E+02 -0.13310304148E+02 -0.30552505239E+02  0.46142317823E+02  0.10000000565E+02 0.  0.
         12    1    1    2    0    0 -0.30306661147E+02  0.13310304148E+02  0.30552505239E+02  0.45045682177E+02  0.00000000000E+00 0. -1.
         11    1    3    3    0    0  0.21654964712E+01 -0.64946605923E-02 -0.45313911757E+01  0.50222428651E+01  0.51100000000E-03 0. -1.
        -11    1    3    3    0    0  0.18717757694E+02 -0.58986628230E+01 -0.18502594448E+02  0.26972109257E+02  0.51100000000E-03 0.  1.
        -12    1    3    3    0    0  0.94234069820E+01 -0.74051466646E+01 -0.75185196147E+01  0.14147965701E+02  0.00000000000E+00 0.  1.
</event>
<event>
 7    1  0.8398055E-009  0.4614232E+02  0.7816164E-02  0.1320468E+00
        -11   -1    0    0    0    0  0.00000000000E+00  0.00000000000E+00  0.45593999997E+02  0.45594000000E+02  0.51100000000E-03 0. -1.
         11   -1    0    0    0    0 -0.00000000000E+00 -0.00000000000E+00 -0.45593999997E+02  0.45594000000E+02  0.51100000000E-03 0.  1.
    9900012    2    1    2    0    0 -0.24264955249E+02  0.18200291484E+02 -0.33302776734E+02  0.46142316505E+02  0.99999885494E+01 0.  0.
         12    1    1    2    0    0  0.24264955249E+02 -0.18200291484E+02  0.33302776734E+02  0.45045683495E+02  0.00000000000E+00 0. -1.
         11    1    3    3    0    0 -0.97379381341E+01  0.66135616243E+01 -0.11924865202E+02  0.16756164442E+02  0.51100000000E-03 0. -1.
        -11    1    3    3    0    0 -0.13261871401E+02  0.10975782446E+02 -0.14930317383E+02  0.22787264223E+02  0.51100000000E-03 0.  1.
         12    1    3    3    0    0 -0.12651457133E+01  0.61094741351E+00 -0.64475941486E+01  0.65988878399E+01  0.00000000000E+00 0. -1.
</event>
<event>
 7    1  0.8398055E-009  0.4614232E+02  0.7816164E-02  0.1320468E+00
        -11   -1    0    0    0    0  0.00000000000E+00  0.00000000000E+00  0.45593999997E+02  0.45594000000E+02  0.51100000000E-03 0. -1.
         11   -1    0    0    0    0 -0.00000000000E+00 -0.00000000000E+00 -0.45593999997E+02  0.45594000000E+02  0.51100000000E-03 0.  1.
    9900012    2    1    2    0    0 -0.10468685557E+02  0.35691919612E+02  0.25408795981E+02  0.46142318564E+02  0.10000007318E+02 0.  0.
        -12    1    1    2    0    0  0.10468685557E+02 -0.35691919612E+02 -0.25408795981E+02  0.45045681436E+02  0.00000000000E+00 0.  1.
         11    1    3    3    0    0 -0.24870978869E+01  0.25654736812E+01  0.48507902689E+01  0.60247387995E+01  0.51100000000E-03 0. -1.
        -11    1    3    3    0    0 -0.84901095387E+01  0.27045669163E+02  0.17022828168E+02  0.33065493487E+02  0.51100000000E-03 0.  1.
        -12    1    3    3    0    0  0.50852186909E+00  0.60807767682E+01  0.35351775442E+01  0.70520862774E+01  0.00000000000E+00 0.  1.
</event>
<event>
 7    1  0.8398055E-009  0.4614232E+02  0.7816164E-02  0.1320468E+00
        -11   -1    0    0    0    0  0.00000000000E+00  0.00000000000E+00  0.45593999997E+02  0.45594000000E+02  0.51100000000E-03 0.  1.
         11   -1    0    0    0    0 -0.00000000000E+00 -0.00000000000E+00 -0.45593999997E+02  0.45594000000E+02  0.51100000000E-03 0. -1.
    9900012    2    1    2    0    0  0.36464020141E+02  0.26121583795E+02  0.41414419443E+01  0.46142318230E+02  0.10000004274E+02 0.  0.
        -12    1    1    2    0    0 -0.36464020141E+02 -0.26121583795E+02 -0.41414419443E+01  0.45045681770E+02  0.00000000000E+00 0.  1.
         11    1    3    3    0    0  0.13747727496E+02  0.75780928051E+01  0.29767624444E+01  0.15977753809E+02  0.51100000000E-03 0. -1.
        -11    1    3    3    0    0  0.57990711552E+01  0.19004096439E+01 -0.14992955108E+01  0.62840011432E+01  0.51100000000E-03 0.  1.
        -12    1    3    3    0    0  0.16917221490E+02  0.16643081346E+02  0.26639750107E+01  0.23880563278E+02  0.00000000000E+00 0.  1.
</event>
<event>
 7    1  0.8398055E-009  0.4614232E+02  0.7816164E-02  0.1320468E+00
        -11   -1    0    0    0    0  0.00000000000E+00  0.00000000000E+00  0.45593999997E+02  0.45594000000E+02  0.51100000000E-03 0. -1.
         11   -1    0    0    0    0 -0.00000000000E+00 -0.00000000000E+00 -0.45593999997E+02  0.45594000000E+02  0.51100000000E-03 0.  1.
    9900012    2    1    2    0    0  0.20082255226E+02  0.35584212027E+02 -0.18962604682E+02  0.46142317667E+02  0.99999991425E+01 0.  0.
         12    1    1    2    0    0 -0.20082255226E+02 -0.35584212027E+02  0.18962604682E+02  0.45045682333E+02  0.00000000000E+00 0. -1.
         11    1    3    3    0    0  0.38343442380E+01  0.11697549574E+02 -0.57884061760E+01  0.13602959534E+02  0.51100000000E-03 0. -1.
        -11    1    3    3    0    0 -0.83257402918E-01  0.22419411777E+01 -0.26043482080E+01  0.34374208193E+01  0.51100000000E-03 0.  1.
        -12    1    3    3    0    0  0.16331168391E+02  0.21644721275E+02 -0.10569850298E+02  0.29101937314E+02  0.00000000000E+00 0.  1.
</event>
<event>
 7    1  0.8398055E-009  0.4614232E+02  0.7816164E-02  0.1320468E+00
        -11   -1    0    0    0    0  0.00000000000E+00  0.00000000000E+00  0.45593999997E+02  0.45594000000E+02  0.51100000000E-03 0. -1.
         11   -1    0    0    0    0 -0.00000000000E+00 -0.00000000000E+00 -0.45593999997E+02  0.45594000000E+02  0.51100000000E-03 0.  1.
    9900012    2    1    2    0    0  0.23508818189E+02 -0.22061085451E+02 -0.31460411783E+02  0.46142317261E+02  0.99999954369E+01 0.  0.
         12    1    1    2    0    0 -0.23508818189E+02  0.22061085451E+02  0.31460411783E+02  0.45045682739E+02  0.00000000000E+00 0. -1.
         11    1    3    3    0    0  0.13873449026E+02 -0.10790161761E+02 -0.11722571002E+02  0.21126259722E+02  0.51100000000E-03 0. -1.
        -11    1    3    3    0    0  0.28307809038E+01 -0.19932823745E+01 -0.72603801509E+01  0.80436071104E+01  0.51100000000E-03 0.  1.
         12    1    3    3    0    0  0.68045882589E+01 -0.92776413162E+01 -0.12477460630E+02  0.16972450428E+02  0.00000000000E+00 0. -1.
</event>
<event>
 7    1  0.8398055E-009  0.4614232E+02  0.7816164E-02  0.1320468E+00
        -11   -1    0    0    0    0  0.00000000000E+00  0.00000000000E+00  0.45593999997E+02  0.45594000000E+02  0.51100000000E-03 0. -1.
         11   -1    0    0    0    0 -0.00000000000E+00 -0.00000000000E+00 -0.45593999997E+02  0.45594000000E+02  0.51100000000E-03 0.  1.
    9900012    2    1    2    0    0  0.89626880234E+01  0.42975417405E+02  0.10094411143E+02  0.46142318586E+02  0.10000007522E+02 0.  0.
        -12    1    1    2    0    0 -0.89626880234E+01 -0.42975417405E+02 -0.10094411143E+02  0.45045681414E+02  0.00000000000E+00 0.  1.
         11    1    3    3    0    0  0.44841802006E+01  0.11942737299E+02  0.89175069064E+00  0.12787965663E+02  0.51100000000E-03 0. -1.
        -11    1    3    3    0    0 -0.90043653671E+00  0.11092569475E+02  0.11546068589E+01  0.11188789067E+02  0.51100000000E-03 0.  1.
         12    1    3    3    0    0  0.53789443595E+01  0.19940110631E+02  0.80480535934E+01  0.22165563856E+02  0.00000000000E+00 0. -1.
</event>
<event>
 7    1  0.8398055E-009  0.4614232E+02  0.7816164E-02  0.1320468E+00
        -11   -1    0    0    0    0  0.00000000000E+00  0.00000000000E+00  0.45593999997E+02  0.45594000000E+02  0.51100000000E-03 0. -1.
         11   -1    0    0    0    0 -0.00000000000E+00 -0.00000000000E+00 -0.45593999997E+02  0.45594000000E+02  0.51100000000E-03 0.  1.
    9900012    2    1    2    0    0  0.28122302545E+02  0.33967413423E+02  0.91904524955E+01  0.46142317719E+02  0.99999996181E+01 0.  0.
        -12    1    1    2    0    0 -0.28122302545E+02 -0.33967413423E+02 -0.91904524955E+01  0.45045682281E+02  0.00000000000E+00 0.  1.
         11    1    3    3    0    0  0.78479486436E+01  0.86125669217E+01  0.14647438630E+01  0.11743597479E+02  0.51100000000E-03 0. -1.
        -11    1    3    3    0    0  0.13938431866E+02  0.15070723409E+02  0.86671976225E+01  0.22282883607E+02  0.51100000000E-03 0.  1.
        -12    1    3    3    0    0  0.63359220351E+01  0.10284123093E+02 -0.94148899005E+00  0.12115836634E+02  0.00000000000E+00 0.  1.
</event>
<event>
 7    1  0.8398055E-009  0.4614232E+02  0.7816164E-02  0.1320468E+00
        -11   -1    0    0    0    0  0.00000000000E+00  0.00000000000E+00  0.45593999997E+02  0.45594000000E+02  0.51100000000E-03 0. -1.
         11   -1    0    0    0    0 -0.00000000000E+00 -0.00000000000E+00 -0.45593999997E+02  0.45594000000E+02  0.51100000000E-03 0.  1.
    9900012    2    1    2    0    0  0.11822041418E+02  0.24433600263E+02 -0.35949299746E+02  0.46142316107E+02  0.99999849179E+01 0.  0.
         12    1    1    2    0    0 -0.11822041418E+02 -0.24433600263E+02  0.35949299746E+02  0.45045683893E+02  0.00000000000E+00 0. -1.
         11    1    3    3    0    0  0.22028719085E+01  0.39479006668E+01 -0.11698503307E+02  0.12541672305E+02  0.51100000000E-03 0. -1.
        -11    1    3    3    0    0  0.24759358425E+01  0.48254375490E+01 -0.94682242666E+01  0.10911570779E+02  0.51100000000E-03 0.  1.
         12    1    3    3    0    0  0.71432336670E+01  0.15660262048E+02 -0.14782572173E+02  0.22689073023E+02  0.00000000000E+00 0. -1.
</event>
<event>
 7    1  0.8398055E-009  0.4614232E+02  0.7816164E-02  0.1320468E+00
        -11   -1    0    0    0    0  0.00000000000E+00  0.00000000000E+00  0.45593999997E+02  0.45594000000E+02  0.51100000000E-03 0. -1.
         11   -1    0    0    0    0 -0.00000000000E+00 -0.00000000000E+00 -0.45593999997E+02  0.45594000000E+02  0.51100000000E-03 0.  1.
    9900012    2    1    2    0    0 -0.20568353693E+01  0.32824619922E+02  0.30780306923E+02  0.46142317198E+02  0.99999948684E+01 0.  0.
        -12    1    1    2    0    0  0.20568353693E+01 -0.32824619922E+02 -0.30780306923E+02  0.45045682802E+02  0.00000000000E+00 0.  1.
         11    1    3    3    0    0 -0.33072552480E+00  0.17151212330E+01  0.36764621012E+01  0.40703063840E+01  0.51100000000E-03 0. -1.
        -11    1    3    3    0    0 -0.15929885304E+01  0.23808708165E+01  0.48230696402E+00  0.29049575851E+01  0.51100000000E-03 0.  1.
        -12    1    3    3    0    0 -0.13312131414E+00  0.28728627873E+02  0.26621537858E+02  0.39167053229E+02  0.00000000000E+00 0.  1.
</event>
<event>
 7    1  0.8398055E-009  0.4614232E+02  0.7816164E-02  0.1320468E+00
        -11   -1    0    0    0    0  0.00000000000E+00  0.00000000000E+00  0.45593999997E+02  0.45594000000E+02  0.51100000000E-03 0. -1.
         11   -1    0    0    0    0 -0.00000000000E+00 -0.00000000000E+00 -0.45593999997E+02  0.45594000000E+02  0.51100000000E-03 0.  1.
    9900012    2    1    2    0    0 -0.11565193123E+02 -0.15729137528E+02  0.40594999462E+02  0.46142318290E+02  0.10000004825E+02 0.  0.
        -12    1    1    2    0    0  0.11565193123E+02  0.15729137528E+02 -0.40594999462E+02  0.45045681710E+02  0.00000000000E+00 0.  1.
         11    1    3    3    0    0  0.36958703910E-01 -0.34061748115E+01  0.59906654370E+01  0.68914051856E+01  0.51100000000E-03 0. -1.
        -11    1    3    3    0    0 -0.77433228155E+01 -0.12114716953E+02  0.24160390602E+02  0.28114940679E+02  0.51100000000E-03 0.  1.
         12    1    3    3    0    0 -0.38588290113E+01 -0.20824576366E+00  0.10443943423E+02  0.11135972425E+02  0.00000000000E+00 0. -1.
</event>
<event>
 7    1  0.8398055E-009  0.4614232E+02  0.7816164E-02  0.1320468E+00
        -11   -1    0    0    0    0  0.00000000000E+00  0.00000000000E+00  0.45593999997E+02  0.45594000000E+02  0.51100000000E-03 0. -1.
         11   -1    0    0    0    0 -0.00000000000E+00 -0.00000000000E+00 -0.45593999997E+02  0.45594000000E+02  0.51100000000E-03 0.  1.
    9900012    2    1    2    0    0  0.25863647169E+02  0.19359453577E+02 -0.31391033341E+02  0.46142315834E+02  0.99999824308E+01 0.  0.
         12    1    1    2    0    0 -0.25863647169E+02 -0.19359453577E+02  0.31391033341E+02  0.45045684166E+02  0.00000000000E+00 0. -1.
         11    1    3    3    0    0  0.27898717978E+01  0.23345248940E+01 -0.79714482127E+01  0.87622701395E+01  0.51100000000E-03 0.  1.
        -11    1    3    3    0    0  0.10190215793E+02  0.91262560004E+01 -0.82871409183E+01  0.15993928578E+02  0.51100000000E-03 0. -1.
        -12    1    3    3    0    0  0.12883559578E+02  0.78986726827E+01 -0.15132444210E+02  0.21386117117E+02  0.00000000000E+00 0.  1.
</event>
<event>
 7    1  0.8398055E-009  0.4614232E+02  0.7816164E-02  0.1320468E+00
        -11   -1    0    0    0    0  0.00000000000E+00  0.00000000000E+00  0.45593999997E+02  0.45594000000E+02  0.51100000000E-03 0. -1.
         11   -1    0    0    0    0 -0.00000000000E+00 -0.00000000000E+00 -0.45593999997E+02  0.45594000000E+02  0.51100000000E-03 0.  1.
    9900012    2    1    2    0    0  0.14225716134E+02 -0.39857669319E+02  0.15430769395E+02  0.46142318218E+02  0.10000004170E+02 0.  0.
        -12    1    1    2    0    0 -0.14225716134E+02  0.39857669319E+02 -0.15430769395E+02  0.45045681782E+02  0.00000000000E+00 0.  1.
         11    1    3    3    0    0  0.55648723444E+01 -0.11676993635E+02  0.40023209764E+01  0.13540256940E+02  0.51100000000E-03 0. -1.
        -11    1    3    3    0    0  0.70848374665E+01 -0.11832565347E+02  0.75643881564E+01  0.15729732771E+02  0.51100000000E-03 0.  1.
         12    1    3    3    0    0  0.15760063235E+01 -0.16348110338E+02  0.38640602621E+01  0.16872328507E+02  0.00000000000E+00 0. -1.
</event>
<event>
 7    1  0.8398055E-009  0.4614232E+02  0.7816164E-02  0.1320468E+00
        -11   -1    0    0    0    0  0.00000000000E+00  0.00000000000E+00  0.45593999997E+02  0.45594000000E+02  0.51100000000E-03 0. -1.
         11   -1    0    0    0    0 -0.00000000000E+00 -0.00000000000E+00 -0.45593999997E+02  0.45594000000E+02  0.51100000000E-03 0.  1.
    9900012    2    1    2    0    0 -0.46052376873E+01  0.60654613309E+01  0.44397246422E+02  0.46142317353E+02  0.99999962758E+01 0.  0.
        -12    1    1    2    0    0  0.46052376873E+01 -0.60654613309E+01 -0.44397246422E+02  0.45045682647E+02  0.00000000000E+00 0.  1.
         11    1    3    3    0    0 -0.29096587990E+00  0.14341087357E+01  0.29287966746E+02  0.29324500428E+02  0.51100000000E-03 0. -1.
        -11    1    3    3    0    0 -0.29878472338E+01  0.53543427237E+00  0.53513660822E+01  0.61523199006E+01  0.51100000000E-03 0.  1.
         12    1    3    3    0    0 -0.13264245736E+01  0.40959183228E+01  0.97579135941E+01  0.10665497024E+02  0.00000000000E+00 0. -1.
</event>
<event>
 7    1  0.8398055E-009  0.4614232E+02  0.7816164E-02  0.1320468E+00
        -11   -1    0    0    0    0  0.00000000000E+00  0.00000000000E+00  0.45593999997E+02  0.45594000000E+02  0.51100000000E-03 0.  1.
         11   -1    0    0    0    0 -0.00000000000E+00 -0.00000000000E+00 -0.45593999997E+02  0.45594000000E+02  0.51100000000E-03 0. -1.
    9900012    2    1    2    0    0  0.41307516737E+02 -0.47562973835E+01 -0.17325707072E+02  0.46142318416E+02  0.10000005974E+02 0.  0.
        -12    1    1    2    0    0 -0.41307516737E+02  0.47562973835E+01  0.17325707072E+02  0.45045681584E+02  0.00000000000E+00 0.  1.
         11    1    3    3    0    0  0.32999850067E+02 -0.43850601262E+01 -0.16269954835E+02  0.37053073925E+02  0.51100000000E-03 0. -1.
        -11    1    3    3    0    0  0.84286918369E+01 -0.82606665002E+00 -0.12845238846E+01  0.85659345120E+01  0.51100000000E-03 0.  1.
        -12    1    3    3    0    0 -0.12102516619E+00  0.45482939267E+00  0.22877164764E+00  0.52330997893E+00  0.00000000000E+00 0.  1.
</event>
<event>
 7    1  0.8398055E-009  0.4614232E+02  0.7816164E-02  0.1320468E+00
        -11   -1    0    0    0    0  0.00000000000E+00  0.00000000000E+00  0.45593999997E+02  0.45594000000E+02  0.51100000000E-03 0.  1.
         11   -1    0    0    0    0 -0.00000000000E+00 -0.00000000000E+00 -0.45593999997E+02  0.45594000000E+02  0.51100000000E-03 0. -1.
    9900012    2    1    2    0    0  0.21124185087E+02 -0.38568672239E+02  0.97642101383E+01  0.46142317926E+02  0.10000001504E+02 0.  0.
        -12    1    1    2    0    0 -0.21124185087E+02  0.38568672239E+02 -0.97642101383E+01  0.45045682074E+02  0.00000000000E+00 0.  1.
         11    1    3    3    0    0  0.10976460075E+02 -0.17859884579E+02  0.49486242622E+01  0.21539429781E+02  0.51100000000E-03 0. -1.
        -11    1    3    3    0    0  0.52426927770E+01 -0.14421044369E+02  0.11284037920E+00  0.15344871503E+02  0.51100000000E-03 0.  1.
         12    1    3    3    0    0  0.49050322351E+01 -0.62877432917E+01  0.47027454969E+01  0.92580166417E+01  0.00000000000E+00 0. -1.
</event>
<event>
 7    1  0.8398055E-009  0.4614232E+02  0.7816164E-02  0.1320468E+00
        -11   -1    0    0    0    0  0.00000000000E+00  0.00000000000E+00  0.45593999997E+02  0.45594000000E+02  0.51100000000E-03 0. -1.
         11   -1    0    0    0    0 -0.00000000000E+00 -0.00000000000E+00 -0.45593999997E+02  0.45594000000E+02  0.51100000000E-03 0.  1.
    9900012    2    1    2    0    0 -0.42961775552E+02  0.89288459701E+01  0.10182093080E+02  0.46142317983E+02  0.10000002020E+02 0.  0.
        -12    1    1    2    0    0  0.42961775552E+02 -0.89288459701E+01 -0.10182093080E+02  0.45045682017E+02  0.00000000000E+00 0.  1.
         11    1    3    3    0    0 -0.27820129056E+02  0.62925211501E+01  0.33272343570E+01  0.28716300107E+02  0.51100000000E-03 0. -1.
        -11    1    3    3    0    0 -0.43396101243E+01 -0.12085606980E+01  0.25653450401E+01  0.51839975336E+01  0.51100000000E-03 0.  1.
        -12    1    3    3    0    0 -0.10802036371E+02  0.38448855180E+01  0.42895136831E+01  0.12242020342E+02  0.00000000000E+00 0.  1.
</event>
<event>
 7    1  0.8398055E-009  0.4614231E+02  0.7816164E-02  0.1320468E+00
        -11   -1    0    0    0    0  0.00000000000E+00  0.00000000000E+00  0.45593999997E+02  0.45594000000E+02  0.51100000000E-03 0. -1.
         11   -1    0    0    0    0 -0.00000000000E+00 -0.00000000000E+00 -0.45593999997E+02  0.45594000000E+02  0.51100000000E-03 0.  1.
    9900012    2    1    2    0    0 -0.73123161899E+01 -0.14326300015E+01 -0.44425129445E+02  0.46142306277E+02  0.99998952788E+01 0.  0.
         12    1    1    2    0    0  0.73123161899E+01  0.14326300015E+01  0.44425129445E+02  0.45045693723E+02  0.00000000000E+00 0. -1.
         11    1    3    3    0    0 -0.31248975414E+01 -0.22952119780E+01 -0.20918917122E+02  0.21275198624E+02  0.51100000000E-03 0.  1.
        -11    1    3    3    0    0 -0.14383414297E+01 -0.14810233939E+01 -0.14642042854E+01  0.25310374972E+01  0.51100000000E-03 0. -1.
         12    1    3    3    0    0 -0.27490772188E+01  0.23436053703E+01 -0.22042008038E+02  0.22336070156E+02  0.00000000000E+00 0. -1.
</event>
<event>
 7    1  0.8398055E-009  0.4614232E+02  0.7816164E-02  0.1320468E+00
        -11   -1    0    0    0    0  0.00000000000E+00  0.00000000000E+00  0.45593999997E+02  0.45594000000E+02  0.51100000000E-03 0. -1.
         11   -1    0    0    0    0 -0.00000000000E+00 -0.00000000000E+00 -0.45593999997E+02  0.45594000000E+02  0.51100000000E-03 0.  1.
    9900012    2    1    2    0    0 -0.11872325421E+02  0.26199569972E+02  0.34666178495E+02  0.46142317531E+02  0.99999979036E+01 0.  0.
        -12    1    1    2    0    0  0.11872325421E+02 -0.26199569972E+02 -0.34666178495E+02  0.45045682469E+02  0.00000000000E+00 0.  1.
         11    1    3    3    0    0 -0.21822139876E+01  0.76341495356E+01  0.12626966513E+02  0.14915849979E+02  0.51100000000E-03 0. -1.
        -11    1    3    3    0    0 -0.10493675799E+01  0.26209833038E+01  0.18737967329E+00  0.28294588174E+01  0.51100000000E-03 0.  1.
        -12    1    3    3    0    0 -0.86407438531E+01  0.15944437133E+02  0.21851832308E+02  0.28397008734E+02  0.00000000000E+00 0.  1.
</event>
<event>
 7    1  0.8398055E-009  0.4614232E+02  0.7816164E-02  0.1320468E+00
        -11   -1    0    0    0    0  0.00000000000E+00  0.00000000000E+00  0.45593999997E+02  0.45594000000E+02  0.51100000000E-03 0. -1.
         11   -1    0    0    0    0 -0.00000000000E+00 -0.00000000000E+00 -0.45593999997E+02  0.45594000000E+02  0.51100000000E-03 0.  1.
    9900012    2    1    2    0    0 -0.96996564574E+00  0.89412623577E+01  0.44138717732E+02  0.46142318643E+02  0.10000008038E+02 0.  0.
        -12    1    1    2    0    0  0.96996564574E+00 -0.89412623577E+01 -0.44138717732E+02  0.45045681357E+02  0.00000000000E+00 0.  1.
         11    1    3    3    0    0  0.15818181895E+01 -0.11085021750E+00  0.16609237381E+02  0.16684759609E+02  0.51100000000E-03 0. -1.
        -11    1    3    3    0    0 -0.17313326613E+01  0.40214833004E+00  0.53132843209E+01  0.56026981535E+01  0.51100000000E-03 0.  1.
         12    1    3    3    0    0 -0.82045117393E+00  0.86499642452E+01  0.22216196030E+02  0.23854860880E+02  0.00000000000E+00 0. -1.
</event>
<event>
 7    1  0.1098789E-008  0.4614232E+02  0.7816164E-02  0.1320468E+00
        -11   -1    0    0    0    0  0.00000000000E+00  0.00000000000E+00  0.45593999997E+02  0.45594000000E+02  0.51100000000E-03 0. -1.
         11   -1    0    0    0    0 -0.00000000000E+00 -0.00000000000E+00 -0.45593999997E+02  0.45594000000E+02  0.51100000000E-03 0.  1.
    9900012    2    1    2    0    0 -0.12987511602E+02  0.65563121411E+00 -0.43127810751E+02  0.46142319074E+02  0.10000011971E+02 0.  0.
         12    1    1    2    0    0  0.12987511602E+02 -0.65563121411E+00  0.43127810751E+02  0.45045680926E+02  0.00000000000E+00 0. -1.
         11    1    3    3    0    0  0.66260322759E+00  0.53479533740E+00 -0.32274025980E+01  0.33378401521E+01  0.51100000000E-03 0. -1.
        -11    1    3    3    0    0 -0.57168759872E+01 -0.70111922449E+00 -0.76115017776E+01  0.95451138700E+01  0.51100000000E-03 0.  1.
        -12    1    3    3    0    0 -0.79332388429E+01  0.82195510120E+00 -0.32288906375E+02  0.33259365052E+02  0.00000000000E+00 0.  1.
</event>
<event>
 7    1  0.8398055E-009  0.4614232E+02  0.7816164E-02  0.1320468E+00
        -11   -1    0    0    0    0  0.00000000000E+00  0.00000000000E+00  0.45593999997E+02  0.45594000000E+02  0.51100000000E-03 0. -1.
         11   -1    0    0    0    0 -0.00000000000E+00 -0.00000000000E+00 -0.45593999997E+02  0.45594000000E+02  0.51100000000E-03 0.  1.
    9900012    2    1    2    0    0 -0.99153976247E+01  0.31545047233E+02  0.30589349576E+02  0.46142318493E+02  0.10000006674E+02 0.  0.
        -12    1    1    2    0    0  0.99153976247E+01 -0.31545047233E+02 -0.30589349576E+02  0.45045681507E+02  0.00000000000E+00 0.  1.
         11    1    3    3    0    0 -0.37135107931E+01  0.40277048762E+01  0.49557828778E+01  0.73873102800E+01  0.51100000000E-03 0. -1.
        -11    1    3    3    0    0  0.59258902897E+00  0.35545400763E+01  0.61677407136E+01  0.71433145446E+01  0.51100000000E-03 0.  1.
         12    1    3    3    0    0 -0.67944758606E+01  0.23962802280E+02  0.19465825984E+02  0.31611693668E+02  0.00000000000E+00 0. -1.
</event>
<event>
 7    1  0.8398055E-009  0.4614233E+02  0.7816164E-02  0.1320468E+00
        -11   -1    0    0    0    0  0.00000000000E+00  0.00000000000E+00  0.45593999997E+02  0.45594000000E+02  0.51100000000E-03 0. -1.
         11   -1    0    0    0    0 -0.00000000000E+00 -0.00000000000E+00 -0.45593999997E+02  0.45594000000E+02  0.51100000000E-03 0.  1.
    9900012    2    1    2    0    0  0.22076164667E+02 -0.16894768384E+02 -0.35444640611E+02  0.46142325478E+02  0.10000070365E+02 0.  0.
         12    1    1    2    0    0 -0.22076164667E+02  0.16894768384E+02  0.35444640611E+02  0.45045674522E+02  0.00000000000E+00 0. -1.
         11    1    3    3    0    0 -0.22719539520E+00 -0.28076805842E+01 -0.38540517761E+01  0.47737200761E+01  0.51100000000E-03 0. -1.
        -11    1    3    3    0    0  0.44564587716E+01 -0.28025977344E+01 -0.39291326139E+01  0.65690685948E+01  0.51100000000E-03 0.  1.
        -12    1    3    3    0    0  0.17846901291E+02 -0.11284490065E+02 -0.27661456221E+02  0.34799536807E+02  0.00000000000E+00 0.  1.
</event>
<event>
 7    1  0.8398055E-009  0.4614232E+02  0.7816164E-02  0.1320468E+00
        -11   -1    0    0    0    0  0.00000000000E+00  0.00000000000E+00  0.45593999997E+02  0.45594000000E+02  0.51100000000E-03 0. -1.
         11   -1    0    0    0    0 -0.00000000000E+00 -0.00000000000E+00 -0.45593999997E+02  0.45594000000E+02  0.51100000000E-03 0.  1.
    9900012    2    1    2    0    0 -0.12031866071E+02 -0.12915350316E+02  0.41443229842E+02  0.46142319023E+02  0.10000011507E+02 0.  0.
        -12    1    1    2    0    0  0.12031866071E+02  0.12915350316E+02 -0.41443229842E+02  0.45045680977E+02  0.00000000000E+00 0.  1.
         11    1    3    3    0    0 -0.22446882005E+01 -0.21833928094E+01  0.17195675735E+02  0.17478475148E+02  0.51100000000E-03 0. -1.
        -11    1    3    3    0    0 -0.42318479360E+01 -0.18966547193E+01  0.97901094004E+01  0.10832916431E+02  0.51100000000E-03 0.  1.
         12    1    3    3    0    0 -0.55553299345E+01 -0.88353027876E+01  0.14457444707E+02  0.17830927443E+02  0.00000000000E+00 0. -1.
</event>
<event>
 7    1  0.8398055E-009  0.4614232E+02  0.7816164E-02  0.1320468E+00
        -11   -1    0    0    0    0  0.00000000000E+00  0.00000000000E+00  0.45593999997E+02  0.45594000000E+02  0.51100000000E-03 0.  1.
         11   -1    0    0    0    0 -0.00000000000E+00 -0.00000000000E+00 -0.45593999997E+02  0.45594000000E+02  0.51100000000E-03 0. -1.
    9900012    2    1    2    0    0  0.44042733911E+02 -0.39920849462E+01 -0.85682148608E+01  0.46142318093E+02  0.10000003026E+02 0.  0.
        -12    1    1    2    0    0 -0.44042733911E+02  0.39920849462E+01  0.85682148608E+01  0.45045681907E+02  0.00000000000E+00 0.  1.
         11    1    3    3    0    0  0.19867526480E+02 -0.14698151911E+01 -0.64736599635E+01  0.20947248954E+02  0.51100000000E-03 0. -1.
        -11    1    3    3    0    0  0.22594357355E+02 -0.10226066439E+01 -0.74047553383E+00  0.22629604790E+02  0.51100000000E-03 0.  1.
        -12    1    3    3    0    0  0.15808500753E+01 -0.14996631112E+01 -0.13540793635E+01  0.25654643498E+01  0.00000000000E+00 0.  1.
</event>
<event>
 7    1  0.8398055E-009  0.4614232E+02  0.7816164E-02  0.1320468E+00
        -11   -1    0    0    0    0  0.00000000000E+00  0.00000000000E+00  0.45593999997E+02  0.45594000000E+02  0.51100000000E-03 0. -1.
         11   -1    0    0    0    0 -0.00000000000E+00 -0.00000000000E+00 -0.45593999997E+02  0.45594000000E+02  0.51100000000E-03 0.  1.
    9900012    2    1    2    0    0  0.16507207285E+01 -0.35240796886E+02  0.28008479357E+02  0.46142316966E+02  0.99999927519E+01 0.  0.
        -12    1    1    2    0    0 -0.16507207285E+01  0.35240796886E+02 -0.28008479357E+02  0.45045683034E+02  0.00000000000E+00 0.  1.
         11    1    3    3    0    0  0.14242777140E+00 -0.22267134462E+02  0.13861164255E+02  0.26229324001E+02  0.51100000000E-03 0. -1.
        -11    1    3    3    0    0  0.10334574616E+00 -0.17821459134E+00 -0.42329791538E+00  0.47076763918E+00  0.51100000000E-03 0.  1.
         12    1    3    3    0    0  0.14049472110E+01 -0.12795447833E+02  0.14570613017E+02  0.19442225326E+02  0.00000000000E+00 0. -1.
</event>
<event>
 7    1  0.8398055E-009  0.4614232E+02  0.7816164E-02  0.1320468E+00
        -11   -1    0    0    0    0  0.00000000000E+00  0.00000000000E+00  0.45593999997E+02  0.45594000000E+02  0.51100000000E-03 0.  1.
         11   -1    0    0    0    0 -0.00000000000E+00 -0.00000000000E+00 -0.45593999997E+02  0.45594000000E+02  0.51100000000E-03 0. -1.
    9900012    2    1    2    0    0 -0.53682765866E+01  0.41819521656E+02 -0.15856294910E+02  0.46142324588E+02  0.10000062249E+02 0.  0.
         12    1    1    2    0    0  0.53682765866E+01 -0.41819521656E+02  0.15856294910E+02  0.45045675412E+02  0.00000000000E+00 0. -1.
         11    1    3    3    0    0 -0.73499622729E+00  0.10896506013E+02 -0.18265779404E+01  0.11072960308E+02  0.51100000000E-03 0. -1.
        -11    1    3    3    0    0 -0.31112728753E+01  0.22139602155E+02 -0.13548682053E+02  0.26142088442E+02  0.51100000000E-03 0.  1.
        -12    1    3    3    0    0 -0.15220074840E+01  0.87834134885E+01 -0.48103491718E+00  0.89272758377E+01  0.00000000000E+00 0.  1.
</event>
<event>
 7    1  0.8398055E-009  0.4614231E+02  0.7816164E-02  0.1320468E+00
        -11   -1    0    0    0    0  0.00000000000E+00  0.00000000000E+00  0.45593999997E+02  0.45594000000E+02  0.51100000000E-03 0. -1.
         11   -1    0    0    0    0 -0.00000000000E+00 -0.00000000000E+00 -0.45593999997E+02  0.45594000000E+02  0.51100000000E-03 0.  1.
    9900012    2    1    2    0    0  0.33349714267E+02  0.95357790795E+01  0.28739863883E+02  0.46142308748E+02  0.99999178113E+01 0.  0.
        -12    1    1    2    0    0 -0.33349714267E+02 -0.95357790795E+01 -0.28739863883E+02  0.45045691252E+02  0.00000000000E+00 0.  1.
         11    1    3    3    0    0  0.28851007141E+01  0.18525658797E+01  0.40720731540E+01  0.53233059748E+01  0.51100000000E-03 0.  1.
        -11    1    3    3    0    0  0.23838317684E+02  0.89902945644E+01  0.17143987824E+02  0.30708420753E+02  0.51100000000E-03 0. -1.
         12    1    3    3    0    0  0.66262958685E+01 -0.13070813647E+01  0.75238029048E+01  0.10110582020E+02  0.00000000000E+00 0. -1.
</event>
<event>
 7    1  0.8398055E-009  0.4614232E+02  0.7816164E-02  0.1320468E+00
        -11   -1    0    0    0    0  0.00000000000E+00  0.00000000000E+00  0.45593999997E+02  0.45594000000E+02  0.51100000000E-03 0. -1.
         11   -1    0    0    0    0 -0.00000000000E+00 -0.00000000000E+00 -0.45593999997E+02  0.45594000000E+02  0.51100000000E-03 0.  1.
    9900012    2    1    2    0    0 -0.28785610023E+01  0.21688449225E+02  0.39375608048E+02  0.46142318160E+02  0.10000003640E+02 0.  0.
        -12    1    1    2    0    0  0.28785610023E+01 -0.21688449225E+02 -0.39375608048E+02  0.45045681840E+02  0.00000000000E+00 0.  1.
         11    1    3    3    0    0  0.12064083385E+01  0.10279760397E+02  0.20777157529E+02  0.23212478759E+02  0.51100000000E-03 0. -1.
        -11    1    3    3    0    0 -0.74204585942E+00  0.32931857535E+01  0.14667367050E+01  0.36806278388E+01  0.51100000000E-03 0.  1.
        -12    1    3    3    0    0 -0.33429234814E+01  0.81155030749E+01  0.17131713815E+02  0.19249211563E+02  0.00000000000E+00 0.  1.
</event>
<event>
 7    1  0.8398055E-009  0.4614232E+02  0.7816164E-02  0.1320468E+00
        -11   -1    0    0    0    0  0.00000000000E+00  0.00000000000E+00  0.45593999997E+02  0.45594000000E+02  0.51100000000E-03 0. -1.
         11   -1    0    0    0    0 -0.00000000000E+00 -0.00000000000E+00 -0.45593999997E+02  0.45594000000E+02  0.51100000000E-03 0.  1.
    9900012    2    1    2    0    0  0.29776764964E+02  0.12190003891E+02 -0.31525569777E+02  0.46142317894E+02  0.10000001212E+02 0.  0.
         12    1    1    2    0    0 -0.29776764964E+02 -0.12190003891E+02  0.31525569777E+02  0.45045682106E+02  0.00000000000E+00 0. -1.
         11    1    3    3    0    0  0.49792541093E+01  0.36043933513E+01 -0.50878715005E+01  0.79794147394E+01  0.51100000000E-03 0. -1.
        -11    1    3    3    0    0  0.82566282325E+01  0.47892661953E+01 -0.48606000557E+01  0.10711415108E+02  0.51100000000E-03 0.  1.
         12    1    3    3    0    0  0.16540882623E+02  0.37963443448E+01 -0.21577098221E+02  0.27451488046E+02  0.00000000000E+00 0. -1.
</event>
<event>
 7    1  0.8398055E-009  0.4614232E+02  0.7816164E-02  0.1320468E+00
        -11   -1    0    0    0    0  0.00000000000E+00  0.00000000000E+00  0.45593999997E+02  0.45594000000E+02  0.51100000000E-03 0. -1.
         11   -1    0    0    0    0 -0.00000000000E+00 -0.00000000000E+00 -0.45593999997E+02  0.45594000000E+02  0.51100000000E-03 0.  1.
    9900012    2    1    2    0    0 -0.23168420150E+02  0.11435728528E+02 -0.36899347456E+02  0.46142318499E+02  0.10000006726E+02 0.  0.
         12    1    1    2    0    0  0.23168420150E+02 -0.11435728528E+02  0.36899347456E+02  0.45045681501E+02  0.00000000000E+00 0. -1.
         11    1    3    3    0    0 -0.15879570282E+01  0.20212165563E+01 -0.51702370204E+01  0.57739306369E+01  0.51100000000E-03 0. -1.
        -11    1    3    3    0    0 -0.20607435352E+02  0.10285661745E+02 -0.31531710696E+02  0.39047535249E+02  0.51100000000E-03 0.  1.
         12    1    3    3    0    0 -0.97302776971E+00 -0.87114977353E+00 -0.19739974028E+00  0.13208526133E+01  0.00000000000E+00 0. -1.
</event>
<event>
 7    1  0.8398055E-009  0.4614232E+02  0.7816164E-02  0.1320468E+00
        -11   -1    0    0    0    0  0.00000000000E+00  0.00000000000E+00  0.45593999997E+02  0.45594000000E+02  0.51100000000E-03 0. -1.
         11   -1    0    0    0    0 -0.00000000000E+00 -0.00000000000E+00 -0.45593999997E+02  0.45594000000E+02  0.51100000000E-03 0.  1.
    9900012    2    1    2    0    0  0.22961721681E+02 -0.14588567185E+02  0.35903294653E+02  0.46142317388E+02  0.99999965952E+01 0.  0.
        -12    1    1    2    0    0 -0.22961721681E+02  0.14588567185E+02 -0.35903294653E+02  0.45045682612E+02  0.00000000000E+00 0.  1.
         11    1    3    3    0    0  0.14346535981E+02 -0.12320724711E+02  0.29772273844E+02  0.35270549218E+02  0.51100000000E-03 0. -1.
        -11    1    3    3    0    0  0.13088783646E+01 -0.48877660736E+00  0.52605125319E+00  0.14929150436E+01  0.51100000000E-03 0.  1.
         12    1    3    3    0    0  0.73063073353E+01 -0.17790658672E+01  0.56049695558E+01  0.93788531260E+01  0.00000000000E+00 0. -1.
</event>
<event>
 7    1  0.8398055E-009  0.4614232E+02  0.7816164E-02  0.1320468E+00
        -11   -1    0    0    0    0  0.00000000000E+00  0.00000000000E+00  0.45593999997E+02  0.45594000000E+02  0.51100000000E-03 0. -1.
         11   -1    0    0    0    0 -0.00000000000E+00 -0.00000000000E+00 -0.45593999997E+02  0.45594000000E+02  0.51100000000E-03 0.  1.
    9900012    2    1    2    0    0 -0.79226887710E+01  0.87059537496E+01 -0.43480465551E+02  0.46142317493E+02  0.99999975520E+01 0.  0.
         12    1    1    2    0    0  0.79226887710E+01 -0.87059537496E+01  0.43480465551E+02  0.45045682507E+02  0.00000000000E+00 0. -1.
         11    1    3    3    0    0 -0.26557673280E+01  0.34926474651E+01 -0.13467600666E+02  0.14164319764E+02  0.51100000000E-03 0. -1.
        -11    1    3    3    0    0 -0.66717106071E+01  0.17543812967E+01 -0.23265095639E+02  0.24266319282E+02  0.51100000000E-03 0.  1.
        -12    1    3    3    0    0  0.14047891642E+01  0.34589249878E+01 -0.67477692457E+01  0.77116784464E+01  0.00000000000E+00 0.  1.
</event>
<event>
 7    1  0.8398055E-009  0.4614232E+02  0.7816164E-02  0.1320468E+00
        -11   -1    0    0    0    0  0.00000000000E+00  0.00000000000E+00  0.45593999997E+02  0.45594000000E+02  0.51100000000E-03 0. -1.
         11   -1    0    0    0    0 -0.00000000000E+00 -0.00000000000E+00 -0.45593999997E+02  0.45594000000E+02  0.51100000000E-03 0.  1.
    9900012    2    1    2    0    0  0.20639295210E+02 -0.26853365193E+02  0.29698985909E+02  0.46142317710E+02  0.99999995354E+01 0.  0.
        -12    1    1    2    0    0 -0.20639295210E+02  0.26853365193E+02 -0.29698985909E+02  0.45045682290E+02  0.00000000000E+00 0.  1.
         11    1    3    3    0    0  0.19131078682E+02 -0.24271684898E+02  0.29371508871E+02  0.42635646975E+02  0.51100000000E-03 0. -1.
        -11    1    3    3    0    0  0.17114786616E+00 -0.19317439667E+01  0.51942218502E+00  0.20076668081E+01  0.51100000000E-03 0.  1.
         12    1    3    3    0    0  0.13370686612E+01 -0.64993632804E+00 -0.19194514662E+00  0.14990039275E+01  0.00000000000E+00 0. -1.
</event>
<event>
 7    1  0.8398055E-009  0.4614232E+02  0.7816164E-02  0.1320468E+00
        -11   -1    0    0    0    0  0.00000000000E+00  0.00000000000E+00  0.45593999997E+02  0.45594000000E+02  0.51100000000E-03 0. -1.
         11   -1    0    0    0    0 -0.00000000000E+00 -0.00000000000E+00 -0.45593999997E+02  0.45594000000E+02  0.51100000000E-03 0.  1.
    9900012    2    1    2    0    0 -0.78432526456E+01 -0.65489177821E+00  0.44352767380E+02  0.46142317969E+02  0.10000001900E+02 0.  0.
        -12    1    1    2    0    0  0.78432526456E+01  0.65489177821E+00 -0.44352767380E+02  0.45045682031E+02  0.00000000000E+00 0.  1.
         11    1    3    3    0    0 -0.78442069789E+01  0.23375769240E+01  0.28760453615E+02  0.29902500588E+02  0.51100000000E-03 0.  1.
        -11    1    3    3    0    0 -0.50424918200E+00  0.59819030825E+00  0.45673991679E+01  0.46339221295E+01  0.51100000000E-03 0. -1.
         12    1    3    3    0    0  0.50520351527E+00 -0.35906590105E+01  0.11024914597E+02  0.11605895252E+02  0.00000000000E+00 0. -1.
</event>
<event>
 7    1  0.8398055E-009  0.4614231E+02  0.7816164E-02  0.1320468E+00
        -11   -1    0    0    0    0  0.00000000000E+00  0.00000000000E+00  0.45593999997E+02  0.45594000000E+02  0.51100000000E-03 0. -1.
         11   -1    0    0    0    0 -0.00000000000E+00 -0.00000000000E+00 -0.45593999997E+02  0.45594000000E+02  0.51100000000E-03 0.  1.
    9900012    2    1    2    0    0 -0.21965243873E+01 -0.42835933570E+02 -0.13761248542E+02  0.46142313352E+02  0.99999597928E+01 0.  0.
         12    1    1    2    0    0  0.21965243873E+01  0.42835933570E+02  0.13761248542E+02  0.45045686648E+02  0.00000000000E+00 0. -1.
         11    1    3    3    0    0 -0.10525877950E+01 -0.99174558483E+00 -0.14860798779E+01  0.20736282299E+01  0.51100000000E-03 0. -1.
        -11    1    3    3    0    0 -0.30032109769E+01 -0.10421633326E+02 -0.29930976041E+01  0.11251148869E+02  0.51100000000E-03 0.  1.
        -12    1    3    3    0    0  0.18592743845E+01 -0.31422554659E+02 -0.92820710597E+01  0.32817536253E+02  0.00000000000E+00 0.  1.
</event>
<event>
 7    1  0.8398055E-009  0.4614232E+02  0.7816164E-02  0.1320468E+00
        -11   -1    0    0    0    0  0.00000000000E+00  0.00000000000E+00  0.45593999997E+02  0.45594000000E+02  0.51100000000E-03 0. -1.
         11   -1    0    0    0    0 -0.00000000000E+00 -0.00000000000E+00 -0.45593999997E+02  0.45594000000E+02  0.51100000000E-03 0.  1.
    9900012    2    1    2    0    0 -0.75871566879E+01 -0.20352246031E+02 -0.39463079320E+02  0.46142317693E+02  0.99999993768E+01 0.  0.
         12    1    1    2    0    0  0.75871566879E+01  0.20352246031E+02  0.39463079320E+02  0.45045682307E+02  0.00000000000E+00 0. -1.
         11    1    3    3    0    0  0.71401689191E+00 -0.40429798672E+00 -0.21406189415E+01  0.22924935546E+01  0.51100000000E-03 0. -1.
        -11    1    3    3    0    0 -0.89251038296E+01 -0.20051368243E+02 -0.37219770371E+02  0.43209098041E+02  0.51100000000E-03 0.  1.
         12    1    3    3    0    0  0.62393024981E+00  0.10342019842E+00 -0.10269000733E+00  0.64072609723E+00  0.00000000000E+00 0. -1.
</event>
<event>
 7    1  0.8398055E-009  0.4614232E+02  0.7816164E-02  0.1320468E+00
        -11   -1    0    0    0    0  0.00000000000E+00  0.00000000000E+00  0.45593999997E+02  0.45594000000E+02  0.51100000000E-03 0. -1.
         11   -1    0    0    0    0 -0.00000000000E+00 -0.00000000000E+00 -0.45593999997E+02  0.45594000000E+02  0.51100000000E-03 0.  1.
    9900012    2    1    2    0    0  0.84839941773E+01 -0.20576086886E+02  0.39163248956E+02  0.46142316771E+02  0.99999909747E+01 0.  0.
        -12    1    1    2    0    0 -0.84839941773E+01  0.20576086886E+02 -0.39163248956E+02  0.45045683229E+02  0.00000000000E+00 0.  1.
         11    1    3    3    0    0 -0.13842814548E+00 -0.44135109863E+01  0.10474869164E+02  0.11367547046E+02  0.51100000000E-03 0. -1.
        -11    1    3    3    0    0  0.33471269857E+01 -0.10511061090E+02  0.11539946743E+02  0.15964211079E+02  0.51100000000E-03 0.  1.
         12    1    3    3    0    0  0.52752953371E+01 -0.56515148100E+01  0.17148433050E+02  0.18810558647E+02  0.00000000000E+00 0. -1.
</event>
<event>
 7    1  0.8398055E-009  0.4614232E+02  0.7816164E-02  0.1320468E+00
        -11   -1    0    0    0    0  0.00000000000E+00  0.00000000000E+00  0.45593999997E+02  0.45594000000E+02  0.51100000000E-03 0. -1.
         11   -1    0    0    0    0 -0.00000000000E+00 -0.00000000000E+00 -0.45593999997E+02  0.45594000000E+02  0.51100000000E-03 0.  1.
    9900012    2    1    2    0    0 -0.23821946869E+02  0.32436740876E+02 -0.20235765728E+02  0.46142317345E+02  0.99999962034E+01 0.  0.
         12    1    1    2    0    0  0.23821946869E+02 -0.32436740876E+02  0.20235765728E+02  0.45045682655E+02  0.00000000000E+00 0. -1.
         11    1    3    3    0    0 -0.18761816732E+02  0.18220834723E+02 -0.11827750340E+02  0.28703662893E+02  0.51100000000E-03 0.  1.
        -11    1    3    3    0    0 -0.60294664736E+00  0.37880602237E+00 -0.63338315151E+00  0.95300217202E+00  0.51100000000E-03 0. -1.
        -12    1    3    3    0    0 -0.44571834891E+01  0.13837100131E+02 -0.77746322363E+01  0.16485652280E+02  0.00000000000E+00 0.  1.
</event>
<event>
 7    1  0.8398055E-009  0.4614232E+02  0.7816164E-02  0.1320468E+00
        -11   -1    0    0    0    0  0.00000000000E+00  0.00000000000E+00  0.45593999997E+02  0.45594000000E+02  0.51100000000E-03 0. -1.
         11   -1    0    0    0    0 -0.00000000000E+00 -0.00000000000E+00 -0.45593999997E+02  0.45594000000E+02  0.51100000000E-03 0.  1.
    9900012    2    1    2    0    0 -0.25214730359E+02  0.31587429509E+02 -0.19888820813E+02  0.46142317372E+02  0.99999964530E+01 0.  0.
         12    1    1    2    0    0  0.25214730359E+02 -0.31587429509E+02  0.19888820813E+02  0.45045682628E+02  0.00000000000E+00 0. -1.
         11    1    3    3    0    0 -0.66348501965E+01  0.92735896740E+01 -0.15084902951E+01  0.11502010511E+02  0.51100000000E-03 0. -1.
        -11    1    3    3    0    0 -0.13853577061E+02  0.13611968893E+02 -0.11339073623E+02  0.22489595048E+02  0.51100000000E-03 0.  1.
         12    1    3    3    0    0 -0.47263031020E+01  0.87018709414E+01 -0.70412568951E+01  0.12150711813E+02  0.00000000000E+00 0. -1.
</event>
<event>
 7    1  0.8398055E-009  0.4614232E+02  0.7816164E-02  0.1320468E+00
        -11   -1    0    0    0    0  0.00000000000E+00  0.00000000000E+00  0.45593999997E+02  0.45594000000E+02  0.51100000000E-03 0. -1.
         11   -1    0    0    0    0 -0.00000000000E+00 -0.00000000000E+00 -0.45593999997E+02  0.45594000000E+02  0.51100000000E-03 0.  1.
    9900012    2    1    2    0    0  0.10653186607E+02 -0.37680314130E+02  0.22266948279E+02  0.46142318260E+02  0.10000004545E+02 0.  0.
        -12    1    1    2    0    0 -0.10653186607E+02  0.37680314130E+02 -0.22266948279E+02  0.45045681740E+02  0.00000000000E+00 0.  1.
         11    1    3    3    0    0  0.35345723504E+01 -0.70234028139E+01  0.37569682064E+01  0.87141378892E+01  0.51100000000E-03 0.  1.
        -11    1    3    3    0    0  0.28154641341E+01 -0.62732198403E+01  0.79467362553E+01  0.10508603277E+02  0.51100000000E-03 0. -1.
        -12    1    3    3    0    0  0.43031501222E+01 -0.24383691476E+02  0.10563243817E+02  0.26919577094E+02  0.00000000000E+00 0.  1.
</event>
<event>
 7    1  0.8398055E-009  0.4614232E+02  0.7816164E-02  0.1320468E+00
        -11   -1    0    0    0    0  0.00000000000E+00  0.00000000000E+00  0.45593999997E+02  0.45594000000E+02  0.51100000000E-03 0. -1.
         11   -1    0    0    0    0 -0.00000000000E+00 -0.00000000000E+00 -0.45593999997E+02  0.45594000000E+02  0.51100000000E-03 0.  1.
    9900012    2    1    2    0    0  0.33606758720E+02  0.30865380269E+01 -0.29835758135E+02  0.46142318607E+02  0.10000007713E+02 0.  0.
         12    1    1    2    0    0 -0.33606758720E+02 -0.30865380269E+01  0.29835758135E+02  0.45045681393E+02  0.00000000000E+00 0. -1.
         11    1    3    3    0    0  0.17537426405E+02  0.17448504319E+01 -0.91952082173E+01  0.19878573449E+02  0.51100000000E-03 0. -1.
        -11    1    3    3    0    0  0.68710240867E+01  0.64600317399E+00 -0.10395196444E+02  0.12477515838E+02  0.51100000000E-03 0.  1.
         12    1    3    3    0    0  0.91983082288E+01  0.69568442097E+00 -0.10245353473E+02  0.13786229321E+02  0.00000000000E+00 0. -1.
</event>
<event>
 7    1  0.8398055E-009  0.4614232E+02  0.7816164E-02  0.1320468E+00
        -11   -1    0    0    0    0  0.00000000000E+00  0.00000000000E+00  0.45593999997E+02  0.45594000000E+02  0.51100000000E-03 0. -1.
         11   -1    0    0    0    0 -0.00000000000E+00 -0.00000000000E+00 -0.45593999997E+02  0.45594000000E+02  0.51100000000E-03 0.  1.
    9900012    2    1    2    0    0 -0.18397533183E+02 -0.19902004006E+02 -0.35979918801E+02  0.46142317104E+02  0.99999940050E+01 0.  0.
         12    1    1    2    0    0  0.18397533183E+02  0.19902004006E+02  0.35979918801E+02  0.45045682896E+02  0.00000000000E+00 0. -1.
         11    1    3    3    0    0 -0.57358357534E+01 -0.87202693874E+01 -0.14387728909E+02  0.17774972670E+02  0.51100000000E-03 0. -1.
        -11    1    3    3    0    0 -0.40123609449E+01 -0.51874980539E+01 -0.13780562773E+02  0.15261490328E+02  0.51100000000E-03 0.  1.
        -12    1    3    3    0    0 -0.86493364851E+01 -0.59942365643E+01 -0.78116271184E+01  0.13105854106E+02  0.00000000000E+00 0.  1.
</event>
<event>
 7    1  0.8398055E-009  0.4614232E+02  0.7816164E-02  0.1320468E+00
        -11   -1    0    0    0    0  0.00000000000E+00  0.00000000000E+00  0.45593999997E+02  0.45594000000E+02  0.51100000000E-03 0. -1.
         11   -1    0    0    0    0 -0.00000000000E+00 -0.00000000000E+00 -0.45593999997E+02  0.45594000000E+02  0.51100000000E-03 0.  1.
    9900012    2    1    2    0    0  0.30161318798E+02  0.20093021299E+02  0.26752174779E+02  0.46142317499E+02  0.99999976124E+01 0.  0.
        -12    1    1    2    0    0 -0.30161318798E+02 -0.20093021299E+02 -0.26752174779E+02  0.45045682501E+02  0.00000000000E+00 0.  1.
         11    1    3    3    0    0  0.22008785274E+02  0.13658272897E+02  0.16172169236E+02  0.30536438984E+02  0.51100000000E-03 0. -1.
        -11    1    3    3    0    0  0.88095727032E+01  0.61909886401E+01  0.10026798543E+02  0.14713041862E+02  0.51100000000E-03 0.  1.
         12    1    3    3    0    0 -0.65703917906E+00  0.24375976152E+00  0.55320700054E+00  0.89283665337E+00  0.00000000000E+00 0. -1.
</event>
<event>
 7    1  0.8398055E-009  0.4614232E+02  0.7816164E-02  0.1320468E+00
        -11   -1    0    0    0    0  0.00000000000E+00  0.00000000000E+00  0.45593999997E+02  0.45594000000E+02  0.51100000000E-03 0. -1.
         11   -1    0    0    0    0 -0.00000000000E+00 -0.00000000000E+00 -0.45593999997E+02  0.45594000000E+02  0.51100000000E-03 0.  1.
    9900012    2    1    2    0    0 -0.31054040538E+02 -0.31514197749E+02 -0.84625684910E+01  0.46142321417E+02  0.10000033341E+02 0.  0.
         12    1    1    2    0    0  0.31054040538E+02  0.31514197749E+02  0.84625684910E+01  0.45045678583E+02  0.00000000000E+00 0. -1.
         11    1    3    3    0    0 -0.49183333597E+01 -0.47672505190E+01  0.99289386264E+00  0.69211645719E+01  0.51100000000E-03 0. -1.
        -11    1    3    3    0    0 -0.20119732612E+02 -0.21641020176E+02 -0.10283480644E+02  0.31287175792E+02  0.51100000000E-03 0.  1.
        -12    1    3    3    0    0 -0.60159745664E+01 -0.51059270540E+01  0.82801829063E+00  0.79339810533E+01  0.00000000000E+00 0.  1.
</event>
<event>
 7    1  0.8398055E-009  0.4614232E+02  0.7816164E-02  0.1320468E+00
        -11   -1    0    0    0    0  0.00000000000E+00  0.00000000000E+00  0.45593999997E+02  0.45594000000E+02  0.51100000000E-03 0. -1.
         11   -1    0    0    0    0 -0.00000000000E+00 -0.00000000000E+00 -0.45593999997E+02  0.45594000000E+02  0.51100000000E-03 0.  1.
    9900012    2    1    2    0    0 -0.81714260372E+01  0.15947947435E+02 -0.41328002217E+02  0.46142323203E+02  0.10000049624E+02 0.  0.
         12    1    1    2    0    0  0.81714260372E+01 -0.15947947435E+02  0.41328002217E+02  0.45045676797E+02  0.00000000000E+00 0. -1.
         11    1    3    3    0    0 -0.14213696147E+00 -0.15138452382E+00 -0.64557220261E+00  0.67814741744E+00  0.51100000000E-03 0. -1.
        -11    1    3    3    0    0 -0.51205786839E+01  0.15627577943E+02 -0.28256216403E+02  0.32693352292E+02  0.51100000000E-03 0.  1.
        -12    1    3    3    0    0 -0.29087103919E+01  0.47175401582E+00 -0.12426213611E+02  0.12770823493E+02  0.00000000000E+00 0.  1.
</event>
<event>
 7    1  0.1001436E-008  0.4614232E+02  0.7816164E-02  0.1320468E+00
        -11   -1    0    0    0    0  0.00000000000E+00  0.00000000000E+00  0.45593999997E+02  0.45594000000E+02  0.51100000000E-03 0. -1.
         11   -1    0    0    0    0 -0.00000000000E+00 -0.00000000000E+00 -0.45593999997E+02  0.45594000000E+02  0.51100000000E-03 0.  1.
    9900012    2    1    2    0    0  0.18948766780E+02 -0.28220863937E+02 -0.29557409351E+02  0.46142319060E+02  0.10000011844E+02 0.  0.
         12    1    1    2    0    0 -0.18948766780E+02  0.28220863937E+02  0.29557409351E+02  0.45045680940E+02  0.00000000000E+00 0. -1.
         11    1    3    3    0    0  0.96707273768E+00 -0.38535773274E+01 -0.45115005442E+01  0.60115659623E+01  0.51100000000E-03 0. -1.
        -11    1    3    3    0    0  0.10469746827E+02 -0.18780862828E+02 -0.14030479283E+02  0.25674710444E+02  0.51100000000E-03 0.  1.
         12    1    3    3    0    0  0.75119472145E+01 -0.55864237817E+01 -0.11015429524E+02  0.14456042654E+02  0.00000000000E+00 0. -1.
</event>
<event>
 7    1  0.8398055E-009  0.4614232E+02  0.7816164E-02  0.1320468E+00
        -11   -1    0    0    0    0  0.00000000000E+00  0.00000000000E+00  0.45593999997E+02  0.45594000000E+02  0.51100000000E-03 0.  1.
         11   -1    0    0    0    0 -0.00000000000E+00 -0.00000000000E+00 -0.45593999997E+02  0.45594000000E+02  0.51100000000E-03 0. -1.
    9900012    2    1    2    0    0 -0.25052775549E+02 -0.36883350677E+02  0.64101713059E+01  0.46142318564E+02  0.10000007321E+02 0.  0.
         12    1    1    2    0    0  0.25052775549E+02  0.36883350677E+02 -0.64101713059E+01  0.45045681436E+02  0.00000000000E+00 0. -1.
         11    1    3    3    0    0 -0.17461544213E+02 -0.19981445074E+02  0.61397229829E+01  0.27237104694E+02  0.51100000000E-03 0. -1.
        -11    1    3    3    0    0 -0.32548177593E+01 -0.44814519530E+01  0.13638953070E+01  0.57041617196E+01  0.51100000000E-03 0.  1.
         12    1    3    3    0    0 -0.43364135775E+01 -0.12420453649E+02 -0.10934469841E+01  0.13201052150E+02  0.00000000000E+00 0. -1.
</event>
<event>
 7    1  0.8398055E-009  0.4614232E+02  0.7816164E-02  0.1320468E+00
        -11   -1    0    0    0    0  0.00000000000E+00  0.00000000000E+00  0.45593999997E+02  0.45594000000E+02  0.51100000000E-03 0. -1.
         11   -1    0    0    0    0 -0.00000000000E+00 -0.00000000000E+00 -0.45593999997E+02  0.45594000000E+02  0.51100000000E-03 0.  1.
    9900012    2    1    2    0    0 -0.94403876580E-01 -0.38706971813E+02  0.23040723654E+02  0.46142317348E+02  0.99999962346E+01 0.  0.
        -12    1    1    2    0    0  0.94403876580E-01  0.38706971813E+02 -0.23040723654E+02  0.45045682652E+02  0.00000000000E+00 0.  1.
         11    1    3    3    0    0 -0.41362688014E+01 -0.13394028798E+02  0.76810836937E+01  0.15984610537E+02  0.51100000000E-03 0. -1.
        -11    1    3    3    0    0  0.13189507767E+01 -0.17979906521E+02  0.94555959003E+01  0.20357430185E+02  0.51100000000E-03 0.  1.
         12    1    3    3    0    0  0.27229141481E+01 -0.73330364944E+01  0.59040440602E+01  0.98002766262E+01  0.00000000000E+00 0. -1.
</event>
<event>
 7    1  0.8398055E-009  0.4614232E+02  0.7816164E-02  0.1320468E+00
        -11   -1    0    0    0    0  0.00000000000E+00  0.00000000000E+00  0.45593999997E+02  0.45594000000E+02  0.51100000000E-03 0. -1.
         11   -1    0    0    0    0 -0.00000000000E+00 -0.00000000000E+00 -0.45593999997E+02  0.45594000000E+02  0.51100000000E-03 0.  1.
    9900012    2    1    2    0    0  0.23585724633E+02 -0.28828122619E+02  0.25333109712E+02  0.46142317545E+02  0.99999980273E+01 0.  0.
        -12    1    1    2    0    0 -0.23585724633E+02  0.28828122619E+02 -0.25333109712E+02  0.45045682455E+02  0.00000000000E+00 0.  1.
         11    1    3    3    0    0  0.96810743320E+01 -0.10463332897E+02  0.12775776677E+02  0.19142230944E+02  0.51100000000E-03 0. -1.
        -11    1    3    3    0    0  0.52302773934E+01 -0.27994951223E+01  0.44891120459E+01  0.74394288607E+01  0.51100000000E-03 0.  1.
         12    1    3    3    0    0  0.86743729075E+01 -0.15565294600E+02  0.80682209885E+01  0.19560657740E+02  0.00000000000E+00 0. -1.
</event>
<event>
 7    1  0.8398055E-009  0.4614231E+02  0.7816164E-02  0.1320468E+00
        -11   -1    0    0    0    0  0.00000000000E+00  0.00000000000E+00  0.45593999997E+02  0.45594000000E+02  0.51100000000E-03 0. -1.
         11   -1    0    0    0    0 -0.00000000000E+00 -0.00000000000E+00 -0.45593999997E+02  0.45594000000E+02  0.51100000000E-03 0.  1.
    9900012    2    1    2    0    0  0.14409698385E+02  0.15162204288E+02 -0.39894644726E+02  0.46142306263E+02  0.99998951510E+01 0.  0.
         12    1    1    2    0    0 -0.14409698385E+02 -0.15162204288E+02  0.39894644726E+02  0.45045693737E+02  0.00000000000E+00 0. -1.
         11    1    3    3    0    0  0.28408644795E+01  0.58071890982E+00 -0.82737251046E+01  0.87671131401E+01  0.51100000000E-03 0. -1.
        -11    1    3    3    0    0  0.52864145126E+01  0.33223671515E+01 -0.15649331598E+02  0.16848913366E+02  0.51100000000E-03 0.  1.
         12    1    3    3    0    0  0.62824193932E+01  0.11259118227E+02 -0.15971588024E+02  0.20526279757E+02  0.00000000000E+00 0. -1.
</event>
<event>
 7    1  0.8398055E-009  0.4614232E+02  0.7816164E-02  0.1320468E+00
        -11   -1    0    0    0    0  0.00000000000E+00  0.00000000000E+00  0.45593999997E+02  0.45594000000E+02  0.51100000000E-03 0. -1.
         11   -1    0    0    0    0 -0.00000000000E+00 -0.00000000000E+00 -0.45593999997E+02  0.45594000000E+02  0.51100000000E-03 0.  1.
    9900012    2    1    2    0    0 -0.12520785944E+02 -0.94298647315E+01  0.42230569836E+02  0.46142318096E+02  0.10000003054E+02 0.  0.
        -12    1    1    2    0    0  0.12520785944E+02  0.94298647315E+01 -0.42230569836E+02  0.45045681904E+02  0.00000000000E+00 0.  1.
         11    1    3    3    0    0 -0.32871967506E+01 -0.20842769789E+01  0.17707351026E+02  0.18130089730E+02  0.51100000000E-03 0. -1.
        -11    1    3    3    0    0 -0.73812131292E+01 -0.18698357463E+01  0.11887880551E+02  0.14117375721E+02  0.51100000000E-03 0.  1.
        -12    1    3    3    0    0 -0.18523760647E+01 -0.54757520063E+01  0.12635338258E+02  0.13894852645E+02  0.00000000000E+00 0.  1.
</event>
<event>
 7    1  0.8398055E-009  0.4614232E+02  0.7816164E-02  0.1320468E+00
        -11   -1    0    0    0    0  0.00000000000E+00  0.00000000000E+00  0.45593999997E+02  0.45594000000E+02  0.51100000000E-03 0. -1.
         11   -1    0    0    0    0 -0.00000000000E+00 -0.00000000000E+00 -0.45593999997E+02  0.45594000000E+02  0.51100000000E-03 0.  1.
    9900012    2    1    2    0    0  0.63471971764E+01  0.41783834801E+02 -0.15586458859E+02  0.46142318049E+02  0.10000002624E+02 0.  0.
         12    1    1    2    0    0 -0.63471971764E+01 -0.41783834801E+02  0.15586458859E+02  0.45045681951E+02  0.00000000000E+00 0. -1.
         11    1    3    3    0    0 -0.57950494028E+00  0.18543018730E+01 -0.24952942261E+01  0.31623970257E+01  0.51100000000E-03 0. -1.
        -11    1    3    3    0    0  0.60874319887E+01  0.18361050269E+02 -0.66380118770E+01  0.20451117259E+02  0.51100000000E-03 0.  1.
        -12    1    3    3    0    0  0.83927012804E+00  0.21568482659E+02 -0.64531527554E+01  0.22528803764E+02  0.00000000000E+00 0.  1.
</event>
<event>
 7    1  0.8398055E-009  0.4614232E+02  0.7816164E-02  0.1320468E+00
        -11   -1    0    0    0    0  0.00000000000E+00  0.00000000000E+00  0.45593999997E+02  0.45594000000E+02  0.51100000000E-03 0.  1.
         11   -1    0    0    0    0 -0.00000000000E+00 -0.00000000000E+00 -0.45593999997E+02  0.45594000000E+02  0.51100000000E-03 0. -1.
    9900012    2    1    2    0    0  0.10904593586E+02  0.42923874698E+02  0.82306995078E+01  0.46142316580E+02  0.99999892320E+01 0.  0.
        -12    1    1    2    0    0 -0.10904593586E+02 -0.42923874698E+02 -0.82306995078E+01  0.45045683420E+02  0.00000000000E+00 0.  1.
         11    1    3    3    0    0  0.97897404002E+01  0.26646175865E+02  0.46356004364E+01  0.28763631499E+02  0.51100000000E-03 0. -1.
        -11    1    3    3    0    0  0.31267701958E+00  0.15572271975E+02  0.23723623810E+01  0.15755047601E+02  0.51100000000E-03 0.  1.
        -12    1    3    3    0    0  0.80217616601E+00  0.70542685780E+00  0.12227366905E+01  0.16236374802E+01  0.00000000000E+00 0.  1.
</event>
<event>
 7    1  0.8398055E-009  0.4614232E+02  0.7816164E-02  0.1320468E+00
        -11   -1    0    0    0    0  0.00000000000E+00  0.00000000000E+00  0.45593999997E+02  0.45594000000E+02  0.51100000000E-03 0. -1.
         11   -1    0    0    0    0 -0.00000000000E+00 -0.00000000000E+00 -0.45593999997E+02  0.45594000000E+02  0.51100000000E-03 0.  1.
    9900012    2    1    2    0    0  0.29388051726E+02 -0.17581653178E+02 -0.29263306404E+02  0.46142320802E+02  0.10000027731E+02 0.  0.
         12    1    1    2    0    0 -0.29388051726E+02  0.17581653178E+02  0.29263306404E+02  0.45045679198E+02  0.00000000000E+00 0. -1.
         11    1    3    3    0    0  0.85220516835E+01 -0.95626884596E+01 -0.10737463384E+02  0.16714170504E+02  0.51100000000E-03 0. -1.
        -11    1    3    3    0    0  0.65116457804E+01 -0.45597498597E+00 -0.40331818503E+01  0.76730697935E+01  0.51100000000E-03 0.  1.
        -12    1    3    3    0    0  0.14354354262E+02 -0.75629897327E+01 -0.14492661170E+02  0.21755080504E+02  0.00000000000E+00 0.  1.
</event>
<event>
 7    1  0.8398055E-009  0.4614232E+02  0.7816164E-02  0.1320468E+00
        -11   -1    0    0    0    0  0.00000000000E+00  0.00000000000E+00  0.45593999997E+02  0.45594000000E+02  0.51100000000E-03 0. -1.
         11   -1    0    0    0    0 -0.00000000000E+00 -0.00000000000E+00 -0.45593999997E+02  0.45594000000E+02  0.51100000000E-03 0.  1.
    9900012    2    1    2    0    0  0.33358329702E+02 -0.15101224585E+02 -0.26235249395E+02  0.46142318129E+02  0.10000003352E+02 0.  0.
         12    1    1    2    0    0 -0.33358329702E+02  0.15101224585E+02  0.26235249395E+02  0.45045681871E+02  0.00000000000E+00 0. -1.
         11    1    3    3    0    0  0.88154853346E+01 -0.63363756013E+01 -0.55233229918E+01  0.12180703370E+02  0.51100000000E-03 0. -1.
        -11    1    3    3    0    0  0.22044665375E+02 -0.56703497886E+01 -0.18923349636E+02  0.29600900323E+02  0.51100000000E-03 0.  1.
         12    1    3    3    0    0  0.24981789919E+01 -0.30944991948E+01 -0.17885767672E+01  0.43607144362E+01  0.00000000000E+00 0. -1.
</event>
<event>
 7    1  0.8398055E-009  0.4614232E+02  0.7816164E-02  0.1320468E+00
        -11   -1    0    0    0    0  0.00000000000E+00  0.00000000000E+00  0.45593999997E+02  0.45594000000E+02  0.51100000000E-03 0.  1.
         11   -1    0    0    0    0 -0.00000000000E+00 -0.00000000000E+00 -0.45593999997E+02  0.45594000000E+02  0.51100000000E-03 0. -1.
    9900012    2    1    2    0    0 -0.27316349488E+02 -0.30964691886E+02 -0.18003284447E+02  0.46142319366E+02  0.10000014632E+02 0.  0.
         12    1    1    2    0    0  0.27316349488E+02  0.30964691886E+02  0.18003284447E+02  0.45045680634E+02  0.00000000000E+00 0. -1.
         11    1    3    3    0    0 -0.68789647751E+01 -0.46803495025E+01 -0.18030796833E+01  0.85133380321E+01  0.51100000000E-03 0. -1.
        -11    1    3    3    0    0 -0.36548522891E+01 -0.16375455952E+01 -0.85966655784E+00  0.40961601144E+01  0.51100000000E-03 0.  1.
         12    1    3    3    0    0 -0.16782532424E+02 -0.24646796788E+02 -0.15340538206E+02  0.33532821219E+02  0.00000000000E+00 0. -1.
</event>
<event>
 7    1  0.8398055E-009  0.4614232E+02  0.7816164E-02  0.1320468E+00
        -11   -1    0    0    0    0  0.00000000000E+00  0.00000000000E+00  0.45593999997E+02  0.45594000000E+02  0.51100000000E-03 0. -1.
         11   -1    0    0    0    0 -0.00000000000E+00 -0.00000000000E+00 -0.45593999997E+02  0.45594000000E+02  0.51100000000E-03 0.  1.
    9900012    2    1    2    0    0  0.23440715344E+01  0.28402833884E+01  0.44894894756E+02  0.46142318117E+02  0.10000003250E+02 0.  0.
        -12    1    1    2    0    0 -0.23440715344E+01 -0.28402833884E+01 -0.44894894756E+02  0.45045681883E+02  0.00000000000E+00 0.  1.
         11    1    3    3    0    0  0.20543138965E+01 -0.34662928291E+01  0.15263702792E+02  0.15786577043E+02  0.51100000000E-03 0. -1.
        -11    1    3    3    0    0  0.81764963280E+00  0.14625548141E+01  0.92169035686E+01  0.93679735888E+01  0.51100000000E-03 0.  1.
        -12    1    3    3    0    0 -0.52789199497E+00  0.48440214035E+01  0.20414288396E+02  0.20987767486E+02  0.00000000000E+00 0.  1.
</event>
<event>
 7    1  0.8398055E-009  0.4614232E+02  0.7816164E-02  0.1320468E+00
        -11   -1    0    0    0    0  0.00000000000E+00  0.00000000000E+00  0.45593999997E+02  0.45594000000E+02  0.51100000000E-03 0.  1.
         11   -1    0    0    0    0 -0.00000000000E+00 -0.00000000000E+00 -0.45593999997E+02  0.45594000000E+02  0.51100000000E-03 0. -1.
    9900012    2    1    2    0    0  0.38907032761E+02  0.20806323495E+02 -0.90803729826E+01  0.46142317975E+02  0.10000001947E+02 0.  0.
         12    1    1    2    0    0 -0.38907032761E+02 -0.20806323495E+02  0.90803729826E+01  0.45045682025E+02  0.00000000000E+00 0. -1.
         11    1    3    3    0    0  0.43513666537E+01 -0.20445538441E-01  0.19479710481E-03  0.43514147210E+01  0.51100000000E-03 0. -1.
        -11    1    3    3    0    0  0.14289865202E+02  0.12110215630E+02 -0.42615370098E+01  0.19209848204E+02  0.51100000000E-03 0.  1.
        -12    1    3    3    0    0  0.20265800905E+02  0.87165534035E+01 -0.48190307700E+01  0.22581055049E+02  0.00000000000E+00 0.  1.
</event>
<event>
 7    1  0.8398055E-009  0.4614232E+02  0.7816164E-02  0.1320468E+00
        -11   -1    0    0    0    0  0.00000000000E+00  0.00000000000E+00  0.45593999997E+02  0.45594000000E+02  0.51100000000E-03 0. -1.
         11   -1    0    0    0    0 -0.00000000000E+00 -0.00000000000E+00 -0.45593999997E+02  0.45594000000E+02  0.51100000000E-03 0.  1.
    9900012    2    1    2    0    0  0.15966278799E+02  0.25332185550E+02  0.33652217621E+02  0.46142318362E+02  0.10000005482E+02 0.  0.
        -12    1    1    2    0    0 -0.15966278799E+02 -0.25332185550E+02 -0.33652217621E+02  0.45045681638E+02  0.00000000000E+00 0.  1.
         11    1    3    3    0    0  0.94118416134E+00  0.19503050513E+01  0.48535360554E+01  0.53147276431E+01  0.51100000000E-03 0. -1.
        -11    1    3    3    0    0 -0.88779773397E+00  0.38478416444E+00  0.11271129036E+01  0.14854721230E+01  0.51100000000E-03 0.  1.
         12    1    3    3    0    0  0.15912892372E+02  0.22997096334E+02  0.27671568662E+02  0.39342118596E+02  0.00000000000E+00 0. -1.
</event>
<event>
 7    1  0.8398055E-009  0.4614232E+02  0.7816164E-02  0.1320468E+00
        -11   -1    0    0    0    0  0.00000000000E+00  0.00000000000E+00  0.45593999997E+02  0.45594000000E+02  0.51100000000E-03 0. -1.
         11   -1    0    0    0    0 -0.00000000000E+00 -0.00000000000E+00 -0.45593999997E+02  0.45594000000E+02  0.51100000000E-03 0.  1.
    9900012    2    1    2    0    0  0.24704952420E+02 -0.50368563940E+01 -0.37328391952E+02  0.46142318275E+02  0.10000004683E+02 0.  0.
         12    1    1    2    0    0 -0.24704952420E+02  0.50368563940E+01  0.37328391952E+02  0.45045681725E+02  0.00000000000E+00 0. -1.
         11    1    3    3    0    0 -0.26605601443E-01 -0.10593658835E+01 -0.86829689519E+00  0.13700013476E+01  0.51100000000E-03 0. -1.
        -11    1    3    3    0    0  0.14224488886E+02 -0.94783397499E+00 -0.25934771956E+02  0.29594710169E+02  0.51100000000E-03 0.  1.
        -12    1    3    3    0    0  0.10507069135E+02 -0.30296565355E+01 -0.10525323100E+02  0.15177606758E+02  0.00000000000E+00 0.  1.
</event>
<event>
 7    1  0.8398055E-009  0.4614232E+02  0.7816164E-02  0.1320468E+00
        -11   -1    0    0    0    0  0.00000000000E+00  0.00000000000E+00  0.45593999997E+02  0.45594000000E+02  0.51100000000E-03 0. -1.
         11   -1    0    0    0    0 -0.00000000000E+00 -0.00000000000E+00 -0.45593999997E+02  0.45594000000E+02  0.51100000000E-03 0.  1.
    9900012    2    1    2    0    0  0.25294915912E+02 -0.17185912498E+02  0.33074538245E+02  0.46142318303E+02  0.10000004944E+02 0.  0.
        -12    1    1    2    0    0 -0.25294915912E+02  0.17185912498E+02 -0.33074538245E+02  0.45045681697E+02  0.00000000000E+00 0.  1.
         11    1    3    3    0    0  0.82289314673E+01 -0.91235206338E+01  0.12994025278E+02  0.17882914613E+02  0.51100000000E-03 0. -1.
        -11    1    3    3    0    0  0.55656965826E+01 -0.39010572404E+01  0.34673839366E+01  0.76300706201E+01  0.51100000000E-03 0.  1.
        -12    1    3    3    0    0  0.11500287862E+02 -0.41613346239E+01  0.16613129030E+02  0.20629333071E+02  0.00000000000E+00 0.  1.
</event>
<event>
 7    1  0.8398055E-009  0.4614232E+02  0.7816164E-02  0.1320468E+00
        -11   -1    0    0    0    0  0.00000000000E+00  0.00000000000E+00  0.45593999997E+02  0.45594000000E+02  0.51100000000E-03 0. -1.
         11   -1    0    0    0    0 -0.00000000000E+00 -0.00000000000E+00 -0.45593999997E+02  0.45594000000E+02  0.51100000000E-03 0.  1.
    9900012    2    1    2    0    0 -0.20692069332E+02 -0.86933907269E+01  0.39056072593E+02  0.46142316722E+02  0.99999905256E+01 0.  0.
        -12    1    1    2    0    0  0.20692069332E+02  0.86933907269E+01 -0.39056072593E+02  0.45045683278E+02  0.00000000000E+00 0.  1.
         11    1    3    3    0    0 -0.28637504573E+01 -0.20170081156E+01  0.30791837504E+01  0.46637711404E+01  0.51100000000E-03 0.  1.
        -11    1    3    3    0    0 -0.17971566143E+02 -0.76804047600E+01  0.34896999572E+02  0.39997079723E+02  0.51100000000E-03 0. -1.
         12    1    3    3    0    0  0.14324726880E+00  0.10040221487E+01  0.10798892704E+01  0.14814658590E+01  0.00000000000E+00 0. -1.
</event>
<event>
 7    1  0.8398055E-009  0.4614232E+02  0.7816164E-02  0.1320468E+00
        -11   -1    0    0    0    0  0.00000000000E+00  0.00000000000E+00  0.45593999997E+02  0.45594000000E+02  0.51100000000E-03 0. -1.
         11   -1    0    0    0    0 -0.00000000000E+00 -0.00000000000E+00 -0.45593999997E+02  0.45594000000E+02  0.51100000000E-03 0.  1.
    9900012    2    1    2    0    0 -0.22084885060E+02 -0.69004311655E+01  0.38649131420E+02  0.46142318099E+02  0.10000003083E+02 0.  0.
        -12    1    1    2    0    0  0.22084885060E+02  0.69004311655E+01 -0.38649131420E+02  0.45045681901E+02  0.00000000000E+00 0.  1.
         11    1    3    3    0    0 -0.22369497222E+00  0.65955107741E+00 -0.12767607580E+00  0.70805967670E+00  0.51100000000E-03 0. -1.
        -11    1    3    3    0    0 -0.10995179595E+01 -0.17495558179E+01  0.43146349020E+01  0.47839272467E+01  0.51100000000E-03 0.  1.
         12    1    3    3    0    0 -0.20761672129E+02 -0.58104264251E+01  0.34462172594E+02  0.40650331176E+02  0.00000000000E+00 0. -1.
</event>
<event>
 7    1  0.8398055E-009  0.4614232E+02  0.7816164E-02  0.1320468E+00
        -11   -1    0    0    0    0  0.00000000000E+00  0.00000000000E+00  0.45593999997E+02  0.45594000000E+02  0.51100000000E-03 0. -1.
         11   -1    0    0    0    0 -0.00000000000E+00 -0.00000000000E+00 -0.45593999997E+02  0.45594000000E+02  0.51100000000E-03 0.  1.
    9900012    2    1    2    0    0  0.19732073878E+02 -0.16311340146E+02  0.37063444274E+02  0.46142318095E+02  0.10000003042E+02 0.  0.
        -12    1    1    2    0    0 -0.19732073878E+02  0.16311340146E+02 -0.37063444274E+02  0.45045681905E+02  0.00000000000E+00 0.  1.
         11    1    3    3    0    0  0.20717570498E+01 -0.34186880213E+01  0.10933506924E+02  0.11641356407E+02  0.51100000000E-03 0. -1.
        -11    1    3    3    0    0 -0.58138123249E-02 -0.12357710009E+01  0.71810984290E+00  0.14292815589E+01  0.51100000000E-03 0.  1.
         12    1    3    3    0    0  0.17666130641E+02 -0.11656881124E+02  0.25411827506E+02  0.33071680129E+02  0.00000000000E+00 0. -1.
</event>
<event>
 7    1  0.8398055E-009  0.4614231E+02  0.7816164E-02  0.1320468E+00
        -11   -1    0    0    0    0  0.00000000000E+00  0.00000000000E+00  0.45593999997E+02  0.45594000000E+02  0.51100000000E-03 0. -1.
         11   -1    0    0    0    0 -0.00000000000E+00 -0.00000000000E+00 -0.45593999997E+02  0.45594000000E+02  0.51100000000E-03 0.  1.
    9900012    2    1    2    0    0 -0.27809345380E+01 -0.11904820803E+02  0.43354997440E+02  0.46142310326E+02  0.99999321961E+01 0.  0.
        -12    1    1    2    0    0  0.27809345380E+01  0.11904820803E+02 -0.43354997440E+02  0.45045689674E+02  0.00000000000E+00 0.  1.
         11    1    3    3    0    0  0.10308186721E+01 -0.32251718029E+01  0.61720760087E+01  0.70398041742E+01  0.51100000000E-03 0. -1.
        -11    1    3    3    0    0  0.38657084138E+00 -0.30538931827E+01  0.33519850947E+01  0.45509894444E+01  0.51100000000E-03 0.  1.
         12    1    3    3    0    0 -0.41983240516E+01 -0.56257558175E+01  0.33830936336E+02  0.34551516707E+02  0.00000000000E+00 0. -1.
</event>
<event>
 7    1  0.8398055E-009  0.4614232E+02  0.7816164E-02  0.1320468E+00
        -11   -1    0    0    0    0  0.00000000000E+00  0.00000000000E+00  0.45593999997E+02  0.45594000000E+02  0.51100000000E-03 0. -1.
         11   -1    0    0    0    0 -0.00000000000E+00 -0.00000000000E+00 -0.45593999997E+02  0.45594000000E+02  0.51100000000E-03 0.  1.
    9900012    2    1    2    0    0 -0.38349883202E+02  0.20742218424E+02 -0.11320790640E+02  0.46142317993E+02  0.10000002115E+02 0.  0.
         12    1    1    2    0    0  0.38349883202E+02 -0.20742218424E+02  0.11320790640E+02  0.45045682007E+02  0.00000000000E+00 0. -1.
         11    1    3    3    0    0 -0.28384380014E+02  0.14289409957E+02 -0.85813855088E+01  0.32916567914E+02  0.51100000000E-03 0.  1.
        -11    1    3    3    0    0 -0.35554396473E+01  0.41120104071E+01 -0.33321354476E+01  0.63759632665E+01  0.51100000000E-03 0. -1.
         12    1    3    3    0    0 -0.64100635404E+01  0.23407980601E+01  0.59273031691E+00  0.68497868126E+01  0.00000000000E+00 0. -1.
</event>
<event>
 7    1  0.8398055E-009  0.4614232E+02  0.7816164E-02  0.1320468E+00
        -11   -1    0    0    0    0  0.00000000000E+00  0.00000000000E+00  0.45593999997E+02  0.45594000000E+02  0.51100000000E-03 0. -1.
         11   -1    0    0    0    0 -0.00000000000E+00 -0.00000000000E+00 -0.45593999997E+02  0.45594000000E+02  0.51100000000E-03 0.  1.
    9900012    2    1    2    0    0  0.10189120478E+02  0.41545523167E+02 -0.14116121788E+02  0.46142316903E+02  0.99999921743E+01 0.  0.
         12    1    1    2    0    0 -0.10189120478E+02 -0.41545523167E+02  0.14116121788E+02  0.45045683097E+02  0.00000000000E+00 0. -1.
         11    1    3    3    0    0  0.12073283963E+01  0.39594673285E+01  0.58111143387E+00  0.41800375766E+01  0.51100000000E-03 0. -1.
        -11    1    3    3    0    0  0.27771360624E+01  0.25866796876E+02 -0.10485693175E+02  0.28049125244E+02  0.51100000000E-03 0.  1.
         12    1    3    3    0    0  0.62046560192E+01  0.11719258962E+02 -0.42115400474E+01  0.13913154082E+02  0.00000000000E+00 0. -1.
</event>
<event>
 7    1  0.8398055E-009  0.4614232E+02  0.7816164E-02  0.1320468E+00
        -11   -1    0    0    0    0  0.00000000000E+00  0.00000000000E+00  0.45593999997E+02  0.45594000000E+02  0.51100000000E-03 0. -1.
         11   -1    0    0    0    0 -0.00000000000E+00 -0.00000000000E+00 -0.45593999997E+02  0.45594000000E+02  0.51100000000E-03 0.  1.
    9900012    2    1    2    0    0  0.17936589843E+02  0.96578004149E+01  0.40176102731E+02  0.46142316581E+02  0.99999892419E+01 0.  0.
        -12    1    1    2    0    0 -0.17936589843E+02 -0.96578004149E+01 -0.40176102731E+02  0.45045683419E+02  0.00000000000E+00 0.  1.
         11    1    3    3    0    0  0.47424962155E+01  0.32186782397E+01  0.20348720790E+02  0.21140520287E+02  0.51100000000E-03 0. -1.
        -11    1    3    3    0    0  0.41464753773E+01  0.31764924721E+01  0.44379616548E+01  0.68541131002E+01  0.51100000000E-03 0.  1.
         12    1    3    3    0    0  0.90476182499E+01  0.32626297032E+01  0.15389420286E+02  0.18147683194E+02  0.00000000000E+00 0. -1.
</event>
<event>
 7    1  0.8398055E-009  0.4614232E+02  0.7816164E-02  0.1320468E+00
        -11   -1    0    0    0    0  0.00000000000E+00  0.00000000000E+00  0.45593999997E+02  0.45594000000E+02  0.51100000000E-03 0. -1.
         11   -1    0    0    0    0 -0.00000000000E+00 -0.00000000000E+00 -0.45593999997E+02  0.45594000000E+02  0.51100000000E-03 0.  1.
    9900012    2    1    2    0    0  0.11269490460E+02  0.37980624576E+01 -0.43447518727E+02  0.46142316775E+02  0.99999910055E+01 0.  0.
         12    1    1    2    0    0 -0.11269490460E+02 -0.37980624576E+01  0.43447518727E+02  0.45045683225E+02  0.00000000000E+00 0. -1.
         11    1    3    3    0    0  0.51965336850E+01  0.64037016334E+00 -0.19740441303E+02  0.20423003192E+02  0.51100000000E-03 0.  1.
        -11    1    3    3    0    0  0.34513952632E+01 -0.57818763743E+00 -0.18354584558E+02  0.18685213533E+02  0.51100000000E-03 0. -1.
        -12    1    3    3    0    0  0.26215615123E+01  0.37358799317E+01 -0.53524928659E+01  0.70341000495E+01  0.00000000000E+00 0.  1.
</event>
<event>
 7    1  0.8398055E-009  0.4614232E+02  0.7816164E-02  0.1320468E+00
        -11   -1    0    0    0    0  0.00000000000E+00  0.00000000000E+00  0.45593999997E+02  0.45594000000E+02  0.51100000000E-03 0. -1.
         11   -1    0    0    0    0 -0.00000000000E+00 -0.00000000000E+00 -0.45593999997E+02  0.45594000000E+02  0.51100000000E-03 0.  1.
    9900012    2    1    2    0    0  0.94873997776E+01  0.10051924901E+01  0.44023770123E+02  0.46142317606E+02  0.99999985831E+01 0.  0.
        -12    1    1    2    0    0 -0.94873997776E+01 -0.10051924901E+01 -0.44023770123E+02  0.45045682394E+02  0.00000000000E+00 0.  1.
         11    1    3    3    0    0  0.28753860110E+00  0.18920090138E+01  0.60241092851E+01  0.63207807662E+01  0.51100000000E-03 0. -1.
        -11    1    3    3    0    0  0.47396408328E+01  0.23086473723E+01  0.10160344280E+02  0.11446687034E+02  0.51100000000E-03 0.  1.
         12    1    3    3    0    0  0.44602203436E+01 -0.31954638960E+01  0.27839316558E+02  0.28374849805E+02  0.00000000000E+00 0. -1.
</event>
<event>
 7    1  0.8398055E-009  0.4614232E+02  0.7816164E-02  0.1320468E+00
        -11   -1    0    0    0    0  0.00000000000E+00  0.00000000000E+00  0.45593999997E+02  0.45594000000E+02  0.51100000000E-03 0. -1.
         11   -1    0    0    0    0 -0.00000000000E+00 -0.00000000000E+00 -0.45593999997E+02  0.45594000000E+02  0.51100000000E-03 0.  1.
    9900012    2    1    2    0    0 -0.44693519579E+02 -0.55984782253E+01  0.50980627085E+00  0.46142317041E+02  0.99999934364E+01 0.  0.
         12    1    1    2    0    0  0.44693519579E+02  0.55984782253E+01 -0.50980627085E+00  0.45045682959E+02  0.00000000000E+00 0. -1.
         11    1    3    3    0    0 -0.49171292960E+01 -0.98721640196E+00 -0.18296308879E+01  0.53385678028E+01  0.51100000000E-03 0. -1.
        -11    1    3    3    0    0 -0.42044570130E+01 -0.26421416467E+01  0.14229326338E+01  0.51655695520E+01  0.51100000000E-03 0.  1.
        -12    1    3    3    0    0 -0.35571933270E+02 -0.19691201766E+01  0.91650452495E+00  0.35638179686E+02  0.00000000000E+00 0.  1.
</event>
<event>
 7    1  0.8398055E-009  0.4614232E+02  0.7816164E-02  0.1320468E+00
        -11   -1    0    0    0    0  0.00000000000E+00  0.00000000000E+00  0.45593999997E+02  0.45594000000E+02  0.51100000000E-03 0. -1.
         11   -1    0    0    0    0 -0.00000000000E+00 -0.00000000000E+00 -0.45593999997E+02  0.45594000000E+02  0.51100000000E-03 0.  1.
    9900012    2    1    2    0    0  0.15964917417E+02  0.32456610360E+02 -0.26847780736E+02  0.46142317914E+02  0.10000001395E+02 0.  0.
         12    1    1    2    0    0 -0.15964917417E+02 -0.32456610360E+02  0.26847780736E+02  0.45045682086E+02  0.00000000000E+00 0. -1.
         11    1    3    3    0    0  0.24813823652E+00  0.14100387426E+01 -0.29503282878E-01  0.14320099668E+01  0.51100000000E-03 0. -1.
        -11    1    3    3    0    0  0.49596029269E+01  0.80870585438E+01 -0.12162075459E+02  0.15424469418E+02  0.51100000000E-03 0.  1.
        -12    1    3    3    0    0  0.10757176253E+02  0.22959513073E+02 -0.14656201993E+02  0.29285838529E+02  0.00000000000E+00 0.  1.
</event>
<event>
 7    1  0.8398055E-009  0.4614232E+02  0.7816164E-02  0.1320468E+00
        -11   -1    0    0    0    0  0.00000000000E+00  0.00000000000E+00  0.45593999997E+02  0.45594000000E+02  0.51100000000E-03 0. -1.
         11   -1    0    0    0    0 -0.00000000000E+00 -0.00000000000E+00 -0.45593999997E+02  0.45594000000E+02  0.51100000000E-03 0.  1.
    9900012    2    1    2    0    0  0.13140064451E+02 -0.14821510345E+02  0.40457076643E+02  0.46142317486E+02  0.99999974893E+01 0.  0.
        -12    1    1    2    0    0 -0.13140064451E+02  0.14821510345E+02 -0.40457076643E+02  0.45045682514E+02  0.00000000000E+00 0.  1.
         11    1    3    3    0    0  0.76665103208E+01 -0.53617053919E+01  0.15060408971E+02  0.17729613189E+02  0.51100000000E-03 0. -1.
        -11    1    3    3    0    0  0.47798305988E+01 -0.66270178622E+01  0.10883315170E+02  0.13609213631E+02  0.51100000000E-03 0.  1.
         12    1    3    3    0    0  0.69372353161E+00 -0.28327870908E+01  0.14513352502E+02  0.14803490666E+02  0.00000000000E+00 0. -1.
</event>
<event>
 7    1  0.8398055E-009  0.4614232E+02  0.7816164E-02  0.1320468E+00
        -11   -1    0    0    0    0  0.00000000000E+00  0.00000000000E+00  0.45593999997E+02  0.45594000000E+02  0.51100000000E-03 0.  1.
         11   -1    0    0    0    0 -0.00000000000E+00 -0.00000000000E+00 -0.45593999997E+02  0.45594000000E+02  0.51100000000E-03 0. -1.
    9900012    2    1    2    0    0 -0.19366212704E+02  0.31264605233E+02  0.26011301017E+02  0.46142317460E+02  0.99999972548E+01 0.  0.
        -12    1    1    2    0    0  0.19366212704E+02 -0.31264605233E+02 -0.26011301017E+02  0.45045682540E+02  0.00000000000E+00 0.  1.
         11    1    3    3    0    0 -0.14445172926E+01  0.72195126645E+01  0.35609322496E+01  0.81785226092E+01  0.51100000000E-03 0.  1.
        -11    1    3    3    0    0 -0.30465141407E+01  0.53073443663E+01  0.18517572938E+01  0.63936028942E+01  0.51100000000E-03 0. -1.
         12    1    3    3    0    0 -0.14875181271E+02  0.18737748202E+02  0.20598611474E+02  0.31570191957E+02  0.00000000000E+00 0. -1.
</event>
<event>
 7    1  0.8398055E-009  0.4614231E+02  0.7816164E-02  0.1320468E+00
        -11   -1    0    0    0    0  0.00000000000E+00  0.00000000000E+00  0.45593999997E+02  0.45594000000E+02  0.51100000000E-03 0. -1.
         11   -1    0    0    0    0 -0.00000000000E+00 -0.00000000000E+00 -0.45593999997E+02  0.45594000000E+02  0.51100000000E-03 0.  1.
    9900012    2    1    2    0    0  0.42800142161E+02  0.13154300789E+02 -0.49219857087E+01  0.46142314951E+02  0.99999743713E+01 0.  0.
         12    1    1    2    0    0 -0.42800142161E+02 -0.13154300789E+02  0.49219857087E+01  0.45045685049E+02  0.00000000000E+00 0. -1.
         11    1    3    3    0    0  0.98881885024E+01 -0.84988998428E+00 -0.58646772980E+00  0.99419580316E+01  0.51100000000E-03 0. -1.
        -11    1    3    3    0    0  0.24511405062E+02  0.99867307446E+01 -0.46981313635E+01  0.26881521677E+02  0.51100000000E-03 0.  1.
        -12    1    3    3    0    0  0.84005485968E+01  0.40174600286E+01  0.36261338468E+00  0.93188352424E+01  0.00000000000E+00 0.  1.
</event>
<event>
 7    1  0.8398055E-009  0.4614232E+02  0.7816164E-02  0.1320468E+00
        -11   -1    0    0    0    0  0.00000000000E+00  0.00000000000E+00  0.45593999997E+02  0.45594000000E+02  0.51100000000E-03 0.  1.
         11   -1    0    0    0    0 -0.00000000000E+00 -0.00000000000E+00 -0.45593999997E+02  0.45594000000E+02  0.51100000000E-03 0. -1.
    9900012    2    1    2    0    0 -0.27674761959E+02  0.28873296997E+02 -0.20725678508E+02  0.46142317870E+02  0.10000000990E+02 0.  0.
         12    1    1    2    0    0  0.27674761959E+02 -0.28873296997E+02  0.20725678508E+02  0.45045682130E+02  0.00000000000E+00 0. -1.
         11    1    3    3    0    0 -0.11356273930E+02  0.77846910067E+01 -0.36543535561E+01  0.14245022703E+02  0.51100000000E-03 0.  1.
        -11    1    3    3    0    0 -0.41105518687E+00 -0.14885050036E-01  0.41062970354E-01  0.41336951995E+00  0.51100000000E-03 0. -1.
         12    1    3    3    0    0 -0.15907432843E+02  0.21103491040E+02 -0.17112387922E+02  0.31483925647E+02  0.00000000000E+00 0. -1.
</event>
<event>
 7    1  0.8398055E-009  0.4614232E+02  0.7816164E-02  0.1320468E+00
        -11   -1    0    0    0    0  0.00000000000E+00  0.00000000000E+00  0.45593999997E+02  0.45594000000E+02  0.51100000000E-03 0. -1.
         11   -1    0    0    0    0 -0.00000000000E+00 -0.00000000000E+00 -0.45593999997E+02  0.45594000000E+02  0.51100000000E-03 0.  1.
    9900012    2    1    2    0    0  0.25171742661E+02 -0.36152821837E+02  0.94058597206E+01  0.46142319270E+02  0.10000013761E+02 0.  0.
        -12    1    1    2    0    0 -0.25171742661E+02  0.36152821837E+02 -0.94058597206E+01  0.45045680730E+02  0.00000000000E+00 0.  1.
         11    1    3    3    0    0  0.84836735501E+01 -0.13044484698E+02  0.45481769199E+01  0.16211638150E+02  0.51100000000E-03 0. -1.
        -11    1    3    3    0    0  0.23667998320E+01 -0.27419562900E+01  0.34359348736E+01  0.49925659192E+01  0.51100000000E-03 0.  1.
         12    1    3    3    0    0  0.14321269278E+02 -0.20366380849E+02  0.14217479270E+01  0.24938115201E+02  0.00000000000E+00 0. -1.
</event>
<event>
 7    1  0.8398055E-009  0.4614232E+02  0.7816164E-02  0.1320468E+00
        -11   -1    0    0    0    0  0.00000000000E+00  0.00000000000E+00  0.45593999997E+02  0.45594000000E+02  0.51100000000E-03 0.  1.
         11   -1    0    0    0    0 -0.00000000000E+00 -0.00000000000E+00 -0.45593999997E+02  0.45594000000E+02  0.51100000000E-03 0. -1.
    9900012    2    1    2    0    0  0.20851886486E+02 -0.38450381380E+02 -0.10764778675E+02  0.46142318096E+02  0.10000003054E+02 0.  0.
         12    1    1    2    0    0 -0.20851886486E+02  0.38450381380E+02  0.10764778675E+02  0.45045681904E+02  0.00000000000E+00 0. -1.
         11    1    3    3    0    0  0.10254209792E+02 -0.13815216851E+02 -0.58039353871E+01  0.18157497111E+02  0.51100000000E-03 0. -1.
        -11    1    3    3    0    0  0.57682664851E+01 -0.11702585929E+02 -0.55245864620E+01  0.14168432218E+02  0.51100000000E-03 0.  1.
         12    1    3    3    0    0  0.48294102087E+01 -0.12932578599E+02  0.56374317392E+00  0.13816388767E+02  0.00000000000E+00 0. -1.
</event>
<event>
 7    1  0.8398055E-009  0.4614232E+02  0.7816164E-02  0.1320468E+00
        -11   -1    0    0    0    0  0.00000000000E+00  0.00000000000E+00  0.45593999997E+02  0.45594000000E+02  0.51100000000E-03 0. -1.
         11   -1    0    0    0    0 -0.00000000000E+00 -0.00000000000E+00 -0.45593999997E+02  0.45594000000E+02  0.51100000000E-03 0.  1.
    9900012    2    1    2    0    0 -0.46773901491E+01 -0.89322107594E+01 -0.43902746091E+02  0.46142317832E+02  0.10000000642E+02 0.  0.
         12    1    1    2    0    0  0.46773901491E+01  0.89322107594E+01  0.43902746091E+02  0.45045682168E+02  0.00000000000E+00 0. -1.
         11    1    3    3    0    0 -0.67254446209E+00 -0.51012671734E+00  0.16641693308E+00  0.86037211598E+00  0.51100000000E-03 0. -1.
        -11    1    3    3    0    0 -0.22307771063E+01 -0.60698190282E+00 -0.12463283217E+02  0.12675891382E+02  0.51100000000E-03 0.  1.
         12    1    3    3    0    0 -0.17740685807E+01 -0.78151021392E+01 -0.31605879808E+02  0.32606054333E+02  0.00000000000E+00 0. -1.
</event>
<event>
 7    1  0.8398055E-009  0.4614232E+02  0.7816164E-02  0.1320468E+00
        -11   -1    0    0    0    0  0.00000000000E+00  0.00000000000E+00  0.45593999997E+02  0.45594000000E+02  0.51100000000E-03 0. -1.
         11   -1    0    0    0    0 -0.00000000000E+00 -0.00000000000E+00 -0.45593999997E+02  0.45594000000E+02  0.51100000000E-03 0.  1.
    9900012    2    1    2    0    0  0.17485150789E+02  0.24463410506E+02  0.33539893392E+02  0.46142318738E+02  0.10000008905E+02 0.  0.
        -12    1    1    2    0    0 -0.17485150789E+02 -0.24463410506E+02 -0.33539893392E+02  0.45045681262E+02  0.00000000000E+00 0.  1.
         11    1    3    3    0    0  0.57944893166E+01  0.10347822863E+02  0.14930366867E+02  0.19067495889E+02  0.51100000000E-03 0. -1.
        -11    1    3    3    0    0  0.46821643478E+01  0.10066079183E+01  0.49372780384E+01  0.68784182172E+01  0.51100000000E-03 0.  1.
        -12    1    3    3    0    0  0.70084971243E+01  0.13108979725E+02  0.13672248486E+02  0.20196404631E+02  0.00000000000E+00 0.  1.
</event>
<event>
 7    1  0.8398055E-009  0.4614232E+02  0.7816164E-02  0.1320468E+00
        -11   -1    0    0    0    0  0.00000000000E+00  0.00000000000E+00  0.45593999997E+02  0.45594000000E+02  0.51100000000E-03 0. -1.
         11   -1    0    0    0    0 -0.00000000000E+00 -0.00000000000E+00 -0.45593999997E+02  0.45594000000E+02  0.51100000000E-03 0.  1.
    9900012    2    1    2    0    0 -0.78557036197E+00  0.63475626934E+01  0.44589289308E+02  0.46142318809E+02  0.10000009555E+02 0.  0.
        -12    1    1    2    0    0  0.78557036197E+00 -0.63475626934E+01 -0.44589289308E+02  0.45045681191E+02  0.00000000000E+00 0.  1.
         11    1    3    3    0    0 -0.27133598977E+01  0.36061674151E+01  0.10211888600E+02  0.11164651110E+02  0.51100000000E-03 0. -1.
        -11    1    3    3    0    0  0.15136288305E+01 -0.15026973557E+01  0.13712328274E+02  0.13877215806E+02  0.51100000000E-03 0.  1.
        -12    1    3    3    0    0  0.41416070524E+00  0.42440926339E+01  0.20665072434E+02  0.21100451893E+02  0.00000000000E+00 0.  1.
</event>
<event>
 7    1  0.8398055E-009  0.4614232E+02  0.7816164E-02  0.1320468E+00
        -11   -1    0    0    0    0  0.00000000000E+00  0.00000000000E+00  0.45593999997E+02  0.45594000000E+02  0.51100000000E-03 0. -1.
         11   -1    0    0    0    0 -0.00000000000E+00 -0.00000000000E+00 -0.45593999997E+02  0.45594000000E+02  0.51100000000E-03 0.  1.
    9900012    2    1    2    0    0 -0.21809404198E+02  0.42766436229E+01  0.39181293503E+02  0.46142317047E+02  0.99999934838E+01 0.  0.
        -12    1    1    2    0    0  0.21809404198E+02 -0.42766436229E+01 -0.39181293503E+02  0.45045682953E+02  0.00000000000E+00 0.  1.
         11    1    3    3    0    0 -0.14649050708E+02  0.45118434724E+01  0.24880937350E+02  0.29223491610E+02  0.51100000000E-03 0. -1.
        -11    1    3    3    0    0 -0.72282860844E+01 -0.50466475476E+00  0.87463891847E+01  0.11357910471E+02  0.51100000000E-03 0.  1.
         12    1    3    3    0    0  0.67932594706E-01  0.26946490530E+00  0.55539669684E+01  0.55609149659E+01  0.00000000000E+00 0. -1.
</event>
<event>
 7    1  0.8398055E-009  0.4614232E+02  0.7816164E-02  0.1320468E+00
        -11   -1    0    0    0    0  0.00000000000E+00  0.00000000000E+00  0.45593999997E+02  0.45594000000E+02  0.51100000000E-03 0. -1.
         11   -1    0    0    0    0 -0.00000000000E+00 -0.00000000000E+00 -0.45593999997E+02  0.45594000000E+02  0.51100000000E-03 0.  1.
    9900012    2    1    2    0    0 -0.19386433088E+02 -0.40098133897E+02 -0.67393691687E+01  0.46142320665E+02  0.10000026482E+02 0.  0.
         12    1    1    2    0    0  0.19386433088E+02  0.40098133897E+02  0.67393691687E+01  0.45045679335E+02  0.00000000000E+00 0. -1.
         11    1    3    3    0    0 -0.56937319220E+01 -0.54588207046E+01 -0.85227378789E+00  0.79337051594E+01  0.51100000000E-03 0. -1.
        -11    1    3    3    0    0 -0.13693915718E+02 -0.31354695473E+02 -0.40726426874E+01  0.34456155830E+02  0.51100000000E-03 0.  1.
        -12    1    3    3    0    0  0.12145514059E-02 -0.32846177202E+01 -0.18144526934E+01  0.37524596759E+01  0.00000000000E+00 0.  1.
</event>
<event>
 7    1  0.8398055E-009  0.4614232E+02  0.7816164E-02  0.1320468E+00
        -11   -1    0    0    0    0  0.00000000000E+00  0.00000000000E+00  0.45593999997E+02  0.45594000000E+02  0.51100000000E-03 0. -1.
         11   -1    0    0    0    0 -0.00000000000E+00 -0.00000000000E+00 -0.45593999997E+02  0.45594000000E+02  0.51100000000E-03 0.  1.
    9900012    2    1    2    0    0 -0.28549186652E+01  0.22739730578E+02  0.38779728976E+02  0.46142319999E+02  0.10000020403E+02 0.  0.
        -12    1    1    2    0    0  0.28549186652E+01 -0.22739730578E+02 -0.38779728976E+02  0.45045680001E+02  0.00000000000E+00 0.  1.
         11    1    3    3    0    0 -0.23686079450E+01  0.12092365530E+02  0.25862158531E+02  0.28647632570E+02  0.51100000000E-03 0. -1.
        -11    1    3    3    0    0 -0.52647561004E+00  0.43876409006E+01  0.92200486124E+01  0.10224376065E+02  0.51100000000E-03 0.  1.
        -12    1    3    3    0    0  0.40164889820E-01  0.62597241479E+01  0.36975218320E+01  0.72703113636E+01  0.00000000000E+00 0.  1.
</event>
<event>
 7    1  0.8398055E-009  0.4614232E+02  0.7816164E-02  0.1320468E+00
        -11   -1    0    0    0    0  0.00000000000E+00  0.00000000000E+00  0.45593999997E+02  0.45594000000E+02  0.51100000000E-03 0. -1.
         11   -1    0    0    0    0 -0.00000000000E+00 -0.00000000000E+00 -0.45593999997E+02  0.45594000000E+02  0.51100000000E-03 0.  1.
    9900012    2    1    2    0    0  0.88307891700E+01  0.15455426501E+02 -0.41379469213E+02  0.46142317432E+02  0.99999969965E+01 0.  0.
         12    1    1    2    0    0 -0.88307891700E+01 -0.15455426501E+02  0.41379469213E+02  0.45045682568E+02  0.00000000000E+00 0. -1.
         11    1    3    3    0    0  0.57393565451E+01  0.52505384907E+01 -0.12155235483E+02  0.14431150955E+02  0.51100000000E-03 0. -1.
        -11    1    3    3    0    0  0.80334339012E+00  0.47122871437E+01 -0.21137438756E+02  0.21671232732E+02  0.51100000000E-03 0.  1.
        -12    1    3    3    0    0  0.22880892349E+01  0.54926008664E+01 -0.80867949748E+01  0.10039933744E+02  0.00000000000E+00 0.  1.
</event>
<event>
 7    1  0.8398055E-009  0.4614232E+02  0.7816164E-02  0.1320468E+00
        -11   -1    0    0    0    0  0.00000000000E+00  0.00000000000E+00  0.45593999997E+02  0.45594000000E+02  0.51100000000E-03 0. -1.
         11   -1    0    0    0    0 -0.00000000000E+00 -0.00000000000E+00 -0.45593999997E+02  0.45594000000E+02  0.51100000000E-03 0.  1.
    9900012    2    1    2    0    0 -0.22374600654E+02  0.39080309541E+02  0.11046023231E+01  0.46142317693E+02  0.99999993781E+01 0.  0.
        -12    1    1    2    0    0  0.22374600654E+02 -0.39080309541E+02 -0.11046023231E+01  0.45045682307E+02  0.00000000000E+00 0.  1.
         11    1    3    3    0    0 -0.10400657125E+02  0.18233860256E+02 -0.29170891289E+01  0.21193318233E+02  0.51100000000E-03 0. -1.
        -11    1    3    3    0    0 -0.10505535789E+02  0.20266215315E+02  0.45649299520E+01  0.23279268698E+02  0.51100000000E-03 0.  1.
        -12    1    3    3    0    0 -0.14684077397E+01  0.58023397044E+00 -0.54323850001E+00  0.16697307622E+01  0.00000000000E+00 0.  1.
</event>
<event>
 7    1  0.8398055E-009  0.4614232E+02  0.7816164E-02  0.1320468E+00
        -11   -1    0    0    0    0  0.00000000000E+00  0.00000000000E+00  0.45593999997E+02  0.45594000000E+02  0.51100000000E-03 0. -1.
         11   -1    0    0    0    0 -0.00000000000E+00 -0.00000000000E+00 -0.45593999997E+02  0.45594000000E+02  0.51100000000E-03 0.  1.
    9900012    2    1    2    0    0 -0.10943080751E+00 -0.15683173461E+02  0.42227236966E+02  0.46142318224E+02  0.10000004218E+02 0.  0.
        -12    1    1    2    0    0  0.10943080751E+00  0.15683173461E+02 -0.42227236966E+02  0.45045681776E+02  0.00000000000E+00 0.  1.
         11    1    3    3    0    0  0.41816328052E+01 -0.80642526516E+01  0.21491222983E+02  0.23332185695E+02  0.51100000000E-03 0. -1.
        -11    1    3    3    0    0 -0.32302279289E+01 -0.61601256107E+01  0.11830456953E+02  0.13723747010E+02  0.51100000000E-03 0.  1.
         12    1    3    3    0    0 -0.10608356837E+01 -0.14587951985E+01  0.89055570298E+01  0.90863855185E+01  0.00000000000E+00 0. -1.
</event>
<event>
 7    1  0.8398055E-009  0.4614232E+02  0.7816164E-02  0.1320468E+00
        -11   -1    0    0    0    0  0.00000000000E+00  0.00000000000E+00  0.45593999997E+02  0.45594000000E+02  0.51100000000E-03 0. -1.
         11   -1    0    0    0    0 -0.00000000000E+00 -0.00000000000E+00 -0.45593999997E+02  0.45594000000E+02  0.51100000000E-03 0.  1.
    9900012    2    1    2    0    0  0.60424096521E+01  0.19514755832E+02 -0.40146943317E+02  0.46142317995E+02  0.10000002136E+02 0.  0.
         12    1    1    2    0    0 -0.60424096521E+01 -0.19514755832E+02  0.40146943317E+02  0.45045682005E+02  0.00000000000E+00 0. -1.
         11    1    3    3    0    0  0.20648753565E+01  0.14145119596E+01 -0.10138235503E+02  0.10442622932E+02  0.51100000000E-03 0. -1.
        -11    1    3    3    0    0  0.37966571782E+01  0.57376609264E+01 -0.12452991018E+02  0.14227169226E+02  0.51100000000E-03 0.  1.
         12    1    3    3    0    0  0.18087711741E+00  0.12362582946E+02 -0.17555716796E+02  0.21472525838E+02  0.00000000000E+00 0. -1.
</event>
<event>
 7    1  0.8398055E-009  0.4614232E+02  0.7816164E-02  0.1320468E+00
        -11   -1    0    0    0    0  0.00000000000E+00  0.00000000000E+00  0.45593999997E+02  0.45594000000E+02  0.51100000000E-03 0. -1.
         11   -1    0    0    0    0 -0.00000000000E+00 -0.00000000000E+00 -0.45593999997E+02  0.45594000000E+02  0.51100000000E-03 0.  1.
    9900012    2    1    2    0    0 -0.39516055650E+02 -0.49557143558E+01  0.21048417303E+02  0.46142316190E+02  0.99999856759E+01 0.  0.
        -12    1    1    2    0    0  0.39516055650E+02  0.49557143558E+01 -0.21048417303E+02  0.45045683810E+02  0.00000000000E+00 0.  1.
         11    1    3    3    0    0 -0.13302366353E+02 -0.20195545563E+01  0.42419067218E+01  0.14107633540E+02  0.51100000000E-03 0. -1.
        -11    1    3    3    0    0 -0.22506015643E+02 -0.34922139230E+01  0.11436712744E+02  0.25485578213E+02  0.51100000000E-03 0.  1.
        -12    1    3    3    0    0 -0.37076736540E+01  0.55605412351E+00  0.53697978381E+01  0.65491044376E+01  0.00000000000E+00 0.  1.
</event>
<event>
 7    1  0.8398055E-009  0.4614232E+02  0.7816164E-02  0.1320468E+00
        -11   -1    0    0    0    0  0.00000000000E+00  0.00000000000E+00  0.45593999997E+02  0.45594000000E+02  0.51100000000E-03 0. -1.
         11   -1    0    0    0    0 -0.00000000000E+00 -0.00000000000E+00 -0.45593999997E+02  0.45594000000E+02  0.51100000000E-03 0.  1.
    9900012    2    1    2    0    0 -0.22450033425E+02  0.36585818642E+02  0.13659698558E+02  0.46142317730E+02  0.99999997149E+01 0.  0.
        -12    1    1    2    0    0  0.22450033425E+02 -0.36585818642E+02 -0.13659698558E+02  0.45045682270E+02  0.00000000000E+00 0.  1.
         11    1    3    3    0    0 -0.36540262735E+00  0.16132448618E+00 -0.74743159383E+00  0.84746617542E+00  0.51100000000E-03 0. -1.
        -11    1    3    3    0    0 -0.60202431300E+01  0.12071708372E+02  0.21907460871E+01  0.13666339636E+02  0.51100000000E-03 0.  1.
         12    1    3    3    0    0 -0.16064387668E+02  0.24352785784E+02  0.12216384065E+02  0.31628511919E+02  0.00000000000E+00 0. -1.
</event>
<event>
 7    1  0.8398055E-009  0.4614231E+02  0.7816164E-02  0.1320468E+00
        -11   -1    0    0    0    0  0.00000000000E+00  0.00000000000E+00  0.45593999997E+02  0.45594000000E+02  0.51100000000E-03 0. -1.
         11   -1    0    0    0    0 -0.00000000000E+00 -0.00000000000E+00 -0.45593999997E+02  0.45594000000E+02  0.51100000000E-03 0.  1.
    9900012    2    1    2    0    0 -0.52658808712E+01  0.13895590513E+02 -0.42524073194E+02  0.46142314989E+02  0.99999747250E+01 0.  0.
         12    1    1    2    0    0  0.52658808712E+01 -0.13895590513E+02  0.42524073194E+02  0.45045685011E+02  0.00000000000E+00 0. -1.
         11    1    3    3    0    0 -0.14207066479E+01 -0.30086537563E+00 -0.28652931822E+01  0.32122939832E+01  0.51100000000E-03 0. -1.
        -11    1    3    3    0    0 -0.14705698263E+01  0.13803466101E+02 -0.31487731582E+02  0.34411851046E+02  0.51100000000E-03 0.  1.
        -12    1    3    3    0    0 -0.23746043970E+01  0.39298978805E+00 -0.81710484300E+01  0.85181699596E+01  0.00000000000E+00 0.  1.
</event>
<event>
 7    1  0.8398055E-009  0.4614232E+02  0.7816164E-02  0.1320468E+00
        -11   -1    0    0    0    0  0.00000000000E+00  0.00000000000E+00  0.45593999997E+02  0.45594000000E+02  0.51100000000E-03 0. -1.
         11   -1    0    0    0    0 -0.00000000000E+00 -0.00000000000E+00 -0.45593999997E+02  0.45594000000E+02  0.51100000000E-03 0.  1.
    9900012    2    1    2    0    0  0.29003980926E+02  0.13186044375E+02 -0.31843536097E+02  0.46142317998E+02  0.10000002161E+02 0.  0.
         12    1    1    2    0    0 -0.29003980926E+02 -0.13186044375E+02  0.31843536097E+02  0.45045682002E+02  0.00000000000E+00 0. -1.
         11    1    3    3    0    0  0.16753406078E+02  0.92555575063E+01 -0.16139325901E+02  0.25036369560E+02  0.51100000000E-03 0.  1.
        -11    1    3    3    0    0  0.61298008960E+01 -0.27600589811E+00 -0.42853126382E+01  0.74842864021E+01  0.51100000000E-03 0. -1.
        -12    1    3    3    0    0  0.61207739528E+01  0.42064927669E+01 -0.11418897558E+02  0.13621662036E+02  0.00000000000E+00 0.  1.
</event>
<event>
 7    1  0.8398055E-009  0.4614232E+02  0.7816164E-02  0.1320468E+00
        -11   -1    0    0    0    0  0.00000000000E+00  0.00000000000E+00  0.45593999997E+02  0.45594000000E+02  0.51100000000E-03 0. -1.
         11   -1    0    0    0    0 -0.00000000000E+00 -0.00000000000E+00 -0.45593999997E+02  0.45594000000E+02  0.51100000000E-03 0.  1.
    9900012    2    1    2    0    0 -0.18612438967E+02  0.17455293144E+01  0.40983453599E+02  0.46142320676E+02  0.10000026577E+02 0.  0.
        -12    1    1    2    0    0  0.18612438967E+02 -0.17455293144E+01 -0.40983453599E+02  0.45045679324E+02  0.00000000000E+00 0.  1.
         11    1    3    3    0    0 -0.73051202348E+01  0.16879656888E+01  0.26558310480E+02  0.27596337903E+02  0.51100000000E-03 0.  1.
        -11    1    3    3    0    0 -0.29295287803E+01 -0.12180553216E+01  0.42637982911E+01  0.53146753211E+01  0.51100000000E-03 0. -1.
        -12    1    3    3    0    0 -0.83777899521E+01  0.12756189472E+01  0.10161344828E+02  0.13231307452E+02  0.00000000000E+00 0.  1.
</event>
<event>
 7    1  0.8398055E-009  0.4614232E+02  0.7816164E-02  0.1320468E+00
        -11   -1    0    0    0    0  0.00000000000E+00  0.00000000000E+00  0.45593999997E+02  0.45594000000E+02  0.51100000000E-03 0. -1.
         11   -1    0    0    0    0 -0.00000000000E+00 -0.00000000000E+00 -0.45593999997E+02  0.45594000000E+02  0.51100000000E-03 0.  1.
    9900012    2    1    2    0    0  0.31902211093E+01  0.41996468604E+01 -0.44735879170E+02  0.46142318413E+02  0.10000005947E+02 0.  0.
         12    1    1    2    0    0 -0.31902211093E+01 -0.41996468604E+01  0.44735879170E+02  0.45045681587E+02  0.00000000000E+00 0. -1.
         11    1    3    3    0    0  0.23519411117E+01  0.28018305497E+01 -0.14878673299E+02  0.15321775381E+02  0.51100000000E-03 0. -1.
        -11    1    3    3    0    0 -0.32989408386E+01  0.11729082025E+01 -0.13909174754E+02  0.14343077316E+02  0.51100000000E-03 0.  1.
         12    1    3    3    0    0  0.41372208362E+01  0.22490810822E+00 -0.15948031117E+02  0.16477465716E+02  0.00000000000E+00 0. -1.
</event>
<event>
 7    1  0.8398055E-009  0.4614232E+02  0.7816164E-02  0.1320468E+00
        -11   -1    0    0    0    0  0.00000000000E+00  0.00000000000E+00  0.45593999997E+02  0.45594000000E+02  0.51100000000E-03 0.  1.
         11   -1    0    0    0    0 -0.00000000000E+00 -0.00000000000E+00 -0.45593999997E+02  0.45594000000E+02  0.51100000000E-03 0. -1.
    9900012    2    1    2    0    0  0.12806894198E+02 -0.38257966619E+02  0.20035592160E+02  0.46142317610E+02  0.99999986180E+01 0.  0.
        -12    1    1    2    0    0 -0.12806894198E+02  0.38257966619E+02 -0.20035592160E+02  0.45045682390E+02  0.00000000000E+00 0.  1.
         11    1    3    3    0    0 -0.27716396153E+00 -0.25068864055E+01  0.24960529972E+01  0.35484616579E+01  0.51100000000E-03 0.  1.
        -11    1    3    3    0    0  0.60294748393E+01 -0.12409831371E+02  0.27290197820E+01  0.14064353193E+02  0.51100000000E-03 0. -1.
         12    1    3    3    0    0  0.70545833202E+01 -0.23341248842E+02  0.14810519381E+02  0.28529502759E+02  0.00000000000E+00 0. -1.
</event>
<event>
 7    1  0.8398055E-009  0.4614232E+02  0.7816164E-02  0.1320468E+00
        -11   -1    0    0    0    0  0.00000000000E+00  0.00000000000E+00  0.45593999997E+02  0.45594000000E+02  0.51100000000E-03 0. -1.
         11   -1    0    0    0    0 -0.00000000000E+00 -0.00000000000E+00 -0.45593999997E+02  0.45594000000E+02  0.51100000000E-03 0.  1.
    9900012    2    1    2    0    0 -0.29367163825E+02 -0.24598515794E+02  0.23698011514E+02  0.46142322737E+02  0.10000045370E+02 0.  0.
        -12    1    1    2    0    0  0.29367163825E+02  0.24598515794E+02 -0.23698011514E+02  0.45045677263E+02  0.00000000000E+00 0.  1.
         11    1    3    3    0    0 -0.18925815258E+02 -0.18294163229E+02  0.16818652728E+02  0.31236676700E+02  0.51100000000E-03 0. -1.
        -11    1    3    3    0    0 -0.22121960265E+01 -0.23734952452E+01 -0.35633703898E+00  0.32640875119E+01  0.51100000000E-03 0.  1.
        -12    1    3    3    0    0 -0.82291525410E+01 -0.39308573202E+01  0.72356958245E+01  0.11641558525E+02  0.00000000000E+00 0.  1.
</event>
<event>
 7    1  0.8398055E-009  0.4614232E+02  0.7816164E-02  0.1320468E+00
        -11   -1    0    0    0    0  0.00000000000E+00  0.00000000000E+00  0.45593999997E+02  0.45594000000E+02  0.51100000000E-03 0. -1.
         11   -1    0    0    0    0 -0.00000000000E+00 -0.00000000000E+00 -0.45593999997E+02  0.45594000000E+02  0.51100000000E-03 0.  1.
    9900012    2    1    2    0    0  0.30141635923E+02 -0.25632658287E+01  0.33377010591E+02  0.46142318921E+02  0.10000010581E+02 0.  0.
        -12    1    1    2    0    0 -0.30141635923E+02  0.25632658287E+01 -0.33377010591E+02  0.45045681079E+02  0.00000000000E+00 0.  1.
         11    1    3    3    0    0  0.21661477760E+02  0.79600756586E+00  0.22867594703E+02  0.31508413711E+02  0.51100000000E-03 0. -1.
        -11    1    3    3    0    0  0.25030634480E+00  0.84803086788E+00  0.14044992849E+01  0.16596469870E+01  0.51100000000E-03 0.  1.
         12    1    3    3    0    0  0.82298518181E+01 -0.42073042624E+01  0.91049166034E+01  0.12974258224E+02  0.00000000000E+00 0. -1.
</event>
<event>
 7    1  0.8398055E-009  0.4614231E+02  0.7816164E-02  0.1320468E+00
        -11   -1    0    0    0    0  0.00000000000E+00  0.00000000000E+00  0.45593999997E+02  0.45594000000E+02  0.51100000000E-03 0. -1.
         11   -1    0    0    0    0 -0.00000000000E+00 -0.00000000000E+00 -0.45593999997E+02  0.45594000000E+02  0.51100000000E-03 0.  1.
    9900012    2    1    2    0    0  0.73867638894E+01 -0.28654422511E+02 -0.33962827943E+02  0.46142313280E+02  0.99999591394E+01 0.  0.
         12    1    1    2    0    0 -0.73867638894E+01  0.28654422511E+02  0.33962827943E+02  0.45045686720E+02  0.00000000000E+00 0. -1.
         11    1    3    3    0    0  0.21506219170E+01 -0.13234316675E+02 -0.10226396182E+02  0.16862724916E+02  0.51100000000E-03 0. -1.
        -11    1    3    3    0    0  0.61664497070E+00 -0.10009179289E+02 -0.13856485694E+02  0.17104564219E+02  0.51100000000E-03 0.  1.
        -12    1    3    3    0    0  0.46194970016E+01 -0.54109265465E+01 -0.98799460675E+01  0.12175024145E+02  0.00000000000E+00 0.  1.
</event>
<event>
 7    1  0.8398055E-009  0.4614232E+02  0.7816164E-02  0.1320468E+00
        -11   -1    0    0    0    0  0.00000000000E+00  0.00000000000E+00  0.45593999997E+02  0.45594000000E+02  0.51100000000E-03 0. -1.
         11   -1    0    0    0    0 -0.00000000000E+00 -0.00000000000E+00 -0.45593999997E+02  0.45594000000E+02  0.51100000000E-03 0.  1.
    9900012    2    1    2    0    0  0.21619432326E+02  0.15988254836E+02 -0.36139858325E+02  0.46142317559E+02  0.99999981549E+01 0.  0.
         12    1    1    2    0    0 -0.21619432326E+02 -0.15988254836E+02  0.36139858325E+02  0.45045682441E+02  0.00000000000E+00 0. -1.
         11    1    3    3    0    0  0.75900343414E+01  0.12310626630E+01 -0.13456925688E+02  0.15498805948E+02  0.51100000000E-03 0. -1.
        -11    1    3    3    0    0  0.46273112161E+01  0.43900691589E+01 -0.93145631694E+01  0.11289189679E+02  0.51100000000E-03 0.  1.
         12    1    3    3    0    0  0.94020867685E+01  0.10367123014E+02 -0.13368369468E+02  0.19354321932E+02  0.00000000000E+00 0. -1.
</event>
<event>
 7    1  0.8398055E-009  0.4614232E+02  0.7816164E-02  0.1320468E+00
        -11   -1    0    0    0    0  0.00000000000E+00  0.00000000000E+00  0.45593999997E+02  0.45594000000E+02  0.51100000000E-03 0. -1.
         11   -1    0    0    0    0 -0.00000000000E+00 -0.00000000000E+00 -0.45593999997E+02  0.45594000000E+02  0.51100000000E-03 0.  1.
    9900012    2    1    2    0    0  0.90150250581E+01  0.41905249485E+02 -0.13848931723E+02  0.46142317398E+02  0.99999966914E+01 0.  0.
         12    1    1    2    0    0 -0.90150250581E+01 -0.41905249485E+02  0.13848931723E+02  0.45045682602E+02  0.00000000000E+00 0. -1.
         11    1    3    3    0    0  0.71035454274E+01  0.26272313866E+02 -0.92298815255E+01  0.28738224488E+02  0.51100000000E-03 0.  1.
        -11    1    3    3    0    0 -0.92447232609E+00  0.12327548607E+02 -0.27478210505E+01  0.12663870835E+02  0.51100000000E-03 0. -1.
         12    1    3    3    0    0  0.28359519568E+01  0.33053870125E+01 -0.18712291469E+01  0.47402220754E+01  0.00000000000E+00 0. -1.
</event>
<event>
 7    1  0.8398055E-009  0.4614232E+02  0.7816164E-02  0.1320468E+00
        -11   -1    0    0    0    0  0.00000000000E+00  0.00000000000E+00  0.45593999997E+02  0.45594000000E+02  0.51100000000E-03 0. -1.
         11   -1    0    0    0    0 -0.00000000000E+00 -0.00000000000E+00 -0.45593999997E+02  0.45594000000E+02  0.51100000000E-03 0.  1.
    9900012    2    1    2    0    0  0.44729039473E+02  0.26202777076E+01 -0.46433447740E+01  0.46142317875E+02  0.10000001036E+02 0.  0.
         12    1    1    2    0    0 -0.44729039473E+02 -0.26202777076E+01  0.46433447740E+01  0.45045682125E+02  0.00000000000E+00 0. -1.
         11    1    3    3    0    0  0.13157454505E-01  0.46366586868E-01 -0.69739149779E-01  0.84774932142E-01  0.51100000000E-03 0. -1.
        -11    1    3    3    0    0  0.41810548050E+02  0.48137046441E+01 -0.34840944959E+01  0.42230706783E+02  0.51100000000E-03 0.  1.
        -12    1    3    3    0    0  0.29053339682E+01 -0.22397935235E+01 -0.10895111283E+01  0.38268361597E+01  0.00000000000E+00 0.  1.
</event>
<event>
 7    1  0.8398055E-009  0.4614232E+02  0.7816164E-02  0.1320468E+00
        -11   -1    0    0    0    0  0.00000000000E+00  0.00000000000E+00  0.45593999997E+02  0.45594000000E+02  0.51100000000E-03 0. -1.
         11   -1    0    0    0    0 -0.00000000000E+00 -0.00000000000E+00 -0.45593999997E+02  0.45594000000E+02  0.51100000000E-03 0.  1.
    9900012    2    1    2    0    0  0.36933445466E+02  0.38945217762E+01 -0.25492484188E+02  0.46142318254E+02  0.10000004497E+02 0.  0.
         12    1    1    2    0    0 -0.36933445466E+02 -0.38945217762E+01  0.25492484188E+02  0.45045681746E+02  0.00000000000E+00 0. -1.
         11    1    3    3    0    0  0.66897326185E+01  0.22794634809E+01 -0.25798315185E+01  0.75235634637E+01  0.51100000000E-03 0. -1.
        -11    1    3    3    0    0  0.24553601149E+02  0.23075943532E+01 -0.15059813953E+02  0.28896406656E+02  0.51100000000E-03 0.  1.
         12    1    3    3    0    0  0.56901116988E+01 -0.69253605796E+00 -0.78528387169E+01  0.97223481345E+01  0.00000000000E+00 0. -1.
</event>
<event>
 7    1  0.8398055E-009  0.4614231E+02  0.7816164E-02  0.1320468E+00
        -11   -1    0    0    0    0  0.00000000000E+00  0.00000000000E+00  0.45593999997E+02  0.45594000000E+02  0.51100000000E-03 0. -1.
         11   -1    0    0    0    0 -0.00000000000E+00 -0.00000000000E+00 -0.45593999997E+02  0.45594000000E+02  0.51100000000E-03 0.  1.
    9900012    2    1    2    0    0 -0.31553217453E+02  0.22701997262E+02  0.22762417573E+02  0.46142313580E+02  0.99999618712E+01 0.  0.
        -12    1    1    2    0    0  0.31553217453E+02 -0.22701997262E+02 -0.22762417573E+02  0.45045686420E+02  0.00000000000E+00 0.  1.
         11    1    3    3    0    0 -0.45282002512E+01  0.11355087280E+01  0.11244566921E+01  0.48019142745E+01  0.51100000000E-03 0. -1.
        -11    1    3    3    0    0  0.33227984798E+00  0.29524014450E+00 -0.68277689143E-01  0.44970962215E+00  0.51100000000E-03 0.  1.
         12    1    3    3    0    0 -0.27357297050E+02  0.21271248390E+02  0.21706238570E+02  0.40890689683E+02  0.00000000000E+00 0. -1.
</event>
<event>
 7    1  0.9230152E-009  0.4614232E+02  0.7816164E-02  0.1320468E+00
        -11   -1    0    0    0    0  0.00000000000E+00  0.00000000000E+00  0.45593999997E+02  0.45594000000E+02  0.51100000000E-03 0.  1.
         11   -1    0    0    0    0 -0.00000000000E+00 -0.00000000000E+00 -0.45593999997E+02  0.45594000000E+02  0.51100000000E-03 0. -1.
    9900012    2    1    2    0    0 -0.33614955988E+02 -0.37231859530E+01 -0.29753762035E+02  0.46142315024E+02  0.99999750432E+01 0.  0.
         12    1    1    2    0    0  0.33614955988E+02  0.37231859530E+01  0.29753762035E+02  0.45045684976E+02  0.00000000000E+00 0. -1.
         11    1    3    3    0    0 -0.13154506870E+02  0.82380535313E-02 -0.11254003039E+02  0.17311663800E+02  0.51100000000E-03 0. -1.
        -11    1    3    3    0    0 -0.15172461695E+02  0.73522080690E+00 -0.12780715185E+02  0.19851720944E+02  0.51100000000E-03 0.  1.
         12    1    3    3    0    0 -0.52879874221E+01 -0.44666448135E+01 -0.57190438112E+01  0.89789302804E+01  0.00000000000E+00 0. -1.
</event>
<event>
 7    1  0.8398055E-009  0.4614232E+02  0.7816164E-02  0.1320468E+00
        -11   -1    0    0    0    0  0.00000000000E+00  0.00000000000E+00  0.45593999997E+02  0.45594000000E+02  0.51100000000E-03 0. -1.
         11   -1    0    0    0    0 -0.00000000000E+00 -0.00000000000E+00 -0.45593999997E+02  0.45594000000E+02  0.51100000000E-03 0.  1.
    9900012    2    1    2    0    0 -0.33910107292E+02 -0.67099327830E+01 -0.28882432292E+02  0.46142317969E+02  0.10000001897E+02 0.  0.
         12    1    1    2    0    0  0.33910107292E+02  0.67099327830E+01  0.28882432292E+02  0.45045682031E+02  0.00000000000E+00 0. -1.
         11    1    3    3    0    0 -0.12773912975E+01  0.14650724690E+01 -0.14878691277E+01  0.24478400006E+01  0.51100000000E-03 0. -1.
        -11    1    3    3    0    0 -0.49454616900E+01 -0.28244845728E+01 -0.61953492229E+01  0.84153227320E+01  0.51100000000E-03 0.  1.
         12    1    3    3    0    0 -0.27687254304E+02 -0.53505206792E+01 -0.21199213942E+02  0.35279155237E+02  0.00000000000E+00 0. -1.
</event>
<event>
 7    1  0.8398055E-009  0.4614232E+02  0.7816164E-02  0.1320468E+00
        -11   -1    0    0    0    0  0.00000000000E+00  0.00000000000E+00  0.45593999997E+02  0.45594000000E+02  0.51100000000E-03 0. -1.
         11   -1    0    0    0    0 -0.00000000000E+00 -0.00000000000E+00 -0.45593999997E+02  0.45594000000E+02  0.51100000000E-03 0.  1.
    9900012    2    1    2    0    0 -0.14900544060E+02  0.22119651954E+02 -0.36301628558E+02  0.46142318167E+02  0.10000003699E+02 0.  0.
         12    1    1    2    0    0  0.14900544060E+02 -0.22119651954E+02  0.36301628558E+02  0.45045681833E+02  0.00000000000E+00 0. -1.
         11    1    3    3    0    0 -0.77036139125E+01  0.69741888505E+01 -0.16055377698E+02  0.19124856358E+02  0.51100000000E-03 0.  1.
        -11    1    3    3    0    0 -0.34657978037E+01  0.60999336420E+01 -0.40665617823E+01  0.81091226310E+01  0.51100000000E-03 0. -1.
         12    1    3    3    0    0 -0.37311323440E+01  0.90455294619E+01 -0.16179689078E+02  0.18908339178E+02  0.00000000000E+00 0. -1.
</event>
<event>
 7    1  0.8398055E-009  0.4614232E+02  0.7816164E-02  0.1320468E+00
        -11   -1    0    0    0    0  0.00000000000E+00  0.00000000000E+00  0.45593999997E+02  0.45594000000E+02  0.51100000000E-03 0. -1.
         11   -1    0    0    0    0 -0.00000000000E+00 -0.00000000000E+00 -0.45593999997E+02  0.45594000000E+02  0.51100000000E-03 0.  1.
    9900012    2    1    2    0    0  0.15642743624E+02  0.35702374433E+02 -0.22577832600E+02  0.46142317708E+02  0.99999995172E+01 0.  0.
         12    1    1    2    0    0 -0.15642743624E+02 -0.35702374433E+02  0.22577832600E+02  0.45045682292E+02  0.00000000000E+00 0. -1.
         11    1    3    3    0    0  0.70095066962E+00  0.11075334195E+00  0.58372745029E+00  0.91887765309E+00  0.51100000000E-03 0. -1.
        -11    1    3    3    0    0 -0.10288170939E+00  0.13249783252E-01  0.89613617915E-01  0.13708050379E+00  0.51100000000E-03 0.  1.
        -12    1    3    3    0    0  0.15044674664E+02  0.35578371307E+02 -0.23251173668E+02  0.45086359551E+02  0.00000000000E+00 0.  1.
</event>
<event>
 7    1  0.8398055E-009  0.4614232E+02  0.7816164E-02  0.1320468E+00
        -11   -1    0    0    0    0  0.00000000000E+00  0.00000000000E+00  0.45593999997E+02  0.45594000000E+02  0.51100000000E-03 0. -1.
         11   -1    0    0    0    0 -0.00000000000E+00 -0.00000000000E+00 -0.45593999997E+02  0.45594000000E+02  0.51100000000E-03 0.  1.
    9900012    2    1    2    0    0  0.15703318046E+01  0.12872591144E+02  0.43138659528E+02  0.46142317736E+02  0.99999997746E+01 0.  0.
        -12    1    1    2    0    0 -0.15703318046E+01 -0.12872591144E+02 -0.43138659528E+02  0.45045682264E+02  0.00000000000E+00 0.  1.
         11    1    3    3    0    0 -0.11934831908E+01  0.24130556670E+01  0.15578162324E+02  0.15809060106E+02  0.51100000000E-03 0. -1.
        -11    1    3    3    0    0  0.36190346013E+01  0.95313735761E+01  0.27157827337E+02  0.29008482891E+02  0.51100000000E-03 0.  1.
        -12    1    3    3    0    0 -0.85521960601E+00  0.92816190088E+00  0.40266986640E+00  0.13247747394E+01  0.00000000000E+00 0.  1.
</event>
<event>
 7    1  0.8398055E-009  0.4614232E+02  0.7816164E-02  0.1320468E+00
        -11   -1    0    0    0    0  0.00000000000E+00  0.00000000000E+00  0.45593999997E+02  0.45594000000E+02  0.51100000000E-03 0. -1.
         11   -1    0    0    0    0 -0.00000000000E+00 -0.00000000000E+00 -0.45593999997E+02  0.45594000000E+02  0.51100000000E-03 0.  1.
    9900012    2    1    2    0    0  0.98631898425E+01 -0.22315831217E+02  0.37866008748E+02  0.46142318129E+02  0.10000003352E+02 0.  0.
        -12    1    1    2    0    0 -0.98631898425E+01  0.22315831217E+02 -0.37866008748E+02  0.45045681871E+02  0.00000000000E+00 0.  1.
         11    1    3    3    0    0  0.65717939807E+01 -0.12936803061E+02  0.22905451003E+02  0.27114738345E+02  0.51100000000E-03 0. -1.
        -11    1    3    3    0    0  0.36445305301E+01 -0.10035386835E+02  0.12411702155E+02  0.16371986512E+02  0.51100000000E-03 0.  1.
        -12    1    3    3    0    0 -0.35313466830E+00  0.65635867952E+00  0.25488555890E+01  0.26555932715E+01  0.00000000000E+00 0.  1.
</event>
<event>
 7    1  0.8398055E-009  0.4614232E+02  0.7816164E-02  0.1320468E+00
        -11   -1    0    0    0    0  0.00000000000E+00  0.00000000000E+00  0.45593999997E+02  0.45594000000E+02  0.51100000000E-03 0. -1.
         11   -1    0    0    0    0 -0.00000000000E+00 -0.00000000000E+00 -0.45593999997E+02  0.45594000000E+02  0.51100000000E-03 0.  1.
    9900012    2    1    2    0    0 -0.64849279392E+01  0.22536424144E+02 -0.38459963984E+02  0.46142317263E+02  0.99999954584E+01 0.  0.
         12    1    1    2    0    0  0.64849279392E+01 -0.22536424144E+02  0.38459963984E+02  0.45045682737E+02  0.00000000000E+00 0. -1.
         11    1    3    3    0    0 -0.31324939542E+01  0.20702511726E+02 -0.29331918000E+02  0.36038422884E+02  0.51100000000E-03 0.  1.
        -11    1    3    3    0    0 -0.26733033382E+01  0.15355542203E+01 -0.47453728652E+01  0.56588904736E+01  0.51100000000E-03 0. -1.
        -12    1    3    3    0    0 -0.67913064673E+00  0.29835819714E+00 -0.43826731196E+01  0.44450039057E+01  0.00000000000E+00 0.  1.
</event>
<event>
 7    1  0.8398055E-009  0.4614232E+02  0.7816164E-02  0.1320468E+00
        -11   -1    0    0    0    0  0.00000000000E+00  0.00000000000E+00  0.45593999997E+02  0.45594000000E+02  0.51100000000E-03 0. -1.
         11   -1    0    0    0    0 -0.00000000000E+00 -0.00000000000E+00 -0.45593999997E+02  0.45594000000E+02  0.51100000000E-03 0.  1.
    9900012    2    1    2    0    0 -0.55252787878E+01 -0.30583310624E+02  0.32607452374E+02  0.46142317135E+02  0.99999942930E+01 0.  0.
        -12    1    1    2    0    0  0.55252787878E+01  0.30583310624E+02 -0.32607452374E+02  0.45045682865E+02  0.00000000000E+00 0.  1.
         11    1    3    3    0    0 -0.14206142010E+01 -0.87493875648E+01  0.78209571030E+01  0.11821053157E+02  0.51100000000E-03 0. -1.
        -11    1    3    3    0    0 -0.19755402898E+01 -0.93382490060E+01  0.48760500065E+01  0.10718279613E+02  0.51100000000E-03 0.  1.
        -12    1    3    3    0    0 -0.21291242971E+01 -0.12495674053E+02  0.19910445265E+02  0.23602984365E+02  0.00000000000E+00 0.  1.
</event>
<event>
 7    1  0.1337331E-008  0.4614232E+02  0.7816164E-02  0.1320468E+00
        -11   -1    0    0    0    0  0.00000000000E+00  0.00000000000E+00  0.45593999997E+02  0.45594000000E+02  0.51100000000E-03 0. -1.
         11   -1    0    0    0    0 -0.00000000000E+00 -0.00000000000E+00 -0.45593999997E+02  0.45594000000E+02  0.51100000000E-03 0.  1.
    9900012    2    1    2    0    0 -0.56551845276E+01  0.17839113465E+02 -0.40974361810E+02  0.46142318664E+02  0.10000008236E+02 0.  0.
         12    1    1    2    0    0  0.56551845276E+01 -0.17839113465E+02  0.40974361810E+02  0.45045681336E+02  0.00000000000E+00 0. -1.
         11    1    3    3    0    0 -0.11787200861E+01  0.29439583436E+01 -0.27573576110E+01  0.42022961612E+01  0.51100000000E-03 0. -1.
        -11    1    3    3    0    0 -0.41845434920E+01  0.26757380139E+01 -0.13009926699E+02  0.13925809532E+02  0.51100000000E-03 0.  1.
        -12    1    3    3    0    0 -0.29192094946E+00  0.12219417107E+02 -0.25207077500E+02  0.28014212971E+02  0.00000000000E+00 0.  1.
</event>
<event>
 7    1  0.8398055E-009  0.4614232E+02  0.7816164E-02  0.1320468E+00
        -11   -1    0    0    0    0  0.00000000000E+00  0.00000000000E+00  0.45593999997E+02  0.45594000000E+02  0.51100000000E-03 0. -1.
         11   -1    0    0    0    0 -0.00000000000E+00 -0.00000000000E+00 -0.45593999997E+02  0.45594000000E+02  0.51100000000E-03 0.  1.
    9900012    2    1    2    0    0 -0.20840127757E+02 -0.14060590079E+02  0.37377832701E+02  0.46142317679E+02  0.99999992528E+01 0.  0.
        -12    1    1    2    0    0  0.20840127757E+02  0.14060590079E+02 -0.37377832701E+02  0.45045682321E+02  0.00000000000E+00 0.  1.
         11    1    3    3    0    0 -0.83770572429E+01 -0.44958947133E+01  0.13573756472E+02  0.16572115808E+02  0.51100000000E-03 0. -1.
        -11    1    3    3    0    0 -0.13221901759E+02 -0.72648470251E+01  0.19830510307E+02  0.24916778037E+02  0.51100000000E-03 0.  1.
        -12    1    3    3    0    0  0.75883124489E+00 -0.22998483404E+01  0.39735659221E+01  0.46534238346E+01  0.00000000000E+00 0.  1.
</event>
<event>
 7    1  0.8398055E-009  0.4614232E+02  0.7816164E-02  0.1320468E+00
        -11   -1    0    0    0    0  0.00000000000E+00  0.00000000000E+00  0.45593999997E+02  0.45594000000E+02  0.51100000000E-03 0. -1.
         11   -1    0    0    0    0 -0.00000000000E+00 -0.00000000000E+00 -0.45593999997E+02  0.45594000000E+02  0.51100000000E-03 0.  1.
    9900012    2    1    2    0    0  0.28753190338E+02  0.31312063733E+02 -0.14897052282E+02  0.46142318115E+02  0.10000003226E+02 0.  0.
         12    1    1    2    0    0 -0.28753190338E+02 -0.31312063733E+02  0.14897052282E+02  0.45045681885E+02  0.00000000000E+00 0. -1.
         11    1    3    3    0    0  0.15290347211E+02  0.10908030956E+02 -0.84586497922E+01  0.20599238184E+02  0.51100000000E-03 0. -1.
        -11    1    3    3    0    0  0.30410088321E+01  0.34822502521E+01  0.91738637774E-01  0.46240910213E+01  0.51100000000E-03 0.  1.
         12    1    3    3    0    0  0.10421834294E+02  0.16921782524E+02 -0.65301411273E+01  0.20918988910E+02  0.00000000000E+00 0. -1.
</event>
<event>
 7    1  0.8398055E-009  0.4614232E+02  0.7816164E-02  0.1320468E+00
        -11   -1    0    0    0    0  0.00000000000E+00  0.00000000000E+00  0.45593999997E+02  0.45594000000E+02  0.51100000000E-03 0. -1.
         11   -1    0    0    0    0 -0.00000000000E+00 -0.00000000000E+00 -0.45593999997E+02  0.45594000000E+02  0.51100000000E-03 0.  1.
    9900012    2    1    2    0    0  0.32133408363E+02 -0.73611866244E+01  0.30698053645E+02  0.46142317642E+02  0.99999989147E+01 0.  0.
        -12    1    1    2    0    0 -0.32133408363E+02  0.73611866244E+01 -0.30698053645E+02  0.45045682358E+02  0.00000000000E+00 0.  1.
         11    1    3    3    0    0  0.41535121006E+01 -0.43743036198E+01  0.54898255003E+01  0.81562478636E+01  0.51100000000E-03 0. -1.
        -11    1    3    3    0    0  0.65531947046E+01 -0.84841007191E+00  0.82923079326E+01  0.10603137818E+02  0.51100000000E-03 0.  1.
         12    1    3    3    0    0  0.21426701557E+02 -0.21384729326E+01  0.16915920212E+02  0.27382931960E+02  0.00000000000E+00 0. -1.
</event>
<event>
 7    1  0.8398055E-009  0.4614232E+02  0.7816164E-02  0.1320468E+00
        -11   -1    0    0    0    0  0.00000000000E+00  0.00000000000E+00  0.45593999997E+02  0.45594000000E+02  0.51100000000E-03 0. -1.
         11   -1    0    0    0    0 -0.00000000000E+00 -0.00000000000E+00 -0.45593999997E+02  0.45594000000E+02  0.51100000000E-03 0.  1.
    9900012    2    1    2    0    0  0.86719287686E+01  0.19443124065E+02 -0.39697303306E+02  0.46142319721E+02  0.10000017874E+02 0.  0.
         12    1    1    2    0    0 -0.86719287686E+01 -0.19443124065E+02  0.39697303306E+02  0.45045680279E+02  0.00000000000E+00 0. -1.
         11    1    3    3    0    0  0.39029346699E+01  0.13928323927E+02 -0.21393176377E+02  0.25824389678E+02  0.51100000000E-03 0. -1.
        -11    1    3    3    0    0  0.18317652330E+01  0.36835458756E+01 -0.45459686925E+01  0.61310444217E+01  0.51100000000E-03 0.  1.
        -12    1    3    3    0    0  0.29372288656E+01  0.18312542622E+01 -0.13758158236E+02  0.14186885622E+02  0.00000000000E+00 0.  1.
</event>
<event>
 7    1  0.8398055E-009  0.4614232E+02  0.7816164E-02  0.1320468E+00
        -11   -1    0    0    0    0  0.00000000000E+00  0.00000000000E+00  0.45593999997E+02  0.45594000000E+02  0.51100000000E-03 0.  1.
         11   -1    0    0    0    0 -0.00000000000E+00 -0.00000000000E+00 -0.45593999997E+02  0.45594000000E+02  0.51100000000E-03 0. -1.
    9900012    2    1    2    0    0  0.35702310302E+02 -0.27425332235E+02  0.15197452933E+01  0.46142318355E+02  0.10000005418E+02 0.  0.
         12    1    1    2    0    0 -0.35702310302E+02  0.27425332235E+02 -0.15197452933E+01  0.45045681645E+02  0.00000000000E+00 0. -1.
         11    1    3    3    0    0  0.43764526980E+01 -0.11734843753E+01  0.17283053319E+01  0.48494786708E+01  0.51100000000E-03 0. -1.
        -11    1    3    3    0    0  0.48404964078E+01 -0.60158815543E+01  0.17023503723E+01  0.79069104839E+01  0.51100000000E-03 0.  1.
        -12    1    3    3    0    0  0.26485361196E+02 -0.20235966306E+02 -0.19109104109E+01  0.33385929201E+02  0.00000000000E+00 0.  1.
</event>
<event>
 7    1  0.8398055E-009  0.4614232E+02  0.7816164E-02  0.1320468E+00
        -11   -1    0    0    0    0  0.00000000000E+00  0.00000000000E+00  0.45593999997E+02  0.45594000000E+02  0.51100000000E-03 0. -1.
         11   -1    0    0    0    0 -0.00000000000E+00 -0.00000000000E+00 -0.45593999997E+02  0.45594000000E+02  0.51100000000E-03 0.  1.
    9900012    2    1    2    0    0 -0.28381710220E+02 -0.74362878863E+01 -0.34180310192E+02  0.46142318105E+02  0.10000003138E+02 0.  0.
         12    1    1    2    0    0  0.28381710220E+02  0.74362878863E+01  0.34180310192E+02  0.45045681895E+02  0.00000000000E+00 0. -1.
         11    1    3    3    0    0 -0.11075138706E+01 -0.13751186059E-01 -0.42377379793E+00  0.11859007385E+01  0.51100000000E-03 0. -1.
        -11    1    3    3    0    0 -0.20763074743E+02 -0.33399844479E+01 -0.19108316532E+02  0.28414583049E+02  0.51100000000E-03 0.  1.
         12    1    3    3    0    0 -0.65111216063E+01 -0.40825522524E+01 -0.14648219862E+02  0.16541834318E+02  0.00000000000E+00 0. -1.
</event>
<event>
 7    1  0.8398055E-009  0.4614232E+02  0.7816164E-02  0.1320468E+00
        -11   -1    0    0    0    0  0.00000000000E+00  0.00000000000E+00  0.45593999997E+02  0.45594000000E+02  0.51100000000E-03 0. -1.
         11   -1    0    0    0    0 -0.00000000000E+00 -0.00000000000E+00 -0.45593999997E+02  0.45594000000E+02  0.51100000000E-03 0.  1.
    9900012    2    1    2    0    0  0.12825069145E+02 -0.40588391378E+02  0.14738165567E+02  0.46142318326E+02  0.10000005148E+02 0.  0.
        -12    1    1    2    0    0 -0.12825069145E+02  0.40588391378E+02 -0.14738165567E+02  0.45045681674E+02  0.00000000000E+00 0.  1.
         11    1    3    3    0    0  0.18105052597E+01 -0.87487785237E+01  0.37695368218E+01  0.96968274742E+01  0.51100000000E-03 0. -1.
        -11    1    3    3    0    0 -0.11453929622E+01 -0.17446279723E+01  0.16930616430E+01  0.26873983307E+01  0.51100000000E-03 0.  1.
         12    1    3    3    0    0  0.12159956848E+02 -0.30094984882E+02  0.92755671023E+01  0.33758092521E+02  0.00000000000E+00 0. -1.
</event>
<event>
 7    1  0.8398055E-009  0.4614232E+02  0.7816164E-02  0.1320468E+00
        -11   -1    0    0    0    0  0.00000000000E+00  0.00000000000E+00  0.45593999997E+02  0.45594000000E+02  0.51100000000E-03 0. -1.
         11   -1    0    0    0    0 -0.00000000000E+00 -0.00000000000E+00 -0.45593999997E+02  0.45594000000E+02  0.51100000000E-03 0.  1.
    9900012    2    1    2    0    0 -0.36188618251E+02 -0.20966742967E+02  0.16730001556E+02  0.46142319257E+02  0.10000013639E+02 0.  0.
        -12    1    1    2    0    0  0.36188618251E+02  0.20966742967E+02 -0.16730001556E+02  0.45045680743E+02  0.00000000000E+00 0.  1.
         11    1    3    3    0    0 -0.95835069160E+01 -0.32677117543E+01  0.51285312369E+01  0.11350038671E+02  0.51100000000E-03 0.  1.
        -11    1    3    3    0    0 -0.12190824202E+02 -0.68568967504E+01  0.88377005086E+01  0.16545034854E+02  0.51100000000E-03 0. -1.
        -12    1    3    3    0    0 -0.14414287133E+02 -0.10842134462E+02  0.27637698102E+01  0.18247245732E+02  0.00000000000E+00 0.  1.
</event>
<event>
 7    1  0.8398055E-009  0.4614232E+02  0.7816164E-02  0.1320468E+00
        -11   -1    0    0    0    0  0.00000000000E+00  0.00000000000E+00  0.45593999997E+02  0.45594000000E+02  0.51100000000E-03 0. -1.
         11   -1    0    0    0    0 -0.00000000000E+00 -0.00000000000E+00 -0.45593999997E+02  0.45594000000E+02  0.51100000000E-03 0.  1.
    9900012    2    1    2    0    0 -0.32330887051E+01 -0.18920393739E+02 -0.40751432163E+02  0.46142318907E+02  0.10000010450E+02 0.  0.
         12    1    1    2    0    0  0.32330887051E+01  0.18920393739E+02  0.40751432163E+02  0.45045681093E+02  0.00000000000E+00 0. -1.
         11    1    3    3    0    0 -0.38284066127E+01 -0.16654609850E+02 -0.31736181369E+02  0.36044665827E+02  0.51100000000E-03 0. -1.
        -11    1    3    3    0    0  0.13320150560E+01 -0.22870083539E+01 -0.89777063323E+01  0.93596945768E+01  0.51100000000E-03 0.  1.
         12    1    3    3    0    0 -0.73669714846E+00  0.21224464168E-01 -0.37544461522E-01  0.73795850358E+00  0.00000000000E+00 0. -1.
</event>
<event>
 7    1  0.8398055E-009  0.4614232E+02  0.7816164E-02  0.1320468E+00
        -11   -1    0    0    0    0  0.00000000000E+00  0.00000000000E+00  0.45593999997E+02  0.45594000000E+02  0.51100000000E-03 0. -1.
         11   -1    0    0    0    0 -0.00000000000E+00 -0.00000000000E+00 -0.45593999997E+02  0.45594000000E+02  0.51100000000E-03 0.  1.
    9900012    2    1    2    0    0 -0.18324238227E+00  0.20896910233E+02  0.39904871509E+02  0.46142320904E+02  0.10000028656E+02 0.  0.
        -12    1    1    2    0    0  0.18324238227E+00 -0.20896910233E+02 -0.39904871509E+02  0.45045679096E+02  0.00000000000E+00 0.  1.
         11    1    3    3    0    0  0.36272554616E+01  0.99813587337E+01  0.15578757755E+02  0.18854235540E+02  0.51100000000E-03 0. -1.
        -11    1    3    3    0    0 -0.35425948174E+01  0.10540971725E+02  0.19562789274E+02  0.22502550687E+02  0.51100000000E-03 0.  1.
        -12    1    3    3    0    0 -0.26790302647E+00  0.37457977413E+00  0.47633244804E+01  0.47855346769E+01  0.00000000000E+00 0.  1.
</event>
<event>
 7    1  0.8398055E-009  0.4614232E+02  0.7816164E-02  0.1320468E+00
        -11   -1    0    0    0    0  0.00000000000E+00  0.00000000000E+00  0.45593999997E+02  0.45594000000E+02  0.51100000000E-03 0.  1.
         11   -1    0    0    0    0 -0.00000000000E+00 -0.00000000000E+00 -0.45593999997E+02  0.45594000000E+02  0.51100000000E-03 0. -1.
    9900012    2    1    2    0    0  0.14491088793E+02  0.12501506471E+02 -0.40777865956E+02  0.46142315741E+02  0.99999815789E+01 0.  0.
         12    1    1    2    0    0 -0.14491088793E+02 -0.12501506471E+02  0.40777865956E+02  0.45045684259E+02  0.00000000000E+00 0. -1.
         11    1    3    3    0    0  0.75013715584E+01  0.52928921467E+01 -0.16105964372E+02  0.18538807166E+02  0.51100000000E-03 0. -1.
        -11    1    3    3    0    0  0.55812340909E+00  0.18365556736E+01 -0.44800677854E+00  0.19710780849E+01  0.51100000000E-03 0.  1.
        -12    1    3    3    0    0  0.64315938260E+01  0.53720586508E+01 -0.24223894805E+02  0.25632430490E+02  0.00000000000E+00 0.  1.
</event>
<event>
 7    1  0.8398055E-009  0.4614232E+02  0.7816164E-02  0.1320468E+00
        -11   -1    0    0    0    0  0.00000000000E+00  0.00000000000E+00  0.45593999997E+02  0.45594000000E+02  0.51100000000E-03 0. -1.
         11   -1    0    0    0    0 -0.00000000000E+00 -0.00000000000E+00 -0.45593999997E+02  0.45594000000E+02  0.51100000000E-03 0.  1.
    9900012    2    1    2    0    0 -0.17884366899E+02  0.41314078645E+02  0.15524212123E+01  0.46142315576E+02  0.99999800730E+01 0.  0.
        -12    1    1    2    0    0  0.17884366899E+02 -0.41314078645E+02 -0.15524212123E+01  0.45045684424E+02  0.00000000000E+00 0.  1.
         11    1    3    3    0    0 -0.65147405759E+01  0.14745139116E+02 -0.66675122414E-01  0.16120341750E+02  0.51100000000E-03 0. -1.
        -11    1    3    3    0    0 -0.10857551277E+02  0.16036791330E+02  0.87945067610E-01  0.19366797115E+02  0.51100000000E-03 0.  1.
         12    1    3    3    0    0 -0.51207504629E+00  0.10532148199E+02  0.15311512671E+01  0.10655176711E+02  0.00000000000E+00 0. -1.
</event>
<event>
 7    1  0.8398055E-009  0.4614232E+02  0.7816164E-02  0.1320468E+00
        -11   -1    0    0    0    0  0.00000000000E+00  0.00000000000E+00  0.45593999997E+02  0.45594000000E+02  0.51100000000E-03 0. -1.
         11   -1    0    0    0    0 -0.00000000000E+00 -0.00000000000E+00 -0.45593999997E+02  0.45594000000E+02  0.51100000000E-03 0.  1.
    9900012    2    1    2    0    0 -0.27793596437E+02 -0.89404425234E+01 -0.34303028115E+02  0.46142320371E+02  0.10000023795E+02 0.  0.
         12    1    1    2    0    0  0.27793596437E+02  0.89404425234E+01  0.34303028115E+02  0.45045679629E+02  0.00000000000E+00 0. -1.
         11    1    3    3    0    0 -0.43565571942E+01  0.60619877439E+00 -0.19925093806E+01  0.48287846746E+01  0.51100000000E-03 0. -1.
        -11    1    3    3    0    0 -0.15795134462E+02 -0.42584857513E+01 -0.18883112274E+02  0.24983852845E+02  0.51100000000E-03 0.  1.
         12    1    3    3    0    0 -0.76419047811E+01 -0.52881555464E+01 -0.13427406460E+02  0.16329682851E+02  0.00000000000E+00 0. -1.
</event>
<event>
 7    1  0.8398055E-009  0.4614232E+02  0.7816164E-02  0.1320468E+00
        -11   -1    0    0    0    0  0.00000000000E+00  0.00000000000E+00  0.45593999997E+02  0.45594000000E+02  0.51100000000E-03 0.  1.
         11   -1    0    0    0    0 -0.00000000000E+00 -0.00000000000E+00 -0.45593999997E+02  0.45594000000E+02  0.51100000000E-03 0. -1.
    9900012    2    1    2    0    0 -0.28839138787E+02 -0.33351650653E+02  0.92241424233E+01  0.46142319511E+02  0.10000015961E+02 0.  0.
        -12    1    1    2    0    0  0.28839138787E+02  0.33351650653E+02 -0.92241424233E+01  0.45045680489E+02  0.00000000000E+00 0.  1.
         11    1    3    3    0    0 -0.45419641411E+01 -0.84638283227E+01  0.15479920795E+01  0.97294454043E+01  0.51100000000E-03 0. -1.
        -11    1    3    3    0    0 -0.18177381097E+02 -0.22416364847E+02  0.49958981344E+01  0.29289410969E+02  0.51100000000E-03 0.  1.
        -12    1    3    3    0    0 -0.61197935489E+01 -0.24714574833E+01  0.26802522094E+01  0.71234631380E+01  0.00000000000E+00 0.  1.
</event>
<event>
 7    1  0.8398055E-009  0.4614232E+02  0.7816164E-02  0.1320468E+00
        -11   -1    0    0    0    0  0.00000000000E+00  0.00000000000E+00  0.45593999997E+02  0.45594000000E+02  0.51100000000E-03 0. -1.
         11   -1    0    0    0    0 -0.00000000000E+00 -0.00000000000E+00 -0.45593999997E+02  0.45594000000E+02  0.51100000000E-03 0.  1.
    9900012    2    1    2    0    0  0.34263853495E+02  0.17294543774E+02 -0.23579664957E+02  0.46142317630E+02  0.99999988066E+01 0.  0.
         12    1    1    2    0    0 -0.34263853495E+02 -0.17294543774E+02  0.23579664957E+02  0.45045682370E+02  0.00000000000E+00 0. -1.
         11    1    3    3    0    0  0.67755594985E+01  0.63816302206E+01 -0.71378894633E+01  0.11729572756E+02  0.51100000000E-03 0. -1.
        -11    1    3    3    0    0  0.15222828239E+02  0.47393031244E+01 -0.12086812495E+02  0.20007161974E+02  0.51100000000E-03 0.  1.
        -12    1    3    3    0    0  0.12265465757E+02  0.61736104291E+01 -0.43549629988E+01  0.14405582900E+02  0.00000000000E+00 0.  1.
</event>
<event>
 7    1  0.8398055E-009  0.4614232E+02  0.7816164E-02  0.1320468E+00
        -11   -1    0    0    0    0  0.00000000000E+00  0.00000000000E+00  0.45593999997E+02  0.45594000000E+02  0.51100000000E-03 0. -1.
         11   -1    0    0    0    0 -0.00000000000E+00 -0.00000000000E+00 -0.45593999997E+02  0.45594000000E+02  0.51100000000E-03 0.  1.
    9900012    2    1    2    0    0 -0.77619124951E+01 -0.34496624995E+02  0.27907867694E+02  0.46142317622E+02  0.99999987313E+01 0.  0.
        -12    1    1    2    0    0  0.77619124951E+01  0.34496624995E+02 -0.27907867694E+02  0.45045682378E+02  0.00000000000E+00 0.  1.
         11    1    3    3    0    0 -0.51492164444E+01 -0.13758756265E+02  0.16111683507E+02  0.21803764575E+02  0.51100000000E-03 0. -1.
        -11    1    3    3    0    0 -0.97725415670E+00 -0.90922929525E+00  0.12096238600E+01  0.18013644112E+01  0.51100000000E-03 0.  1.
        -12    1    3    3    0    0 -0.16354418940E+01 -0.19828639435E+02  0.10586560327E+02  0.22537188636E+02  0.00000000000E+00 0.  1.
</event>
<event>
 7    1  0.8398055E-009  0.4614232E+02  0.7816164E-02  0.1320468E+00
        -11   -1    0    0    0    0  0.00000000000E+00  0.00000000000E+00  0.45593999997E+02  0.45594000000E+02  0.51100000000E-03 0. -1.
         11   -1    0    0    0    0 -0.00000000000E+00 -0.00000000000E+00 -0.45593999997E+02  0.45594000000E+02  0.51100000000E-03 0.  1.
    9900012    2    1    2    0    0  0.17467938290E+02 -0.31294350010E+02 -0.27288243384E+02  0.46142318324E+02  0.10000005133E+02 0.  0.
         12    1    1    2    0    0 -0.17467938290E+02  0.31294350010E+02  0.27288243384E+02  0.45045681676E+02  0.00000000000E+00 0. -1.
         11    1    3    3    0    0  0.19457607697E+01 -0.10715337619E+01 -0.14358054816E+01  0.26449399271E+01  0.51100000000E-03 0. -1.
        -11    1    3    3    0    0  0.10633286775E+02 -0.17238155169E+02 -0.19918503502E+02  0.28407174504E+02  0.51100000000E-03 0.  1.
         12    1    3    3    0    0  0.48888907447E+01 -0.12984661079E+02 -0.59339344007E+01  0.15090203893E+02  0.00000000000E+00 0. -1.
</event>
<event>
 7    1  0.8398055E-009  0.4614232E+02  0.7816164E-02  0.1320468E+00
        -11   -1    0    0    0    0  0.00000000000E+00  0.00000000000E+00  0.45593999997E+02  0.45594000000E+02  0.51100000000E-03 0.  1.
         11   -1    0    0    0    0 -0.00000000000E+00 -0.00000000000E+00 -0.45593999997E+02  0.45594000000E+02  0.51100000000E-03 0. -1.
    9900012    2    1    2    0    0  0.34678561004E+02  0.10805899538E+02  0.26641008313E+02  0.46142318941E+02  0.10000010761E+02 0.  0.
        -12    1    1    2    0    0 -0.34678561004E+02 -0.10805899538E+02 -0.26641008313E+02  0.45045681059E+02  0.00000000000E+00 0.  1.
         11    1    3    3    0    0  0.78388592136E+01  0.25262089316E+01  0.87511194376E+01  0.12017135142E+02  0.51100000000E-03 0.  1.
        -11    1    3    3    0    0  0.20748832268E+02  0.94409292071E+01  0.13115489470E+02  0.26299453399E+02  0.51100000000E-03 0. -1.
         12    1    3    3    0    0  0.60908695227E+01 -0.11612386007E+01  0.47743994050E+01  0.78257304010E+01  0.00000000000E+00 0. -1.
</event>
<event>
 7    1  0.8398055E-009  0.4614232E+02  0.7816164E-02  0.1320468E+00
        -11   -1    0    0    0    0  0.00000000000E+00  0.00000000000E+00  0.45593999997E+02  0.45594000000E+02  0.51100000000E-03 0. -1.
         11   -1    0    0    0    0 -0.00000000000E+00 -0.00000000000E+00 -0.45593999997E+02  0.45594000000E+02  0.51100000000E-03 0.  1.
    9900012    2    1    2    0    0 -0.75954665144E+01 -0.18882019503E+01  0.44360534838E+02  0.46142317973E+02  0.10000001928E+02 0.  0.
        -12    1    1    2    0    0  0.75954665144E+01  0.18882019503E+01 -0.44360534838E+02  0.45045682027E+02  0.00000000000E+00 0.  1.
         11    1    3    3    0    0 -0.44473783622E+01 -0.42094329713E+01  0.15680010286E+02  0.16833336659E+02  0.51100000000E-03 0. -1.
        -11    1    3    3    0    0 -0.15300877512E+01 -0.10541810117E+01  0.15377988813E+02  0.15489835581E+02  0.51100000000E-03 0.  1.
         12    1    3    3    0    0 -0.16180004011E+01  0.33754120327E+01  0.13302535740E+02  0.13819145733E+02  0.00000000000E+00 0. -1.
</event>
<event>
 7    1  0.8398055E-009  0.4614232E+02  0.7816164E-02  0.1320468E+00
        -11   -1    0    0    0    0  0.00000000000E+00  0.00000000000E+00  0.45593999997E+02  0.45594000000E+02  0.51100000000E-03 0. -1.
         11   -1    0    0    0    0 -0.00000000000E+00 -0.00000000000E+00 -0.45593999997E+02  0.45594000000E+02  0.51100000000E-03 0.  1.
    9900012    2    1    2    0    0  0.24875888140E+02 -0.27632453781E+02 -0.25431303352E+02  0.46142317600E+02  0.99999985293E+01 0.  0.
         12    1    1    2    0    0 -0.24875888140E+02  0.27632453781E+02  0.25431303352E+02  0.45045682400E+02  0.00000000000E+00 0. -1.
         11    1    3    3    0    0  0.43450753460E+01 -0.31414477145E+01 -0.32035502204E+01  0.62458872693E+01  0.51100000000E-03 0. -1.
        -11    1    3    3    0    0  0.17734688734E+02 -0.15582677386E+02 -0.13969584166E+02  0.27431520210E+02  0.51100000000E-03 0.  1.
         12    1    3    3    0    0  0.27961240598E+01 -0.89083286805E+01 -0.82581689659E+01  0.12464910120E+02  0.00000000000E+00 0. -1.
</event>
<event>
 7    1  0.8398055E-009  0.4614232E+02  0.7816164E-02  0.1320468E+00
        -11   -1    0    0    0    0  0.00000000000E+00  0.00000000000E+00  0.45593999997E+02  0.45594000000E+02  0.51100000000E-03 0. -1.
         11   -1    0    0    0    0 -0.00000000000E+00 -0.00000000000E+00 -0.45593999997E+02  0.45594000000E+02  0.51100000000E-03 0.  1.
    9900012    2    1    2    0    0 -0.16573916818E+02  0.18751236557E+02  0.37454104175E+02  0.46142317514E+02  0.99999977456E+01 0.  0.
        -12    1    1    2    0    0  0.16573916818E+02 -0.18751236557E+02 -0.37454104175E+02  0.45045682486E+02  0.00000000000E+00 0.  1.
         11    1    3    3    0    0 -0.33834796854E+01  0.95241925721E+01  0.13811310745E+02  0.17114627769E+02  0.51100000000E-03 0. -1.
        -11    1    3    3    0    0 -0.10257571780E+02  0.92879102465E+01  0.20450635473E+02  0.24692337822E+02  0.51100000000E-03 0.  1.
        -12    1    3    3    0    0 -0.29328653522E+01 -0.60866261364E-01  0.31921579570E+01  0.43353519233E+01  0.00000000000E+00 0.  1.
</event>
<event>
 7    1  0.8398055E-009  0.4614232E+02  0.7816164E-02  0.1320468E+00
        -11   -1    0    0    0    0  0.00000000000E+00  0.00000000000E+00  0.45593999997E+02  0.45594000000E+02  0.51100000000E-03 0. -1.
         11   -1    0    0    0    0 -0.00000000000E+00 -0.00000000000E+00 -0.45593999997E+02  0.45594000000E+02  0.51100000000E-03 0.  1.
    9900012    2    1    2    0    0  0.16510603281E+02 -0.33830730262E+02  0.24738536165E+02  0.46142317606E+02  0.99999985861E+01 0.  0.
        -12    1    1    2    0    0 -0.16510603281E+02  0.33830730262E+02 -0.24738536165E+02  0.45045682394E+02  0.00000000000E+00 0.  1.
         11    1    3    3    0    0  0.15406347654E+01 -0.24644229192E+01  0.95411173287E+00  0.30589647375E+01  0.51100000000E-03 0. -1.
        -11    1    3    3    0    0  0.80557065577E+01 -0.12328512698E+02  0.52688430531E+01  0.15641206503E+02  0.51100000000E-03 0.  1.
         12    1    3    3    0    0  0.69142619577E+01 -0.19037794645E+02  0.18515581379E+02  0.27442146365E+02  0.00000000000E+00 0. -1.
</event>
<event>
 7    1  0.1153881E-008  0.4614232E+02  0.7816164E-02  0.1320468E+00
        -11   -1    0    0    0    0  0.00000000000E+00  0.00000000000E+00  0.45593999997E+02  0.45594000000E+02  0.51100000000E-03 0. -1.
         11   -1    0    0    0    0 -0.00000000000E+00 -0.00000000000E+00 -0.45593999997E+02  0.45594000000E+02  0.51100000000E-03 0.  1.
    9900012    2    1    2    0    0  0.33457099522E+02 -0.11541045134E+02 -0.27866470121E+02  0.46142318873E+02  0.10000010142E+02 0.  0.
         12    1    1    2    0    0 -0.33457099522E+02  0.11541045134E+02  0.27866470121E+02  0.45045681127E+02  0.00000000000E+00 0. -1.
         11    1    3    3    0    0 -0.84985816622E-01 -0.19572929974E+00  0.23578347144E+00  0.31800417344E+00  0.51100000000E-03 0. -1.
        -11    1    3    3    0    0  0.58552305428E+01 -0.15115002011E+01 -0.15977338593E+01  0.62546871475E+01  0.51100000000E-03 0.  1.
        -12    1    3    3    0    0  0.27686854795E+02 -0.98338156326E+01 -0.26504519733E+02  0.39569627552E+02  0.00000000000E+00 0.  1.
</event>
<event>
 7    1  0.8398055E-009  0.4614232E+02  0.7816164E-02  0.1320468E+00
        -11   -1    0    0    0    0  0.00000000000E+00  0.00000000000E+00  0.45593999997E+02  0.45594000000E+02  0.51100000000E-03 0. -1.
         11   -1    0    0    0    0 -0.00000000000E+00 -0.00000000000E+00 -0.45593999997E+02  0.45594000000E+02  0.51100000000E-03 0.  1.
    9900012    2    1    2    0    0  0.30352629972E+02  0.31195800743E+02  0.11604022745E+02  0.46142317920E+02  0.10000001447E+02 0.  0.
        -12    1    1    2    0    0 -0.30352629972E+02 -0.31195800743E+02 -0.11604022745E+02  0.45045682080E+02  0.00000000000E+00 0.  1.
         11    1    3    3    0    0  0.17733701233E+02  0.18463095080E+02  0.91068431888E+01  0.27171761674E+02  0.51100000000E-03 0. -1.
        -11    1    3    3    0    0 -0.83993427254E-01  0.12040067507E+01 -0.87122410690E+00  0.14885290918E+01  0.51100000000E-03 0.  1.
         12    1    3    3    0    0  0.12702922167E+02  0.11528698912E+02  0.33684036635E+01  0.17482027154E+02  0.00000000000E+00 0. -1.
</event>
<event>
 7    1  0.8398055E-009  0.4614232E+02  0.7816164E-02  0.1320468E+00
        -11   -1    0    0    0    0  0.00000000000E+00  0.00000000000E+00  0.45593999997E+02  0.45594000000E+02  0.51100000000E-03 0. -1.
         11   -1    0    0    0    0 -0.00000000000E+00 -0.00000000000E+00 -0.45593999997E+02  0.45594000000E+02  0.51100000000E-03 0.  1.
    9900012    2    1    2    0    0  0.42045696808E+02 -0.37047770576E+01  0.15733644421E+02  0.46142316967E+02  0.99999927613E+01 0.  0.
        -12    1    1    2    0    0 -0.42045696808E+02  0.37047770576E+01 -0.15733644421E+02  0.45045683033E+02  0.00000000000E+00 0.  1.
         11    1    3    3    0    0  0.16643383248E+02 -0.33808080028E+01  0.59008029250E+01  0.17979197538E+02  0.51100000000E-03 0. -1.
        -11    1    3    3    0    0  0.11583129771E+02  0.28761613968E+01  0.65074080551E+01  0.13593658799E+02  0.51100000000E-03 0.  1.
        -12    1    3    3    0    0  0.13819183789E+02 -0.32001304515E+01  0.33254334405E+01  0.14569460631E+02  0.00000000000E+00 0.  1.
</event>
<event>
 7    1  0.8398055E-009  0.4614232E+02  0.7816164E-02  0.1320468E+00
        -11   -1    0    0    0    0  0.00000000000E+00  0.00000000000E+00  0.45593999997E+02  0.45594000000E+02  0.51100000000E-03 0. -1.
         11   -1    0    0    0    0 -0.00000000000E+00 -0.00000000000E+00 -0.45593999997E+02  0.45594000000E+02  0.51100000000E-03 0.  1.
    9900012    2    1    2    0    0 -0.35112547294E+02  0.10586653230E+02 -0.26156171451E+02  0.46142317531E+02  0.99999979053E+01 0.  0.
         12    1    1    2    0    0  0.35112547294E+02 -0.10586653230E+02  0.26156171451E+02  0.45045682469E+02  0.00000000000E+00 0. -1.
         11    1    3    3    0    0 -0.22503691226E+02  0.69940424964E+01 -0.11047857154E+02  0.26026676645E+02  0.51100000000E-03 0. -1.
        -11    1    3    3    0    0 -0.84579659680E+00  0.56849114144E+00 -0.55623219861E+00  0.11610118780E+01  0.51100000000E-03 0.  1.
        -12    1    3    3    0    0 -0.11763059471E+02  0.30241195919E+01 -0.14552082099E+02  0.18954629008E+02  0.00000000000E+00 0.  1.
</event>
<event>
 7    1  0.8398055E-009  0.4614232E+02  0.7816164E-02  0.1320468E+00
        -11   -1    0    0    0    0  0.00000000000E+00  0.00000000000E+00  0.45593999997E+02  0.45594000000E+02  0.51100000000E-03 0. -1.
         11   -1    0    0    0    0 -0.00000000000E+00 -0.00000000000E+00 -0.45593999997E+02  0.45594000000E+02  0.51100000000E-03 0.  1.
    9900012    2    1    2    0    0 -0.43042000843E+01  0.14194247138E+02  0.42533642652E+02  0.46142317105E+02  0.99999940201E+01 0.  0.
        -12    1    1    2    0    0  0.43042000843E+01 -0.14194247138E+02 -0.42533642652E+02  0.45045682895E+02  0.00000000000E+00 0.  1.
         11    1    3    3    0    0 -0.19149004252E+01  0.88127502838E+01  0.24868359856E+02  0.26453104419E+02  0.51100000000E-03 0. -1.
        -11    1    3    3    0    0 -0.32997464412E+01  0.50438125941E+01  0.82137995509E+01  0.10187977002E+02  0.51100000000E-03 0.  1.
         12    1    3    3    0    0  0.91044678213E+00  0.33768425962E+00  0.94514832452E+01  0.95012356847E+01  0.00000000000E+00 0. -1.
</event>
<event>
 7    1  0.8398055E-009  0.4614231E+02  0.7816164E-02  0.1320468E+00
        -11   -1    0    0    0    0  0.00000000000E+00  0.00000000000E+00  0.45593999997E+02  0.45594000000E+02  0.51100000000E-03 0. -1.
         11   -1    0    0    0    0 -0.00000000000E+00 -0.00000000000E+00 -0.45593999997E+02  0.45594000000E+02  0.51100000000E-03 0.  1.
    9900012    2    1    2    0    0  0.59178905789E+01 -0.35968947015E+02 -0.26463697328E+02  0.46142313696E+02  0.99999629316E+01 0.  0.
         12    1    1    2    0    0 -0.59178905789E+01  0.35968947015E+02  0.26463697328E+02  0.45045686304E+02  0.00000000000E+00 0. -1.
         11    1    3    3    0    0  0.66607515215E+01 -0.22852367194E+02 -0.17329188759E+02  0.29443116012E+02  0.51100000000E-03 0. -1.
        -11    1    3    3    0    0  0.12100347749E+01 -0.99418967227E+01 -0.52197778901E+01  0.11293873387E+02  0.51100000000E-03 0.  1.
        -12    1    3    3    0    0 -0.19528957176E+01 -0.31746830985E+01 -0.39147306791E+01  0.54053242965E+01  0.00000000000E+00 0.  1.
</event>
<event>
 7    1  0.8398055E-009  0.4614233E+02  0.7816164E-02  0.1320468E+00
        -11   -1    0    0    0    0  0.00000000000E+00  0.00000000000E+00  0.45593999997E+02  0.45594000000E+02  0.51100000000E-03 0. -1.
         11   -1    0    0    0    0 -0.00000000000E+00 -0.00000000000E+00 -0.45593999997E+02  0.45594000000E+02  0.51100000000E-03 0.  1.
    9900012    2    1    2    0    0 -0.45690422800E+01 -0.44242237827E+02 -0.71316676808E+01  0.46142329407E+02  0.10000106194E+02 0.  0.
         12    1    1    2    0    0  0.45690422800E+01  0.44242237827E+02  0.71316676808E+01  0.45045670593E+02  0.00000000000E+00 0. -1.
         11    1    3    3    0    0 -0.39082547203E+01 -0.13267923523E+02 -0.37554395946E+01  0.14332326273E+02  0.51100000000E-03 0. -1.
        -11    1    3    3    0    0 -0.31757259201E+01 -0.15170125801E+02 -0.30923350785E+01  0.15804445211E+02  0.51100000000E-03 0.  1.
         12    1    3    3    0    0  0.25149383604E+01 -0.15804188503E+02 -0.28389300763E+00  0.16005557923E+02  0.00000000000E+00 0. -1.
</event>
<event>
 7    1  0.8398055E-009  0.4614232E+02  0.7816164E-02  0.1320468E+00
        -11   -1    0    0    0    0  0.00000000000E+00  0.00000000000E+00  0.45593999997E+02  0.45594000000E+02  0.51100000000E-03 0.  1.
         11   -1    0    0    0    0 -0.00000000000E+00 -0.00000000000E+00 -0.45593999997E+02  0.45594000000E+02  0.51100000000E-03 0. -1.
    9900012    2    1    2    0    0  0.41725621483E+02  0.11416190271E+02  0.12560122625E+02  0.46142316869E+02  0.99999918613E+01 0.  0.
        -12    1    1    2    0    0 -0.41725621483E+02 -0.11416190271E+02 -0.12560122625E+02  0.45045683131E+02  0.00000000000E+00 0.  1.
         11    1    3    3    0    0  0.27305479150E+02  0.87136085724E+01  0.57265484785E+01  0.29228573754E+02  0.51100000000E-03 0. -1.
        -11    1    3    3    0    0  0.13354607296E+02  0.12727683298E+01  0.48963002560E+01  0.14280729383E+02  0.51100000000E-03 0.  1.
        -12    1    3    3    0    0  0.10655350366E+01  0.14298133689E+01  0.19372738901E+01  0.26330137313E+01  0.00000000000E+00 0.  1.
</event>
<event>
 7    1  0.8398055E-009  0.4614232E+02  0.7816164E-02  0.1320468E+00
        -11   -1    0    0    0    0  0.00000000000E+00  0.00000000000E+00  0.45593999997E+02  0.45594000000E+02  0.51100000000E-03 0. -1.
         11   -1    0    0    0    0 -0.00000000000E+00 -0.00000000000E+00 -0.45593999997E+02  0.45594000000E+02  0.51100000000E-03 0.  1.
    9900012    2    1    2    0    0 -0.17335159253E+02 -0.23734667679E+02 -0.34136069686E+02  0.46142318190E+02  0.10000003909E+02 0.  0.
         12    1    1    2    0    0  0.17335159253E+02  0.23734667679E+02  0.34136069686E+02  0.45045681810E+02  0.00000000000E+00 0. -1.
         11    1    3    3    0    0  0.13298180570E+00  0.38994153719E+00 -0.15435050784E+01  0.15975439748E+01  0.51100000000E-03 0. -1.
        -11    1    3    3    0    0 -0.12374121000E+02 -0.12497149854E+02 -0.17294692485E+02  0.24665847105E+02  0.51100000000E-03 0.  1.
        -12    1    3    3    0    0 -0.50940200583E+01 -0.11627459362E+02 -0.15297872122E+02  0.19878927110E+02  0.00000000000E+00 0.  1.
</event>
<event>
 7    1  0.8398055E-009  0.4614232E+02  0.7816164E-02  0.1320468E+00
        -11   -1    0    0    0    0  0.00000000000E+00  0.00000000000E+00  0.45593999997E+02  0.45594000000E+02  0.51100000000E-03 0. -1.
         11   -1    0    0    0    0 -0.00000000000E+00 -0.00000000000E+00 -0.45593999997E+02  0.45594000000E+02  0.51100000000E-03 0.  1.
    9900012    2    1    2    0    0 -0.29814947610E+01 -0.11758380589E+02  0.43381616565E+02  0.46142317844E+02  0.10000000757E+02 0.  0.
        -12    1    1    2    0    0  0.29814947610E+01  0.11758380589E+02 -0.43381616565E+02  0.45045682156E+02  0.00000000000E+00 0.  1.
         11    1    3    3    0    0  0.62104112861E+00 -0.15725860350E+01  0.12339825677E+02  0.12455120108E+02  0.51100000000E-03 0. -1.
        -11    1    3    3    0    0 -0.35162409628E+01 -0.22636819526E+01  0.17548978772E+02  0.18040367587E+02  0.51100000000E-03 0.  1.
         12    1    3    3    0    0 -0.86294926791E-01 -0.79221126014E+01  0.13492812117E+02  0.15646830149E+02  0.00000000000E+00 0. -1.
</event>
<event>
 7    1  0.8398055E-009  0.4614231E+02  0.7816164E-02  0.1320468E+00
        -11   -1    0    0    0    0  0.00000000000E+00  0.00000000000E+00  0.45593999997E+02  0.45594000000E+02  0.51100000000E-03 0. -1.
         11   -1    0    0    0    0 -0.00000000000E+00 -0.00000000000E+00 -0.45593999997E+02  0.45594000000E+02  0.51100000000E-03 0.  1.
    9900012    2    1    2    0    0  0.91817285438E+00  0.36238237712E+02 -0.26740627197E+02  0.46142311452E+02  0.99999424720E+01 0.  0.
         12    1    1    2    0    0 -0.91817285438E+00 -0.36238237712E+02  0.26740627197E+02  0.45045688548E+02  0.00000000000E+00 0. -1.
         11    1    3    3    0    0 -0.10529460077E+01  0.52399069793E+01 -0.36567653750E+01  0.64758979081E+01  0.51100000000E-03 0. -1.
        -11    1    3    3    0    0  0.30129281880E+01  0.19417988497E+02 -0.19025123016E+02  0.27351258098E+02  0.51100000000E-03 0.  1.
         12    1    3    3    0    0 -0.10418093259E+01  0.11580342235E+02 -0.40587388062E+01  0.12315155446E+02  0.00000000000E+00 0. -1.
</event>
<event>
 7    1  0.8398055E-009  0.4614232E+02  0.7816164E-02  0.1320468E+00
        -11   -1    0    0    0    0  0.00000000000E+00  0.00000000000E+00  0.45593999997E+02  0.45594000000E+02  0.51100000000E-03 0. -1.
         11   -1    0    0    0    0 -0.00000000000E+00 -0.00000000000E+00 -0.45593999997E+02  0.45594000000E+02  0.51100000000E-03 0.  1.
    9900012    2    1    2    0    0 -0.16989175088E+02  0.25290877033E+01 -0.41642347946E+02  0.46142317663E+02  0.99999991049E+01 0.  0.
         12    1    1    2    0    0  0.16989175088E+02 -0.25290877033E+01  0.41642347946E+02  0.45045682337E+02  0.00000000000E+00 0. -1.
         11    1    3    3    0    0 -0.23592870878E+01 -0.25216718600E+01 -0.38685081288E+01  0.51855973557E+01  0.51100000000E-03 0. -1.
        -11    1    3    3    0    0 -0.36677885376E+01  0.52016806098E+00 -0.12509613791E+02  0.13046596684E+02  0.51100000000E-03 0.  1.
        -12    1    3    3    0    0 -0.10962099463E+02  0.45305915023E+01 -0.25264226026E+02  0.27910123624E+02  0.00000000000E+00 0.  1.
</event>
<event>
 7    1  0.8398055E-009  0.4614232E+02  0.7816164E-02  0.1320468E+00
        -11   -1    0    0    0    0  0.00000000000E+00  0.00000000000E+00  0.45593999997E+02  0.45594000000E+02  0.51100000000E-03 0. -1.
         11   -1    0    0    0    0 -0.00000000000E+00 -0.00000000000E+00 -0.45593999997E+02  0.45594000000E+02  0.51100000000E-03 0.  1.
    9900012    2    1    2    0    0  0.67017117737E+00 -0.10479458569E+02  0.43804625854E+02  0.46142318437E+02  0.10000006162E+02 0.  0.
        -12    1    1    2    0    0 -0.67017117737E+00  0.10479458569E+02 -0.43804625854E+02  0.45045681563E+02  0.00000000000E+00 0.  1.
         11    1    3    3    0    0 -0.56980926091E+00 -0.62632829526E+01  0.16227051459E+02  0.17403177735E+02  0.51100000000E-03 0. -1.
        -11    1    3    3    0    0  0.17435761039E+01  0.74017268004E+00  0.23205419288E+01  0.29954679653E+01  0.51100000000E-03 0.  1.
         12    1    3    3    0    0 -0.50359566559E+00 -0.49563482967E+01  0.25257032465E+02  0.25743672737E+02  0.00000000000E+00 0. -1.
</event>
<event>
 7    1  0.8398055E-009  0.4614232E+02  0.7816164E-02  0.1320468E+00
        -11   -1    0    0    0    0  0.00000000000E+00  0.00000000000E+00  0.45593999997E+02  0.45594000000E+02  0.51100000000E-03 0. -1.
         11   -1    0    0    0    0 -0.00000000000E+00 -0.00000000000E+00 -0.45593999997E+02  0.45594000000E+02  0.51100000000E-03 0.  1.
    9900012    2    1    2    0    0  0.27920076547E+02 -0.22777914410E+02  0.27032377681E+02  0.46142317606E+02  0.99999985857E+01 0.  0.
        -12    1    1    2    0    0 -0.27920076547E+02  0.22777914410E+02 -0.27032377681E+02  0.45045682394E+02  0.00000000000E+00 0.  1.
         11    1    3    3    0    0  0.59250157815E+01 -0.59541767029E+01  0.71905536357E+01  0.11057219093E+02  0.51100000000E-03 0. -1.
        -11    1    3    3    0    0  0.21603270031E+02 -0.17548441279E+02  0.18219505381E+02  0.33265589487E+02  0.51100000000E-03 0.  1.
         12    1    3    3    0    0  0.39179073542E+00  0.72470357235E+00  0.16223186637E+01  0.18195090258E+01  0.00000000000E+00 0. -1.
</event>
<event>
 7    1  0.8398055E-009  0.4614232E+02  0.7816164E-02  0.1320468E+00
        -11   -1    0    0    0    0  0.00000000000E+00  0.00000000000E+00  0.45593999997E+02  0.45594000000E+02  0.51100000000E-03 0. -1.
         11   -1    0    0    0    0 -0.00000000000E+00 -0.00000000000E+00 -0.45593999997E+02  0.45594000000E+02  0.51100000000E-03 0.  1.
    9900012    2    1    2    0    0 -0.50101535035E+00 -0.29524856420E+02  0.34016841592E+02  0.46142315691E+02  0.99999811212E+01 0.  0.
        -12    1    1    2    0    0  0.50101535035E+00  0.29524856420E+02 -0.34016841592E+02  0.45045684309E+02  0.00000000000E+00 0.  1.
         11    1    3    3    0    0 -0.80254674224E+00 -0.10117797944E+02  0.14556310398E+02  0.17745424458E+02  0.51100000000E-03 0. -1.
        -11    1    3    3    0    0 -0.22476676082E+01 -0.67623932617E+01  0.10504265954E+02  0.12693367394E+02  0.51100000000E-03 0.  1.
        -12    1    3    3    0    0  0.25491990001E+01 -0.12644665215E+02  0.89562652389E+01  0.15703523839E+02  0.00000000000E+00 0.  1.
</event>
<event>
 7    1  0.8398055E-009  0.4614231E+02  0.7816164E-02  0.1320468E+00
        -11   -1    0    0    0    0  0.00000000000E+00  0.00000000000E+00  0.45593999997E+02  0.45594000000E+02  0.51100000000E-03 0. -1.
         11   -1    0    0    0    0 -0.00000000000E+00 -0.00000000000E+00 -0.45593999997E+02  0.45594000000E+02  0.51100000000E-03 0.  1.
    9900012    2    1    2    0    0 -0.22788851661E+02  0.31033672305E+01  0.38731784598E+02  0.46142314454E+02  0.99999698386E+01 0.  0.
        -12    1    1    2    0    0  0.22788851661E+02 -0.31033672305E+01 -0.38731784598E+02  0.45045685546E+02  0.00000000000E+00 0.  1.
         11    1    3    3    0    0 -0.25378905611E+01 -0.20431718061E+00  0.14631388613E+01  0.29365642508E+01  0.51100000000E-03 0. -1.
        -11    1    3    3    0    0 -0.70611455455E+01 -0.21760294903E+01  0.10143344553E+02  0.12549195980E+02  0.51100000000E-03 0.  1.
         12    1    3    3    0    0 -0.13189815555E+02  0.54837139014E+01  0.27125301183E+02  0.30656554223E+02  0.00000000000E+00 0. -1.
</event>
<event>
 7    1  0.8398055E-009  0.4614232E+02  0.7816164E-02  0.1320468E+00
        -11   -1    0    0    0    0  0.00000000000E+00  0.00000000000E+00  0.45593999997E+02  0.45594000000E+02  0.51100000000E-03 0.  1.
         11   -1    0    0    0    0 -0.00000000000E+00 -0.00000000000E+00 -0.45593999997E+02  0.45594000000E+02  0.51100000000E-03 0. -1.
    9900012    2    1    2    0    0 -0.43429244461E+02 -0.11424433208E+02 -0.35349863664E+01  0.46142322326E+02  0.10000041622E+02 0.  0.
        -12    1    1    2    0    0  0.43429244461E+02  0.11424433208E+02  0.35349863664E+01  0.45045677674E+02  0.00000000000E+00 0.  1.
         11    1    3    3    0    0 -0.33031240857E+02 -0.81035672333E+01 -0.50236673516E+01  0.34379760156E+02  0.51100000000E-03 0. -1.
        -11    1    3    3    0    0 -0.33978622029E+01 -0.29642060314E+01 -0.33023918165E+00  0.45211771835E+01  0.51100000000E-03 0.  1.
         12    1    3    3    0    0 -0.70001414008E+01 -0.35665994331E+00  0.18189201668E+01  0.72413849862E+01  0.00000000000E+00 0. -1.
</event>
<event>
 7    1  0.8398055E-009  0.4614232E+02  0.7816164E-02  0.1320468E+00
        -11   -1    0    0    0    0  0.00000000000E+00  0.00000000000E+00  0.45593999997E+02  0.45594000000E+02  0.51100000000E-03 0. -1.
         11   -1    0    0    0    0 -0.00000000000E+00 -0.00000000000E+00 -0.45593999997E+02  0.45594000000E+02  0.51100000000E-03 0.  1.
    9900012    2    1    2    0    0 -0.18844356491E+01 -0.32426717323E+02 -0.31210096881E+02  0.46142320502E+02  0.10000024998E+02 0.  0.
         12    1    1    2    0    0  0.18844356491E+01  0.32426717323E+02  0.31210096881E+02  0.45045679498E+02  0.00000000000E+00 0. -1.
         11    1    3    3    0    0 -0.50583302467E+00 -0.70865332027E+01 -0.37960958149E+01  0.80551327474E+01  0.51100000000E-03 0.  1.
        -11    1    3    3    0    0 -0.33011340056E+01 -0.95698879982E+01 -0.74281755559E+01  0.12556195059E+02  0.51100000000E-03 0. -1.
         12    1    3    3    0    0  0.19225313812E+01 -0.15770296122E+02 -0.19985825510E+02  0.25530992696E+02  0.00000000000E+00 0. -1.
</event>
<event>
 7    1  0.8398055E-009  0.4614232E+02  0.7816164E-02  0.1320468E+00
        -11   -1    0    0    0    0  0.00000000000E+00  0.00000000000E+00  0.45593999997E+02  0.45594000000E+02  0.51100000000E-03 0.  1.
         11   -1    0    0    0    0 -0.00000000000E+00 -0.00000000000E+00 -0.45593999997E+02  0.45594000000E+02  0.51100000000E-03 0. -1.
    9900012    2    1    2    0    0 -0.28348614642E+02 -0.29932445752E+02 -0.18152638327E+02  0.46142317198E+02  0.99999948678E+01 0.  0.
         12    1    1    2    0    0  0.28348614642E+02  0.29932445752E+02  0.18152638327E+02  0.45045682802E+02  0.00000000000E+00 0. -1.
         11    1    3    3    0    0 -0.71290541600E+01 -0.12598061166E+02 -0.72411185921E+01  0.16185436573E+02  0.51100000000E-03 0. -1.
        -11    1    3    3    0    0 -0.13848312457E+02 -0.13019127025E+02 -0.96700821220E+01  0.21325663293E+02  0.51100000000E-03 0.  1.
         12    1    3    3    0    0 -0.73712480253E+01 -0.43152575619E+01 -0.12414376124E+01  0.86312173314E+01  0.00000000000E+00 0. -1.
</event>
<event>
 7    1  0.8398055E-009  0.4614232E+02  0.7816164E-02  0.1320468E+00
        -11   -1    0    0    0    0  0.00000000000E+00  0.00000000000E+00  0.45593999997E+02  0.45594000000E+02  0.51100000000E-03 0. -1.
         11   -1    0    0    0    0 -0.00000000000E+00 -0.00000000000E+00 -0.45593999997E+02  0.45594000000E+02  0.51100000000E-03 0.  1.
    9900012    2    1    2    0    0 -0.16831133315E+02 -0.82313476723E+01  0.40964269399E+02  0.46142317626E+02  0.99999987657E+01 0.  0.
        -12    1    1    2    0    0  0.16831133315E+02  0.82313476723E+01 -0.40964269399E+02  0.45045682374E+02  0.00000000000E+00 0.  1.
         11    1    3    3    0    0 -0.87989716734E+01 -0.69955309904E+01  0.14947107263E+02  0.18702282539E+02  0.51100000000E-03 0. -1.
        -11    1    3    3    0    0 -0.58540444898E+01 -0.22509830804E+01  0.17481471009E+02  0.18572522463E+02  0.51100000000E-03 0.  1.
        -12    1    3    3    0    0 -0.21781171519E+01  0.10151663984E+01  0.85356911263E+01  0.88675126246E+01  0.00000000000E+00 0.  1.
</event>
<event>
 7    1  0.8398055E-009  0.4614232E+02  0.7816164E-02  0.1320468E+00
        -11   -1    0    0    0    0  0.00000000000E+00  0.00000000000E+00  0.45593999997E+02  0.45594000000E+02  0.51100000000E-03 0. -1.
         11   -1    0    0    0    0 -0.00000000000E+00 -0.00000000000E+00 -0.45593999997E+02  0.45594000000E+02  0.51100000000E-03 0.  1.
    9900012    2    1    2    0    0  0.81512788676E+01 -0.60837634180E+00 -0.44297857592E+02  0.46142315898E+02  0.99999830097E+01 0.  0.
         12    1    1    2    0    0 -0.81512788676E+01  0.60837634180E+00  0.44297857592E+02  0.45045684102E+02  0.00000000000E+00 0. -1.
         11    1    3    3    0    0  0.31326135089E+01 -0.62519646953E+00 -0.54503087164E+01  0.63174364569E+01  0.51100000000E-03 0. -1.
        -11    1    3    3    0    0  0.56974730200E+00 -0.23326963860E+01 -0.24564954125E+02  0.24682039135E+02  0.51100000000E-03 0.  1.
         12    1    3    3    0    0  0.44489180566E+01  0.23495165137E+01 -0.14282594751E+02  0.15142840306E+02  0.00000000000E+00 0. -1.
</event>
<event>
 7    1  0.8398055E-009  0.4614232E+02  0.7816164E-02  0.1320468E+00
        -11   -1    0    0    0    0  0.00000000000E+00  0.00000000000E+00  0.45593999997E+02  0.45594000000E+02  0.51100000000E-03 0.  1.
         11   -1    0    0    0    0 -0.00000000000E+00 -0.00000000000E+00 -0.45593999997E+02  0.45594000000E+02  0.51100000000E-03 0. -1.
    9900012    2    1    2    0    0  0.13135593478E+02  0.42679705614E+02  0.59171364548E+01  0.46142316621E+02  0.99999896014E+01 0.  0.
        -12    1    1    2    0    0 -0.13135593478E+02 -0.42679705614E+02 -0.59171364548E+01  0.45045683379E+02  0.00000000000E+00 0.  1.
         11    1    3    3    0    0 -0.36012782358E+00  0.71068541521E+01  0.19422216190E+01  0.73762655231E+01  0.51100000000E-03 0. -1.
        -11    1    3    3    0    0  0.82953413653E+01  0.17647987068E+02  0.48049181280E+01  0.20083609596E+02  0.51100000000E-03 0.  1.
        -12    1    3    3    0    0  0.52003799362E+01  0.17924864394E+02 -0.83000329217E+00  0.18682441502E+02  0.00000000000E+00 0.  1.
</event>
<event>
 7    1  0.8398055E-009  0.4614232E+02  0.7816164E-02  0.1320468E+00
        -11   -1    0    0    0    0  0.00000000000E+00  0.00000000000E+00  0.45593999997E+02  0.45594000000E+02  0.51100000000E-03 0. -1.
         11   -1    0    0    0    0 -0.00000000000E+00 -0.00000000000E+00 -0.45593999997E+02  0.45594000000E+02  0.51100000000E-03 0.  1.
    9900012    2    1    2    0    0  0.97589421491E+01 -0.36942220049E+02 -0.23856842565E+02  0.46142317508E+02  0.99999976877E+01 0.  0.
         12    1    1    2    0    0 -0.97589421491E+01  0.36942220049E+02  0.23856842565E+02  0.45045682492E+02  0.00000000000E+00 0. -1.
         11    1    3    3    0    0  0.21744421981E+01 -0.59999242797E+01 -0.51854131337E+01  0.82228826979E+01  0.51100000000E-03 0. -1.
        -11    1    3    3    0    0  0.20655176811E+01 -0.14810184292E+02 -0.13383962552E+02  0.20068342630E+02  0.51100000000E-03 0.  1.
         12    1    3    3    0    0  0.55189822699E+01 -0.16132111477E+02 -0.52874668800E+01  0.17851092180E+02  0.00000000000E+00 0. -1.
</event>
<event>
 7    1  0.8398055E-009  0.4614232E+02  0.7816164E-02  0.1320468E+00
        -11   -1    0    0    0    0  0.00000000000E+00  0.00000000000E+00  0.45593999997E+02  0.45594000000E+02  0.51100000000E-03 0.  1.
         11   -1    0    0    0    0 -0.00000000000E+00 -0.00000000000E+00 -0.45593999997E+02  0.45594000000E+02  0.51100000000E-03 0. -1.
    9900012    2    1    2    0    0  0.23603940179E+02  0.37902495981E+02  0.59471219538E+01  0.46142318153E+02  0.10000003572E+02 0.  0.
         12    1    1    2    0    0 -0.23603940179E+02 -0.37902495981E+02 -0.59471219538E+01  0.45045681847E+02  0.00000000000E+00 0. -1.
         11    1    3    3    0    0  0.21261629360E+01  0.13154841736E+00 -0.33455624850E+00  0.21563399456E+01  0.51100000000E-03 0. -1.
        -11    1    3    3    0    0  0.66904686372E+01  0.11456155381E+02  0.31765271623E+01  0.13641707803E+02  0.51100000000E-03 0.  1.
         12    1    3    3    0    0  0.14787308605E+02  0.26314792182E+02  0.31051510401E+01  0.30344270404E+02  0.00000000000E+00 0. -1.
</event>
<event>
 7    1  0.8398055E-009  0.4614232E+02  0.7816164E-02  0.1320468E+00
        -11   -1    0    0    0    0  0.00000000000E+00  0.00000000000E+00  0.45593999997E+02  0.45594000000E+02  0.51100000000E-03 0. -1.
         11   -1    0    0    0    0 -0.00000000000E+00 -0.00000000000E+00 -0.45593999997E+02  0.45594000000E+02  0.51100000000E-03 0.  1.
    9900012    2    1    2    0    0 -0.16737504160E+02  0.87311408619E+01  0.40899101932E+02  0.46142318685E+02  0.10000008427E+02 0.  0.
        -12    1    1    2    0    0  0.16737504160E+02 -0.87311408619E+01 -0.40899101932E+02  0.45045681315E+02  0.00000000000E+00 0.  1.
         11    1    3    3    0    0 -0.71084147967E+01  0.66393544638E+01  0.27913124944E+02  0.29559315504E+02  0.51100000000E-03 0. -1.
        -11    1    3    3    0    0 -0.73733649865E+00 -0.46825390392E+00  0.39731601085E+00  0.95957652346E+00  0.51100000000E-03 0.  1.
         12    1    3    3    0    0 -0.88917528646E+01  0.25600403020E+01  0.12588660977E+02  0.15623426658E+02  0.00000000000E+00 0. -1.
</event>
<event>
 7    1  0.8398055E-009  0.4614232E+02  0.7816164E-02  0.1320468E+00
        -11   -1    0    0    0    0  0.00000000000E+00  0.00000000000E+00  0.45593999997E+02  0.45594000000E+02  0.51100000000E-03 0. -1.
         11   -1    0    0    0    0 -0.00000000000E+00 -0.00000000000E+00 -0.45593999997E+02  0.45594000000E+02  0.51100000000E-03 0.  1.
    9900012    2    1    2    0    0 -0.11970588576E+02  0.22136059725E+02 -0.37360585206E+02  0.46142318099E+02  0.10000003079E+02 0.  0.
         12    1    1    2    0    0  0.11970588576E+02 -0.22136059725E+02  0.37360585206E+02  0.45045681901E+02  0.00000000000E+00 0. -1.
         11    1    3    3    0    0 -0.75419428858E+01  0.18529180458E+02 -0.22733319590E+02  0.30282259671E+02  0.51100000000E-03 0. -1.
        -11    1    3    3    0    0 -0.13290972406E+01  0.25087798473E+01 -0.65220987880E+01  0.71132445943E+01  0.51100000000E-03 0.  1.
         12    1    3    3    0    0 -0.30995484498E+01  0.10980994196E+01 -0.81051668278E+01  0.87468138333E+01  0.00000000000E+00 0. -1.
</event>
<event>
 7    1  0.8398055E-009  0.4614232E+02  0.7816164E-02  0.1320468E+00
        -11   -1    0    0    0    0  0.00000000000E+00  0.00000000000E+00  0.45593999997E+02  0.45594000000E+02  0.51100000000E-03 0. -1.
         11   -1    0    0    0    0 -0.00000000000E+00 -0.00000000000E+00 -0.45593999997E+02  0.45594000000E+02  0.51100000000E-03 0.  1.
    9900012    2    1    2    0    0 -0.18009364144E+02  0.50912229766E+01  0.40973841743E+02  0.46142318126E+02  0.10000003331E+02 0.  0.
        -12    1    1    2    0    0  0.18009364144E+02 -0.50912229766E+01 -0.40973841743E+02  0.45045681874E+02  0.00000000000E+00 0.  1.
         11    1    3    3    0    0 -0.22680094904E+01 -0.36016660535E+00  0.13474653256E+02  0.13668938059E+02  0.51100000000E-03 0. -1.
        -11    1    3    3    0    0 -0.74244107184E+01  0.19288681770E+01  0.85820247857E+01  0.11510584548E+02  0.51100000000E-03 0.  1.
         12    1    3    3    0    0 -0.83169439349E+01  0.35225214049E+01  0.18917163702E+02  0.20962795519E+02  0.00000000000E+00 0. -1.
</event>
<event>
 7    1  0.8398055E-009  0.4614232E+02  0.7816164E-02  0.1320468E+00
        -11   -1    0    0    0    0  0.00000000000E+00  0.00000000000E+00  0.45593999997E+02  0.45594000000E+02  0.51100000000E-03 0. -1.
         11   -1    0    0    0    0 -0.00000000000E+00 -0.00000000000E+00 -0.45593999997E+02  0.45594000000E+02  0.51100000000E-03 0.  1.
    9900012    2    1    2    0    0  0.33993135448E+01 -0.38320065141E+01 -0.44753479644E+02  0.46142317113E+02  0.99999940893E+01 0.  0.
         12    1    1    2    0    0 -0.33993135448E+01  0.38320065141E+01  0.44753479644E+02  0.45045682887E+02  0.00000000000E+00 0. -1.
         11    1    3    3    0    0 -0.73864655165E+00 -0.28244773350E+01 -0.11294904702E+02  0.11666110896E+02  0.51100000000E-03 0. -1.
        -11    1    3    3    0    0  0.51541684949E+01 -0.13675995978E+01 -0.32760873827E+02  0.33192026688E+02  0.51100000000E-03 0.  1.
         12    1    3    3    0    0 -0.10162083985E+01  0.36007041868E+00 -0.69770111559E+00  0.12841795288E+01  0.00000000000E+00 0. -1.
</event>
<event>
 7    1  0.8398055E-009  0.4614232E+02  0.7816164E-02  0.1320468E+00
        -11   -1    0    0    0    0  0.00000000000E+00  0.00000000000E+00  0.45593999997E+02  0.45594000000E+02  0.51100000000E-03 0.  1.
         11   -1    0    0    0    0 -0.00000000000E+00 -0.00000000000E+00 -0.45593999997E+02  0.45594000000E+02  0.51100000000E-03 0. -1.
    9900012    2    1    2    0    0  0.41164085945E+02  0.10333472949E+02  0.15094727283E+02  0.46142318446E+02  0.10000006248E+02 0.  0.
        -12    1    1    2    0    0 -0.41164085945E+02 -0.10333472949E+02 -0.15094727283E+02  0.45045681554E+02  0.00000000000E+00 0.  1.
         11    1    3    3    0    0  0.10982111579E+01 -0.26353634426E+00 -0.94867669146E+00  0.14749599581E+01  0.51100000000E-03 0. -1.
        -11    1    3    3    0    0  0.35320070534E+02  0.77780463255E+01  0.13990345356E+02  0.38778024068E+02  0.51100000000E-03 0.  1.
        -12    1    3    3    0    0  0.47458042535E+01  0.28189629676E+01  0.20530586182E+01  0.58893344204E+01  0.00000000000E+00 0.  1.
</event>
<event>
 7    1  0.8398055E-009  0.4614232E+02  0.7816164E-02  0.1320468E+00
        -11   -1    0    0    0    0  0.00000000000E+00  0.00000000000E+00  0.45593999997E+02  0.45594000000E+02  0.51100000000E-03 0. -1.
         11   -1    0    0    0    0 -0.00000000000E+00 -0.00000000000E+00 -0.45593999997E+02  0.45594000000E+02  0.51100000000E-03 0.  1.
    9900012    2    1    2    0    0 -0.31010935008E+02  0.21573664690E+02  0.24535938672E+02  0.46142318912E+02  0.10000010490E+02 0.  0.
        -12    1    1    2    0    0  0.31010935008E+02 -0.21573664690E+02 -0.24535938672E+02  0.45045681088E+02  0.00000000000E+00 0.  1.
         11    1    3    3    0    0 -0.66320865013E+01  0.70652032703E+01  0.73248612409E+01  0.12147232651E+02  0.51100000000E-03 0. -1.
        -11    1    3    3    0    0 -0.11417369233E+02  0.10995421403E+02  0.84750002073E+01  0.17974460793E+02  0.51100000000E-03 0.  1.
        -12    1    3    3    0    0 -0.12961479273E+02  0.35130400169E+01  0.87360772236E+01  0.16020625467E+02  0.00000000000E+00 0.  1.
</event>
<event>
 7    1  0.8398055E-009  0.4614232E+02  0.7816164E-02  0.1320468E+00
        -11   -1    0    0    0    0  0.00000000000E+00  0.00000000000E+00  0.45593999997E+02  0.45594000000E+02  0.51100000000E-03 0. -1.
         11   -1    0    0    0    0 -0.00000000000E+00 -0.00000000000E+00 -0.45593999997E+02  0.45594000000E+02  0.51100000000E-03 0.  1.
    9900012    2    1    2    0    0 -0.30476856332E+01  0.25532742273E+02  0.36985188233E+02  0.46142318028E+02  0.10000002434E+02 0.  0.
        -12    1    1    2    0    0  0.30476856332E+01 -0.25532742273E+02 -0.36985188233E+02  0.45045681972E+02  0.00000000000E+00 0.  1.
         11    1    3    3    0    0 -0.19170235785E+01  0.83931482575E+01  0.77891975319E+01  0.11609974829E+02  0.51100000000E-03 0. -1.
        -11    1    3    3    0    0  0.19361264536E+01  0.14048284672E+01  0.32956653526E+01  0.40722891651E+01  0.51100000000E-03 0.  1.
         12    1    3    3    0    0 -0.30667885083E+01  0.15734765548E+02  0.25900325348E+02  0.30460054034E+02  0.00000000000E+00 0. -1.
</event>
<event>
 7    1  0.8398055E-009  0.4614232E+02  0.7816164E-02  0.1320468E+00
        -11   -1    0    0    0    0  0.00000000000E+00  0.00000000000E+00  0.45593999997E+02  0.45594000000E+02  0.51100000000E-03 0.  1.
         11   -1    0    0    0    0 -0.00000000000E+00 -0.00000000000E+00 -0.45593999997E+02  0.45594000000E+02  0.51100000000E-03 0. -1.
    9900012    2    1    2    0    0 -0.32960782481E+02  0.30596985474E+02 -0.25543679124E+01  0.46142317662E+02  0.99999990973E+01 0.  0.
         12    1    1    2    0    0  0.32960782481E+02 -0.30596985474E+02  0.25543679124E+01  0.45045682338E+02  0.00000000000E+00 0. -1.
         11    1    3    3    0    0 -0.14726482150E+02  0.11167975034E+02 -0.16458922552E+01  0.18555374005E+02  0.51100000000E-03 0.  1.
        -11    1    3    3    0    0 -0.14744064323E+02  0.18094141573E+02 -0.26002413256E+01  0.23485030280E+02  0.51100000000E-03 0. -1.
        -12    1    3    3    0    0 -0.34902360073E+01  0.13348688670E+01  0.16917656684E+01  0.41019133774E+01  0.00000000000E+00 0.  1.
</event>
<event>
 7    1  0.8398055E-009  0.4614232E+02  0.7816164E-02  0.1320468E+00
        -11   -1    0    0    0    0  0.00000000000E+00  0.00000000000E+00  0.45593999997E+02  0.45594000000E+02  0.51100000000E-03 0.  1.
         11   -1    0    0    0    0 -0.00000000000E+00 -0.00000000000E+00 -0.45593999997E+02  0.45594000000E+02  0.51100000000E-03 0. -1.
    9900012    2    1    2    0    0 -0.22934737187E+02 -0.32291694218E+02  0.21455952670E+02  0.46142316630E+02  0.99999896834E+01 0.  0.
        -12    1    1    2    0    0  0.22934737187E+02  0.32291694218E+02 -0.21455952670E+02  0.45045683370E+02  0.00000000000E+00 0.  1.
         11    1    3    3    0    0 -0.38902408836E+01 -0.73503939554E+01  0.36357589576E+01  0.90763984537E+01  0.51100000000E-03 0. -1.
        -11    1    3    3    0    0 -0.57799025830E+01 -0.12734413037E+02  0.10999275013E+02  0.17792037555E+02  0.51100000000E-03 0.  1.
        -12    1    3    3    0    0 -0.13264593720E+02 -0.12206887225E+02  0.68209186998E+01  0.19273880621E+02  0.00000000000E+00 0.  1.
</event>
<event>
 7    1  0.8398055E-009  0.4614232E+02  0.7816164E-02  0.1320468E+00
        -11   -1    0    0    0    0  0.00000000000E+00  0.00000000000E+00  0.45593999997E+02  0.45594000000E+02  0.51100000000E-03 0.  1.
         11   -1    0    0    0    0 -0.00000000000E+00 -0.00000000000E+00 -0.45593999997E+02  0.45594000000E+02  0.51100000000E-03 0. -1.
    9900012    2    1    2    0    0 -0.91610449731E+01  0.42700659622E+02  0.11038234008E+02  0.46142315554E+02  0.99999798751E+01 0.  0.
         12    1    1    2    0    0  0.91610449731E+01 -0.42700659622E+02 -0.11038234008E+02  0.45045684446E+02  0.00000000000E+00 0. -1.
         11    1    3    3    0    0 -0.28494496437E+01  0.22809117120E+02  0.54980174677E+01  0.23634791799E+02  0.51100000000E-03 0. -1.
        -11    1    3    3    0    0 -0.49430713661E+01  0.16274542129E+02  0.17597934621E+01  0.17099460498E+02  0.51100000000E-03 0.  1.
         12    1    3    3    0    0 -0.13685239633E+01  0.36170003739E+01  0.37804230781E+01  0.54080632571E+01  0.00000000000E+00 0. -1.
</event>
<event>
 7    1  0.8398055E-009  0.4614232E+02  0.7816164E-02  0.1320468E+00
        -11   -1    0    0    0    0  0.00000000000E+00  0.00000000000E+00  0.45593999997E+02  0.45594000000E+02  0.51100000000E-03 0. -1.
         11   -1    0    0    0    0 -0.00000000000E+00 -0.00000000000E+00 -0.45593999997E+02  0.45594000000E+02  0.51100000000E-03 0.  1.
    9900012    2    1    2    0    0  0.87377816915E+01  0.25373281952E+02  0.36179569224E+02  0.46142317686E+02  0.99999993154E+01 0.  0.
        -12    1    1    2    0    0 -0.87377816915E+01 -0.25373281952E+02 -0.36179569224E+02  0.45045682314E+02  0.00000000000E+00 0.  1.
         11    1    3    3    0    0  0.55721356617E+01  0.11821563162E+02  0.15963711847E+02  0.20630999676E+02  0.51100000000E-03 0. -1.
        -11    1    3    3    0    0  0.32872892359E+01  0.17624100253E+01  0.56796748170E+01  0.67949294261E+01  0.51100000000E-03 0.  1.
         12    1    3    3    0    0 -0.12164320612E+00  0.11789308765E+02  0.14536182560E+02  0.18716388584E+02  0.00000000000E+00 0. -1.
</event>
<event>
 7    1  0.8398055E-009  0.4614232E+02  0.7816164E-02  0.1320468E+00
        -11   -1    0    0    0    0  0.00000000000E+00  0.00000000000E+00  0.45593999997E+02  0.45594000000E+02  0.51100000000E-03 0. -1.
         11   -1    0    0    0    0 -0.00000000000E+00 -0.00000000000E+00 -0.45593999997E+02  0.45594000000E+02  0.51100000000E-03 0.  1.
    9900012    2    1    2    0    0  0.25016269095E+02  0.24460750746E+01  0.37380696930E+02  0.46142317569E+02  0.99999982523E+01 0.  0.
        -12    1    1    2    0    0 -0.25016269095E+02 -0.24460750746E+01 -0.37380696930E+02  0.45045682431E+02  0.00000000000E+00 0.  1.
         11    1    3    3    0    0  0.17831911059E+02  0.52836338416E+01  0.27398573029E+02  0.33114583538E+02  0.51100000000E-03 0. -1.
        -11    1    3    3    0    0  0.44913109583E+01 -0.42359253759E+00  0.39582687104E+01  0.60015994707E+01  0.51100000000E-03 0.  1.
         12    1    3    3    0    0  0.26930470778E+01 -0.24139662294E+01  0.60238551897E+01  0.70261345609E+01  0.00000000000E+00 0. -1.
</event>
<event>
 7    1  0.8398055E-009  0.4614232E+02  0.7816164E-02  0.1320468E+00
        -11   -1    0    0    0    0  0.00000000000E+00  0.00000000000E+00  0.45593999997E+02  0.45594000000E+02  0.51100000000E-03 0. -1.
         11   -1    0    0    0    0 -0.00000000000E+00 -0.00000000000E+00 -0.45593999997E+02  0.45594000000E+02  0.51100000000E-03 0.  1.
    9900012    2    1    2    0    0  0.16326517463E+02  0.21262491446E+02  0.36200340942E+02  0.46142318750E+02  0.10000009017E+02 0.  0.
        -12    1    1    2    0    0 -0.16326517463E+02 -0.21262491446E+02 -0.36200340942E+02  0.45045681250E+02  0.00000000000E+00 0.  1.
         11    1    3    3    0    0  0.66057620690E+01  0.83756899474E+01  0.15684876096E+02  0.18968490003E+02  0.51100000000E-03 0. -1.
        -11    1    3    3    0    0  0.95089273004E+01  0.13822014509E+02  0.19925780331E+02  0.26048119041E+02  0.51100000000E-03 0.  1.
        -12    1    3    3    0    0  0.21182809348E+00 -0.93521300997E+00  0.58968451525E+00  0.11257097062E+01  0.00000000000E+00 0.  1.
</event>
<event>
 7    1  0.8398055E-009  0.4614232E+02  0.7816164E-02  0.1320468E+00
        -11   -1    0    0    0    0  0.00000000000E+00  0.00000000000E+00  0.45593999997E+02  0.45594000000E+02  0.51100000000E-03 0.  1.
         11   -1    0    0    0    0 -0.00000000000E+00 -0.00000000000E+00 -0.45593999997E+02  0.45594000000E+02  0.51100000000E-03 0. -1.
    9900012    2    1    2    0    0 -0.79567925590E+00 -0.37816698719E+02 -0.24461756983E+02  0.46142319162E+02  0.10000012778E+02 0.  0.
         12    1    1    2    0    0  0.79567925590E+00  0.37816698719E+02  0.24461756983E+02  0.45045680838E+02  0.00000000000E+00 0. -1.
         11    1    3    3    0    0  0.11064634802E+01 -0.38763785576E+01 -0.23997558691E+01  0.46914177651E+01  0.51100000000E-03 0. -1.
        -11    1    3    3    0    0 -0.28791482470E+01 -0.33138007927E+02 -0.19407238498E+02  0.38510491692E+02  0.51100000000E-03 0.  1.
        -12    1    3    3    0    0  0.97700551087E+00 -0.80231223449E+00 -0.26547626159E+01  0.29404097056E+01  0.00000000000E+00 0.  1.
</event>
<event>
 7    1  0.8398055E-009  0.4614232E+02  0.7816164E-02  0.1320468E+00
        -11   -1    0    0    0    0  0.00000000000E+00  0.00000000000E+00  0.45593999997E+02  0.45594000000E+02  0.51100000000E-03 0. -1.
         11   -1    0    0    0    0 -0.00000000000E+00 -0.00000000000E+00 -0.45593999997E+02  0.45594000000E+02  0.51100000000E-03 0.  1.
    9900012    2    1    2    0    0 -0.12718578833E+02 -0.41176947260E+01  0.43016228189E+02  0.46142317132E+02  0.99999942643E+01 0.  0.
        -12    1    1    2    0    0  0.12718578833E+02  0.41176947260E+01 -0.43016228189E+02  0.45045682868E+02  0.00000000000E+00 0.  1.
         11    1    3    3    0    0 -0.84463094859E+01 -0.28586167140E+01  0.26555993539E+02  0.28013079562E+02  0.51100000000E-03 0. -1.
        -11    1    3    3    0    0 -0.11801399102E+01  0.46103228239E+00  0.13374467714E+02  0.13434346574E+02  0.51100000000E-03 0.  1.
        -12    1    3    3    0    0 -0.30921294370E+01 -0.17201102944E+01  0.30857669365E+01  0.46948909962E+01  0.00000000000E+00 0.  1.
</event>
<event>
 7    1  0.8398055E-009  0.4614232E+02  0.7816164E-02  0.1320468E+00
        -11   -1    0    0    0    0  0.00000000000E+00  0.00000000000E+00  0.45593999997E+02  0.45594000000E+02  0.51100000000E-03 0. -1.
         11   -1    0    0    0    0 -0.00000000000E+00 -0.00000000000E+00 -0.45593999997E+02  0.45594000000E+02  0.51100000000E-03 0.  1.
    9900012    2    1    2    0    0 -0.15538154088E+02  0.40428218181E+01  0.42087229619E+02  0.46142317213E+02  0.99999950046E+01 0.  0.
        -12    1    1    2    0    0  0.15538154088E+02 -0.40428218181E+01 -0.42087229619E+02  0.45045682787E+02  0.00000000000E+00 0.  1.
         11    1    3    3    0    0 -0.16945889404E+01  0.22114060908E+01  0.96565153931E+01  0.10050384986E+02  0.51100000000E-03 0. -1.
        -11    1    3    3    0    0 -0.64537323841E+01 -0.11763134434E-01  0.68929394872E+01  0.94426381426E+01  0.51100000000E-03 0.  1.
        -12    1    3    3    0    0 -0.73898327639E+01  0.18431788617E+01  0.25537774739E+02  0.26649294084E+02  0.00000000000E+00 0.  1.
</event>
<event>
 7    1  0.8398055E-009  0.4614232E+02  0.7816164E-02  0.1320468E+00
        -11   -1    0    0    0    0  0.00000000000E+00  0.00000000000E+00  0.45593999997E+02  0.45594000000E+02  0.51100000000E-03 0. -1.
         11   -1    0    0    0    0 -0.00000000000E+00 -0.00000000000E+00 -0.45593999997E+02  0.45594000000E+02  0.51100000000E-03 0.  1.
    9900012    2    1    2    0    0  0.12698412285E+02  0.30444945936E+02  0.30675219092E+02  0.46142317921E+02  0.10000001460E+02 0.  0.
        -12    1    1    2    0    0 -0.12698412285E+02 -0.30444945936E+02 -0.30675219092E+02  0.45045682079E+02  0.00000000000E+00 0.  1.
         11    1    3    3    0    0  0.55398666595E+00  0.78003567497E+00  0.37475888654E+01  0.38677874096E+01  0.51100000000E-03 0. -1.
        -11    1    3    3    0    0  0.21469971447E+01  0.11089319728E+02  0.11662160089E+02  0.16235411512E+02  0.51100000000E-03 0.  1.
        -12    1    3    3    0    0  0.99974284742E+01  0.18575590533E+02  0.15265470138E+02  0.26039118999E+02  0.00000000000E+00 0.  1.
</event>
<event>
 7    1  0.8398055E-009  0.4614232E+02  0.7816164E-02  0.1320468E+00
        -11   -1    0    0    0    0  0.00000000000E+00  0.00000000000E+00  0.45593999997E+02  0.45594000000E+02  0.51100000000E-03 0. -1.
         11   -1    0    0    0    0 -0.00000000000E+00 -0.00000000000E+00 -0.45593999997E+02  0.45594000000E+02  0.51100000000E-03 0.  1.
    9900012    2    1    2    0    0  0.10441350324E+02  0.38907900958E+01 -0.43645772772E+02  0.46142317354E+02  0.99999962899E+01 0.  0.
         12    1    1    2    0    0 -0.10441350324E+02 -0.38907900958E+01  0.43645772772E+02  0.45045682646E+02  0.00000000000E+00 0. -1.
         11    1    3    3    0    0  0.31095775353E+01  0.10769203689E+00 -0.72714612351E+01  0.79091857215E+01  0.51100000000E-03 0. -1.
        -11    1    3    3    0    0  0.63973103122E+01  0.62066155930E+01 -0.24314323560E+02  0.25896601839E+02  0.51100000000E-03 0.  1.
         12    1    3    3    0    0  0.93446247681E+00 -0.24235175341E+01 -0.12059987977E+02  0.12336529794E+02  0.00000000000E+00 0. -1.
</event>
<event>
 7    1  0.8398055E-009  0.4614232E+02  0.7816164E-02  0.1320468E+00
        -11   -1    0    0    0    0  0.00000000000E+00  0.00000000000E+00  0.45593999997E+02  0.45594000000E+02  0.51100000000E-03 0. -1.
         11   -1    0    0    0    0 -0.00000000000E+00 -0.00000000000E+00 -0.45593999997E+02  0.45594000000E+02  0.51100000000E-03 0.  1.
    9900012    2    1    2    0    0  0.10667773840E+02 -0.14108740193E+02 -0.41427712176E+02  0.46142320022E+02  0.10000020619E+02 0.  0.
         12    1    1    2    0    0 -0.10667773840E+02  0.14108740193E+02  0.41427712176E+02  0.45045679978E+02  0.00000000000E+00 0. -1.
         11    1    3    3    0    0  0.47106398759E+00 -0.73678198966E+01 -0.19836540831E+02  0.21165892934E+02  0.51100000000E-03 0. -1.
        -11    1    3    3    0    0  0.44107978036E+01 -0.45303923173E+01 -0.11887992540E+02  0.13464915845E+02  0.51100000000E-03 0.  1.
         12    1    3    3    0    0  0.57859120488E+01 -0.22105279794E+01 -0.97031788044E+01  0.11511511243E+02  0.00000000000E+00 0. -1.
</event>
<event>
 7    1  0.8398055E-009  0.4614232E+02  0.7816164E-02  0.1320468E+00
        -11   -1    0    0    0    0  0.00000000000E+00  0.00000000000E+00  0.45593999997E+02  0.45594000000E+02  0.51100000000E-03 0. -1.
         11   -1    0    0    0    0 -0.00000000000E+00 -0.00000000000E+00 -0.45593999997E+02  0.45594000000E+02  0.51100000000E-03 0.  1.
    9900012    2    1    2    0    0  0.30257204666E+02  0.31820398074E+02  0.10053721872E+02  0.46142317729E+02  0.99999997047E+01 0.  0.
        -12    1    1    2    0    0 -0.30257204666E+02 -0.31820398074E+02 -0.10053721872E+02  0.45045682271E+02  0.00000000000E+00 0.  1.
         11    1    3    3    0    0  0.10015553152E+02  0.11750780482E+02  0.66170488352E+01  0.16798139255E+02  0.51100000000E-03 0. -1.
        -11    1    3    3    0    0  0.23935783141E+01  0.13853275015E+01  0.20965014555E+01  0.34703988310E+01  0.51100000000E-03 0.  1.
        -12    1    3    3    0    0  0.17848073200E+02  0.18684290091E+02  0.13401715817E+01  0.25873779643E+02  0.00000000000E+00 0.  1.
</event>
<event>
 7    1  0.8398055E-009  0.4614232E+02  0.7816164E-02  0.1320468E+00
        -11   -1    0    0    0    0  0.00000000000E+00  0.00000000000E+00  0.45593999997E+02  0.45594000000E+02  0.51100000000E-03 0. -1.
         11   -1    0    0    0    0 -0.00000000000E+00 -0.00000000000E+00 -0.45593999997E+02  0.45594000000E+02  0.51100000000E-03 0.  1.
    9900012    2    1    2    0    0  0.12675073459E+02  0.17670410734E+02  0.39448859588E+02  0.46142318459E+02  0.10000006364E+02 0.  0.
        -12    1    1    2    0    0 -0.12675073459E+02 -0.17670410734E+02 -0.39448859588E+02  0.45045681541E+02  0.00000000000E+00 0.  1.
         11    1    3    3    0    0  0.26392036515E+01  0.28107137686E+01  0.29717369520E+01  0.48679285713E+01  0.51100000000E-03 0. -1.
        -11    1    3    3    0    0  0.50824498592E+01  0.20159167057E+01  0.87446172885E+01  0.10313270506E+02  0.51100000000E-03 0.  1.
         12    1    3    3    0    0  0.49534199486E+01  0.12843780259E+02  0.27732505348E+02  0.30961119382E+02  0.00000000000E+00 0. -1.
</event>
<event>
 7    1  0.8398055E-009  0.4614232E+02  0.7816164E-02  0.1320468E+00
        -11   -1    0    0    0    0  0.00000000000E+00  0.00000000000E+00  0.45593999997E+02  0.45594000000E+02  0.51100000000E-03 0. -1.
         11   -1    0    0    0    0 -0.00000000000E+00 -0.00000000000E+00 -0.45593999997E+02  0.45594000000E+02  0.51100000000E-03 0.  1.
    9900012    2    1    2    0    0 -0.23658174136E+02 -0.98353143359E+01 -0.37049570433E+02  0.46142320065E+02  0.10000021008E+02 0.  0.
         12    1    1    2    0    0  0.23658174136E+02  0.98353143359E+01  0.37049570433E+02  0.45045679935E+02  0.00000000000E+00 0. -1.
         11    1    3    3    0    0 -0.47296744206E+01  0.94224048332E+00 -0.39634295262E+01  0.62423081568E+01  0.51100000000E-03 0. -1.
        -11    1    3    3    0    0 -0.11817023456E+02 -0.71502985924E+01 -0.16691712560E+02  0.21665227480E+02  0.51100000000E-03 0.  1.
        -12    1    3    3    0    0 -0.71114762600E+01 -0.36272562269E+01 -0.16394428347E+02  0.18234784428E+02  0.00000000000E+00 0.  1.
</event>
<event>
 7    1  0.8398055E-009  0.4614232E+02  0.7816164E-02  0.1320468E+00
        -11   -1    0    0    0    0  0.00000000000E+00  0.00000000000E+00  0.45593999997E+02  0.45594000000E+02  0.51100000000E-03 0. -1.
         11   -1    0    0    0    0 -0.00000000000E+00 -0.00000000000E+00 -0.45593999997E+02  0.45594000000E+02  0.51100000000E-03 0.  1.
    9900012    2    1    2    0    0  0.31309447627E+02  0.29421509180E+02 -0.13535385721E+02  0.46142318966E+02  0.10000010992E+02 0.  0.
         12    1    1    2    0    0 -0.31309447627E+02 -0.29421509180E+02  0.13535385721E+02  0.45045681034E+02  0.00000000000E+00 0. -1.
         11    1    3    3    0    0  0.49948754696E+01  0.79472156555E+01 -0.50289186433E+01  0.10648804657E+02  0.51100000000E-03 0. -1.
        -11    1    3    3    0    0  0.10392138721E+00  0.13692206649E+01  0.34967943361E-01  0.13736039830E+01  0.51100000000E-03 0.  1.
        -12    1    3    3    0    0  0.26210650770E+02  0.20105072860E+02 -0.85414350215E+01  0.34119910327E+02  0.00000000000E+00 0.  1.
</event>
<event>
 7    1  0.8398055E-009  0.4614232E+02  0.7816164E-02  0.1320468E+00
        -11   -1    0    0    0    0  0.00000000000E+00  0.00000000000E+00  0.45593999997E+02  0.45594000000E+02  0.51100000000E-03 0. -1.
         11   -1    0    0    0    0 -0.00000000000E+00 -0.00000000000E+00 -0.45593999997E+02  0.45594000000E+02  0.51100000000E-03 0.  1.
    9900012    2    1    2    0    0  0.34482700104E+01 -0.32781679115E+02  0.30701536957E+02  0.46142318485E+02  0.10000006600E+02 0.  0.
        -12    1    1    2    0    0 -0.34482700104E+01  0.32781679115E+02 -0.30701536957E+02  0.45045681515E+02  0.00000000000E+00 0.  1.
         11    1    3    3    0    0 -0.14878414734E+01 -0.23061257125E+02  0.23350768595E+02  0.32852604869E+02  0.51100000000E-03 0. -1.
        -11    1    3    3    0    0  0.12745480135E+01 -0.39307973730E+01  0.19646819638E+01  0.45755454436E+01  0.51100000000E-03 0.  1.
        -12    1    3    3    0    0  0.36615634703E+01 -0.57896246167E+01  0.53860863978E+01  0.87141681723E+01  0.00000000000E+00 0.  1.
</event>
<event>
 7    1  0.8398055E-009  0.4614231E+02  0.7816164E-02  0.1320468E+00
        -11   -1    0    0    0    0  0.00000000000E+00  0.00000000000E+00  0.45593999997E+02  0.45594000000E+02  0.51100000000E-03 0. -1.
         11   -1    0    0    0    0 -0.00000000000E+00 -0.00000000000E+00 -0.45593999997E+02  0.45594000000E+02  0.51100000000E-03 0.  1.
    9900012    2    1    2    0    0 -0.10863861850E+01  0.11987774312E+02  0.43407683018E+02  0.46142313049E+02  0.99999570323E+01 0.  0.
        -12    1    1    2    0    0  0.10863861850E+01 -0.11987774312E+02 -0.43407683018E+02  0.45045686951E+02  0.00000000000E+00 0.  1.
         11    1    3    3    0    0 -0.34555902220E+01  0.59338656378E+01  0.21816714656E+02  0.22871836477E+02  0.51100000000E-03 0. -1.
        -11    1    3    3    0    0  0.16748520867E+01  0.66714874999E+00  0.11930596163E+01  0.21618530191E+01  0.51100000000E-03 0.  1.
         12    1    3    3    0    0  0.69435195023E+00  0.53867599239E+01  0.20397908745E+02  0.21108623553E+02  0.00000000000E+00 0. -1.
</event>
<event>
 7    1  0.8398055E-009  0.4614232E+02  0.7816164E-02  0.1320468E+00
        -11   -1    0    0    0    0  0.00000000000E+00  0.00000000000E+00  0.45593999997E+02  0.45594000000E+02  0.51100000000E-03 0.  1.
         11   -1    0    0    0    0 -0.00000000000E+00 -0.00000000000E+00 -0.45593999997E+02  0.45594000000E+02  0.51100000000E-03 0. -1.
    9900012    2    1    2    0    0 -0.35907068333E+02 -0.25077070620E+02  0.10532634940E+02  0.46142318454E+02  0.10000006317E+02 0.  0.
         12    1    1    2    0    0  0.35907068333E+02  0.25077070620E+02 -0.10532634940E+02  0.45045681546E+02  0.00000000000E+00 0. -1.
         11    1    3    3    0    0 -0.10012111457E+02 -0.59865942226E+01  0.44445773170E+01  0.12483427174E+02  0.51100000000E-03 0. -1.
        -11    1    3    3    0    0 -0.11720587266E+01  0.75644156958E+00  0.37627444543E+00  0.14448211744E+01  0.51100000000E-03 0.  1.
        -12    1    3    3    0    0 -0.24722898150E+02 -0.19846917967E+02  0.57117831774E+01  0.32214070106E+02  0.00000000000E+00 0.  1.
</event>
<event>
 7    1  0.8398055E-009  0.4614232E+02  0.7816164E-02  0.1320468E+00
        -11   -1    0    0    0    0  0.00000000000E+00  0.00000000000E+00  0.45593999997E+02  0.45594000000E+02  0.51100000000E-03 0.  1.
         11   -1    0    0    0    0 -0.00000000000E+00 -0.00000000000E+00 -0.45593999997E+02  0.45594000000E+02  0.51100000000E-03 0. -1.
    9900012    2    1    2    0    0  0.21970731594E+02  0.38108047936E+02  0.97044887231E+01  0.46142318013E+02  0.10000002301E+02 0.  0.
         12    1    1    2    0    0 -0.21970731594E+02 -0.38108047936E+02 -0.97044887231E+01  0.45045681987E+02  0.00000000000E+00 0. -1.
         11    1    3    3    0    0  0.67550233383E+01  0.62224263322E+01  0.56102457968E+00  0.92012867905E+01  0.51100000000E-03 0. -1.
        -11    1    3    3    0    0  0.55708571692E+01  0.81943318658E+01  0.47454779335E+01  0.10986404571E+02  0.51100000000E-03 0.  1.
        -12    1    3    3    0    0  0.96448510868E+01  0.23691289738E+02  0.43979862100E+01  0.25954626652E+02  0.00000000000E+00 0.  1.
</event>
<event>
 7    1  0.8398055E-009  0.4614232E+02  0.7816164E-02  0.1320468E+00
        -11   -1    0    0    0    0  0.00000000000E+00  0.00000000000E+00  0.45593999997E+02  0.45594000000E+02  0.51100000000E-03 0. -1.
         11   -1    0    0    0    0 -0.00000000000E+00 -0.00000000000E+00 -0.45593999997E+02  0.45594000000E+02  0.51100000000E-03 0.  1.
    9900012    2    1    2    0    0  0.13550933643E+02 -0.16697603353E+02  0.39581253766E+02  0.46142318631E+02  0.10000007934E+02 0.  0.
        -12    1    1    2    0    0 -0.13550933643E+02  0.16697603353E+02 -0.39581253766E+02  0.45045681369E+02  0.00000000000E+00 0.  1.
         11    1    3    3    0    0  0.62710206287E+01 -0.10746515100E+02  0.21815120620E+02  0.25113995589E+02  0.51100000000E-03 0. -1.
        -11    1    3    3    0    0  0.31965232331E+01 -0.41921959367E+01  0.41639669888E+01  0.67179527311E+01  0.51100000000E-03 0.  1.
         12    1    3    3    0    0  0.40833897812E+01 -0.17588923164E+01  0.13602166156E+02  0.14310370311E+02  0.00000000000E+00 0. -1.
</event>
<event>
 7    1  0.8398055E-009  0.4614232E+02  0.7816164E-02  0.1320468E+00
        -11   -1    0    0    0    0  0.00000000000E+00  0.00000000000E+00  0.45593999997E+02  0.45594000000E+02  0.51100000000E-03 0. -1.
         11   -1    0    0    0    0 -0.00000000000E+00 -0.00000000000E+00 -0.45593999997E+02  0.45594000000E+02  0.51100000000E-03 0.  1.
    9900012    2    1    2    0    0 -0.22761171423E+02 -0.21571992723E+02  0.32337156549E+02  0.46142317763E+02  0.10000000014E+02 0.  0.
        -12    1    1    2    0    0  0.22761171423E+02  0.21571992723E+02 -0.32337156549E+02  0.45045682237E+02  0.00000000000E+00 0.  1.
         11    1    3    3    0    0 -0.55324222410E+01 -0.38810488486E+01  0.94314701437E+01  0.11602709397E+02  0.51100000000E-03 0. -1.
        -11    1    3    3    0    0 -0.10256577501E+02 -0.14731052379E+02  0.18500511674E+02  0.25777319850E+02  0.51100000000E-03 0.  1.
        -12    1    3    3    0    0 -0.69721716808E+01 -0.29598914955E+01  0.44051747313E+01  0.87622885153E+01  0.00000000000E+00 0.  1.
</event>
<event>
 7    1  0.8398055E-009  0.4614232E+02  0.7816164E-02  0.1320468E+00
        -11   -1    0    0    0    0  0.00000000000E+00  0.00000000000E+00  0.45593999997E+02  0.45594000000E+02  0.51100000000E-03 0. -1.
         11   -1    0    0    0    0 -0.00000000000E+00 -0.00000000000E+00 -0.45593999997E+02  0.45594000000E+02  0.51100000000E-03 0.  1.
    9900012    2    1    2    0    0  0.33961867335E+02 -0.28721508384E+02  0.71259926033E+01  0.46142320437E+02  0.10000024402E+02 0.  0.
        -12    1    1    2    0    0 -0.33961867335E+02  0.28721508384E+02 -0.71259926033E+01  0.45045679563E+02  0.00000000000E+00 0.  1.
         11    1    3    3    0    0  0.32803629514E+02 -0.26305249992E+02  0.51283486948E+01  0.42359700743E+02  0.51100000000E-03 0. -1.
        -11    1    3    3    0    0  0.15994462323E+01 -0.20665483189E+01  0.18463063548E+01  0.31996402331E+01  0.51100000000E-03 0.  1.
         12    1    3    3    0    0 -0.44120841129E+00 -0.34971007276E+00  0.15133755379E+00  0.58297946136E+00  0.00000000000E+00 0. -1.
</event>
<event>
 7    1  0.8398055E-009  0.4614232E+02  0.7816164E-02  0.1320468E+00
        -11   -1    0    0    0    0  0.00000000000E+00  0.00000000000E+00  0.45593999997E+02  0.45594000000E+02  0.51100000000E-03 0. -1.
         11   -1    0    0    0    0 -0.00000000000E+00 -0.00000000000E+00 -0.45593999997E+02  0.45594000000E+02  0.51100000000E-03 0.  1.
    9900012    2    1    2    0    0  0.12741755682E+02 -0.92321654291E+00  0.43196166939E+02  0.46142317578E+02  0.99999983273E+01 0.  0.
        -12    1    1    2    0    0 -0.12741755682E+02  0.92321654291E+00 -0.43196166939E+02  0.45045682422E+02  0.00000000000E+00 0.  1.
         11    1    3    3    0    0  0.13245143193E+02 -0.24818536179E+01  0.32455047904E+02  0.35141479057E+02  0.51100000000E-03 0. -1.
        -11    1    3    3    0    0  0.12668556957E+00  0.10646979737E+01  0.24909055438E+01  0.27118705164E+01  0.51100000000E-03 0.  1.
         12    1    3    3    0    0 -0.63007308060E+00  0.49393910135E+00  0.82502134919E+01  0.82889680048E+01  0.00000000000E+00 0. -1.
</event>
<event>
 7    1  0.8398055E-009  0.4614231E+02  0.7816164E-02  0.1320468E+00
        -11   -1    0    0    0    0  0.00000000000E+00  0.00000000000E+00  0.45593999997E+02  0.45594000000E+02  0.51100000000E-03 0. -1.
         11   -1    0    0    0    0 -0.00000000000E+00 -0.00000000000E+00 -0.45593999997E+02  0.45594000000E+02  0.51100000000E-03 0.  1.
    9900012    2    1    2    0    0  0.17128420228E+01 -0.14906121025E+02  0.42473376178E+02  0.46142312573E+02  0.99999526898E+01 0.  0.
        -12    1    1    2    0    0 -0.17128420228E+01  0.14906121025E+02 -0.42473376178E+02  0.45045687427E+02  0.00000000000E+00 0.  1.
         11    1    3    3    0    0  0.20798010060E+01 -0.67353580476E+01  0.91281475088E+01  0.11533156439E+02  0.51100000000E-03 0.  1.
        -11    1    3    3    0    0  0.17400727640E+00 -0.78003466134E+01  0.23902438711E+02  0.25143632641E+02  0.51100000000E-03 0. -1.
        -12    1    3    3    0    0 -0.54096625963E+00 -0.37041636395E+00  0.94427899587E+01  0.94655234921E+01  0.00000000000E+00 0.  1.
</event>
<event>
 7    1  0.8398055E-009  0.4614232E+02  0.7816164E-02  0.1320468E+00
        -11   -1    0    0    0    0  0.00000000000E+00  0.00000000000E+00  0.45593999997E+02  0.45594000000E+02  0.51100000000E-03 0. -1.
         11   -1    0    0    0    0 -0.00000000000E+00 -0.00000000000E+00 -0.45593999997E+02  0.45594000000E+02  0.51100000000E-03 0.  1.
    9900012    2    1    2    0    0 -0.12464330753E+02  0.40970954903E+02 -0.13969068977E+02  0.46142316801E+02  0.99999912451E+01 0.  0.
         12    1    1    2    0    0  0.12464330753E+02 -0.40970954903E+02  0.13969068977E+02  0.45045683199E+02  0.00000000000E+00 0. -1.
         11    1    3    3    0    0 -0.49700822300E+01  0.13315617758E+02 -0.86523059810E+00  0.14239242182E+02  0.51100000000E-03 0. -1.
        -11    1    3    3    0    0 -0.28963803022E+01  0.91420199728E+01 -0.18865716612E+01  0.97736738708E+01  0.51100000000E-03 0.  1.
        -12    1    3    3    0    0 -0.45978682209E+01  0.18513317172E+02 -0.11217266717E+02  0.22129400749E+02  0.00000000000E+00 0.  1.
</event>
<event>
 7    1  0.8398055E-009  0.4614232E+02  0.7816164E-02  0.1320468E+00
        -11   -1    0    0    0    0  0.00000000000E+00  0.00000000000E+00  0.45593999997E+02  0.45594000000E+02  0.51100000000E-03 0. -1.
         11   -1    0    0    0    0 -0.00000000000E+00 -0.00000000000E+00 -0.45593999997E+02  0.45594000000E+02  0.51100000000E-03 0.  1.
    9900012    2    1    2    0    0  0.13534420106E+02 -0.10032781952E+01 -0.42952606700E+02  0.46142317443E+02  0.99999970952E+01 0.  0.
         12    1    1    2    0    0 -0.13534420106E+02  0.10032781952E+01  0.42952606700E+02  0.45045682557E+02  0.00000000000E+00 0. -1.
         11    1    3    3    0    0  0.63027499844E+00 -0.15813716941E+01 -0.15162146423E+01  0.22796688600E+01  0.51100000000E-03 0. -1.
        -11    1    3    3    0    0  0.86377624176E+01  0.33099238642E+01 -0.24651252302E+02  0.26329655825E+02  0.51100000000E-03 0.  1.
         12    1    3    3    0    0  0.42663826897E+01 -0.27318303653E+01 -0.16785139756E+02  0.17532992758E+02  0.00000000000E+00 0. -1.
</event>
<event>
 7    1  0.8398055E-009  0.4614230E+02  0.7816164E-02  0.1320468E+00
        -11   -1    0    0    0    0  0.00000000000E+00  0.00000000000E+00  0.45593999997E+02  0.45594000000E+02  0.51100000000E-03 0. -1.
         11   -1    0    0    0    0 -0.00000000000E+00 -0.00000000000E+00 -0.45593999997E+02  0.45594000000E+02  0.51100000000E-03 0.  1.
    9900012    2    1    2    0    0  0.22562035092E+02 -0.36004074109E+02 -0.14959149212E+02  0.46142301814E+02  0.99998545774E+01 0.  0.
         12    1    1    2    0    0 -0.22562035092E+02  0.36004074109E+02  0.14959149212E+02  0.45045698186E+02  0.00000000000E+00 0. -1.
         11    1    3    3    0    0  0.91806578668E+01 -0.15224693807E+02 -0.90282312563E+01  0.19939527083E+02  0.51100000000E-03 0. -1.
        -11    1    3    3    0    0  0.31936326281E+01 -0.15964599882E+01 -0.21147295333E+01  0.41497054254E+01  0.51100000000E-03 0.  1.
         12    1    3    3    0    0  0.10187744597E+02 -0.19182920313E+02 -0.38161884225E+01  0.22053069306E+02  0.00000000000E+00 0. -1.
</event>
<event>
 7    1  0.8398055E-009  0.4614232E+02  0.7816164E-02  0.1320468E+00
        -11   -1    0    0    0    0  0.00000000000E+00  0.00000000000E+00  0.45593999997E+02  0.45594000000E+02  0.51100000000E-03 0. -1.
         11   -1    0    0    0    0 -0.00000000000E+00 -0.00000000000E+00 -0.45593999997E+02  0.45594000000E+02  0.51100000000E-03 0.  1.
    9900012    2    1    2    0    0 -0.39230988716E+01  0.18638857444E+02 -0.40820531730E+02  0.46142317385E+02  0.99999965660E+01 0.  0.
         12    1    1    2    0    0  0.39230988716E+01 -0.18638857444E+02  0.40820531730E+02  0.45045682615E+02  0.00000000000E+00 0. -1.
         11    1    3    3    0    0 -0.23133747652E+01  0.38505769420E+01 -0.10337037177E+02  0.11270890979E+02  0.51100000000E-03 0. -1.
        -11    1    3    3    0    0 -0.34931906844E+01  0.34888211122E+01 -0.55240262200E+01  0.74087191775E+01  0.51100000000E-03 0.  1.
         12    1    3    3    0    0  0.18834665779E+01  0.11299459389E+02 -0.24959468333E+02  0.27462707228E+02  0.00000000000E+00 0. -1.
</event>
<event>
 7    1  0.8398055E-009  0.4614232E+02  0.7816164E-02  0.1320468E+00
        -11   -1    0    0    0    0  0.00000000000E+00  0.00000000000E+00  0.45593999997E+02  0.45594000000E+02  0.51100000000E-03 0. -1.
         11   -1    0    0    0    0 -0.00000000000E+00 -0.00000000000E+00 -0.45593999997E+02  0.45594000000E+02  0.51100000000E-03 0.  1.
    9900012    2    1    2    0    0  0.30545612040E+02 -0.23879748251E+02  0.22931129993E+02  0.46142317474E+02  0.99999973819E+01 0.  0.
        -12    1    1    2    0    0 -0.30545612040E+02  0.23879748251E+02 -0.22931129993E+02  0.45045682526E+02  0.00000000000E+00 0.  1.
         11    1    3    3    0    0  0.16180535022E+02 -0.14850873341E+02  0.11408032130E+02  0.24748764614E+02  0.51100000000E-03 0. -1.
        -11    1    3    3    0    0  0.93802389141E+01 -0.66787015136E+01  0.10885432391E+02  0.15845711552E+02  0.51100000000E-03 0.  1.
         12    1    3    3    0    0  0.49848381042E+01 -0.23501733967E+01  0.63766547224E+00  0.55478413075E+01  0.00000000000E+00 0. -1.
</event>
<event>
 7    1  0.8398055E-009  0.4614232E+02  0.7816164E-02  0.1320468E+00
        -11   -1    0    0    0    0  0.00000000000E+00  0.00000000000E+00  0.45593999997E+02  0.45594000000E+02  0.51100000000E-03 0. -1.
         11   -1    0    0    0    0 -0.00000000000E+00 -0.00000000000E+00 -0.45593999997E+02  0.45594000000E+02  0.51100000000E-03 0.  1.
    9900012    2    1    2    0    0  0.22547990597E+02  0.35091557284E+02  0.17008357881E+02  0.46142317516E+02  0.99999977657E+01 0.  0.
        -12    1    1    2    0    0 -0.22547990597E+02 -0.35091557284E+02 -0.17008357881E+02  0.45045682484E+02  0.00000000000E+00 0.  1.
         11    1    3    3    0    0  0.14056726788E+01  0.22177346068E+01 -0.28442629761E+00  0.26410530185E+01  0.51100000000E-03 0. -1.
        -11    1    3    3    0    0  0.24528377790E+00  0.53156555672E+01  0.19802696159E+01  0.56778364060E+01  0.51100000000E-03 0.  1.
        -12    1    3    3    0    0  0.20897034141E+02  0.27558167110E+02  0.15312514563E+02  0.37823428092E+02  0.00000000000E+00 0.  1.
</event>
<event>
 7    1  0.8398055E-009  0.4614232E+02  0.7816164E-02  0.1320468E+00
        -11   -1    0    0    0    0  0.00000000000E+00  0.00000000000E+00  0.45593999997E+02  0.45594000000E+02  0.51100000000E-03 0.  1.
         11   -1    0    0    0    0 -0.00000000000E+00 -0.00000000000E+00 -0.45593999997E+02  0.45594000000E+02  0.51100000000E-03 0. -1.
    9900012    2    1    2    0    0  0.44641589475E+02 -0.92338104815E+00  0.59488938781E+01  0.46142317835E+02  0.10000000670E+02 0.  0.
        -12    1    1    2    0    0 -0.44641589475E+02  0.92338104815E+00 -0.59488938781E+01  0.45045682165E+02  0.00000000000E+00 0.  1.
         11    1    3    3    0    0  0.20571693899E+02 -0.23500864000E+01 -0.12331656747E+01  0.20742183921E+02  0.51100000000E-03 0. -1.
        -11    1    3    3    0    0  0.10784215567E+02 -0.94799041981E+00  0.39350699845E+01  0.11518800601E+02  0.51100000000E-03 0.  1.
         12    1    3    3    0    0  0.13285680008E+02  0.23746957716E+01  0.32469895683E+01  0.13881333313E+02  0.00000000000E+00 0. -1.
</event>
<event>
 7    1  0.8398055E-009  0.4614232E+02  0.7816164E-02  0.1320468E+00
        -11   -1    0    0    0    0  0.00000000000E+00  0.00000000000E+00  0.45593999997E+02  0.45594000000E+02  0.51100000000E-03 0. -1.
         11   -1    0    0    0    0 -0.00000000000E+00 -0.00000000000E+00 -0.45593999997E+02  0.45594000000E+02  0.51100000000E-03 0.  1.
    9900012    2    1    2    0    0 -0.25254195735E+01  0.74028236618E+01 -0.44361401651E+02  0.46142317647E+02  0.99999989575E+01 0.  0.
         12    1    1    2    0    0  0.25254195735E+01 -0.74028236618E+01  0.44361401651E+02  0.45045682353E+02  0.00000000000E+00 0. -1.
         11    1    3    3    0    0 -0.13573985919E+01  0.55229844335E+01 -0.21871130655E+02  0.22598500932E+02  0.51100000000E-03 0.  1.
        -11    1    3    3    0    0 -0.31138434033E+00  0.10591057999E+00 -0.21169580421E+02  0.21172135290E+02  0.51100000000E-03 0. -1.
        -12    1    3    3    0    0 -0.85663664124E+00  0.17739286484E+01 -0.13206905747E+01  0.23716814244E+01  0.00000000000E+00 0.  1.
</event>
<event>
 7    1  0.8398055E-009  0.4614232E+02  0.7816164E-02  0.1320468E+00
        -11   -1    0    0    0    0  0.00000000000E+00  0.00000000000E+00  0.45593999997E+02  0.45594000000E+02  0.51100000000E-03 0. -1.
         11   -1    0    0    0    0 -0.00000000000E+00 -0.00000000000E+00 -0.45593999997E+02  0.45594000000E+02  0.51100000000E-03 0.  1.
    9900012    2    1    2    0    0 -0.35464984319E+02  0.26392124628E+02 -0.86489389870E+01  0.46142317625E+02  0.99999987544E+01 0.  0.
         12    1    1    2    0    0  0.35464984319E+02 -0.26392124628E+02  0.86489389870E+01  0.45045682375E+02  0.00000000000E+00 0. -1.
         11    1    3    3    0    0 -0.27677398760E+01  0.12643934859E+00 -0.42510704063E+00  0.28030496227E+01  0.51100000000E-03 0. -1.
        -11    1    3    3    0    0 -0.86209534117E+01  0.92981492313E+01 -0.52901520140E+01  0.13739072947E+02  0.51100000000E-03 0.  1.
        -12    1    3    3    0    0 -0.24076291031E+02  0.16967536048E+02 -0.29336799324E+01  0.29600195055E+02  0.00000000000E+00 0.  1.
</event>
<event>
 7    1  0.8398055E-009  0.4614232E+02  0.7816164E-02  0.1320468E+00
        -11   -1    0    0    0    0  0.00000000000E+00  0.00000000000E+00  0.45593999997E+02  0.45594000000E+02  0.51100000000E-03 0. -1.
         11   -1    0    0    0    0 -0.00000000000E+00 -0.00000000000E+00 -0.45593999997E+02  0.45594000000E+02  0.51100000000E-03 0.  1.
    9900012    2    1    2    0    0 -0.14526828664E+02 -0.27798515884E+02  0.32331520461E+02  0.46142318168E+02  0.10000003712E+02 0.  0.
        -12    1    1    2    0    0  0.14526828664E+02  0.27798515884E+02 -0.32331520461E+02  0.45045681832E+02  0.00000000000E+00 0.  1.
         11    1    3    3    0    0 -0.23047713466E+01 -0.49903423991E+01  0.25376695183E+01  0.60543583530E+01  0.51100000000E-03 0. -1.
        -11    1    3    3    0    0  0.55136406841E+00 -0.90586545795E+00  0.13584464213E+00  0.10691345059E+01  0.51100000000E-03 0.  1.
         12    1    3    3    0    0 -0.12773421386E+02 -0.21902308027E+02  0.29658006300E+02  0.39018825309E+02  0.00000000000E+00 0. -1.
</event>
<event>
 7    1  0.1043019E-008  0.4614232E+02  0.7816164E-02  0.1320468E+00
        -11   -1    0    0    0    0  0.00000000000E+00  0.00000000000E+00  0.45593999997E+02  0.45594000000E+02  0.51100000000E-03 0. -1.
         11   -1    0    0    0    0 -0.00000000000E+00 -0.00000000000E+00 -0.45593999997E+02  0.45594000000E+02  0.51100000000E-03 0.  1.
    9900012    2    1    2    0    0  0.15170813044E+02  0.21286463087E+01 -0.42360698311E+02  0.46142318021E+02  0.10000002370E+02 0.  0.
         12    1    1    2    0    0 -0.15170813044E+02 -0.21286463087E+01  0.42360698311E+02  0.45045681979E+02  0.00000000000E+00 0. -1.
         11    1    3    3    0    0  0.26277538548E+01  0.28122109147E+01 -0.11205195631E+02  0.11847785866E+02  0.51100000000E-03 0. -1.
        -11    1    3    3    0    0  0.81782358401E+01  0.24116279799E+01 -0.23104270020E+02  0.24627358454E+02  0.51100000000E-03 0.  1.
         12    1    3    3    0    0  0.43648233495E+01 -0.30951925859E+01 -0.80512326603E+01  0.96671737010E+01  0.00000000000E+00 0. -1.
</event>
<event>
 7    1  0.8398055E-009  0.4614232E+02  0.7816164E-02  0.1320468E+00
        -11   -1    0    0    0    0  0.00000000000E+00  0.00000000000E+00  0.45593999997E+02  0.45594000000E+02  0.51100000000E-03 0. -1.
         11   -1    0    0    0    0 -0.00000000000E+00 -0.00000000000E+00 -0.45593999997E+02  0.45594000000E+02  0.51100000000E-03 0.  1.
    9900012    2    1    2    0    0 -0.30208168837E+02 -0.17656919687E+02 -0.28369229473E+02  0.46142318096E+02  0.10000003054E+02 0.  0.
         12    1    1    2    0    0  0.30208168837E+02  0.17656919687E+02  0.28369229473E+02  0.45045681904E+02  0.00000000000E+00 0. -1.
         11    1    3    3    0    0 -0.29705773296E+01  0.81271955981E+00 -0.11980669872E+01  0.33045737276E+01  0.51100000000E-03 0. -1.
        -11    1    3    3    0    0 -0.81825078184E+00 -0.13141782015E+01 -0.19147195882E+01  0.24622652274E+01  0.51100000000E-03 0.  1.
        -12    1    3    3    0    0 -0.26419340725E+02 -0.17155461045E+02 -0.25256442898E+02  0.40375479141E+02  0.00000000000E+00 0.  1.
</event>
<event>
 7    1  0.8398055E-009  0.4614232E+02  0.7816164E-02  0.1320468E+00
        -11   -1    0    0    0    0  0.00000000000E+00  0.00000000000E+00  0.45593999997E+02  0.45594000000E+02  0.51100000000E-03 0. -1.
         11   -1    0    0    0    0 -0.00000000000E+00 -0.00000000000E+00 -0.45593999997E+02  0.45594000000E+02  0.51100000000E-03 0.  1.
    9900012    2    1    2    0    0  0.39784465613E+02  0.97498409417E+01 -0.18741669829E+02  0.46142319958E+02  0.10000020030E+02 0.  0.
         12    1    1    2    0    0 -0.39784465613E+02 -0.97498409417E+01  0.18741669829E+02  0.45045680042E+02  0.00000000000E+00 0. -1.
         11    1    3    3    0    0  0.20210823967E+02  0.40044356497E+01 -0.87080716501E+01  0.22368357616E+02  0.51100000000E-03 0. -1.
        -11    1    3    3    0    0  0.16865584248E+02  0.53889254139E+01 -0.11037154609E+02  0.20864017621E+02  0.51100000000E-03 0.  1.
         12    1    3    3    0    0  0.27080573975E+01  0.35647987819E+00  0.10035564302E+01  0.29099447212E+01  0.00000000000E+00 0. -1.
</event>
<event>
 7    1  0.8398055E-009  0.4614232E+02  0.7816164E-02  0.1320468E+00
        -11   -1    0    0    0    0  0.00000000000E+00  0.00000000000E+00  0.45593999997E+02  0.45594000000E+02  0.51100000000E-03 0. -1.
         11   -1    0    0    0    0 -0.00000000000E+00 -0.00000000000E+00 -0.45593999997E+02  0.45594000000E+02  0.51100000000E-03 0.  1.
    9900012    2    1    2    0    0  0.17784438774E+02 -0.15285448427E+01 -0.41358079993E+02  0.46142317715E+02  0.99999995802E+01 0.  0.
         12    1    1    2    0    0 -0.17784438774E+02  0.15285448427E+01  0.41358079993E+02  0.45045682285E+02  0.00000000000E+00 0. -1.
         11    1    3    3    0    0 -0.15840906078E+00 -0.20250297715E+01 -0.59041455402E+01  0.62437788099E+01  0.51100000000E-03 0. -1.
        -11    1    3    3    0    0  0.40483466976E+01 -0.29493355557E+00 -0.11498444323E+02  0.12193863985E+02  0.51100000000E-03 0.  1.
         12    1    3    3    0    0  0.13894501137E+02  0.79141848441E+00 -0.23955490130E+02  0.27704674920E+02  0.00000000000E+00 0. -1.
</event>
<event>
 7    1  0.8398055E-009  0.4614232E+02  0.7816164E-02  0.1320468E+00
        -11   -1    0    0    0    0  0.00000000000E+00  0.00000000000E+00  0.45593999997E+02  0.45594000000E+02  0.51100000000E-03 0. -1.
         11   -1    0    0    0    0 -0.00000000000E+00 -0.00000000000E+00 -0.45593999997E+02  0.45594000000E+02  0.51100000000E-03 0.  1.
    9900012    2    1    2    0    0 -0.22546337211E+02  0.15017555815E+02 -0.35989570367E+02  0.46142317859E+02  0.10000000897E+02 0.  0.
         12    1    1    2    0    0  0.22546337211E+02 -0.15017555815E+02  0.35989570367E+02  0.45045682141E+02  0.00000000000E+00 0. -1.
         11    1    3    3    0    0 -0.11743255566E+00  0.20292494146E+01 -0.14552610529E+01  0.24998857144E+01  0.51100000000E-03 0. -1.
        -11    1    3    3    0    0 -0.15252243016E+02  0.54868803919E+01 -0.22805742441E+02  0.27979254135E+02  0.51100000000E-03 0.  1.
         12    1    3    3    0    0 -0.71766616400E+01  0.75014260087E+01 -0.11728566873E+02  0.15663178010E+02  0.00000000000E+00 0. -1.
</event>
<event>
 7    1  0.8398055E-009  0.4614232E+02  0.7816164E-02  0.1320468E+00
        -11   -1    0    0    0    0  0.00000000000E+00  0.00000000000E+00  0.45593999997E+02  0.45594000000E+02  0.51100000000E-03 0. -1.
         11   -1    0    0    0    0 -0.00000000000E+00 -0.00000000000E+00 -0.45593999997E+02  0.45594000000E+02  0.51100000000E-03 0.  1.
    9900012    2    1    2    0    0 -0.42524401097E+02 -0.97183668746E+01 -0.11240196898E+02  0.46142319079E+02  0.10000012018E+02 0.  0.
         12    1    1    2    0    0  0.42524401097E+02  0.97183668746E+01  0.11240196898E+02  0.45045680921E+02  0.00000000000E+00 0. -1.
         11    1    3    3    0    0 -0.12523043397E+02 -0.29432059124E+01 -0.25532694961E+01  0.13115192044E+02  0.51100000000E-03 0. -1.
        -11    1    3    3    0    0 -0.27205080903E+02 -0.33588243322E+01 -0.80308640227E+01  0.28563839116E+02  0.51100000000E-03 0.  1.
         12    1    3    3    0    0 -0.27962767968E+01 -0.34163366300E+01 -0.65606337895E+00  0.44632879194E+01  0.00000000000E+00 0. -1.
</event>
<event>
 7    1  0.8398055E-009  0.4614232E+02  0.7816164E-02  0.1320468E+00
        -11   -1    0    0    0    0  0.00000000000E+00  0.00000000000E+00  0.45593999997E+02  0.45594000000E+02  0.51100000000E-03 0.  1.
         11   -1    0    0    0    0 -0.00000000000E+00 -0.00000000000E+00 -0.45593999997E+02  0.45594000000E+02  0.51100000000E-03 0. -1.
    9900012    2    1    2    0    0 -0.18268979238E+01 -0.41138051386E+02 -0.18260247955E+02  0.46142317818E+02  0.10000000518E+02 0.  0.
         12    1    1    2    0    0  0.18268979238E+01  0.41138051386E+02  0.18260247955E+02  0.45045682182E+02  0.00000000000E+00 0. -1.
         11    1    3    3    0    0 -0.14920951559E+01 -0.12432973452E+01 -0.25573601033E+01  0.32112656698E+01  0.51100000000E-03 0. -1.
        -11    1    3    3    0    0  0.70512766746E+00 -0.26471629272E+02 -0.10901678247E+02  0.28637230142E+02  0.51100000000E-03 0.  1.
        -12    1    3    3    0    0 -0.10399304354E+01 -0.13423124769E+02 -0.48012096044E+01  0.14293822006E+02  0.00000000000E+00 0.  1.
</event>
<event>
 7    1  0.8398055E-009  0.4614232E+02  0.7816164E-02  0.1320468E+00
        -11   -1    0    0    0    0  0.00000000000E+00  0.00000000000E+00  0.45593999997E+02  0.45594000000E+02  0.51100000000E-03 0. -1.
         11   -1    0    0    0    0 -0.00000000000E+00 -0.00000000000E+00 -0.45593999997E+02  0.45594000000E+02  0.51100000000E-03 0.  1.
    9900012    2    1    2    0    0  0.18984181009E+02 -0.25971753525E+02  0.31530658056E+02  0.46142317552E+02  0.99999980958E+01 0.  0.
        -12    1    1    2    0    0 -0.18984181009E+02  0.25971753525E+02 -0.31530658056E+02  0.45045682448E+02  0.00000000000E+00 0.  1.
         11    1    3    3    0    0  0.35819398512E+01 -0.36829029148E+01  0.58214358226E+01  0.77642245121E+01  0.51100000000E-03 0. -1.
        -11    1    3    3    0    0  0.26638821477E+01 -0.11161222458E+02  0.12026791645E+02  0.16622661411E+02  0.51100000000E-03 0.  1.
         12    1    3    3    0    0  0.12738359010E+02 -0.11127628151E+02  0.13682430589E+02  0.21755431629E+02  0.00000000000E+00 0. -1.
</event>
<event>
 7    1  0.8398055E-009  0.4614231E+02  0.7816164E-02  0.1320468E+00
        -11   -1    0    0    0    0  0.00000000000E+00  0.00000000000E+00  0.45593999997E+02  0.45594000000E+02  0.51100000000E-03 0. -1.
         11   -1    0    0    0    0 -0.00000000000E+00 -0.00000000000E+00 -0.45593999997E+02  0.45594000000E+02  0.51100000000E-03 0.  1.
    9900012    2    1    2    0    0  0.44573545393E+02 -0.51091111241E+01  0.40261729622E+01  0.46142311704E+02  0.99999447652E+01 0.  0.
        -12    1    1    2    0    0 -0.44573545393E+02  0.51091111241E+01 -0.40261729622E+01  0.45045688296E+02  0.00000000000E+00 0.  1.
         11    1    3    3    0    0  0.27104604257E+01 -0.62454351861E+00  0.22337531491E+01  0.35673945280E+01  0.51100000000E-03 0. -1.
        -11    1    3    3    0    0  0.13489721412E+00  0.26608532844E+00  0.46959923966E+00  0.55634734420E+00  0.51100000000E-03 0.  1.
        -12    1    3    3    0    0  0.41728187753E+02 -0.47506529340E+01  0.13228205734E+01  0.42018569832E+02  0.00000000000E+00 0.  1.
</event>
<event>
 7    1  0.8398055E-009  0.4614232E+02  0.7816164E-02  0.1320468E+00
        -11   -1    0    0    0    0  0.00000000000E+00  0.00000000000E+00  0.45593999997E+02  0.45594000000E+02  0.51100000000E-03 0. -1.
         11   -1    0    0    0    0 -0.00000000000E+00 -0.00000000000E+00 -0.45593999997E+02  0.45594000000E+02  0.51100000000E-03 0.  1.
    9900012    2    1    2    0    0  0.54547054804E+01 -0.14204479279E+02 -0.42398024529E+02  0.46142317328E+02  0.99999960470E+01 0.  0.
         12    1    1    2    0    0 -0.54547054804E+01  0.14204479279E+02  0.42398024529E+02  0.45045682672E+02  0.00000000000E+00 0. -1.
         11    1    3    3    0    0 -0.15106054677E+01 -0.44611320510E+01 -0.20287772722E+02  0.20827322208E+02  0.51100000000E-03 0. -1.
        -11    1    3    3    0    0  0.23879483444E-01 -0.40539441574E+00 -0.23401319579E+01  0.23751068826E+01  0.51100000000E-03 0.  1.
        -12    1    3    3    0    0  0.69414314647E+01 -0.93379528124E+01 -0.19770119849E+02  0.22939888237E+02  0.00000000000E+00 0.  1.
</event>
<event>
 7    1  0.8398055E-009  0.4614232E+02  0.7816164E-02  0.1320468E+00
        -11   -1    0    0    0    0  0.00000000000E+00  0.00000000000E+00  0.45593999997E+02  0.45594000000E+02  0.51100000000E-03 0. -1.
         11   -1    0    0    0    0 -0.00000000000E+00 -0.00000000000E+00 -0.45593999997E+02  0.45594000000E+02  0.51100000000E-03 0.  1.
    9900012    2    1    2    0    0  0.33387345695E+02  0.29620801055E+02 -0.60833121558E+01  0.46142318803E+02  0.10000009504E+02 0.  0.
         12    1    1    2    0    0 -0.33387345695E+02 -0.29620801055E+02  0.60833121558E+01  0.45045681197E+02  0.00000000000E+00 0. -1.
         11    1    3    3    0    0  0.82351723524E+01  0.39959549419E+01  0.18578068642E+00  0.91553391142E+01  0.51100000000E-03 0. -1.
        -11    1    3    3    0    0  0.76087442189E+01  0.70352638680E+01  0.10051394800E+01  0.10411447158E+02  0.51100000000E-03 0.  1.
        -12    1    3    3    0    0  0.17543429124E+02  0.18589582245E+02 -0.72742323222E+01  0.26575532531E+02  0.00000000000E+00 0.  1.
</event>
<event>
 7    1  0.8398055E-009  0.4614232E+02  0.7816164E-02  0.1320468E+00
        -11   -1    0    0    0    0  0.00000000000E+00  0.00000000000E+00  0.45593999997E+02  0.45594000000E+02  0.51100000000E-03 0. -1.
         11   -1    0    0    0    0 -0.00000000000E+00 -0.00000000000E+00 -0.45593999997E+02  0.45594000000E+02  0.51100000000E-03 0.  1.
    9900012    2    1    2    0    0 -0.11249752755E+02 -0.30910723842E+02 -0.30774724536E+02  0.46142318123E+02  0.10000003300E+02 0.  0.
         12    1    1    2    0    0  0.11249752755E+02  0.30910723842E+02  0.30774724536E+02  0.45045681877E+02  0.00000000000E+00 0. -1.
         11    1    3    3    0    0 -0.12945589788E+01 -0.89676615522E+01 -0.49082914203E+01  0.10304666981E+02  0.51100000000E-03 0. -1.
        -11    1    3    3    0    0 -0.10261221798E+02 -0.19083717031E+02 -0.20934772704E+02  0.30128817384E+02  0.51100000000E-03 0.  1.
        -12    1    3    3    0    0  0.30602802229E+00 -0.28593452590E+01 -0.49316604118E+01  0.57088337582E+01  0.00000000000E+00 0.  1.
</event>
<event>
 7    1  0.8398055E-009  0.4614231E+02  0.7816164E-02  0.1320468E+00
        -11   -1    0    0    0    0  0.00000000000E+00  0.00000000000E+00  0.45593999997E+02  0.45594000000E+02  0.51100000000E-03 0. -1.
         11   -1    0    0    0    0 -0.00000000000E+00 -0.00000000000E+00 -0.45593999997E+02  0.45594000000E+02  0.51100000000E-03 0.  1.
    9900012    2    1    2    0    0  0.16424387472E+02 -0.21457422585E+02  0.36040703024E+02  0.46142314720E+02  0.99999722691E+01 0.  0.
        -12    1    1    2    0    0 -0.16424387472E+02  0.21457422585E+02 -0.36040703024E+02  0.45045685280E+02  0.00000000000E+00 0.  1.
         11    1    3    3    0    0  0.69429740191E+01 -0.48663457498E+01  0.88297155631E+01  0.12241326986E+02  0.51100000000E-03 0. -1.
        -11    1    3    3    0    0  0.17917578816E+01  0.83169231198E-01  0.17191492784E+01  0.24845095954E+01  0.51100000000E-03 0.  1.
        -12    1    3    3    0    0  0.76896555717E+01 -0.16674246067E+02  0.25491838183E+02  0.31416478139E+02  0.00000000000E+00 0.  1.
</event>
<event>
 7    1  0.8398055E-009  0.4614232E+02  0.7816164E-02  0.1320468E+00
        -11   -1    0    0    0    0  0.00000000000E+00  0.00000000000E+00  0.45593999997E+02  0.45594000000E+02  0.51100000000E-03 0.  1.
         11   -1    0    0    0    0 -0.00000000000E+00 -0.00000000000E+00 -0.45593999997E+02  0.45594000000E+02  0.51100000000E-03 0. -1.
    9900012    2    1    2    0    0  0.15958450595E+01 -0.43080357141E+02  0.13063291666E+02  0.46142317832E+02  0.10000000643E+02 0.  0.
        -12    1    1    2    0    0 -0.15958450595E+01  0.43080357141E+02 -0.13063291666E+02  0.45045682168E+02  0.00000000000E+00 0.  1.
         11    1    3    3    0    0 -0.10635168360E+01 -0.15472816396E+02  0.78118206698E+01  0.17365588320E+02  0.51100000000E-03 0. -1.
        -11    1    3    3    0    0 -0.11713315942E+01 -0.55708891720E+01  0.25819566668E+01  0.62508658888E+01  0.51100000000E-03 0.  1.
         12    1    3    3    0    0  0.38306934898E+01 -0.22036651573E+02  0.26695143299E+01  0.22525863623E+02  0.00000000000E+00 0. -1.
</event>
<event>
 7    1  0.8398055E-009  0.4614232E+02  0.7816164E-02  0.1320468E+00
        -11   -1    0    0    0    0  0.00000000000E+00  0.00000000000E+00  0.45593999997E+02  0.45594000000E+02  0.51100000000E-03 0. -1.
         11   -1    0    0    0    0 -0.00000000000E+00 -0.00000000000E+00 -0.45593999997E+02  0.45594000000E+02  0.51100000000E-03 0.  1.
    9900012    2    1    2    0    0  0.20071893369E+02  0.20294605452E+02 -0.34847691208E+02  0.46142317672E+02  0.99999991895E+01 0.  0.
         12    1    1    2    0    0 -0.20071893369E+02 -0.20294605452E+02  0.34847691208E+02  0.45045682328E+02  0.00000000000E+00 0. -1.
         11    1    3    3    0    0 -0.12405479682E-01  0.48058696137E+00 -0.18565087784E+01  0.19177442031E+01  0.51100000000E-03 0. -1.
        -11    1    3    3    0    0  0.97950119647E+00  0.34549066857E+01 -0.79947551088E+01  0.87642405439E+01  0.51100000000E-03 0.  1.
        -12    1    3    3    0    0  0.19104797652E+02  0.16359111805E+02 -0.24996427321E+02  0.35460332925E+02  0.00000000000E+00 0.  1.
</event>
<event>
 7    1  0.8398055E-009  0.4614232E+02  0.7816164E-02  0.1320468E+00
        -11   -1    0    0    0    0  0.00000000000E+00  0.00000000000E+00  0.45593999997E+02  0.45594000000E+02  0.51100000000E-03 0. -1.
         11   -1    0    0    0    0 -0.00000000000E+00 -0.00000000000E+00 -0.45593999997E+02  0.45594000000E+02  0.51100000000E-03 0.  1.
    9900012    2    1    2    0    0 -0.35566478521E+02  0.69513218744E+01  0.26754778540E+02  0.46142318244E+02  0.10000004402E+02 0.  0.
        -12    1    1    2    0    0  0.35566478521E+02 -0.69513218744E+01 -0.26754778540E+02  0.45045681756E+02  0.00000000000E+00 0.  1.
         11    1    3    3    0    0 -0.78148645270E+01  0.39251665887E+01  0.83900102479E+01  0.12119047510E+02  0.51100000000E-03 0. -1.
        -11    1    3    3    0    0 -0.57054454432E+01 -0.19181486520E+01  0.44887340050E+01  0.75086706670E+01  0.51100000000E-03 0.  1.
        -12    1    3    3    0    0 -0.22046168550E+02  0.49443039377E+01  0.13876034287E+02  0.26514600067E+02  0.00000000000E+00 0.  1.
</event>
<event>
 7    1  0.8398055E-009  0.4614232E+02  0.7816164E-02  0.1320468E+00
        -11   -1    0    0    0    0  0.00000000000E+00  0.00000000000E+00  0.45593999997E+02  0.45594000000E+02  0.51100000000E-03 0. -1.
         11   -1    0    0    0    0 -0.00000000000E+00 -0.00000000000E+00 -0.45593999997E+02  0.45594000000E+02  0.51100000000E-03 0.  1.
    9900012    2    1    2    0    0 -0.21394254207E+02 -0.32014663339E+02  0.23376498344E+02  0.46142318114E+02  0.10000003217E+02 0.  0.
        -12    1    1    2    0    0  0.21394254207E+02  0.32014663339E+02 -0.23376498344E+02  0.45045681886E+02  0.00000000000E+00 0.  1.
         11    1    3    3    0    0 -0.87218026006E+01 -0.15690536303E+02  0.14650476699E+02  0.23171086247E+02  0.51100000000E-03 0. -1.
        -11    1    3    3    0    0 -0.37770336459E+01 -0.57973897156E+01  0.54434725573E+01  0.88038119255E+01  0.51100000000E-03 0.  1.
        -12    1    3    3    0    0 -0.88954179601E+01 -0.10526737320E+02  0.32825490877E+01  0.14167419942E+02  0.00000000000E+00 0.  1.
</event>
<event>
 7    1  0.8398055E-009  0.4614232E+02  0.7816164E-02  0.1320468E+00
        -11   -1    0    0    0    0  0.00000000000E+00  0.00000000000E+00  0.45593999997E+02  0.45594000000E+02  0.51100000000E-03 0. -1.
         11   -1    0    0    0    0 -0.00000000000E+00 -0.00000000000E+00 -0.45593999997E+02  0.45594000000E+02  0.51100000000E-03 0.  1.
    9900012    2    1    2    0    0  0.23809827252E+02 -0.35230086727E+02  0.14867635819E+02  0.46142317860E+02  0.10000000906E+02 0.  0.
        -12    1    1    2    0    0 -0.23809827252E+02  0.35230086727E+02 -0.14867635819E+02  0.45045682140E+02  0.00000000000E+00 0.  1.
         11    1    3    3    0    0  0.69476099062E+01 -0.71164421015E+01  0.38863339897E+01  0.10677856701E+02  0.51100000000E-03 0.  1.
        -11    1    3    3    0    0  0.36159616311E-01 -0.36307339097E+01  0.29831567563E+01  0.46992298022E+01  0.51100000000E-03 0. -1.
         12    1    3    3    0    0  0.16826057730E+02 -0.24482910716E+02  0.79981450735E+01  0.30765231357E+02  0.00000000000E+00 0. -1.
</event>
<event>
 7    1  0.8398055E-009  0.4614232E+02  0.7816164E-02  0.1320468E+00
        -11   -1    0    0    0    0  0.00000000000E+00  0.00000000000E+00  0.45593999997E+02  0.45594000000E+02  0.51100000000E-03 0. -1.
         11   -1    0    0    0    0 -0.00000000000E+00 -0.00000000000E+00 -0.45593999997E+02  0.45594000000E+02  0.51100000000E-03 0.  1.
    9900012    2    1    2    0    0  0.47562140462E+01 -0.17199794323E+02 -0.41360113584E+02  0.46142317716E+02  0.99999995863E+01 0.  0.
         12    1    1    2    0    0 -0.47562140462E+01  0.17199794323E+02  0.41360113584E+02  0.45045682284E+02  0.00000000000E+00 0. -1.
         11    1    3    3    0    0  0.45941868551E+01 -0.66809748904E+01 -0.11420020130E+02  0.14005671650E+02  0.51100000000E-03 0. -1.
        -11    1    3    3    0    0  0.16367312005E+01 -0.89531332894E+00 -0.35966810573E+01  0.40517391166E+01  0.51100000000E-03 0.  1.
        -12    1    3    3    0    0 -0.14747040095E+01 -0.96235061033E+01 -0.26343412396E+02  0.28084906949E+02  0.00000000000E+00 0.  1.
</event>
<event>
 7    1  0.8398055E-009  0.4614232E+02  0.7816164E-02  0.1320468E+00
        -11   -1    0    0    0    0  0.00000000000E+00  0.00000000000E+00  0.45593999997E+02  0.45594000000E+02  0.51100000000E-03 0. -1.
         11   -1    0    0    0    0 -0.00000000000E+00 -0.00000000000E+00 -0.45593999997E+02  0.45594000000E+02  0.51100000000E-03 0.  1.
    9900012    2    1    2    0    0 -0.36079427419E+01 -0.77170452850E+01  0.44232832210E+02  0.46142317808E+02  0.10000000431E+02 0.  0.
        -12    1    1    2    0    0  0.36079427419E+01  0.77170452850E+01 -0.44232832210E+02  0.45045682192E+02  0.00000000000E+00 0.  1.
         11    1    3    3    0    0  0.16979358093E+01 -0.59846046843E+01  0.26413746897E+02  0.27136405521E+02  0.51100000000E-03 0. -1.
        -11    1    3    3    0    0 -0.15700028218E+01  0.20859579428E+00  0.10007574309E+02  0.10132125388E+02  0.51100000000E-03 0.  1.
        -12    1    3    3    0    0 -0.37358757294E+01 -0.19410363950E+01  0.78115110042E+01  0.88737868986E+01  0.00000000000E+00 0.  1.
</event>
<event>
 7    1  0.8398055E-009  0.4614232E+02  0.7816164E-02  0.1320468E+00
        -11   -1    0    0    0    0  0.00000000000E+00  0.00000000000E+00  0.45593999997E+02  0.45594000000E+02  0.51100000000E-03 0. -1.
         11   -1    0    0    0    0 -0.00000000000E+00 -0.00000000000E+00 -0.45593999997E+02  0.45594000000E+02  0.51100000000E-03 0.  1.
    9900012    2    1    2    0    0  0.19977662781E+02 -0.23610080265E+02 -0.32750117873E+02  0.46142321838E+02  0.10000037179E+02 0.  0.
         12    1    1    2    0    0 -0.19977662781E+02  0.23610080265E+02  0.32750117873E+02  0.45045678162E+02  0.00000000000E+00 0. -1.
         11    1    3    3    0    0  0.82894271379E+01 -0.75869000125E+01 -0.85626656320E+01  0.14127805812E+02  0.51100000000E-03 0. -1.
        -11    1    3    3    0    0  0.34196745547E+01 -0.17229434471E+01 -0.80854342409E+01  0.89463375360E+01  0.51100000000E-03 0.  1.
        -12    1    3    3    0    0  0.82685610885E+01 -0.14300236806E+02 -0.16102018000E+02  0.23068178490E+02  0.00000000000E+00 0.  1.
</event>
<event>
 7    1  0.8398055E-009  0.4614232E+02  0.7816164E-02  0.1320468E+00
        -11   -1    0    0    0    0  0.00000000000E+00  0.00000000000E+00  0.45593999997E+02  0.45594000000E+02  0.51100000000E-03 0. -1.
         11   -1    0    0    0    0 -0.00000000000E+00 -0.00000000000E+00 -0.45593999997E+02  0.45594000000E+02  0.51100000000E-03 0.  1.
    9900012    2    1    2    0    0 -0.29040824729E+01  0.14506849846E+02  0.42546810063E+02  0.46142318364E+02  0.10000005502E+02 0.  0.
        -12    1    1    2    0    0  0.29040824729E+01 -0.14506849846E+02 -0.42546810063E+02  0.45045681636E+02  0.00000000000E+00 0.  1.
         11    1    3    3    0    0 -0.33309041367E+01  0.67133444592E+01  0.21119648066E+02  0.22409896272E+02  0.51100000000E-03 0. -1.
        -11    1    3    3    0    0 -0.29150058037E+01  0.28226141800E+01  0.66877436325E+01  0.78224244835E+01  0.51100000000E-03 0.  1.
        -12    1    3    3    0    0  0.33418274675E+01  0.49708912064E+01  0.14739418364E+02  0.15909997609E+02  0.00000000000E+00 0.  1.
</event>
<event>
 7    1  0.8398055E-009  0.4614232E+02  0.7816164E-02  0.1320468E+00
        -11   -1    0    0    0    0  0.00000000000E+00  0.00000000000E+00  0.45593999997E+02  0.45594000000E+02  0.51100000000E-03 0. -1.
         11   -1    0    0    0    0 -0.00000000000E+00 -0.00000000000E+00 -0.45593999997E+02  0.45594000000E+02  0.51100000000E-03 0.  1.
    9900012    2    1    2    0    0  0.39973601133E+02 -0.17208327298E+02 -0.11623174422E+02  0.46142317637E+02  0.99999988704E+01 0.  0.
         12    1    1    2    0    0 -0.39973601133E+02  0.17208327298E+02  0.11623174422E+02  0.45045682363E+02  0.00000000000E+00 0. -1.
         11    1    3    3    0    0  0.68296558238E+01 -0.15335227303E+01  0.10063066037E+01  0.70716719294E+01  0.51100000000E-03 0. -1.
        -11    1    3    3    0    0  0.32393252183E+01 -0.31253386726E+01 -0.94849581163E+00  0.46000667662E+01  0.51100000000E-03 0.  1.
        -12    1    3    3    0    0  0.29904620091E+02 -0.12549465895E+02 -0.11680985214E+02  0.34470578942E+02  0.00000000000E+00 0.  1.
</event>
<event>
 7    1  0.8398055E-009  0.4614232E+02  0.7816164E-02  0.1320468E+00
        -11   -1    0    0    0    0  0.00000000000E+00  0.00000000000E+00  0.45593999997E+02  0.45594000000E+02  0.51100000000E-03 0. -1.
         11   -1    0    0    0    0 -0.00000000000E+00 -0.00000000000E+00 -0.45593999997E+02  0.45594000000E+02  0.51100000000E-03 0.  1.
    9900012    2    1    2    0    0  0.16175041744E+02  0.40933640831E+01  0.41841676715E+02  0.46142317463E+02  0.99999972812E+01 0.  0.
        -12    1    1    2    0    0 -0.16175041744E+02 -0.40933640831E+01 -0.41841676715E+02  0.45045682537E+02  0.00000000000E+00 0.  1.
         11    1    3    3    0    0  0.56548387541E+01  0.10894016276E+01  0.24062381344E+02  0.24741911677E+02  0.51100000000E-03 0. -1.
        -11    1    3    3    0    0  0.19247068053E+01  0.65990220313E+00  0.72655257207E+00  0.21605198692E+01  0.51100000000E-03 0.  1.
         12    1    3    3    0    0  0.85954961849E+01  0.23440602523E+01  0.17052742799E+02  0.19239885917E+02  0.00000000000E+00 0. -1.
</event>
<event>
 7    1  0.1710230E-008  0.4614232E+02  0.7816164E-02  0.1320468E+00
        -11   -1    0    0    0    0  0.00000000000E+00  0.00000000000E+00  0.45593999997E+02  0.45594000000E+02  0.51100000000E-03 0. -1.
         11   -1    0    0    0    0 -0.00000000000E+00 -0.00000000000E+00 -0.45593999997E+02  0.45594000000E+02  0.51100000000E-03 0.  1.
    9900012    2    1    2    0    0 -0.30128610741E+01  0.42546622146E+01 -0.44742975845E+02  0.46142319076E+02  0.10000011994E+02 0.  0.
         12    1    1    2    0    0  0.30128610741E+01 -0.42546622146E+01  0.44742975845E+02  0.45045680924E+02  0.00000000000E+00 0. -1.
         11    1    3    3    0    0 -0.19573755017E+01 -0.13273272560E+01 -0.10670832469E+02  0.10929765887E+02  0.51100000000E-03 0. -1.
        -11    1    3    3    0    0 -0.37620339195E+00  0.12124327154E+01 -0.25812183782E+02  0.25843381241E+02  0.51100000000E-03 0.  1.
         12    1    3    3    0    0 -0.67928218045E+00  0.43695567552E+01 -0.82599595935E+01  0.93691719487E+01  0.00000000000E+00 0. -1.
</event>
<event>
 7    1  0.8398055E-009  0.4614232E+02  0.7816164E-02  0.1320468E+00
        -11   -1    0    0    0    0  0.00000000000E+00  0.00000000000E+00  0.45593999997E+02  0.45594000000E+02  0.51100000000E-03 0. -1.
         11   -1    0    0    0    0 -0.00000000000E+00 -0.00000000000E+00 -0.45593999997E+02  0.45594000000E+02  0.51100000000E-03 0.  1.
    9900012    2    1    2    0    0  0.31590032153E+02 -0.29703412923E+02  0.12202076569E+02  0.46142317152E+02  0.99999944417E+01 0.  0.
        -12    1    1    2    0    0 -0.31590032153E+02  0.29703412923E+02 -0.12202076569E+02  0.45045682848E+02  0.00000000000E+00 0.  1.
         11    1    3    3    0    0  0.60466488747E+01 -0.53982488635E+01  0.42574442352E+01  0.91558115469E+01  0.51100000000E-03 0. -1.
        -11    1    3    3    0    0  0.23423829863E+02 -0.18237850920E+02  0.68571148727E+01  0.30468262771E+02  0.51100000000E-03 0.  1.
        -12    1    3    3    0    0  0.21195534148E+01 -0.60673131393E+01  0.10875174615E+01  0.65182428336E+01  0.00000000000E+00 0.  1.
</event>
<event>
 7    1  0.8398055E-009  0.4614232E+02  0.7816164E-02  0.1320468E+00
        -11   -1    0    0    0    0  0.00000000000E+00  0.00000000000E+00  0.45593999997E+02  0.45594000000E+02  0.51100000000E-03 0. -1.
         11   -1    0    0    0    0 -0.00000000000E+00 -0.00000000000E+00 -0.45593999997E+02  0.45594000000E+02  0.51100000000E-03 0.  1.
    9900012    2    1    2    0    0  0.12659736133E+02  0.17332676758E+02  0.39603318709E+02  0.46142318128E+02  0.10000003348E+02 0.  0.
        -12    1    1    2    0    0 -0.12659736133E+02 -0.17332676758E+02 -0.39603318709E+02  0.45045681872E+02  0.00000000000E+00 0.  1.
         11    1    3    3    0    0  0.28626458262E+01  0.25731705520E+01  0.10409059096E+02  0.11097948430E+02  0.51100000000E-03 0. -1.
        -11    1    3    3    0    0  0.57078477486E+01  0.40102749380E+01  0.61933196356E+01  0.93283996146E+01  0.51100000000E-03 0.  1.
        -12    1    3    3    0    0  0.40892425577E+01  0.10749231268E+02  0.23000939977E+02  0.25715970084E+02  0.00000000000E+00 0.  1.
</event>
<event>
 7    1  0.8398055E-009  0.4614232E+02  0.7816164E-02  0.1320468E+00
        -11   -1    0    0    0    0  0.00000000000E+00  0.00000000000E+00  0.45593999997E+02  0.45594000000E+02  0.51100000000E-03 0. -1.
         11   -1    0    0    0    0 -0.00000000000E+00 -0.00000000000E+00 -0.45593999997E+02  0.45594000000E+02  0.51100000000E-03 0.  1.
    9900012    2    1    2    0    0 -0.25112203748E+02 -0.37265943460E+02  0.31208250052E+01  0.46142324650E+02  0.10000062815E+02 0.  0.
        -12    1    1    2    0    0  0.25112203748E+02  0.37265943460E+02 -0.31208250052E+01  0.45045675350E+02  0.00000000000E+00 0.  1.
         11    1    3    3    0    0 -0.11737905746E+02 -0.19713398411E+02 -0.38244460929E+00  0.22946519831E+02  0.51100000000E-03 0. -1.
        -11    1    3    3    0    0  0.25818030473E-01  0.24109456648E+00 -0.50761808246E+00  0.56255625447E+00  0.51100000000E-03 0.  1.
        -12    1    3    3    0    0 -0.13400116032E+02 -0.17793639616E+02  0.40108876969E+01  0.22633248564E+02  0.00000000000E+00 0.  1.
</event>
<event>
 7    1  0.8398055E-009  0.4614232E+02  0.7816164E-02  0.1320468E+00
        -11   -1    0    0    0    0  0.00000000000E+00  0.00000000000E+00  0.45593999997E+02  0.45594000000E+02  0.51100000000E-03 0.  1.
         11   -1    0    0    0    0 -0.00000000000E+00 -0.00000000000E+00 -0.45593999997E+02  0.45594000000E+02  0.51100000000E-03 0. -1.
    9900012    2    1    2    0    0 -0.24685506283E+02  0.26840850413E+02 -0.26444433176E+02  0.46142317440E+02  0.99999970689E+01 0.  0.
         12    1    1    2    0    0  0.24685506283E+02 -0.26840850413E+02  0.26444433176E+02  0.45045682560E+02  0.00000000000E+00 0. -1.
         11    1    3    3    0    0 -0.15600311717E+02  0.15515548319E+02 -0.18763206971E+02  0.28916429610E+02  0.51100000000E-03 0. -1.
        -11    1    3    3    0    0 -0.58681751110E+01  0.55110908465E+01 -0.67704981664E+01  0.10518899521E+02  0.51100000000E-03 0.  1.
        -12    1    3    3    0    0 -0.32170194549E+01  0.58142112480E+01 -0.91072803797E+00  0.67069883084E+01  0.00000000000E+00 0.  1.
</event>
<event>
 7    1  0.8398055E-009  0.4614232E+02  0.7816164E-02  0.1320468E+00
        -11   -1    0    0    0    0  0.00000000000E+00  0.00000000000E+00  0.45593999997E+02  0.45594000000E+02  0.51100000000E-03 0. -1.
         11   -1    0    0    0    0 -0.00000000000E+00 -0.00000000000E+00 -0.45593999997E+02  0.45594000000E+02  0.51100000000E-03 0.  1.
    9900012    2    1    2    0    0 -0.54950795705E+01 -0.39474554716E+02  0.20992313476E+02  0.46142316583E+02  0.99999892539E+01 0.  0.
        -12    1    1    2    0    0  0.54950795705E+01  0.39474554716E+02 -0.20992313476E+02  0.45045683417E+02  0.00000000000E+00 0.  1.
         11    1    3    3    0    0  0.67227831331E+00 -0.72573316429E+00  0.15155783132E+00  0.10008080703E+01  0.51100000000E-03 0. -1.
        -11    1    3    3    0    0 -0.75646731454E+01 -0.25515543131E+02  0.15536935294E+02  0.30816612073E+02  0.51100000000E-03 0.  1.
         12    1    3    3    0    0  0.13973152615E+01 -0.13233278420E+02  0.53038203499E+01  0.14324896439E+02  0.00000000000E+00 0. -1.
</event>
<event>
 7    1  0.8398055E-009  0.4614232E+02  0.7816164E-02  0.1320468E+00
        -11   -1    0    0    0    0  0.00000000000E+00  0.00000000000E+00  0.45593999997E+02  0.45594000000E+02  0.51100000000E-03 0. -1.
         11   -1    0    0    0    0 -0.00000000000E+00 -0.00000000000E+00 -0.45593999997E+02  0.45594000000E+02  0.51100000000E-03 0.  1.
    9900012    2    1    2    0    0  0.86519555813E+01  0.17211603955E+02  0.40718766785E+02  0.46142316361E+02  0.99999872294E+01 0.  0.
        -12    1    1    2    0    0 -0.86519555813E+01 -0.17211603955E+02 -0.40718766785E+02  0.45045683639E+02  0.00000000000E+00 0.  1.
         11    1    3    3    0    0  0.53218904991E+01  0.53148449604E+01  0.10377330803E+02  0.12816360259E+02  0.51100000000E-03 0. -1.
        -11    1    3    3    0    0 -0.17696632465E+01  0.22495314350E+01  0.68396724492E+01  0.74143927031E+01  0.51100000000E-03 0.  1.
         12    1    3    3    0    0  0.50997283286E+01  0.96472275592E+01  0.23501763533E+02  0.25911563399E+02  0.00000000000E+00 0. -1.
</event>
<event>
 7    1  0.8398055E-009  0.4614232E+02  0.7816164E-02  0.1320468E+00
        -11   -1    0    0    0    0  0.00000000000E+00  0.00000000000E+00  0.45593999997E+02  0.45594000000E+02  0.51100000000E-03 0. -1.
         11   -1    0    0    0    0 -0.00000000000E+00 -0.00000000000E+00 -0.45593999997E+02  0.45594000000E+02  0.51100000000E-03 0.  1.
    9900012    2    1    2    0    0  0.20049371832E+02 -0.12468017820E+02  0.38362542130E+02  0.46142318543E+02  0.10000007130E+02 0.  0.
        -12    1    1    2    0    0 -0.20049371832E+02  0.12468017820E+02 -0.38362542130E+02  0.45045681457E+02  0.00000000000E+00 0.  1.
         11    1    3    3    0    0  0.41142882231E+01 -0.28875000093E+00  0.10897824680E+02  0.11652181219E+02  0.51100000000E-03 0. -1.
        -11    1    3    3    0    0  0.12290442019E+02 -0.70841715914E+01  0.15686663604E+02  0.21149748638E+02  0.51100000000E-03 0.  1.
         12    1    3    3    0    0  0.36446415897E+01 -0.50950962277E+01  0.11778053846E+02  0.13340388686E+02  0.00000000000E+00 0. -1.
</event>
<event>
 7    1  0.8398055E-009  0.4614230E+02  0.7816164E-02  0.1320468E+00
        -11   -1    0    0    0    0  0.00000000000E+00  0.00000000000E+00  0.45593999997E+02  0.45594000000E+02  0.51100000000E-03 0. -1.
         11   -1    0    0    0    0 -0.00000000000E+00 -0.00000000000E+00 -0.45593999997E+02  0.45594000000E+02  0.51100000000E-03 0.  1.
    9900012    2    1    2    0    0 -0.24421475803E+01  0.14022821099E+02  0.42737702301E+02  0.46142303265E+02  0.99998678140E+01 0.  0.
        -12    1    1    2    0    0  0.24421475803E+01 -0.14022821099E+02 -0.42737702301E+02  0.45045696735E+02  0.00000000000E+00 0.  1.
         11    1    3    3    0    0 -0.26473675032E+01  0.29502677744E+01  0.10398536159E+02  0.11128440554E+02  0.51100000000E-03 0. -1.
        -11    1    3    3    0    0  0.16903549643E+01  0.11340086686E+00  0.93576224512E+01  0.95097454152E+01  0.51100000000E-03 0.  1.
        -12    1    3    3    0    0 -0.14851350414E+01  0.10959152458E+02  0.22981543690E+02  0.25504117297E+02  0.00000000000E+00 0.  1.
</event>
<event>
 7    1  0.8398055E-009  0.4614232E+02  0.7816164E-02  0.1320468E+00
        -11   -1    0    0    0    0  0.00000000000E+00  0.00000000000E+00  0.45593999997E+02  0.45594000000E+02  0.51100000000E-03 0. -1.
         11   -1    0    0    0    0 -0.00000000000E+00 -0.00000000000E+00 -0.45593999997E+02  0.45594000000E+02  0.51100000000E-03 0.  1.
    9900012    2    1    2    0    0  0.21857750855E+02 -0.39252463278E+01  0.39191129856E+02  0.46142317737E+02  0.99999997761E+01 0.  0.
        -12    1    1    2    0    0 -0.21857750855E+02  0.39252463278E+01 -0.39191129856E+02  0.45045682263E+02  0.00000000000E+00 0.  1.
         11    1    3    3    0    0  0.49033016921E+01 -0.15133413967E+01  0.69554866288E+01  0.86435735765E+01  0.51100000000E-03 0. -1.
        -11    1    3    3    0    0  0.57229534848E+01  0.36673182497E+00  0.40210061278E+01  0.70039402739E+01  0.51100000000E-03 0.  1.
         12    1    3    3    0    0  0.11231495678E+02 -0.27786367560E+01  0.28214637100E+02  0.30494803886E+02  0.00000000000E+00 0. -1.
</event>
<event>
 7    1  0.8398055E-009  0.4614232E+02  0.7816164E-02  0.1320468E+00
        -11   -1    0    0    0    0  0.00000000000E+00  0.00000000000E+00  0.45593999997E+02  0.45594000000E+02  0.51100000000E-03 0. -1.
         11   -1    0    0    0    0 -0.00000000000E+00 -0.00000000000E+00 -0.45593999997E+02  0.45594000000E+02  0.51100000000E-03 0.  1.
    9900012    2    1    2    0    0 -0.17011736678E+02 -0.17068434477E+02  0.38057624695E+02  0.46142318323E+02  0.10000005126E+02 0.  0.
        -12    1    1    2    0    0  0.17011736678E+02  0.17068434477E+02 -0.38057624695E+02  0.45045681677E+02  0.00000000000E+00 0.  1.
         11    1    3    3    0    0 -0.62503828854E+01 -0.93886467558E+01  0.19713759252E+02  0.22712249519E+02  0.51100000000E-03 0. -1.
        -11    1    3    3    0    0 -0.65296314145E+01 -0.79799566683E+01  0.12385476728E+02  0.16115701315E+02  0.51100000000E-03 0.  1.
        -12    1    3    3    0    0 -0.42317223786E+01  0.30016894685E+00  0.59583887145E+01  0.73143674887E+01  0.00000000000E+00 0.  1.
</event>
<event>
 7    1  0.8398055E-009  0.4614232E+02  0.7816164E-02  0.1320468E+00
        -11   -1    0    0    0    0  0.00000000000E+00  0.00000000000E+00  0.45593999997E+02  0.45594000000E+02  0.51100000000E-03 0. -1.
         11   -1    0    0    0    0 -0.00000000000E+00 -0.00000000000E+00 -0.45593999997E+02  0.45594000000E+02  0.51100000000E-03 0.  1.
    9900012    2    1    2    0    0 -0.14212378978E+01 -0.89529466864E+01 -0.44124124143E+02  0.46142317599E+02  0.99999985248E+01 0.  0.
         12    1    1    2    0    0  0.14212378978E+01  0.89529466864E+01  0.44124124143E+02  0.45045682401E+02  0.00000000000E+00 0. -1.
         11    1    3    3    0    0 -0.13574964101E+01 -0.27288336966E+00 -0.80533529798E+01  0.81715210528E+01  0.51100000000E-03 0. -1.
        -11    1    3    3    0    0  0.10470696793E+01  0.80362154757E+00 -0.12045479152E+02  0.12117579411E+02  0.51100000000E-03 0.  1.
        -12    1    3    3    0    0 -0.11108111670E+01 -0.94836848643E+01 -0.24025292011E+02  0.25853217136E+02  0.00000000000E+00 0.  1.
</event>
<event>
 7    1  0.8398055E-009  0.4614232E+02  0.7816164E-02  0.1320468E+00
        -11   -1    0    0    0    0  0.00000000000E+00  0.00000000000E+00  0.45593999997E+02  0.45594000000E+02  0.51100000000E-03 0. -1.
         11   -1    0    0    0    0 -0.00000000000E+00 -0.00000000000E+00 -0.45593999997E+02  0.45594000000E+02  0.51100000000E-03 0.  1.
    9900012    2    1    2    0    0 -0.32925996755E+02 -0.35991167690E+01 -0.30529308693E+02  0.46142316599E+02  0.99999894017E+01 0.  0.
         12    1    1    2    0    0  0.32925996755E+02  0.35991167690E+01  0.30529308693E+02  0.45045683401E+02  0.00000000000E+00 0. -1.
         11    1    3    3    0    0 -0.63325449202E+01  0.25679746455E+01 -0.55339507391E+01  0.87931922526E+01  0.51100000000E-03 0. -1.
        -11    1    3    3    0    0 -0.42571064235E+01 -0.11950051000E+01 -0.68121166425E+01  0.81213253661E+01  0.51100000000E-03 0.  1.
        -12    1    3    3    0    0 -0.22336345411E+02 -0.49720863145E+01 -0.18183241311E+02  0.29227798980E+02  0.00000000000E+00 0.  1.
</event>
<event>
 7    1  0.8398055E-009  0.4614232E+02  0.7816164E-02  0.1320468E+00
        -11   -1    0    0    0    0  0.00000000000E+00  0.00000000000E+00  0.45593999997E+02  0.45594000000E+02  0.51100000000E-03 0. -1.
         11   -1    0    0    0    0 -0.00000000000E+00 -0.00000000000E+00 -0.45593999997E+02  0.45594000000E+02  0.51100000000E-03 0.  1.
    9900012    2    1    2    0    0  0.57432839976E-01  0.10871767763E+02  0.43714010674E+02  0.46142319164E+02  0.10000012790E+02 0.  0.
        -12    1    1    2    0    0 -0.57432839976E-01 -0.10871767763E+02 -0.43714010674E+02  0.45045680836E+02  0.00000000000E+00 0.  1.
         11    1    3    3    0    0  0.38179855448E+01  0.53242370356E+01  0.14846533013E+02  0.16227878987E+02  0.51100000000E-03 0. -1.
        -11    1    3    3    0    0 -0.50832886348E+00  0.22017238096E+01  0.17212089070E+02  0.17359781001E+02  0.51100000000E-03 0.  1.
         12    1    3    3    0    0 -0.32522238413E+01  0.33458069176E+01  0.11655388590E+02  0.12554659176E+02  0.00000000000E+00 0. -1.
</event>
<event>
 7    1  0.8398055E-009  0.4614232E+02  0.7816164E-02  0.1320468E+00
        -11   -1    0    0    0    0  0.00000000000E+00  0.00000000000E+00  0.45593999997E+02  0.45594000000E+02  0.51100000000E-03 0. -1.
         11   -1    0    0    0    0 -0.00000000000E+00 -0.00000000000E+00 -0.45593999997E+02  0.45594000000E+02  0.51100000000E-03 0.  1.
    9900012    2    1    2    0    0  0.17023304358E+02 -0.66574262998E+01  0.41170369285E+02  0.46142317374E+02  0.99999964686E+01 0.  0.
        -12    1    1    2    0    0 -0.17023304358E+02  0.66574262998E+01 -0.41170369285E+02  0.45045682626E+02  0.00000000000E+00 0.  1.
         11    1    3    3    0    0  0.70971813113E+01 -0.63562885851E+01  0.24705065638E+02  0.26478531975E+02  0.51100000000E-03 0. -1.
        -11    1    3    3    0    0  0.95975812235E+01  0.12750625126E+00  0.16535241619E+02  0.19119206021E+02  0.51100000000E-03 0.  1.
        -12    1    3    3    0    0  0.32854182299E+00 -0.42864396595E+00 -0.69937972047E-01  0.54457937800E+00  0.00000000000E+00 0.  1.
</event>
<event>
 7    1  0.8398055E-009  0.4614232E+02  0.7816164E-02  0.1320468E+00
        -11   -1    0    0    0    0  0.00000000000E+00  0.00000000000E+00  0.45593999997E+02  0.45594000000E+02  0.51100000000E-03 0. -1.
         11   -1    0    0    0    0 -0.00000000000E+00 -0.00000000000E+00 -0.45593999997E+02  0.45594000000E+02  0.51100000000E-03 0.  1.
    9900012    2    1    2    0    0  0.16794436563E+02  0.60582565912E+01 -0.41356473632E+02  0.46142317814E+02  0.10000000479E+02 0.  0.
         12    1    1    2    0    0 -0.16794436563E+02 -0.60582565912E+01  0.41356473632E+02  0.45045682186E+02  0.00000000000E+00 0. -1.
         11    1    3    3    0    0  0.39090535827E+01  0.18212419037E+01 -0.10147794491E+02  0.11026121498E+02  0.51100000000E-03 0. -1.
        -11    1    3    3    0    0  0.10408741159E+02  0.60486806614E+01 -0.18725951340E+02  0.22261843682E+02  0.51100000000E-03 0.  1.
         12    1    3    3    0    0  0.24766418217E+01 -0.18116659739E+01 -0.12482727800E+02  0.12854352634E+02  0.00000000000E+00 0. -1.
</event>
<event>
 7    1  0.8398055E-009  0.4614232E+02  0.7816164E-02  0.1320468E+00
        -11   -1    0    0    0    0  0.00000000000E+00  0.00000000000E+00  0.45593999997E+02  0.45594000000E+02  0.51100000000E-03 0. -1.
         11   -1    0    0    0    0 -0.00000000000E+00 -0.00000000000E+00 -0.45593999997E+02  0.45594000000E+02  0.51100000000E-03 0.  1.
    9900012    2    1    2    0    0 -0.23703614767E+02 -0.34221398738E+02 -0.17208950987E+02  0.46142317868E+02  0.10000000977E+02 0.  0.
         12    1    1    2    0    0  0.23703614767E+02  0.34221398738E+02  0.17208950987E+02  0.45045682132E+02  0.00000000000E+00 0. -1.
         11    1    3    3    0    0 -0.19252087121E+02 -0.22094867902E+02 -0.12292874470E+02  0.31779565905E+02  0.51100000000E-03 0.  1.
        -11    1    3    3    0    0 -0.48967883543E+01 -0.10278719240E+02 -0.50543905780E+01  0.12457024917E+02  0.51100000000E-03 0. -1.
        -12    1    3    3    0    0  0.44526070881E+00 -0.18478115968E+01  0.13831406071E+00  0.19057270464E+01  0.00000000000E+00 0.  1.
</event>
<event>
 7    1  0.8398055E-009  0.4614232E+02  0.7816164E-02  0.1320468E+00
        -11   -1    0    0    0    0  0.00000000000E+00  0.00000000000E+00  0.45593999997E+02  0.45594000000E+02  0.51100000000E-03 0.  1.
         11   -1    0    0    0    0 -0.00000000000E+00 -0.00000000000E+00 -0.45593999997E+02  0.45594000000E+02  0.51100000000E-03 0. -1.
    9900012    2    1    2    0    0  0.11513258679E+02  0.43008316500E+02  0.68441920396E+01  0.46142318984E+02  0.10000011150E+02 0.  0.
         12    1    1    2    0    0 -0.11513258679E+02 -0.43008316500E+02 -0.68441920396E+01  0.45045681016E+02  0.00000000000E+00 0. -1.
         11    1    3    3    0    0  0.43894226634E+01  0.11316473942E+02 -0.89872164845E+00  0.12171167350E+02  0.51100000000E-03 0. -1.
        -11    1    3    3    0    0  0.37794952945E+01  0.79876504585E+01  0.84765619561E-01  0.88370996374E+01  0.51100000000E-03 0.  1.
        -12    1    3    3    0    0  0.33443407207E+01  0.23704192100E+02  0.76581480685E+01  0.25134051997E+02  0.00000000000E+00 0.  1.
</event>
<event>
 7    1  0.8398055E-009  0.4614232E+02  0.7816164E-02  0.1320468E+00
        -11   -1    0    0    0    0  0.00000000000E+00  0.00000000000E+00  0.45593999997E+02  0.45594000000E+02  0.51100000000E-03 0. -1.
         11   -1    0    0    0    0 -0.00000000000E+00 -0.00000000000E+00 -0.45593999997E+02  0.45594000000E+02  0.51100000000E-03 0.  1.
    9900012    2    1    2    0    0  0.27799292845E+02 -0.27541312438E+02  0.22311184689E+02  0.46142317236E+02  0.99999952093E+01 0.  0.
        -12    1    1    2    0    0 -0.27799292845E+02  0.27541312438E+02 -0.22311184689E+02  0.45045682764E+02  0.00000000000E+00 0.  1.
         11    1    3    3    0    0  0.17254001148E+02 -0.18134079016E+02  0.11883978415E+02  0.27708740870E+02  0.51100000000E-03 0. -1.
        -11    1    3    3    0    0  0.54442806306E+01 -0.58495250230E+01  0.25309681995E+01  0.83822989011E+01  0.51100000000E-03 0.  1.
         12    1    3    3    0    0  0.51010110669E+01 -0.35577083991E+01  0.78962380738E+01  0.10051277465E+02  0.00000000000E+00 0. -1.
</event>
<event>
 7    1  0.8398055E-009  0.4614232E+02  0.7816164E-02  0.1320468E+00
        -11   -1    0    0    0    0  0.00000000000E+00  0.00000000000E+00  0.45593999997E+02  0.45594000000E+02  0.51100000000E-03 0. -1.
         11   -1    0    0    0    0 -0.00000000000E+00 -0.00000000000E+00 -0.45593999997E+02  0.45594000000E+02  0.51100000000E-03 0.  1.
    9900012    2    1    2    0    0  0.43917627609E+01  0.42677901966E+02  0.13726712964E+02  0.46142317131E+02  0.99999942530E+01 0.  0.
        -12    1    1    2    0    0 -0.43917627609E+01 -0.42677901966E+02 -0.13726712964E+02  0.45045682869E+02  0.00000000000E+00 0.  1.
         11    1    3    3    0    0  0.47208710623E+01  0.26679535475E+02  0.80629138312E+01  0.28268265183E+02  0.51100000000E-03 0. -1.
        -11    1    3    3    0    0  0.15395231913E+00  0.10481233174E+02  0.81647082579E+00  0.10514113136E+02  0.51100000000E-03 0.  1.
         12    1    3    3    0    0 -0.48306062053E+00  0.55171333164E+01  0.48473283070E+01  0.73599388116E+01  0.00000000000E+00 0. -1.
</event>
<event>
 7    1  0.8398055E-009  0.4614232E+02  0.7816164E-02  0.1320468E+00
        -11   -1    0    0    0    0  0.00000000000E+00  0.00000000000E+00  0.45593999997E+02  0.45594000000E+02  0.51100000000E-03 0.  1.
         11   -1    0    0    0    0 -0.00000000000E+00 -0.00000000000E+00 -0.45593999997E+02  0.45594000000E+02  0.51100000000E-03 0. -1.
    9900012    2    1    2    0    0 -0.38847858686E+02  0.12943197839E+01 -0.22765809801E+02  0.46142317809E+02  0.10000000432E+02 0.  0.
         12    1    1    2    0    0  0.38847858686E+02 -0.12943197839E+01  0.22765809801E+02  0.45045682191E+02  0.00000000000E+00 0. -1.
         11    1    3    3    0    0 -0.44076100524E+01 -0.20816984168E+01 -0.39942076126E+01  0.63019195002E+01  0.51100000000E-03 0. -1.
        -11    1    3    3    0    0 -0.26655201882E+02  0.52416453078E-01 -0.14828308597E+02  0.30502151907E+02  0.51100000000E-03 0.  1.
        -12    1    3    3    0    0 -0.77850467515E+01  0.33236017476E+01 -0.39432935913E+01  0.93382464011E+01  0.00000000000E+00 0.  1.
</event>
<event>
 7    1  0.8398055E-009  0.4614232E+02  0.7816164E-02  0.1320468E+00
        -11   -1    0    0    0    0  0.00000000000E+00  0.00000000000E+00  0.45593999997E+02  0.45594000000E+02  0.51100000000E-03 0. -1.
         11   -1    0    0    0    0 -0.00000000000E+00 -0.00000000000E+00 -0.45593999997E+02  0.45594000000E+02  0.51100000000E-03 0.  1.
    9900012    2    1    2    0    0  0.26479420383E+02 -0.10918684876E+02 -0.34766882042E+02  0.46142317963E+02  0.10000001840E+02 0.  0.
         12    1    1    2    0    0 -0.26479420383E+02  0.10918684876E+02  0.34766882042E+02  0.45045682037E+02  0.00000000000E+00 0. -1.
         11    1    3    3    0    0  0.33585523125E+01  0.66582680413E-01 -0.73509929465E+01  0.80821658266E+01  0.51100000000E-03 0. -1.
        -11    1    3    3    0    0  0.21771643138E+02 -0.95308746387E+01 -0.27110332169E+02  0.36052907329E+02  0.51100000000E-03 0.  1.
         12    1    3    3    0    0  0.13492249330E+01 -0.14543929180E+01 -0.30555692632E+00  0.20072448070E+01  0.00000000000E+00 0. -1.
</event>
<event>
 7    1  0.8398055E-009  0.4614232E+02  0.7816164E-02  0.1320468E+00
        -11   -1    0    0    0    0  0.00000000000E+00  0.00000000000E+00  0.45593999997E+02  0.45594000000E+02  0.51100000000E-03 0. -1.
         11   -1    0    0    0    0 -0.00000000000E+00 -0.00000000000E+00 -0.45593999997E+02  0.45594000000E+02  0.51100000000E-03 0.  1.
    9900012    2    1    2    0    0 -0.64909432582E+01 -0.31246267245E+02  0.31790752003E+02  0.46142317921E+02  0.10000001454E+02 0.  0.
        -12    1    1    2    0    0  0.64909432582E+01  0.31246267245E+02 -0.31790752003E+02  0.45045682079E+02  0.00000000000E+00 0.  1.
         11    1    3    3    0    0 -0.28208284796E+01 -0.77001487130E+01  0.56138568920E+01  0.99380457323E+01  0.51100000000E-03 0. -1.
        -11    1    3    3    0    0  0.13748093282E+01 -0.44553393590E+01  0.85329458166E+01  0.97237500000E+01  0.51100000000E-03 0.  1.
         12    1    3    3    0    0 -0.50449241068E+01 -0.19090779173E+02  0.17643949294E+02  0.26480522188E+02  0.00000000000E+00 0. -1.
</event>
<event>
 7    1  0.8398055E-009  0.4614231E+02  0.7816164E-02  0.1320468E+00
        -11   -1    0    0    0    0  0.00000000000E+00  0.00000000000E+00  0.45593999997E+02  0.45594000000E+02  0.51100000000E-03 0. -1.
         11   -1    0    0    0    0 -0.00000000000E+00 -0.00000000000E+00 -0.45593999997E+02  0.45594000000E+02  0.51100000000E-03 0.  1.
    9900012    2    1    2    0    0 -0.23870745567E+02 -0.17177481743E+02  0.34120906173E+02  0.46142305300E+02  0.99998863695E+01 0.  0.
        -12    1    1    2    0    0  0.23870745567E+02  0.17177481743E+02 -0.34120906173E+02  0.45045694700E+02  0.00000000000E+00 0.  1.
         11    1    3    3    0    0 -0.12091733464E+02 -0.61735800230E+01  0.10095642763E+02  0.16918779847E+02  0.51100000000E-03 0. -1.
        -11    1    3    3    0    0 -0.98857019046E+01 -0.71525744091E+01  0.19361727578E+02  0.22885867209E+02  0.51100000000E-03 0.  1.
        -12    1    3    3    0    0 -0.18933101981E+01 -0.38513273107E+01  0.46635358320E+01  0.63376582439E+01  0.00000000000E+00 0.  1.
</event>
<event>
 7    1  0.8398055E-009  0.4614232E+02  0.7816164E-02  0.1320468E+00
        -11   -1    0    0    0    0  0.00000000000E+00  0.00000000000E+00  0.45593999997E+02  0.45594000000E+02  0.51100000000E-03 0. -1.
         11   -1    0    0    0    0 -0.00000000000E+00 -0.00000000000E+00 -0.45593999997E+02  0.45594000000E+02  0.51100000000E-03 0.  1.
    9900012    2    1    2    0    0 -0.18727339721E+02  0.22811356633E+02 -0.34030019933E+02  0.46142317620E+02  0.99999987108E+01 0.  0.
         12    1    1    2    0    0  0.18727339721E+02 -0.22811356633E+02  0.34030019933E+02  0.45045682380E+02  0.00000000000E+00 0. -1.
         11    1    3    3    0    0 -0.61154733389E+01  0.83509571171E+01 -0.16696049124E+02  0.19644224483E+02  0.51100000000E-03 0. -1.
        -11    1    3    3    0    0 -0.57211270535E+01  0.32539482631E+01 -0.80418953595E+01  0.10391898541E+02  0.51100000000E-03 0.  1.
         12    1    3    3    0    0 -0.68907393283E+01  0.11206451253E+02 -0.92920754495E+01  0.16106194595E+02  0.00000000000E+00 0. -1.
</event>
<event>
 7    1  0.8398055E-009  0.4614232E+02  0.7816164E-02  0.1320468E+00
        -11   -1    0    0    0    0  0.00000000000E+00  0.00000000000E+00  0.45593999997E+02  0.45594000000E+02  0.51100000000E-03 0. -1.
         11   -1    0    0    0    0 -0.00000000000E+00 -0.00000000000E+00 -0.45593999997E+02  0.45594000000E+02  0.51100000000E-03 0.  1.
    9900012    2    1    2    0    0  0.12237759767E+02 -0.21840733946E+01 -0.43296426410E+02  0.46142317847E+02  0.10000000785E+02 0.  0.
         12    1    1    2    0    0 -0.12237759767E+02  0.21840733946E+01  0.43296426410E+02  0.45045682153E+02  0.00000000000E+00 0. -1.
         11    1    3    3    0    0  0.62122381576E+00  0.88842558953E+00 -0.12084494988E+02  0.12133022642E+02  0.51100000000E-03 0. -1.
        -11    1    3    3    0    0 -0.37865314804E+00  0.38538721863E+00 -0.19497092405E+00  0.57438265742E+00  0.51100000000E-03 0.  1.
        -12    1    3    3    0    0  0.11995189099E+02 -0.34578862027E+01 -0.31016960498E+02  0.33434912548E+02  0.00000000000E+00 0.  1.
</event>
<event>
 7    1  0.8398055E-009  0.4614232E+02  0.7816164E-02  0.1320468E+00
        -11   -1    0    0    0    0  0.00000000000E+00  0.00000000000E+00  0.45593999997E+02  0.45594000000E+02  0.51100000000E-03 0. -1.
         11   -1    0    0    0    0 -0.00000000000E+00 -0.00000000000E+00 -0.45593999997E+02  0.45594000000E+02  0.51100000000E-03 0.  1.
    9900012    2    1    2    0    0 -0.16919635690E+02 -0.11452640124E+02 -0.40145690242E+02  0.46142317824E+02  0.10000000574E+02 0.  0.
         12    1    1    2    0    0  0.16919635690E+02  0.11452640124E+02  0.40145690242E+02  0.45045682176E+02  0.00000000000E+00 0. -1.
         11    1    3    3    0    0 -0.17222089495E+02 -0.11976325181E+02 -0.39220772219E+02  0.44478103660E+02  0.51100000000E-03 0.  1.
        -11    1    3    3    0    0  0.25593994472E+00  0.93508093556E+00 -0.64304250368E+00  0.11633509935E+01  0.51100000000E-03 0. -1.
         12    1    3    3    0    0  0.46513860666E-01 -0.41139587804E+00 -0.28187551925E+00  0.50086317100E+00  0.00000000000E+00 0. -1.
</event>
<event>
 7    1  0.8398055E-009  0.4614232E+02  0.7816164E-02  0.1320468E+00
        -11   -1    0    0    0    0  0.00000000000E+00  0.00000000000E+00  0.45593999997E+02  0.45594000000E+02  0.51100000000E-03 0. -1.
         11   -1    0    0    0    0 -0.00000000000E+00 -0.00000000000E+00 -0.45593999997E+02  0.45594000000E+02  0.51100000000E-03 0.  1.
    9900012    2    1    2    0    0  0.39756530707E+02 -0.20225731752E+02 -0.62810384393E+01  0.46142318713E+02  0.10000008677E+02 0.  0.
         12    1    1    2    0    0 -0.39756530707E+02  0.20225731752E+02  0.62810384393E+01  0.45045681287E+02  0.00000000000E+00 0. -1.
         11    1    3    3    0    0  0.12855145263E+02 -0.99549956699E+01 -0.20613443645E+01  0.16389198863E+02  0.51100000000E-03 0.  1.
        -11    1    3    3    0    0  0.99741812343E+00  0.24554757566E+00 -0.12808032035E+01  0.16418263100E+01  0.51100000000E-03 0. -1.
        -12    1    3    3    0    0  0.25903967321E+02 -0.10516283658E+02 -0.29388908713E+01  0.28111293540E+02  0.00000000000E+00 0.  1.
</event>
<event>
 7    1  0.8398055E-009  0.4614232E+02  0.7816164E-02  0.1320468E+00
        -11   -1    0    0    0    0  0.00000000000E+00  0.00000000000E+00  0.45593999997E+02  0.45594000000E+02  0.51100000000E-03 0.  1.
         11   -1    0    0    0    0 -0.00000000000E+00 -0.00000000000E+00 -0.45593999997E+02  0.45594000000E+02  0.51100000000E-03 0. -1.
    9900012    2    1    2    0    0 -0.11661158521E+01  0.42079230202E+02  0.16034089548E+02  0.46142317985E+02  0.10000002043E+02 0.  0.
        -12    1    1    2    0    0  0.11661158521E+01 -0.42079230202E+02 -0.16034089548E+02  0.45045682015E+02  0.00000000000E+00 0.  1.
         11    1    3    3    0    0 -0.44616110835E+01  0.21247564291E+02  0.74167576366E+01  0.22942825804E+02  0.51100000000E-03 0. -1.
        -11    1    3    3    0    0  0.43802754396E+00  0.74438413742E+01  0.51976427356E+01  0.90894517327E+01  0.51100000000E-03 0.  1.
        -12    1    3    3    0    0  0.28574676874E+01  0.13387824536E+02  0.34196891759E+01  0.14110040448E+02  0.00000000000E+00 0.  1.
</event>
<event>
 7    1  0.8398055E-009  0.4614232E+02  0.7816164E-02  0.1320468E+00
        -11   -1    0    0    0    0  0.00000000000E+00  0.00000000000E+00  0.45593999997E+02  0.45594000000E+02  0.51100000000E-03 0. -1.
         11   -1    0    0    0    0 -0.00000000000E+00 -0.00000000000E+00 -0.45593999997E+02  0.45594000000E+02  0.51100000000E-03 0.  1.
    9900012    2    1    2    0    0  0.94279561860E+01  0.36749074080E+02 -0.24284411883E+02  0.46142318030E+02  0.10000002456E+02 0.  0.
         12    1    1    2    0    0 -0.94279561860E+01 -0.36749074080E+02  0.24284411883E+02  0.45045681970E+02  0.00000000000E+00 0. -1.
         11    1    3    3    0    0  0.12085530834E+01  0.21089369308E+01  0.73125470781E+00  0.25382965237E+01  0.51100000000E-03 0. -1.
        -11    1    3    3    0    0  0.14635725868E+01  0.62940457109E+01 -0.32547680997E+01  0.72353694980E+01  0.51100000000E-03 0.  1.
         12    1    3    3    0    0  0.67558305157E+01  0.28346091439E+02 -0.21760898491E+02  0.36368652009E+02  0.00000000000E+00 0. -1.
</event>
<event>
 7    1  0.8896494E-009  0.4614232E+02  0.7816164E-02  0.1320468E+00
        -11   -1    0    0    0    0  0.00000000000E+00  0.00000000000E+00  0.45593999997E+02  0.45594000000E+02  0.51100000000E-03 0. -1.
         11   -1    0    0    0    0 -0.00000000000E+00 -0.00000000000E+00 -0.45593999997E+02  0.45594000000E+02  0.51100000000E-03 0.  1.
    9900012    2    1    2    0    0  0.35619158332E+01  0.20331346044E+02 -0.40038261573E+02  0.46142320228E+02  0.10000022495E+02 0.  0.
         12    1    1    2    0    0 -0.35619158332E+01 -0.20331346044E+02  0.40038261573E+02  0.45045679772E+02  0.00000000000E+00 0. -1.
         11    1    3    3    0    0  0.10359886906E+01  0.18664880426E+01 -0.90405916821E+00  0.23182694884E+01  0.51100000000E-03 0. -1.
        -11    1    3    3    0    0  0.10238547449E+01 -0.14236540491E+00 -0.25703599907E+01  0.27704326720E+01  0.51100000000E-03 0.  1.
        -12    1    3    3    0    0  0.15020723977E+01  0.18607223406E+02 -0.36563842414E+02  0.41053618068E+02  0.00000000000E+00 0.  1.
</event>
<event>
 7    1  0.8398055E-009  0.4614232E+02  0.7816164E-02  0.1320468E+00
        -11   -1    0    0    0    0  0.00000000000E+00  0.00000000000E+00  0.45593999997E+02  0.45594000000E+02  0.51100000000E-03 0. -1.
         11   -1    0    0    0    0 -0.00000000000E+00 -0.00000000000E+00 -0.45593999997E+02  0.45594000000E+02  0.51100000000E-03 0.  1.
    9900012    2    1    2    0    0  0.11259529184E+02  0.21453986037E+02  0.37974504929E+02  0.46142317200E+02  0.99999948836E+01 0.  0.
        -12    1    1    2    0    0 -0.11259529184E+02 -0.21453986037E+02 -0.37974504929E+02  0.45045682800E+02  0.00000000000E+00 0.  1.
         11    1    3    3    0    0  0.84534479664E+01  0.88782929070E+01  0.16627355017E+02  0.20658020297E+02  0.51100000000E-03 0. -1.
        -11    1    3    3    0    0  0.28349758469E+01  0.13094246232E+02  0.20457789242E+02  0.24454396606E+02  0.51100000000E-03 0.  1.
        -12    1    3    3    0    0 -0.28894629446E-01 -0.51855310272E+00  0.88936066964E+00  0.10299002965E+01  0.00000000000E+00 0.  1.
</event>
<event>
 7    1  0.8398055E-009  0.4614232E+02  0.7816164E-02  0.1320468E+00
        -11   -1    0    0    0    0  0.00000000000E+00  0.00000000000E+00  0.45593999997E+02  0.45594000000E+02  0.51100000000E-03 0. -1.
         11   -1    0    0    0    0 -0.00000000000E+00 -0.00000000000E+00 -0.45593999997E+02  0.45594000000E+02  0.51100000000E-03 0.  1.
    9900012    2    1    2    0    0  0.29729152238E+02 -0.69443953610E+01  0.33121991873E+02  0.46142318016E+02  0.10000002327E+02 0.  0.
        -12    1    1    2    0    0 -0.29729152238E+02  0.69443953610E+01 -0.33121991873E+02  0.45045681984E+02  0.00000000000E+00 0.  1.
         11    1    3    3    0    0  0.19449313758E+02 -0.46230594371E+01  0.18964181052E+02  0.27555192749E+02  0.51100000000E-03 0. -1.
        -11    1    3    3    0    0  0.86601537203E+01 -0.41245043143E+01  0.11784422062E+02  0.15194814968E+02  0.51100000000E-03 0.  1.
        -12    1    3    3    0    0  0.16196847597E+01  0.18031683904E+01  0.23733887593E+01  0.33923102994E+01  0.00000000000E+00 0.  1.
</event>
<event>
 7    1  0.8398055E-009  0.4614232E+02  0.7816164E-02  0.1320468E+00
        -11   -1    0    0    0    0  0.00000000000E+00  0.00000000000E+00  0.45593999997E+02  0.45594000000E+02  0.51100000000E-03 0. -1.
         11   -1    0    0    0    0 -0.00000000000E+00 -0.00000000000E+00 -0.45593999997E+02  0.45594000000E+02  0.51100000000E-03 0.  1.
    9900012    2    1    2    0    0 -0.14084883664E+02  0.35936444904E+02 -0.23222865350E+02  0.46142317685E+02  0.99999993051E+01 0.  0.
         12    1    1    2    0    0  0.14084883664E+02 -0.35936444904E+02  0.23222865350E+02  0.45045682315E+02  0.00000000000E+00 0. -1.
         11    1    3    3    0    0 -0.10744704340E+02  0.21116037049E+02 -0.14248726425E+02  0.27647095634E+02  0.51100000000E-03 0. -1.
        -11    1    3    3    0    0 -0.43627648032E+01  0.80078653957E+01 -0.37981719086E+01  0.98785492373E+01  0.51100000000E-03 0.  1.
        -12    1    3    3    0    0  0.10225854790E+01  0.68125424595E+01 -0.51759670162E+01  0.86166728136E+01  0.00000000000E+00 0.  1.
</event>
<event>
 7    1  0.8398055E-009  0.4614232E+02  0.7816164E-02  0.1320468E+00
        -11   -1    0    0    0    0  0.00000000000E+00  0.00000000000E+00  0.45593999997E+02  0.45594000000E+02  0.51100000000E-03 0. -1.
         11   -1    0    0    0    0 -0.00000000000E+00 -0.00000000000E+00 -0.45593999997E+02  0.45594000000E+02  0.51100000000E-03 0.  1.
    9900012    2    1    2    0    0  0.34649877979E+01  0.61656905887E+01 -0.44486982502E+02  0.46142317710E+02  0.99999995330E+01 0.  0.
         12    1    1    2    0    0 -0.34649877979E+01 -0.61656905887E+01  0.44486982502E+02  0.45045682290E+02  0.00000000000E+00 0. -1.
         11    1    3    3    0    0  0.61333580575E+00  0.45350855461E+01 -0.17089043143E+02  0.17691200568E+02  0.51100000000E-03 0. -1.
        -11    1    3    3    0    0 -0.17140439214E+01  0.21883745875E+01 -0.68071000526E+01  0.73527913942E+01  0.51100000000E-03 0.  1.
        -12    1    3    3    0    0  0.45656959135E+01 -0.55776954492E+00 -0.20590839306E+02  0.21098325748E+02  0.00000000000E+00 0.  1.
</event>
<event>
 7    1  0.8398055E-009  0.4614232E+02  0.7816164E-02  0.1320468E+00
        -11   -1    0    0    0    0  0.00000000000E+00  0.00000000000E+00  0.45593999997E+02  0.45594000000E+02  0.51100000000E-03 0. -1.
         11   -1    0    0    0    0 -0.00000000000E+00 -0.00000000000E+00 -0.45593999997E+02  0.45594000000E+02  0.51100000000E-03 0.  1.
    9900012    2    1    2    0    0 -0.33672099328E+02 -0.56639701689E+01  0.29380652713E+02  0.46142316687E+02  0.99999902085E+01 0.  0.
        -12    1    1    2    0    0  0.33672099328E+02  0.56639701689E+01 -0.29380652713E+02  0.45045683313E+02  0.00000000000E+00 0.  1.
         11    1    3    3    0    0 -0.32159769202E+02 -0.54276101561E+01  0.30125200766E+02  0.44398619670E+02  0.51100000000E-03 0. -1.
        -11    1    3    3    0    0 -0.61939878666E+00  0.87970242574E-01 -0.32792482439E+00  0.70634876093E+00  0.51100000000E-03 0.  1.
         12    1    3    3    0    0 -0.89293133963E+00 -0.32433025540E+00 -0.41662322799E+00  0.10373482568E+01  0.00000000000E+00 0. -1.
</event>
<event>
 7    1  0.8398055E-009  0.4614232E+02  0.7816164E-02  0.1320468E+00
        -11   -1    0    0    0    0  0.00000000000E+00  0.00000000000E+00  0.45593999997E+02  0.45594000000E+02  0.51100000000E-03 0. -1.
         11   -1    0    0    0    0 -0.00000000000E+00 -0.00000000000E+00 -0.45593999997E+02  0.45594000000E+02  0.51100000000E-03 0.  1.
    9900012    2    1    2    0    0  0.36673670713E+02 -0.26000607431E+02  0.28501950867E+01  0.46142319604E+02  0.10000016805E+02 0.  0.
        -12    1    1    2    0    0 -0.36673670713E+02  0.26000607431E+02 -0.28501950867E+01  0.45045680396E+02  0.00000000000E+00 0.  1.
         11    1    3    3    0    0  0.18430920101E+02 -0.11836577273E+02  0.54571297309E+01  0.22573959389E+02  0.51100000000E-03 0. -1.
        -11    1    3    3    0    0  0.13485595491E+02 -0.12034009251E+02 -0.95046377154E+00  0.18099227775E+02  0.51100000000E-03 0.  1.
         12    1    3    3    0    0  0.47571551204E+01 -0.21300209071E+01 -0.16564708727E+01  0.54691324410E+01  0.00000000000E+00 0. -1.
</event>
<event>
 7    1  0.8398055E-009  0.4614232E+02  0.7816164E-02  0.1320468E+00
        -11   -1    0    0    0    0  0.00000000000E+00  0.00000000000E+00  0.45593999997E+02  0.45594000000E+02  0.51100000000E-03 0. -1.
         11   -1    0    0    0    0 -0.00000000000E+00 -0.00000000000E+00 -0.45593999997E+02  0.45594000000E+02  0.51100000000E-03 0.  1.
    9900012    2    1    2    0    0 -0.21478005582E+02 -0.30039329592E+02  0.25796270714E+02  0.46142316201E+02  0.99999857780E+01 0.  0.
        -12    1    1    2    0    0  0.21478005582E+02  0.30039329592E+02 -0.25796270714E+02  0.45045683799E+02  0.00000000000E+00 0.  1.
         11    1    3    3    0    0 -0.12279826090E+02 -0.17061995616E+02  0.12985337195E+02  0.24708800164E+02  0.51100000000E-03 0. -1.
        -11    1    3    3    0    0 -0.40676903343E+01 -0.10885022083E+02  0.91828898092E+01  0.14810647384E+02  0.51100000000E-03 0.  1.
        -12    1    3    3    0    0 -0.51304891573E+01 -0.20923118931E+01  0.36280437092E+01  0.66228686539E+01  0.00000000000E+00 0.  1.
</event>
<event>
 7    1  0.8398055E-009  0.4614232E+02  0.7816164E-02  0.1320468E+00
        -11   -1    0    0    0    0  0.00000000000E+00  0.00000000000E+00  0.45593999997E+02  0.45594000000E+02  0.51100000000E-03 0. -1.
         11   -1    0    0    0    0 -0.00000000000E+00 -0.00000000000E+00 -0.45593999997E+02  0.45594000000E+02  0.51100000000E-03 0.  1.
    9900012    2    1    2    0    0 -0.33233601432E+01 -0.14423893841E+02 -0.42544328516E+02  0.46142319574E+02  0.10000016527E+02 0.  0.
         12    1    1    2    0    0  0.33233601432E+01  0.14423893841E+02  0.42544328516E+02  0.45045680426E+02  0.00000000000E+00 0. -1.
         11    1    3    3    0    0 -0.27105096738E+01 -0.45122635307E+01 -0.89367063886E+01  0.10371697364E+02  0.51100000000E-03 0. -1.
        -11    1    3    3    0    0 -0.30263140876E+01 -0.92155739549E+01 -0.27780223606E+02  0.29424924879E+02  0.51100000000E-03 0.  1.
        -12    1    3    3    0    0  0.24134636182E+01 -0.69605635570E+00 -0.58273985218E+01  0.63456973311E+01  0.00000000000E+00 0.  1.
</event>
<event>
 7    1  0.8398055E-009  0.4614232E+02  0.7816164E-02  0.1320468E+00
        -11   -1    0    0    0    0  0.00000000000E+00  0.00000000000E+00  0.45593999997E+02  0.45594000000E+02  0.51100000000E-03 0. -1.
         11   -1    0    0    0    0 -0.00000000000E+00 -0.00000000000E+00 -0.45593999997E+02  0.45594000000E+02  0.51100000000E-03 0.  1.
    9900012    2    1    2    0    0 -0.33090302641E+01  0.28875836593E+02 -0.34414385116E+02  0.46142317375E+02  0.99999964792E+01 0.  0.
         12    1    1    2    0    0  0.33090302641E+01 -0.28875836593E+02  0.34414385116E+02  0.45045682625E+02  0.00000000000E+00 0. -1.
         11    1    3    3    0    0  0.25491248673E+01  0.36435987178E+01 -0.64139010943E+01  0.78046125281E+01  0.51100000000E-03 0. -1.
        -11    1    3    3    0    0 -0.52709556487E+01  0.21564680707E+02 -0.25735679299E+02  0.33987403795E+02  0.51100000000E-03 0.  1.
        -12    1    3    3    0    0 -0.58719948271E+00  0.36675571680E+01 -0.22648047226E+01  0.43503010522E+01  0.00000000000E+00 0.  1.
</event>
<event>
 7    1  0.8398055E-009  0.4614232E+02  0.7816164E-02  0.1320468E+00
        -11   -1    0    0    0    0  0.00000000000E+00  0.00000000000E+00  0.45593999997E+02  0.45594000000E+02  0.51100000000E-03 0. -1.
         11   -1    0    0    0    0 -0.00000000000E+00 -0.00000000000E+00 -0.45593999997E+02  0.45594000000E+02  0.51100000000E-03 0.  1.
    9900012    2    1    2    0    0 -0.81014185591E+01 -0.16141050812E+02  0.41266778799E+02  0.46142317228E+02  0.99999951359E+01 0.  0.
        -12    1    1    2    0    0  0.81014185591E+01  0.16141050812E+02 -0.41266778799E+02  0.45045682772E+02  0.00000000000E+00 0.  1.
         11    1    3    3    0    0 -0.13730811368E+01 -0.14652073840E+01  0.21937612440E+01  0.29740163321E+01  0.51100000000E-03 0.  1.
        -11    1    3    3    0    0 -0.19540671062E+01 -0.10153044079E+02  0.31421759797E+02  0.33079142543E+02  0.51100000000E-03 0. -1.
         12    1    3    3    0    0 -0.47742703160E+01 -0.45227993490E+01  0.76512577574E+01  0.10089158353E+02  0.00000000000E+00 0. -1.
</event>
<event>
 7    1  0.8398055E-009  0.4614232E+02  0.7816164E-02  0.1320468E+00
        -11   -1    0    0    0    0  0.00000000000E+00  0.00000000000E+00  0.45593999997E+02  0.45594000000E+02  0.51100000000E-03 0. -1.
         11   -1    0    0    0    0 -0.00000000000E+00 -0.00000000000E+00 -0.45593999997E+02  0.45594000000E+02  0.51100000000E-03 0.  1.
    9900012    2    1    2    0    0 -0.34607112335E+02  0.24967921223E+02  0.14424430061E+02  0.46142317666E+02  0.99999991342E+01 0.  0.
        -12    1    1    2    0    0  0.34607112335E+02 -0.24967921223E+02 -0.14424430061E+02  0.45045682334E+02  0.00000000000E+00 0.  1.
         11    1    3    3    0    0 -0.68115070356E-01  0.14039475901E+01 -0.73289073440E+00  0.15851932338E+01  0.51100000000E-03 0. -1.
        -11    1    3    3    0    0 -0.15973008865E+02  0.11911689492E+02  0.83545148644E+01  0.21606093530E+02  0.51100000000E-03 0.  1.
         12    1    3    3    0    0 -0.18565988399E+02  0.11652284141E+02  0.68028059311E+01  0.22951030902E+02  0.00000000000E+00 0. -1.
</event>
<event>
 7    1  0.8398055E-009  0.4614232E+02  0.7816164E-02  0.1320468E+00
        -11   -1    0    0    0    0  0.00000000000E+00  0.00000000000E+00  0.45593999997E+02  0.45594000000E+02  0.51100000000E-03 0. -1.
         11   -1    0    0    0    0 -0.00000000000E+00 -0.00000000000E+00 -0.45593999997E+02  0.45594000000E+02  0.51100000000E-03 0.  1.
    9900012    2    1    2    0    0 -0.10990700984E+02  0.13424910641E+02  0.41570298178E+02  0.46142318471E+02  0.10000006473E+02 0.  0.
        -12    1    1    2    0    0  0.10990700984E+02 -0.13424910641E+02 -0.41570298178E+02  0.45045681529E+02  0.00000000000E+00 0.  1.
         11    1    3    3    0    0 -0.42199997774E+01  0.91958236296E+01  0.17873529606E+02  0.20538613176E+02  0.51100000000E-03 0. -1.
        -11    1    3    3    0    0 -0.76005857900E+01  0.39488198438E+01  0.22773988578E+02  0.24331392038E+02  0.51100000000E-03 0.  1.
         12    1    3    3    0    0  0.82988458332E+00  0.28026716746E+00  0.92277999351E+00  0.12723132567E+01  0.00000000000E+00 0. -1.
</event>
<event>
 7    1  0.8398055E-009  0.4614232E+02  0.7816164E-02  0.1320468E+00
        -11   -1    0    0    0    0  0.00000000000E+00  0.00000000000E+00  0.45593999997E+02  0.45594000000E+02  0.51100000000E-03 0. -1.
         11   -1    0    0    0    0 -0.00000000000E+00 -0.00000000000E+00 -0.45593999997E+02  0.45594000000E+02  0.51100000000E-03 0.  1.
    9900012    2    1    2    0    0 -0.22497589669E+02 -0.13051405544E+01  0.39003443724E+02  0.46142317020E+02  0.99999932459E+01 0.  0.
        -12    1    1    2    0    0  0.22497589669E+02  0.13051405544E+01 -0.39003443724E+02  0.45045682980E+02  0.00000000000E+00 0.  1.
         11    1    3    3    0    0 -0.40993611377E+01 -0.25585980165E+01  0.45956497598E+01  0.66686717211E+01  0.51100000000E-03 0. -1.
        -11    1    3    3    0    0 -0.95777371310E+01  0.20196727147E+01  0.12734933651E+02  0.16062087716E+02  0.51100000000E-03 0.  1.
        -12    1    3    3    0    0 -0.88204914002E+01 -0.76621525254E+00  0.21672860313E+02  0.23411557584E+02  0.00000000000E+00 0.  1.
</event>
<event>
 7    1  0.8398055E-009  0.4614232E+02  0.7816164E-02  0.1320468E+00
        -11   -1    0    0    0    0  0.00000000000E+00  0.00000000000E+00  0.45593999997E+02  0.45594000000E+02  0.51100000000E-03 0. -1.
         11   -1    0    0    0    0 -0.00000000000E+00 -0.00000000000E+00 -0.45593999997E+02  0.45594000000E+02  0.51100000000E-03 0.  1.
    9900012    2    1    2    0    0  0.22973851577E+02 -0.17181746807E+02  0.34728996038E+02  0.46142318238E+02  0.10000004346E+02 0.  0.
        -12    1    1    2    0    0 -0.22973851577E+02  0.17181746807E+02 -0.34728996038E+02  0.45045681762E+02  0.00000000000E+00 0.  1.
         11    1    3    3    0    0  0.74170672215E+01 -0.80003006740E+01  0.18353924140E+02  0.21351445586E+02  0.51100000000E-03 0. -1.
        -11    1    3    3    0    0  0.35129019506E+01 -0.12172126617E+01  0.58167591189E+01  0.69033885655E+01  0.51100000000E-03 0.  1.
         12    1    3    3    0    0  0.12043882405E+02 -0.79642334713E+01  0.10558312779E+02  0.17887484086E+02  0.00000000000E+00 0. -1.
</event>
<event>
 7    1  0.8398055E-009  0.4614232E+02  0.7816164E-02  0.1320468E+00
        -11   -1    0    0    0    0  0.00000000000E+00  0.00000000000E+00  0.45593999997E+02  0.45594000000E+02  0.51100000000E-03 0. -1.
         11   -1    0    0    0    0 -0.00000000000E+00 -0.00000000000E+00 -0.45593999997E+02  0.45594000000E+02  0.51100000000E-03 0.  1.
    9900012    2    1    2    0    0  0.39651588960E+02  0.13655167305E+02 -0.16443884047E+02  0.46142318479E+02  0.10000006545E+02 0.  0.
         12    1    1    2    0    0 -0.39651588960E+02 -0.13655167305E+02  0.16443884047E+02  0.45045681521E+02  0.00000000000E+00 0. -1.
         11    1    3    3    0    0  0.99493630522E+00 -0.17794529696E-01 -0.24224192225E+01  0.26188413559E+01  0.51100000000E-03 0. -1.
        -11    1    3    3    0    0  0.19524087155E+02  0.73974354642E+01 -0.50545383557E+01  0.21481629104E+02  0.51100000000E-03 0.  1.
        -12    1    3    3    0    0  0.19132565499E+02  0.62755263701E+01 -0.89669264691E+01  0.22041848019E+02  0.00000000000E+00 0.  1.
</event>
<event>
 7    1  0.8398055E-009  0.4614232E+02  0.7816164E-02  0.1320468E+00
        -11   -1    0    0    0    0  0.00000000000E+00  0.00000000000E+00  0.45593999997E+02  0.45594000000E+02  0.51100000000E-03 0. -1.
         11   -1    0    0    0    0 -0.00000000000E+00 -0.00000000000E+00 -0.45593999997E+02  0.45594000000E+02  0.51100000000E-03 0.  1.
    9900012    2    1    2    0    0 -0.14153563834E+02 -0.32220287047E+02 -0.28118378349E+02  0.46142317992E+02  0.10000002103E+02 0.  0.
         12    1    1    2    0    0  0.14153563834E+02  0.32220287047E+02  0.28118378349E+02  0.45045682008E+02  0.00000000000E+00 0. -1.
         11    1    3    3    0    0 -0.21189148439E+01 -0.87496388053E+01 -0.11168990523E+02  0.14345463705E+02  0.51100000000E-03 0. -1.
        -11    1    3    3    0    0 -0.22379697016E+01 -0.49881342817E+01 -0.11612157833E+01  0.55891335960E+01  0.51100000000E-03 0.  1.
        -12    1    3    3    0    0 -0.97966792886E+01 -0.18482513960E+02 -0.15788172043E+02  0.26207720691E+02  0.00000000000E+00 0.  1.
</event>
<event>
 7    1  0.8398055E-009  0.4614232E+02  0.7816164E-02  0.1320468E+00
        -11   -1    0    0    0    0  0.00000000000E+00  0.00000000000E+00  0.45593999997E+02  0.45594000000E+02  0.51100000000E-03 0. -1.
         11   -1    0    0    0    0 -0.00000000000E+00 -0.00000000000E+00 -0.45593999997E+02  0.45594000000E+02  0.51100000000E-03 0.  1.
    9900012    2    1    2    0    0 -0.10120326190E+02 -0.25794574257E+02  0.35515242308E+02  0.46142317637E+02  0.99999988727E+01 0.  0.
        -12    1    1    2    0    0  0.10120326190E+02  0.25794574257E+02 -0.35515242308E+02  0.45045682363E+02  0.00000000000E+00 0.  1.
         11    1    3    3    0    0 -0.17274770865E+01 -0.59534293222E+01  0.81373994214E+01  0.10229602504E+02  0.51100000000E-03 0.  1.
        -11    1    3    3    0    0 -0.24326774536E+01 -0.14143450822E+02  0.21238992895E+02  0.25632985394E+02  0.51100000000E-03 0. -1.
        -12    1    3    3    0    0 -0.59601716503E+01 -0.56976941125E+01  0.61388499916E+01  0.10279729740E+02  0.00000000000E+00 0.  1.
</event>
<event>
 7    1  0.1154644E-008  0.4614232E+02  0.7816164E-02  0.1320468E+00
        -11   -1    0    0    0    0  0.00000000000E+00  0.00000000000E+00  0.45593999997E+02  0.45594000000E+02  0.51100000000E-03 0. -1.
         11   -1    0    0    0    0 -0.00000000000E+00 -0.00000000000E+00 -0.45593999997E+02  0.45594000000E+02  0.51100000000E-03 0.  1.
    9900012    2    1    2    0    0 -0.76004366473E+00  0.68705579163E+01  0.44512148689E+02  0.46142316374E+02  0.99999873495E+01 0.  0.
        -12    1    1    2    0    0  0.76004366473E+00 -0.68705579163E+01 -0.44512148689E+02  0.45045683626E+02  0.00000000000E+00 0.  1.
         11    1    3    3    0    0 -0.16753340230E+01 -0.11570104145E+01  0.96011940650E+01  0.98147004499E+01  0.51100000000E-03 0. -1.
        -11    1    3    3    0    0  0.93220912119E+00  0.58319739411E+00  0.67195313798E+00  0.12886637757E+01  0.51100000000E-03 0.  1.
         12    1    3    3    0    0 -0.16918762958E-01  0.74443709368E+01  0.34239001486E+02  0.35038952148E+02  0.00000000000E+00 0. -1.
</event>
<event>
 7    1  0.8398055E-009  0.4614232E+02  0.7816164E-02  0.1320468E+00
        -11   -1    0    0    0    0  0.00000000000E+00  0.00000000000E+00  0.45593999997E+02  0.45594000000E+02  0.51100000000E-03 0. -1.
         11   -1    0    0    0    0 -0.00000000000E+00 -0.00000000000E+00 -0.45593999997E+02  0.45594000000E+02  0.51100000000E-03 0.  1.
    9900012    2    1    2    0    0 -0.42099670735E+01  0.36881180206E+02 -0.25517994148E+02  0.46142319835E+02  0.10000018911E+02 0.  0.
         12    1    1    2    0    0  0.42099670735E+01 -0.36881180206E+02  0.25517994148E+02  0.45045680165E+02  0.00000000000E+00 0. -1.
         11    1    3    3    0    0  0.11852616850E+01  0.11436920388E+00 -0.10964408196E+01  0.16186748619E+01  0.51100000000E-03 0. -1.
        -11    1    3    3    0    0 -0.36832701143E+00  0.88439207446E+01 -0.61162852934E+01  0.10759160979E+02  0.51100000000E-03 0.  1.
         12    1    3    3    0    0 -0.50269017470E+01  0.27922890258E+02 -0.18305268035E+02  0.33764483994E+02  0.00000000000E+00 0. -1.
</event>
<event>
 7    1  0.8398055E-009  0.4614232E+02  0.7816164E-02  0.1320468E+00
        -11   -1    0    0    0    0  0.00000000000E+00  0.00000000000E+00  0.45593999997E+02  0.45594000000E+02  0.51100000000E-03 0. -1.
         11   -1    0    0    0    0 -0.00000000000E+00 -0.00000000000E+00 -0.45593999997E+02  0.45594000000E+02  0.51100000000E-03 0.  1.
    9900012    2    1    2    0    0  0.33790533036E+02  0.41519660007E+00  0.29784901045E+02  0.46142324943E+02  0.10000065490E+02 0.  0.
        -12    1    1    2    0    0 -0.33790533036E+02 -0.41519660007E+00 -0.29784901045E+02  0.45045675057E+02  0.00000000000E+00 0.  1.
         11    1    3    3    0    0  0.89514724562E+01  0.70150053551E+00  0.38568180478E+01  0.97722058846E+01  0.51100000000E-03 0. -1.
        -11    1    3    3    0    0  0.12190573210E+02 -0.39004406688E+00  0.86319921655E+01  0.14942339126E+02  0.51100000000E-03 0.  1.
        -12    1    3    3    0    0  0.12648487370E+02  0.10374013144E+00  0.17296090831E+02  0.21427779932E+02  0.00000000000E+00 0.  1.
</event>
<event>
 7    1  0.8398055E-009  0.4614232E+02  0.7816164E-02  0.1320468E+00
        -11   -1    0    0    0    0  0.00000000000E+00  0.00000000000E+00  0.45593999997E+02  0.45594000000E+02  0.51100000000E-03 0.  1.
         11   -1    0    0    0    0 -0.00000000000E+00 -0.00000000000E+00 -0.45593999997E+02  0.45594000000E+02  0.51100000000E-03 0. -1.
    9900012    2    1    2    0    0  0.41172162918E+02 -0.10613158564E+02 -0.14877074629E+02  0.46142317814E+02  0.10000000482E+02 0.  0.
         12    1    1    2    0    0 -0.41172162918E+02  0.10613158564E+02  0.14877074629E+02  0.45045682186E+02  0.00000000000E+00 0. -1.
         11    1    3    3    0    0  0.87539041105E+01 -0.48830416279E+01 -0.69340121583E+01  0.12188332847E+02  0.51100000000E-03 0. -1.
        -11    1    3    3    0    0  0.16147609783E+02 -0.23650509903E+01 -0.50946034528E+01  0.17096600612E+02  0.51100000000E-03 0.  1.
         12    1    3    3    0    0  0.16270649025E+02 -0.33650659459E+01 -0.28484590182E+01  0.16857384355E+02  0.00000000000E+00 0. -1.
</event>
<event>
 7    1  0.8398055E-009  0.4614232E+02  0.7816164E-02  0.1320468E+00
        -11   -1    0    0    0    0  0.00000000000E+00  0.00000000000E+00  0.45593999997E+02  0.45594000000E+02  0.51100000000E-03 0. -1.
         11   -1    0    0    0    0 -0.00000000000E+00 -0.00000000000E+00 -0.45593999997E+02  0.45594000000E+02  0.51100000000E-03 0.  1.
    9900012    2    1    2    0    0 -0.12609223538E+02 -0.85331592314E+01 -0.42394647174E+02  0.46142318368E+02  0.10000005534E+02 0.  0.
         12    1    1    2    0    0  0.12609223538E+02  0.85331592314E+01  0.42394647174E+02  0.45045681632E+02  0.00000000000E+00 0. -1.
         11    1    3    3    0    0 -0.48023274884E+01 -0.12197821540E+01 -0.61138527058E+01  0.78695243172E+01  0.51100000000E-03 0. -1.
        -11    1    3    3    0    0 -0.13564528176E+01 -0.29705424956E+01 -0.19579211551E+02  0.19849675367E+02  0.51100000000E-03 0.  1.
        -12    1    3    3    0    0 -0.64504432322E+01 -0.43428345817E+01 -0.16701582917E+02  0.18423118684E+02  0.00000000000E+00 0.  1.
</event>
<event>
 7    1  0.8398055E-009  0.4614232E+02  0.7816164E-02  0.1320468E+00
        -11   -1    0    0    0    0  0.00000000000E+00  0.00000000000E+00  0.45593999997E+02  0.45594000000E+02  0.51100000000E-03 0. -1.
         11   -1    0    0    0    0 -0.00000000000E+00 -0.00000000000E+00 -0.45593999997E+02  0.45594000000E+02  0.51100000000E-03 0.  1.
    9900012    2    1    2    0    0 -0.13196462741E+02  0.17729802866E+02  0.39250744779E+02  0.46142317585E+02  0.99999983976E+01 0.  0.
        -12    1    1    2    0    0  0.13196462741E+02 -0.17729802866E+02 -0.39250744779E+02  0.45045682415E+02  0.00000000000E+00 0.  1.
         11    1    3    3    0    0 -0.14402378242E+02  0.14623032295E+02  0.30447488462E+02  0.36719356291E+02  0.51100000000E-03 0. -1.
        -11    1    3    3    0    0  0.71486494956E+00  0.15707342224E+01  0.50916900681E+01  0.53762018102E+01  0.51100000000E-03 0.  1.
         12    1    3    3    0    0  0.49105055118E+00  0.15360363487E+01  0.37115662480E+01  0.40467594840E+01  0.00000000000E+00 0. -1.
</event>
<event>
 7    1  0.8398055E-009  0.4614232E+02  0.7816164E-02  0.1320468E+00
        -11   -1    0    0    0    0  0.00000000000E+00  0.00000000000E+00  0.45593999997E+02  0.45594000000E+02  0.51100000000E-03 0. -1.
         11   -1    0    0    0    0 -0.00000000000E+00 -0.00000000000E+00 -0.45593999997E+02  0.45594000000E+02  0.51100000000E-03 0.  1.
    9900012    2    1    2    0    0 -0.33590447309E+02  0.54644357986E+00 -0.30008274301E+02  0.46142320101E+02  0.10000021341E+02 0.  0.
         12    1    1    2    0    0  0.33590447309E+02 -0.54644357986E+00  0.30008274301E+02  0.45045679899E+02  0.00000000000E+00 0. -1.
         11    1    3    3    0    0 -0.10131419556E+02  0.11626781949E+01 -0.56110951363E+01  0.11639668023E+02  0.51100000000E-03 0. -1.
        -11    1    3    3    0    0 -0.17543583282E+02 -0.33226741689E+01 -0.18698103663E+02  0.25854140072E+02  0.51100000000E-03 0.  1.
        -12    1    3    3    0    0 -0.59154444713E+01  0.27064395539E+01 -0.56990755017E+01  0.86485120065E+01  0.00000000000E+00 0.  1.
</event>
<event>
 7    1  0.8398055E-009  0.4614232E+02  0.7816164E-02  0.1320468E+00
        -11   -1    0    0    0    0  0.00000000000E+00  0.00000000000E+00  0.45593999997E+02  0.45594000000E+02  0.51100000000E-03 0. -1.
         11   -1    0    0    0    0 -0.00000000000E+00 -0.00000000000E+00 -0.45593999997E+02  0.45594000000E+02  0.51100000000E-03 0.  1.
    9900012    2    1    2    0    0 -0.19082482626E+02  0.15430704112E+02  0.37773875875E+02  0.46142317952E+02  0.10000001745E+02 0.  0.
        -12    1    1    2    0    0  0.19082482626E+02 -0.15430704112E+02 -0.37773875875E+02  0.45045682048E+02  0.00000000000E+00 0.  1.
         11    1    3    3    0    0 -0.26922129267E+01  0.25981873275E+01  0.59418531058E+01  0.70216954094E+01  0.51100000000E-03 0. -1.
        -11    1    3    3    0    0 -0.31420095882E+01  0.63560584414E+01  0.56289443072E+01  0.90529949430E+01  0.51100000000E-03 0.  1.
        -12    1    3    3    0    0 -0.13248260111E+02  0.64764583429E+01  0.26203078462E+02  0.30067627600E+02  0.00000000000E+00 0.  1.
</event>
<event>
 7    1  0.8398055E-009  0.4614232E+02  0.7816164E-02  0.1320468E+00
        -11   -1    0    0    0    0  0.00000000000E+00  0.00000000000E+00  0.45593999997E+02  0.45594000000E+02  0.51100000000E-03 0. -1.
         11   -1    0    0    0    0 -0.00000000000E+00 -0.00000000000E+00 -0.45593999997E+02  0.45594000000E+02  0.51100000000E-03 0.  1.
    9900012    2    1    2    0    0 -0.16631165147E+02  0.17822752603E+02  0.37879643026E+02  0.46142317407E+02  0.99999967664E+01 0.  0.
        -12    1    1    2    0    0  0.16631165147E+02 -0.17822752603E+02 -0.37879643026E+02  0.45045682593E+02  0.00000000000E+00 0.  1.
         11    1    3    3    0    0 -0.19860241943E+01  0.43140600426E+00  0.38135341786E+01  0.43212783333E+01  0.51100000000E-03 0.  1.
        -11    1    3    3    0    0  0.61434693807E+00  0.21713380955E+01  0.61664479898E+01  0.65663698006E+01  0.51100000000E-03 0. -1.
         12    1    3    3    0    0 -0.15259487891E+02  0.15220008503E+02  0.27899660858E+02  0.35254669273E+02  0.00000000000E+00 0. -1.
</event>
<event>
 7    1  0.8398055E-009  0.4614232E+02  0.7816164E-02  0.1320468E+00
        -11   -1    0    0    0    0  0.00000000000E+00  0.00000000000E+00  0.45593999997E+02  0.45594000000E+02  0.51100000000E-03 0. -1.
         11   -1    0    0    0    0 -0.00000000000E+00 -0.00000000000E+00 -0.45593999997E+02  0.45594000000E+02  0.51100000000E-03 0.  1.
    9900012    2    1    2    0    0  0.79690338579E+00 -0.23377843759E+02  0.38496167942E+02  0.46142316743E+02  0.99999907190E+01 0.  0.
        -12    1    1    2    0    0 -0.79690338579E+00  0.23377843759E+02 -0.38496167942E+02  0.45045683257E+02  0.00000000000E+00 0.  1.
         11    1    3    3    0    0  0.26575346531E+01 -0.17609376376E+01  0.36409402467E+01  0.48394047090E+01  0.51100000000E-03 0.  1.
        -11    1    3    3    0    0 -0.24182745277E+01 -0.15775836746E+02  0.22076642905E+02  0.27241571888E+02  0.51100000000E-03 0. -1.
         12    1    3    3    0    0  0.55764326037E+00 -0.58410693753E+01  0.12778584791E+02  0.14061340146E+02  0.00000000000E+00 0. -1.
</event>
<event>
 7    1  0.8398055E-009  0.4614232E+02  0.7816164E-02  0.1320468E+00
        -11   -1    0    0    0    0  0.00000000000E+00  0.00000000000E+00  0.45593999997E+02  0.45594000000E+02  0.51100000000E-03 0. -1.
         11   -1    0    0    0    0 -0.00000000000E+00 -0.00000000000E+00 -0.45593999997E+02  0.45594000000E+02  0.51100000000E-03 0.  1.
    9900012    2    1    2    0    0 -0.33987431263E+02 -0.40930797229E+01 -0.29278229356E+02  0.46142317636E+02  0.99999988563E+01 0.  0.
         12    1    1    2    0    0  0.33987431263E+02  0.40930797229E+01  0.29278229356E+02  0.45045682364E+02  0.00000000000E+00 0. -1.
         11    1    3    3    0    0 -0.74039191823E+01  0.22528476137E+01 -0.36208957436E+01  0.85442511595E+01  0.51100000000E-03 0. -1.
        -11    1    3    3    0    0 -0.15860421982E+02 -0.23666354014E+01 -0.14490783975E+02  0.21613347011E+02  0.51100000000E-03 0.  1.
         12    1    3    3    0    0 -0.10723090098E+02 -0.39792919352E+01 -0.11166549638E+02  0.15984719465E+02  0.00000000000E+00 0. -1.
</event>
<event>
 7    1  0.8782549E-009  0.4614232E+02  0.7816164E-02  0.1320468E+00
        -11   -1    0    0    0    0  0.00000000000E+00  0.00000000000E+00  0.45593999997E+02  0.45594000000E+02  0.51100000000E-03 0.  1.
         11   -1    0    0    0    0 -0.00000000000E+00 -0.00000000000E+00 -0.45593999997E+02  0.45594000000E+02  0.51100000000E-03 0. -1.
    9900012    2    1    2    0    0 -0.20587042193E+01  0.29857225868E+02 -0.33666323238E+02  0.46142317410E+02  0.99999967990E+01 0.  0.
         12    1    1    2    0    0  0.20587042193E+01 -0.29857225868E+02  0.33666323238E+02  0.45045682590E+02  0.00000000000E+00 0. -1.
         11    1    3    3    0    0 -0.33869385183E+00  0.29956602439E+01 -0.73606567322E+01  0.79541160171E+01  0.51100000000E-03 0. -1.
        -11    1    3    3    0    0 -0.19082504178E+01  0.19283662699E+02 -0.22538495978E+02  0.29723473349E+02  0.51100000000E-03 0.  1.
         12    1    3    3    0    0  0.18824005031E+00  0.75779029256E+01 -0.37671705279E+01  0.84647280436E+01  0.00000000000E+00 0. -1.
</event>
<event>
 7    1  0.8398055E-009  0.4614232E+02  0.7816164E-02  0.1320468E+00
        -11   -1    0    0    0    0  0.00000000000E+00  0.00000000000E+00  0.45593999997E+02  0.45594000000E+02  0.51100000000E-03 0. -1.
         11   -1    0    0    0    0 -0.00000000000E+00 -0.00000000000E+00 -0.45593999997E+02  0.45594000000E+02  0.51100000000E-03 0.  1.
    9900012    2    1    2    0    0  0.27562090812E+01  0.10622244550E+02 -0.43688496758E+02  0.46142317446E+02  0.99999971296E+01 0.  0.
         12    1    1    2    0    0 -0.27562090812E+01 -0.10622244550E+02  0.43688496758E+02  0.45045682554E+02  0.00000000000E+00 0. -1.
         11    1    3    3    0    0 -0.25741849200E+01  0.34739315880E+01 -0.13461299170E+02  0.14138642236E+02  0.51100000000E-03 0. -1.
        -11    1    3    3    0    0 -0.11760451905E+01  0.98191156236E+00 -0.37863658502E+01  0.40845806662E+01  0.51100000000E-03 0.  1.
        -12    1    3    3    0    0  0.65064391916E+01  0.61664013994E+01 -0.26440831738E+02  0.27919094544E+02  0.00000000000E+00 0.  1.
</event>
<event>
 7    1  0.8398055E-009  0.4614232E+02  0.7816164E-02  0.1320468E+00
        -11   -1    0    0    0    0  0.00000000000E+00  0.00000000000E+00  0.45593999997E+02  0.45594000000E+02  0.51100000000E-03 0. -1.
         11   -1    0    0    0    0 -0.00000000000E+00 -0.00000000000E+00 -0.45593999997E+02  0.45594000000E+02  0.51100000000E-03 0.  1.
    9900012    2    1    2    0    0 -0.20677670351E+02 -0.39984395523E+02 -0.16719865939E+01  0.46142317903E+02  0.10000001291E+02 0.  0.
        -12    1    1    2    0    0  0.20677670351E+02  0.39984395523E+02  0.16719865939E+01  0.45045682097E+02  0.00000000000E+00 0.  1.
         11    1    3    3    0    0 -0.49608372705E+01 -0.10139738205E+02  0.20002148674E+01  0.11464076808E+02  0.51100000000E-03 0. -1.
        -11    1    3    3    0    0 -0.18607629083E+01 -0.83346861773E+01 -0.31006626882E+01  0.90853476346E+01  0.51100000000E-03 0.  1.
         12    1    3    3    0    0 -0.13856070172E+02 -0.21509971140E+02 -0.57153877307E+00  0.25592893460E+02  0.00000000000E+00 0. -1.
</event>
<event>
 7    1  0.8398055E-009  0.4614232E+02  0.7816164E-02  0.1320468E+00
        -11   -1    0    0    0    0  0.00000000000E+00  0.00000000000E+00  0.45593999997E+02  0.45594000000E+02  0.51100000000E-03 0. -1.
         11   -1    0    0    0    0 -0.00000000000E+00 -0.00000000000E+00 -0.45593999997E+02  0.45594000000E+02  0.51100000000E-03 0.  1.
    9900012    2    1    2    0    0 -0.15006175752E+02  0.14381488224E+02  0.39963745144E+02  0.46142318296E+02  0.10000004878E+02 0.  0.
        -12    1    1    2    0    0  0.15006175752E+02 -0.14381488224E+02 -0.39963745144E+02  0.45045681704E+02  0.00000000000E+00 0.  1.
         11    1    3    3    0    0 -0.97470109204E+01  0.73066418340E+01  0.22624943218E+02  0.25695900309E+02  0.51100000000E-03 0. -1.
        -11    1    3    3    0    0 -0.28248113665E+01  0.54762982204E+01  0.55158627216E+01  0.82700751677E+01  0.51100000000E-03 0.  1.
        -12    1    3    3    0    0 -0.24343534651E+01  0.15985481696E+01  0.11822939204E+02  0.12176342820E+02  0.00000000000E+00 0.  1.
</event>
<event>
 7    1  0.8398055E-009  0.4614232E+02  0.7816164E-02  0.1320468E+00
        -11   -1    0    0    0    0  0.00000000000E+00  0.00000000000E+00  0.45593999997E+02  0.45594000000E+02  0.51100000000E-03 0. -1.
         11   -1    0    0    0    0 -0.00000000000E+00 -0.00000000000E+00 -0.45593999997E+02  0.45594000000E+02  0.51100000000E-03 0.  1.
    9900012    2    1    2    0    0 -0.14321031665E+02  0.37663782038E+01  0.42542166172E+02  0.46142318128E+02  0.10000003346E+02 0.  0.
        -12    1    1    2    0    0  0.14321031665E+02 -0.37663782038E+01 -0.42542166172E+02  0.45045681872E+02  0.00000000000E+00 0.  1.
         11    1    3    3    0    0 -0.14132311489E+01  0.28277235207E+01  0.13507559940E+02  0.13872541887E+02  0.51100000000E-03 0. -1.
        -11    1    3    3    0    0 -0.10234624735E+02  0.19472263731E+01  0.17321137114E+02  0.20212892549E+02  0.51100000000E-03 0.  1.
         12    1    3    3    0    0 -0.26731757812E+01 -0.10085716899E+01  0.11713469117E+02  0.12056883692E+02  0.00000000000E+00 0. -1.
</event>
<event>
 7    1  0.8398055E-009  0.4614232E+02  0.7816164E-02  0.1320468E+00
        -11   -1    0    0    0    0  0.00000000000E+00  0.00000000000E+00  0.45593999997E+02  0.45594000000E+02  0.51100000000E-03 0. -1.
         11   -1    0    0    0    0 -0.00000000000E+00 -0.00000000000E+00 -0.45593999997E+02  0.45594000000E+02  0.51100000000E-03 0.  1.
    9900012    2    1    2    0    0 -0.67111347719E+01 -0.22118262351E+02  0.38663375567E+02  0.46142317970E+02  0.10000001904E+02 0.  0.
        -12    1    1    2    0    0  0.67111347719E+01  0.22118262351E+02 -0.38663375567E+02  0.45045682030E+02  0.00000000000E+00 0.  1.
         11    1    3    3    0    0 -0.41018716867E+00 -0.51600254608E+01  0.83500743023E+01  0.98243502271E+01  0.51100000000E-03 0. -1.
        -11    1    3    3    0    0  0.20102299880E+01 -0.49847964425E+01  0.70380336898E+01  0.88556839746E+01  0.51100000000E-03 0.  1.
         12    1    3    3    0    0 -0.83111775912E+01 -0.11973440448E+02  0.23275267574E+02  0.27462283768E+02  0.00000000000E+00 0. -1.
</event>
<event>
 7    1  0.8398055E-009  0.4614232E+02  0.7816164E-02  0.1320468E+00
        -11   -1    0    0    0    0  0.00000000000E+00  0.00000000000E+00  0.45593999997E+02  0.45594000000E+02  0.51100000000E-03 0. -1.
         11   -1    0    0    0    0 -0.00000000000E+00 -0.00000000000E+00 -0.45593999997E+02  0.45594000000E+02  0.51100000000E-03 0.  1.
    9900012    2    1    2    0    0 -0.97536825803E+01 -0.37468977189E+02 -0.23022919876E+02  0.46142318574E+02  0.10000007415E+02 0.  0.
         12    1    1    2    0    0  0.97536825803E+01  0.37468977189E+02  0.23022919876E+02  0.45045681426E+02  0.00000000000E+00 0. -1.
         11    1    3    3    0    0 -0.28450115509E+01 -0.22714900934E+01 -0.15776761760E+01  0.39677223122E+01  0.51100000000E-03 0. -1.
        -11    1    3    3    0    0 -0.68365064401E+01 -0.22638796336E+02 -0.15533555654E+02  0.28293891061E+02  0.51100000000E-03 0.  1.
         12    1    3    3    0    0 -0.72164589380E-01 -0.12558690760E+02 -0.59116880457E+01  0.13880705201E+02  0.00000000000E+00 0. -1.
</event>
<event>
 7    1  0.8398055E-009  0.4614232E+02  0.7816164E-02  0.1320468E+00
        -11   -1    0    0    0    0  0.00000000000E+00  0.00000000000E+00  0.45593999997E+02  0.45594000000E+02  0.51100000000E-03 0. -1.
         11   -1    0    0    0    0 -0.00000000000E+00 -0.00000000000E+00 -0.45593999997E+02  0.45594000000E+02  0.51100000000E-03 0.  1.
    9900012    2    1    2    0    0  0.24760091337E+02 -0.33209674764E+02 -0.17696580460E+02  0.46142316734E+02  0.99999906319E+01 0.  0.
         12    1    1    2    0    0 -0.24760091337E+02  0.33209674764E+02  0.17696580460E+02  0.45045683266E+02  0.00000000000E+00 0. -1.
         11    1    3    3    0    0  0.13817149732E+02 -0.18336607211E+02 -0.14164466902E+02  0.26977340744E+02  0.51100000000E-03 0. -1.
        -11    1    3    3    0    0  0.66573099235E-01 -0.11710741432E+01 -0.89041249982E+00  0.14726443248E+01  0.51100000000E-03 0.  1.
         12    1    3    3    0    0  0.10876368505E+02 -0.13701993410E+02 -0.26417010586E+01  0.17692331665E+02  0.00000000000E+00 0. -1.
</event>
<event>
 7    1  0.8398055E-009  0.4614232E+02  0.7816164E-02  0.1320468E+00
        -11   -1    0    0    0    0  0.00000000000E+00  0.00000000000E+00  0.45593999997E+02  0.45594000000E+02  0.51100000000E-03 0. -1.
         11   -1    0    0    0    0 -0.00000000000E+00 -0.00000000000E+00 -0.45593999997E+02  0.45594000000E+02  0.51100000000E-03 0.  1.
    9900012    2    1    2    0    0 -0.16356351344E+02  0.17589473828E+02  0.38107658781E+02  0.46142317891E+02  0.10000001188E+02 0.  0.
        -12    1    1    2    0    0  0.16356351344E+02 -0.17589473828E+02 -0.38107658781E+02  0.45045682109E+02  0.00000000000E+00 0.  1.
         11    1    3    3    0    0 -0.76332328270E+01  0.75669957631E+01  0.19097615179E+02  0.21914483203E+02  0.51100000000E-03 0. -1.
        -11    1    3    3    0    0 -0.11554962823E+01  0.66238395611E+01  0.86146529420E+01  0.10928067888E+02  0.51100000000E-03 0.  1.
        -12    1    3    3    0    0 -0.75676222345E+01  0.33986385042E+01  0.10395390660E+02  0.13299766800E+02  0.00000000000E+00 0.  1.
</event>
<event>
 7    1  0.8398055E-009  0.4614231E+02  0.7816164E-02  0.1320468E+00
        -11   -1    0    0    0    0  0.00000000000E+00  0.00000000000E+00  0.45593999997E+02  0.45594000000E+02  0.51100000000E-03 0. -1.
         11   -1    0    0    0    0 -0.00000000000E+00 -0.00000000000E+00 -0.45593999997E+02  0.45594000000E+02  0.51100000000E-03 0.  1.
    9900012    2    1    2    0    0 -0.31200004577E+02  0.30624876878E+02  0.10853137119E+02  0.46142312584E+02  0.99999527937E+01 0.  0.
        -12    1    1    2    0    0  0.31200004577E+02 -0.30624876878E+02 -0.10853137119E+02  0.45045687416E+02  0.00000000000E+00 0.  1.
         11    1    3    3    0    0  0.16426746898E+00  0.35212241287E+00 -0.22958077439E+00  0.45131096607E+00  0.51100000000E-03 0. -1.
        -11    1    3    3    0    0 -0.21856407396E+02  0.23996675126E+02  0.52096031529E+01  0.32873742206E+02  0.51100000000E-03 0.  1.
         12    1    3    3    0    0 -0.95078646505E+01  0.62760793395E+01  0.58731147409E+01  0.12817259412E+02  0.00000000000E+00 0. -1.
</event>
<event>
 7    1  0.1058294E-008  0.4614232E+02  0.7816164E-02  0.1320468E+00
        -11   -1    0    0    0    0  0.00000000000E+00  0.00000000000E+00  0.45593999997E+02  0.45594000000E+02  0.51100000000E-03 0.  1.
         11   -1    0    0    0    0 -0.00000000000E+00 -0.00000000000E+00 -0.45593999997E+02  0.45594000000E+02  0.51100000000E-03 0. -1.
    9900012    2    1    2    0    0  0.27705238061E+01 -0.28745552029E+02 -0.34570666362E+02  0.46142317228E+02  0.99999951425E+01 0.  0.
         12    1    1    2    0    0 -0.27705238061E+01  0.28745552029E+02  0.34570666362E+02  0.45045682772E+02  0.00000000000E+00 0. -1.
         11    1    3    3    0    0  0.15592021028E+01 -0.38311286322E+01 -0.22066329890E+01  0.46880579351E+01  0.51100000000E-03 0. -1.
        -11    1    3    3    0    0 -0.61469507071E+00 -0.29197371445E+01 -0.10896377733E+01  0.31764800899E+01  0.51100000000E-03 0.  1.
        -12    1    3    3    0    0  0.18260167741E+01 -0.21994686253E+02 -0.31274395600E+02  0.38277779203E+02  0.00000000000E+00 0.  1.
</event>
<event>
 7    1  0.8398055E-009  0.4614231E+02  0.7816164E-02  0.1320468E+00
        -11   -1    0    0    0    0  0.00000000000E+00  0.00000000000E+00  0.45593999997E+02  0.45594000000E+02  0.51100000000E-03 0.  1.
         11   -1    0    0    0    0 -0.00000000000E+00 -0.00000000000E+00 -0.45593999997E+02  0.45594000000E+02  0.51100000000E-03 0. -1.
    9900012    2    1    2    0    0  0.36158707415E+02  0.26682401295E+02 -0.31163516315E+01  0.46142308660E+02  0.99999170098E+01 0.  0.
         12    1    1    2    0    0 -0.36158707415E+02 -0.26682401295E+02  0.31163516315E+01  0.45045691340E+02  0.00000000000E+00 0. -1.
         11    1    3    3    0    0  0.18031162121E+02  0.18070987023E+02 -0.21627853874E+01  0.25619543718E+02  0.51100000000E-03 0. -1.
        -11    1    3    3    0    0  0.58222320700E+01  0.37891291139E+01  0.14320323139E+01  0.70927147503E+01  0.51100000000E-03 0.  1.
         12    1    3    3    0    0  0.12305313223E+02  0.48222851586E+01 -0.23855985580E+01  0.13430050192E+02  0.00000000000E+00 0. -1.
</event>
<event>
 7    1  0.8398055E-009  0.4614232E+02  0.7816164E-02  0.1320468E+00
        -11   -1    0    0    0    0  0.00000000000E+00  0.00000000000E+00  0.45593999997E+02  0.45594000000E+02  0.51100000000E-03 0. -1.
         11   -1    0    0    0    0 -0.00000000000E+00 -0.00000000000E+00 -0.45593999997E+02  0.45594000000E+02  0.51100000000E-03 0.  1.
    9900012    2    1    2    0    0 -0.32410699417E+02 -0.22363385174E+02 -0.21875535999E+02  0.46142317539E+02  0.99999979746E+01 0.  0.
         12    1    1    2    0    0  0.32410699417E+02  0.22363385174E+02  0.21875535999E+02  0.45045682461E+02  0.00000000000E+00 0. -1.
         11    1    3    3    0    0 -0.34584880830E+01 -0.50750063198E+01 -0.51126349472E+01  0.79909865055E+01  0.51100000000E-03 0. -1.
        -11    1    3    3    0    0 -0.10500191475E+02 -0.97829862349E+01 -0.69945723491E+01  0.15965114572E+02  0.51100000000E-03 0.  1.
         12    1    3    3    0    0 -0.18452019859E+02 -0.75053926196E+01 -0.97683287030E+01  0.22186216462E+02  0.00000000000E+00 0. -1.
</event>
<event>
 7    1  0.8398055E-009  0.4614232E+02  0.7816164E-02  0.1320468E+00
        -11   -1    0    0    0    0  0.00000000000E+00  0.00000000000E+00  0.45593999997E+02  0.45594000000E+02  0.51100000000E-03 0. -1.
         11   -1    0    0    0    0 -0.00000000000E+00 -0.00000000000E+00 -0.45593999997E+02  0.45594000000E+02  0.51100000000E-03 0.  1.
    9900012    2    1    2    0    0  0.12366393520E+02  0.40355841445E+02 -0.15735053125E+02  0.46142317362E+02  0.99999963639E+01 0.  0.
         12    1    1    2    0    0 -0.12366393520E+02 -0.40355841445E+02  0.15735053125E+02  0.45045682638E+02  0.00000000000E+00 0. -1.
         11    1    3    3    0    0  0.25040244274E+01  0.28016261754E+01  0.24455498962E+00  0.37655085930E+01  0.51100000000E-03 0. -1.
        -11    1    3    3    0    0  0.96620267281E+01  0.34196432261E+02 -0.12864366690E+02  0.37792097990E+02  0.51100000000E-03 0.  1.
        -12    1    3    3    0    0  0.20034236465E+00  0.33577830081E+01 -0.31152414248E+01  0.45847107790E+01  0.00000000000E+00 0.  1.
</event>
<event>
 7    1  0.1143855E-008  0.4614232E+02  0.7816164E-02  0.1320468E+00
        -11   -1    0    0    0    0  0.00000000000E+00  0.00000000000E+00  0.45593999997E+02  0.45594000000E+02  0.51100000000E-03 0. -1.
         11   -1    0    0    0    0 -0.00000000000E+00 -0.00000000000E+00 -0.45593999997E+02  0.45594000000E+02  0.51100000000E-03 0.  1.
    9900012    2    1    2    0    0  0.32193077349E+02 -0.28197362284E+01 -0.31381018486E+02  0.46142318045E+02  0.10000002584E+02 0.  0.
         12    1    1    2    0    0 -0.32193077349E+02  0.28197362284E+01  0.31381018486E+02  0.45045681955E+02  0.00000000000E+00 0. -1.
         11    1    3    3    0    0  0.27416733279E+01  0.21395065399E+01 -0.27813704107E+01  0.44531205344E+01  0.51100000000E-03 0. -1.
        -11    1    3    3    0    0  0.41377848100E+00  0.52734714392E+00 -0.12772804896E+01  0.14424816643E+01  0.51100000000E-03 0.  1.
        -12    1    3    3    0    0  0.29037625540E+02 -0.54865899123E+01 -0.27322367586E+02  0.40246715846E+02  0.00000000000E+00 0.  1.
</event>
<event>
 7    1  0.8398055E-009  0.4614232E+02  0.7816164E-02  0.1320468E+00
        -11   -1    0    0    0    0  0.00000000000E+00  0.00000000000E+00  0.45593999997E+02  0.45594000000E+02  0.51100000000E-03 0. -1.
         11   -1    0    0    0    0 -0.00000000000E+00 -0.00000000000E+00 -0.45593999997E+02  0.45594000000E+02  0.51100000000E-03 0.  1.
    9900012    2    1    2    0    0 -0.62141602285E+01  0.26315772274E+02 -0.36027459433E+02  0.46142317733E+02  0.99999997447E+01 0.  0.
         12    1    1    2    0    0  0.62141602285E+01 -0.26315772274E+02  0.36027459433E+02  0.45045682267E+02  0.00000000000E+00 0. -1.
         11    1    3    3    0    0  0.11930543758E+01  0.74770553565E+01 -0.14051023447E+02  0.15961234154E+02  0.51100000000E-03 0. -1.
        -11    1    3    3    0    0 -0.37667696301E+01  0.14458014441E+02 -0.16825121890E+02  0.22501276895E+02  0.51100000000E-03 0.  1.
         12    1    3    3    0    0 -0.36404449743E+01  0.43807024761E+01 -0.51513140957E+01  0.76798066843E+01  0.00000000000E+00 0. -1.
</event>
<event>
 7    1  0.8398055E-009  0.4614232E+02  0.7816164E-02  0.1320468E+00
        -11   -1    0    0    0    0  0.00000000000E+00  0.00000000000E+00  0.45593999997E+02  0.45594000000E+02  0.51100000000E-03 0.  1.
         11   -1    0    0    0    0 -0.00000000000E+00 -0.00000000000E+00 -0.45593999997E+02  0.45594000000E+02  0.51100000000E-03 0. -1.
    9900012    2    1    2    0    0 -0.25008951506E+02 -0.36232253419E+02 -0.95336067101E+01  0.46142317630E+02  0.99999988033E+01 0.  0.
         12    1    1    2    0    0  0.25008951506E+02  0.36232253419E+02  0.95336067101E+01  0.45045682370E+02  0.00000000000E+00 0. -1.
         11    1    3    3    0    0 -0.76872968894E+01 -0.10632562682E+02 -0.68969137592E+01  0.14822730596E+02  0.51100000000E-03 0. -1.
        -11    1    3    3    0    0 -0.67540637089E+01 -0.97907770677E+01 -0.31235206475E+01  0.12297685704E+02  0.51100000000E-03 0.  1.
         12    1    3    3    0    0 -0.10567590908E+02 -0.15808913670E+02  0.48682769657E+00  0.19021901330E+02  0.00000000000E+00 0. -1.
</event>
<event>
 7    1  0.8398055E-009  0.4614232E+02  0.7816164E-02  0.1320468E+00
        -11   -1    0    0    0    0  0.00000000000E+00  0.00000000000E+00  0.45593999997E+02  0.45594000000E+02  0.51100000000E-03 0. -1.
         11   -1    0    0    0    0 -0.00000000000E+00 -0.00000000000E+00 -0.45593999997E+02  0.45594000000E+02  0.51100000000E-03 0.  1.
    9900012    2    1    2    0    0  0.21201763387E+02  0.32280303424E+02 -0.23185786841E+02  0.46142317950E+02  0.10000001725E+02 0.  0.
         12    1    1    2    0    0 -0.21201763387E+02 -0.32280303424E+02  0.23185786841E+02  0.45045682050E+02  0.00000000000E+00 0. -1.
         11    1    3    3    0    0  0.31537479523E+01  0.54089994729E+01 -0.82522285968E+00  0.63154092879E+01  0.51100000000E-03 0. -1.
        -11    1    3    3    0    0  0.92065355561E+01  0.14352528368E+02 -0.15468524701E+02  0.23022393971E+02  0.51100000000E-03 0.  1.
        -12    1    3    3    0    0  0.88414798787E+01  0.12518775583E+02 -0.68920392810E+01  0.16804514691E+02  0.00000000000E+00 0.  1.
</event>
<event>
 7    1  0.8398055E-009  0.4614232E+02  0.7816164E-02  0.1320468E+00
        -11   -1    0    0    0    0  0.00000000000E+00  0.00000000000E+00  0.45593999997E+02  0.45594000000E+02  0.51100000000E-03 0. -1.
         11   -1    0    0    0    0 -0.00000000000E+00 -0.00000000000E+00 -0.45593999997E+02  0.45594000000E+02  0.51100000000E-03 0.  1.
    9900012    2    1    2    0    0  0.11894132494E+02  0.26764002072E+02 -0.34224717068E+02  0.46142318153E+02  0.10000003570E+02 0.  0.
         12    1    1    2    0    0 -0.11894132494E+02 -0.26764002072E+02  0.34224717068E+02  0.45045681847E+02  0.00000000000E+00 0. -1.
         11    1    3    3    0    0 -0.20473906708E+00  0.99004633897E+00 -0.38823107856E+00  0.10829743628E+01  0.51100000000E-03 0.  1.
        -11    1    3    3    0    0  0.14102345303E+01  0.93242759955E+01 -0.15856541794E+02  0.18448869943E+02  0.51100000000E-03 0. -1.
        -12    1    3    3    0    0  0.10688637031E+02  0.16449679738E+02 -0.17979944196E+02  0.26610473847E+02  0.00000000000E+00 0.  1.
</event>
<event>
 7    1  0.8398055E-009  0.4614232E+02  0.7816164E-02  0.1320468E+00
        -11   -1    0    0    0    0  0.00000000000E+00  0.00000000000E+00  0.45593999997E+02  0.45594000000E+02  0.51100000000E-03 0. -1.
         11   -1    0    0    0    0 -0.00000000000E+00 -0.00000000000E+00 -0.45593999997E+02  0.45594000000E+02  0.51100000000E-03 0.  1.
    9900012    2    1    2    0    0  0.33442477050E+02 -0.10884606877E+02  0.28146745230E+02  0.46142320905E+02  0.10000028671E+02 0.  0.
        -12    1    1    2    0    0 -0.33442477050E+02  0.10884606877E+02 -0.28146745230E+02  0.45045679095E+02  0.00000000000E+00 0.  1.
         11    1    3    3    0    0  0.14550728478E+02 -0.27854421278E+01  0.11918296098E+02  0.19013894110E+02  0.51100000000E-03 0. -1.
        -11    1    3    3    0    0  0.13882286059E+02 -0.56580629367E+01  0.74740899863E+01  0.16750927252E+02  0.51100000000E-03 0.  1.
        -12    1    3    3    0    0  0.50094625131E+01 -0.24411018123E+01  0.87543591454E+01  0.10377499543E+02  0.00000000000E+00 0.  1.
</event>
<event>
 7    1  0.8398055E-009  0.4614232E+02  0.7816164E-02  0.1320468E+00
        -11   -1    0    0    0    0  0.00000000000E+00  0.00000000000E+00  0.45593999997E+02  0.45594000000E+02  0.51100000000E-03 0. -1.
         11   -1    0    0    0    0 -0.00000000000E+00 -0.00000000000E+00 -0.45593999997E+02  0.45594000000E+02  0.51100000000E-03 0.  1.
    9900012    2    1    2    0    0 -0.26573608060E+02  0.21806493080E+02  0.29110714472E+02  0.46142317823E+02  0.10000000560E+02 0.  0.
        -12    1    1    2    0    0  0.26573608060E+02 -0.21806493080E+02 -0.29110714472E+02  0.45045682177E+02  0.00000000000E+00 0.  1.
         11    1    3    3    0    0 -0.18152881809E+02  0.10501422079E+02  0.16757640539E+02  0.26844468711E+02  0.51100000000E-03 0. -1.
        -11    1    3    3    0    0 -0.37982195013E+01  0.56596020089E+01  0.89416273425E+01  0.11243232012E+02  0.51100000000E-03 0.  1.
        -12    1    3    3    0    0 -0.46225067497E+01  0.56454689920E+01  0.34114465904E+01  0.80546171001E+01  0.00000000000E+00 0.  1.
</event>
<event>
 7    1  0.8398055E-009  0.4614232E+02  0.7816164E-02  0.1320468E+00
        -11   -1    0    0    0    0  0.00000000000E+00  0.00000000000E+00  0.45593999997E+02  0.45594000000E+02  0.51100000000E-03 0. -1.
         11   -1    0    0    0    0 -0.00000000000E+00 -0.00000000000E+00 -0.45593999997E+02  0.45594000000E+02  0.51100000000E-03 0.  1.
    9900012    2    1    2    0    0  0.31630435121E+02  0.30952188024E+02 -0.84018430117E+01  0.46142319459E+02  0.10000015481E+02 0.  0.
         12    1    1    2    0    0 -0.31630435121E+02 -0.30952188024E+02  0.84018430117E+01  0.45045680541E+02  0.00000000000E+00 0. -1.
         11    1    3    3    0    0  0.18857884566E+02  0.24566417868E+02 -0.62291389850E+01  0.31590043842E+02  0.51100000000E-03 0. -1.
        -11    1    3    3    0    0  0.72624670027E+01  0.44558511514E+01 -0.82376204169E+00  0.85601764358E+01  0.51100000000E-03 0.  1.
         12    1    3    3    0    0  0.55100835525E+01  0.19299190049E+01 -0.13489419850E+01  0.59920991814E+01  0.00000000000E+00 0. -1.
</event>
<event>
 7    1  0.8398055E-009  0.4614232E+02  0.7816164E-02  0.1320468E+00
        -11   -1    0    0    0    0  0.00000000000E+00  0.00000000000E+00  0.45593999997E+02  0.45594000000E+02  0.51100000000E-03 0. -1.
         11   -1    0    0    0    0 -0.00000000000E+00 -0.00000000000E+00 -0.45593999997E+02  0.45594000000E+02  0.51100000000E-03 0.  1.
    9900012    2    1    2    0    0  0.32957299233E+02  0.16056068413E+02  0.26175041350E+02  0.46142315464E+02  0.99999790524E+01 0.  0.
        -12    1    1    2    0    0 -0.32957299233E+02 -0.16056068413E+02 -0.26175041350E+02  0.45045684536E+02  0.00000000000E+00 0.  1.
         11    1    3    3    0    0  0.28668814076E+00  0.18628573531E-01  0.72370153629E+00  0.77864066716E+00  0.51100000000E-03 0. -1.
        -11    1    3    3    0    0  0.15064767732E+02  0.43571792724E+01  0.15352645978E+02  0.21946206434E+02  0.51100000000E-03 0.  1.
        -12    1    3    3    0    0  0.17605843360E+02  0.11680260567E+02  0.10098693836E+02  0.23417468363E+02  0.00000000000E+00 0.  1.
</event>
<event>
 7    1  0.8398055E-009  0.4614232E+02  0.7816164E-02  0.1320468E+00
        -11   -1    0    0    0    0  0.00000000000E+00  0.00000000000E+00  0.45593999997E+02  0.45594000000E+02  0.51100000000E-03 0.  1.
         11   -1    0    0    0    0 -0.00000000000E+00 -0.00000000000E+00 -0.45593999997E+02  0.45594000000E+02  0.51100000000E-03 0. -1.
    9900012    2    1    2    0    0  0.43460487928E+02 -0.22828036845E+01  0.11622745903E+02  0.46142318454E+02  0.10000006318E+02 0.  0.
         12    1    1    2    0    0 -0.43460487928E+02  0.22828036845E+01 -0.11622745903E+02  0.45045681546E+02  0.00000000000E+00 0. -1.
         11    1    3    3    0    0  0.28698111267E+02  0.41805993193E+00  0.55735557426E+01  0.29237320128E+02  0.51100000000E-03 0. -1.
        -11    1    3    3    0    0  0.54760966389E+01 -0.26910970919E+01  0.58308753314E+00  0.61294069280E+01  0.51100000000E-03 0.  1.
        -12    1    3    3    0    0  0.92862800224E+01 -0.97665245220E-02  0.54661026277E+01  0.10775591398E+02  0.00000000000E+00 0.  1.
</event>
<event>
 7    1  0.8398055E-009  0.4614232E+02  0.7816164E-02  0.1320468E+00
        -11   -1    0    0    0    0  0.00000000000E+00  0.00000000000E+00  0.45593999997E+02  0.45594000000E+02  0.51100000000E-03 0. -1.
         11   -1    0    0    0    0 -0.00000000000E+00 -0.00000000000E+00 -0.45593999997E+02  0.45594000000E+02  0.51100000000E-03 0.  1.
    9900012    2    1    2    0    0 -0.28391174641E+02 -0.82751463963E+01 -0.33979062471E+02  0.46142317279E+02  0.99999956058E+01 0.  0.
         12    1    1    2    0    0  0.28391174641E+02  0.82751463963E+01  0.33979062471E+02  0.45045682721E+02  0.00000000000E+00 0. -1.
         11    1    3    3    0    0 -0.25073912647E+01 -0.72616095356E+00 -0.63316365392E+01  0.68486452828E+01  0.51100000000E-03 0. -1.
        -11    1    3    3    0    0 -0.11189344272E+02 -0.58613018750E+01 -0.16460162112E+02  0.20748330582E+02  0.51100000000E-03 0.  1.
         12    1    3    3    0    0 -0.14694439105E+02 -0.16876835677E+01 -0.11187263819E+02  0.18545341415E+02  0.00000000000E+00 0. -1.
</event>
<event>
 7    1  0.8398055E-009  0.4614232E+02  0.7816164E-02  0.1320468E+00
        -11   -1    0    0    0    0  0.00000000000E+00  0.00000000000E+00  0.45593999997E+02  0.45594000000E+02  0.51100000000E-03 0. -1.
         11   -1    0    0    0    0 -0.00000000000E+00 -0.00000000000E+00 -0.45593999997E+02  0.45594000000E+02  0.51100000000E-03 0.  1.
    9900012    2    1    2    0    0 -0.31105886601E+01 -0.14089632041E+02  0.42672241508E+02  0.46142315543E+02  0.99999797735E+01 0.  0.
        -12    1    1    2    0    0  0.31105886601E+01  0.14089632041E+02 -0.42672241508E+02  0.45045684457E+02  0.00000000000E+00 0.  1.
         11    1    3    3    0    0 -0.30290668684E+00  0.57132382265E+00  0.37962310133E+01  0.38509133382E+01  0.51100000000E-03 0.  1.
        -11    1    3    3    0    0  0.19805905301E+01 -0.27739438939E+01  0.48145260058E+01  0.58989121451E+01  0.51100000000E-03 0. -1.
        -12    1    3    3    0    0 -0.47882725035E+01 -0.11887011969E+02  0.34061484489E+02  0.36392490060E+02  0.00000000000E+00 0.  1.
</event>
<event>
 7    1  0.8398055E-009  0.4614232E+02  0.7816164E-02  0.1320468E+00
        -11   -1    0    0    0    0  0.00000000000E+00  0.00000000000E+00  0.45593999997E+02  0.45594000000E+02  0.51100000000E-03 0. -1.
         11   -1    0    0    0    0 -0.00000000000E+00 -0.00000000000E+00 -0.45593999997E+02  0.45594000000E+02  0.51100000000E-03 0.  1.
    9900012    2    1    2    0    0  0.10291096954E+02  0.33086435579E+02 -0.28783581685E+02  0.46142317960E+02  0.10000001816E+02 0.  0.
         12    1    1    2    0    0 -0.10291096954E+02 -0.33086435579E+02  0.28783581685E+02  0.45045682040E+02  0.00000000000E+00 0. -1.
         11    1    3    3    0    0  0.45242032685E+01  0.46567352642E+01 -0.83622100729E+01  0.10586791587E+02  0.51100000000E-03 0. -1.
        -11    1    3    3    0    0  0.14881853507E+01  0.81998268149E+01 -0.71934571524E+01  0.11008981856E+02  0.51100000000E-03 0.  1.
         12    1    3    3    0    0  0.42787083345E+01  0.20229873500E+02 -0.13227914460E+02  0.24546544518E+02  0.00000000000E+00 0. -1.
</event>
<event>
 7    1  0.8398055E-009  0.4614232E+02  0.7816164E-02  0.1320468E+00
        -11   -1    0    0    0    0  0.00000000000E+00  0.00000000000E+00  0.45593999997E+02  0.45594000000E+02  0.51100000000E-03 0. -1.
         11   -1    0    0    0    0 -0.00000000000E+00 -0.00000000000E+00 -0.45593999997E+02  0.45594000000E+02  0.51100000000E-03 0.  1.
    9900012    2    1    2    0    0  0.37793074271E+02 -0.75951502632E+00 -0.24499391193E+02  0.46142317690E+02  0.99999993518E+01 0.  0.
         12    1    1    2    0    0 -0.37793074271E+02  0.75951502632E+00  0.24499391193E+02  0.45045682310E+02  0.00000000000E+00 0. -1.
         11    1    3    3    0    0  0.44270511815E+01 -0.21071270743E+01 -0.18802421319E+01  0.52511024944E+01  0.51100000000E-03 0. -1.
        -11    1    3    3    0    0  0.14463104143E+02  0.38176805651E+01 -0.10973928672E+02  0.18552174458E+02  0.51100000000E-03 0.  1.
         12    1    3    3    0    0  0.18902918946E+02 -0.24700685171E+01 -0.11645220390E+02  0.22339040738E+02  0.00000000000E+00 0. -1.
</event>
<event>
 7    1  0.9138790E-009  0.4614232E+02  0.7816164E-02  0.1320468E+00
        -11   -1    0    0    0    0  0.00000000000E+00  0.00000000000E+00  0.45593999997E+02  0.45594000000E+02  0.51100000000E-03 0. -1.
         11   -1    0    0    0    0 -0.00000000000E+00 -0.00000000000E+00 -0.45593999997E+02  0.45594000000E+02  0.51100000000E-03 0.  1.
    9900012    2    1    2    0    0 -0.17361967190E+02 -0.23455046592E+02 -0.34315249898E+02  0.46142317732E+02  0.99999997389E+01 0.  0.
         12    1    1    2    0    0  0.17361967190E+02  0.23455046592E+02  0.34315249898E+02  0.45045682268E+02  0.00000000000E+00 0. -1.
         11    1    3    3    0    0 -0.22790603333E+01 -0.20759348594E+01 -0.16743898366E+01  0.35081623579E+01  0.51100000000E-03 0. -1.
        -11    1    3    3    0    0  0.91797616595E+00 -0.16418397307E+01 -0.12945792043E+01  0.22834740025E+01  0.51100000000E-03 0.  1.
        -12    1    3    3    0    0 -0.16000883023E+02 -0.19737272002E+02 -0.31346280857E+02  0.40350681372E+02  0.00000000000E+00 0.  1.
</event>
<event>
 7    1  0.8398055E-009  0.4614232E+02  0.7816164E-02  0.1320468E+00
        -11   -1    0    0    0    0  0.00000000000E+00  0.00000000000E+00  0.45593999997E+02  0.45594000000E+02  0.51100000000E-03 0. -1.
         11   -1    0    0    0    0 -0.00000000000E+00 -0.00000000000E+00 -0.45593999997E+02  0.45594000000E+02  0.51100000000E-03 0.  1.
    9900012    2    1    2    0    0  0.26258619711E+02 -0.83950783498E+01  0.35624727320E+02  0.46142316009E+02  0.99999840199E+01 0.  0.
        -12    1    1    2    0    0 -0.26258619711E+02  0.83950783498E+01 -0.35624727320E+02  0.45045683991E+02  0.00000000000E+00 0.  1.
         11    1    3    3    0    0  0.18406599770E+02 -0.47360771213E+01  0.24450724710E+02  0.30968876000E+02  0.51100000000E-03 0. -1.
        -11    1    3    3    0    0  0.64057900601E+01 -0.31645837729E+01  0.47729066187E+01  0.85924021439E+01  0.51100000000E-03 0.  1.
        -12    1    3    3    0    0  0.14462298807E+01 -0.49441745560E+00  0.64010959914E+01  0.65810378649E+01  0.00000000000E+00 0.  1.
</event>
<event>
 7    1  0.8398055E-009  0.4614232E+02  0.7816164E-02  0.1320468E+00
        -11   -1    0    0    0    0  0.00000000000E+00  0.00000000000E+00  0.45593999997E+02  0.45594000000E+02  0.51100000000E-03 0. -1.
         11   -1    0    0    0    0 -0.00000000000E+00 -0.00000000000E+00 -0.45593999997E+02  0.45594000000E+02  0.51100000000E-03 0.  1.
    9900012    2    1    2    0    0 -0.17821296218E+02  0.18728226107E+02 -0.36888595928E+02  0.46142316949E+02  0.99999925942E+01 0.  0.
         12    1    1    2    0    0  0.17821296218E+02 -0.18728226107E+02  0.36888595928E+02  0.45045683051E+02  0.00000000000E+00 0. -1.
         11    1    3    3    0    0 -0.13004247515E+02  0.14059528522E+02 -0.19848275719E+02  0.27581422098E+02  0.51100000000E-03 0. -1.
        -11    1    3    3    0    0 -0.40517099774E+01  0.31062636577E+01 -0.91203622447E+01  0.10452092393E+02  0.51100000000E-03 0.  1.
         12    1    3    3    0    0 -0.76533872483E+00  0.15624339279E+01 -0.79199579643E+01  0.81088024577E+01  0.00000000000E+00 0. -1.
</event>
<event>
 7    1  0.8398055E-009  0.4614232E+02  0.7816164E-02  0.1320468E+00
        -11   -1    0    0    0    0  0.00000000000E+00  0.00000000000E+00  0.45593999997E+02  0.45594000000E+02  0.51100000000E-03 0. -1.
         11   -1    0    0    0    0 -0.00000000000E+00 -0.00000000000E+00 -0.45593999997E+02  0.45594000000E+02  0.51100000000E-03 0.  1.
    9900012    2    1    2    0    0  0.21522466965E+02  0.25974331097E+02 -0.29853490868E+02  0.46142318995E+02  0.10000011251E+02 0.  0.
         12    1    1    2    0    0 -0.21522466965E+02 -0.25974331097E+02  0.29853490868E+02  0.45045681005E+02  0.00000000000E+00 0. -1.
         11    1    3    3    0    0  0.41750383342E+01  0.75165142175E+00 -0.35106861679E+01  0.55064364686E+01  0.51100000000E-03 0. -1.
        -11    1    3    3    0    0  0.19828953793E+01  0.60026206224E+01 -0.49225782644E+01  0.80121848114E+01  0.51100000000E-03 0.  1.
        -12    1    3    3    0    0  0.15364533252E+02  0.19220059053E+02 -0.21420226436E+02  0.32623697715E+02  0.00000000000E+00 0.  1.
</event>
<event>
 7    1  0.8398055E-009  0.4614232E+02  0.7816164E-02  0.1320468E+00
        -11   -1    0    0    0    0  0.00000000000E+00  0.00000000000E+00  0.45593999997E+02  0.45594000000E+02  0.51100000000E-03 0. -1.
         11   -1    0    0    0    0 -0.00000000000E+00 -0.00000000000E+00 -0.45593999997E+02  0.45594000000E+02  0.51100000000E-03 0.  1.
    9900012    2    1    2    0    0  0.19839656648E+02  0.10175026866E+02  0.39140393230E+02  0.46142317301E+02  0.99999958025E+01 0.  0.
        -12    1    1    2    0    0 -0.19839656648E+02 -0.10175026866E+02 -0.39140393230E+02  0.45045682699E+02  0.00000000000E+00 0.  1.
         11    1    3    3    0    0  0.46859107044E+01  0.43680900283E+00  0.10138209429E+02  0.11177291797E+02  0.51100000000E-03 0. -1.
        -11    1    3    3    0    0  0.11079490625E+02  0.10604675283E+02  0.23552464734E+02  0.28105743998E+02  0.51100000000E-03 0.  1.
        -12    1    3    3    0    0  0.40742553185E+01 -0.86645742036E+00  0.54497190678E+01  0.68592815060E+01  0.00000000000E+00 0.  1.
</event>
<event>
 7    1  0.8398055E-009  0.4614232E+02  0.7816164E-02  0.1320468E+00
        -11   -1    0    0    0    0  0.00000000000E+00  0.00000000000E+00  0.45593999997E+02  0.45594000000E+02  0.51100000000E-03 0. -1.
         11   -1    0    0    0    0 -0.00000000000E+00 -0.00000000000E+00 -0.45593999997E+02  0.45594000000E+02  0.51100000000E-03 0.  1.
    9900012    2    1    2    0    0 -0.34377960127E+02  0.50715820723E+01 -0.28662664307E+02  0.46142318604E+02  0.10000007688E+02 0.  0.
         12    1    1    2    0    0  0.34377960127E+02 -0.50715820723E+01  0.28662664307E+02  0.45045681396E+02  0.00000000000E+00 0. -1.
         11    1    3    3    0    0  0.25011320604E+00  0.69947131137E+00 -0.11916102322E+01  0.14041908481E+01  0.51100000000E-03 0. -1.
        -11    1    3    3    0    0 -0.30282180649E+02  0.54999339779E+01 -0.24687271203E+02  0.39455305072E+02  0.51100000000E-03 0.  1.
        -12    1    3    3    0    0 -0.43458926844E+01 -0.11278232169E+01 -0.27837828721E+01  0.52828226841E+01  0.00000000000E+00 0.  1.
</event>
<event>
 7    1  0.1066376E-008  0.4614232E+02  0.7816164E-02  0.1320468E+00
        -11   -1    0    0    0    0  0.00000000000E+00  0.00000000000E+00  0.45593999997E+02  0.45594000000E+02  0.51100000000E-03 0. -1.
         11   -1    0    0    0    0 -0.00000000000E+00 -0.00000000000E+00 -0.45593999997E+02  0.45594000000E+02  0.51100000000E-03 0.  1.
    9900012    2    1    2    0    0 -0.47012998564E+01  0.48560436404E+01 -0.44535716724E+02  0.46142318250E+02  0.10000004460E+02 0.  0.
         12    1    1    2    0    0  0.47012998564E+01 -0.48560436404E+01  0.44535716724E+02  0.45045681750E+02  0.00000000000E+00 0. -1.
         11    1    3    3    0    0  0.10795556765E+01 -0.16000834421E+01 -0.36136854168E+01  0.40968805246E+01  0.51100000000E-03 0. -1.
        -11    1    3    3    0    0 -0.26389052237E+01  0.31233777048E+00 -0.88955833645E+01  0.92840066414E+01  0.51100000000E-03 0.  1.
        -12    1    3    3    0    0 -0.31419503092E+01  0.61437893120E+01 -0.32026447943E+02  0.32761431084E+02  0.00000000000E+00 0.  1.
</event>
<event>
 7    1  0.8398055E-009  0.4614232E+02  0.7816164E-02  0.1320468E+00
        -11   -1    0    0    0    0  0.00000000000E+00  0.00000000000E+00  0.45593999997E+02  0.45594000000E+02  0.51100000000E-03 0. -1.
         11   -1    0    0    0    0 -0.00000000000E+00 -0.00000000000E+00 -0.45593999997E+02  0.45594000000E+02  0.51100000000E-03 0.  1.
    9900012    2    1    2    0    0  0.11909238173E+02 -0.48258229750E+01  0.43174008413E+02  0.46142317369E+02  0.99999964226E+01 0.  0.
        -12    1    1    2    0    0 -0.11909238173E+02  0.48258229750E+01 -0.43174008413E+02  0.45045682631E+02  0.00000000000E+00 0.  1.
         11    1    3    3    0    0  0.26679099180E+01  0.80338219728E+00  0.57065198155E+01  0.63503964405E+01  0.51100000000E-03 0. -1.
        -11    1    3    3    0    0  0.91445316904E+00  0.12485058804E+01  0.12409336388E+02  0.12505463661E+02  0.51100000000E-03 0.  1.
         12    1    3    3    0    0  0.83268750861E+01 -0.68777110527E+01  0.25058152210E+02  0.27286457267E+02  0.00000000000E+00 0. -1.
</event>
<event>
 7    1  0.8398055E-009  0.4614232E+02  0.7816164E-02  0.1320468E+00
        -11   -1    0    0    0    0  0.00000000000E+00  0.00000000000E+00  0.45593999997E+02  0.45594000000E+02  0.51100000000E-03 0. -1.
         11   -1    0    0    0    0 -0.00000000000E+00 -0.00000000000E+00 -0.45593999997E+02  0.45594000000E+02  0.51100000000E-03 0.  1.
    9900012    2    1    2    0    0  0.91247469961E+01  0.35821360847E+02  0.25742620297E+02  0.46142318738E+02  0.10000008904E+02 0.  0.
        -12    1    1    2    0    0 -0.91247469961E+01 -0.35821360847E+02 -0.25742620297E+02  0.45045681262E+02  0.00000000000E+00 0.  1.
         11    1    3    3    0    0  0.45852215308E+01  0.14037230042E+02  0.10491140872E+02  0.18114417484E+02  0.51100000000E-03 0. -1.
        -11    1    3    3    0    0  0.61448628661E+01  0.11047475997E+02  0.76643892452E+01  0.14783400431E+02  0.51100000000E-03 0.  1.
        -12    1    3    3    0    0 -0.16053374007E+01  0.10736654808E+02  0.75870901795E+01  0.13244500822E+02  0.00000000000E+00 0.  1.
</event>
<event>
 7    1  0.8398055E-009  0.4614232E+02  0.7816164E-02  0.1320468E+00
        -11   -1    0    0    0    0  0.00000000000E+00  0.00000000000E+00  0.45593999997E+02  0.45594000000E+02  0.51100000000E-03 0. -1.
         11   -1    0    0    0    0 -0.00000000000E+00 -0.00000000000E+00 -0.45593999997E+02  0.45594000000E+02  0.51100000000E-03 0.  1.
    9900012    2    1    2    0    0 -0.20516051263E+02  0.13964756193E+02 -0.37592428841E+02  0.46142317841E+02  0.10000000732E+02 0.  0.
         12    1    1    2    0    0  0.20516051263E+02 -0.13964756193E+02  0.37592428841E+02  0.45045682159E+02  0.00000000000E+00 0. -1.
         11    1    3    3    0    0 -0.48231450215E+01  0.41860685182E+01 -0.65658436338E+01  0.91594869082E+01  0.51100000000E-03 0. -1.
        -11    1    3    3    0    0 -0.76676305207E+01  0.53389046511E+00 -0.14557861475E+02  0.16462348794E+02  0.51100000000E-03 0.  1.
         12    1    3    3    0    0 -0.80252757208E+01  0.92447972098E+01 -0.16468723732E+02  0.20520482139E+02  0.00000000000E+00 0. -1.
</event>
<event>
 7    1  0.8398055E-009  0.4614232E+02  0.7816164E-02  0.1320468E+00
        -11   -1    0    0    0    0  0.00000000000E+00  0.00000000000E+00  0.45593999997E+02  0.45594000000E+02  0.51100000000E-03 0. -1.
         11   -1    0    0    0    0 -0.00000000000E+00 -0.00000000000E+00 -0.45593999997E+02  0.45594000000E+02  0.51100000000E-03 0.  1.
    9900012    2    1    2    0    0  0.13995383143E+01 -0.20125556615E+01  0.44978932463E+02  0.46142318151E+02  0.10000003553E+02 0.  0.
        -12    1    1    2    0    0 -0.13995383143E+01  0.20125556615E+01 -0.44978932463E+02  0.45045681849E+02  0.00000000000E+00 0.  1.
         11    1    3    3    0    0 -0.23940758766E+01  0.66823050163E+00  0.13748915670E+02  0.13971786345E+02  0.51100000000E-03 0. -1.
        -11    1    3    3    0    0 -0.17878719353E+00 -0.21468497429E+01  0.32136666773E+01  0.38689252323E+01  0.51100000000E-03 0.  1.
         12    1    3    3    0    0  0.39724013845E+01 -0.53393642018E+00  0.28016350115E+02  0.28301606573E+02  0.00000000000E+00 0. -1.
</event>
<event>
 7    1  0.8398055E-009  0.4614232E+02  0.7816164E-02  0.1320468E+00
        -11   -1    0    0    0    0  0.00000000000E+00  0.00000000000E+00  0.45593999997E+02  0.45594000000E+02  0.51100000000E-03 0. -1.
         11   -1    0    0    0    0 -0.00000000000E+00 -0.00000000000E+00 -0.45593999997E+02  0.45594000000E+02  0.51100000000E-03 0.  1.
    9900012    2    1    2    0    0 -0.11455743596E+00 -0.27438870731E+02 -0.35724063726E+02  0.46142317859E+02  0.10000000892E+02 0.  0.
         12    1    1    2    0    0  0.11455743596E+00  0.27438870731E+02  0.35724063726E+02  0.45045682141E+02  0.00000000000E+00 0. -1.
         11    1    3    3    0    0 -0.32935361558E+01 -0.57069685397E+01 -0.59950709372E+01  0.89082964773E+01  0.51100000000E-03 0.  1.
        -11    1    3    3    0    0  0.28339890648E+01 -0.82224702752E+01 -0.92359555570E+01  0.12686346470E+02  0.51100000000E-03 0. -1.
         12    1    3    3    0    0  0.34498965510E+00 -0.13509431916E+02 -0.20493037232E+02  0.24547674912E+02  0.00000000000E+00 0. -1.
</event>
<event>
 7    1  0.8398055E-009  0.4614232E+02  0.7816164E-02  0.1320468E+00
        -11   -1    0    0    0    0  0.00000000000E+00  0.00000000000E+00  0.45593999997E+02  0.45594000000E+02  0.51100000000E-03 0. -1.
         11   -1    0    0    0    0 -0.00000000000E+00 -0.00000000000E+00 -0.45593999997E+02  0.45594000000E+02  0.51100000000E-03 0.  1.
    9900012    2    1    2    0    0 -0.44429381522E+01  0.26341570507E+02 -0.36269761945E+02  0.46142315770E+02  0.99999818431E+01 0.  0.
         12    1    1    2    0    0  0.44429381522E+01 -0.26341570507E+02  0.36269761945E+02  0.45045684230E+02  0.00000000000E+00 0. -1.
         11    1    3    3    0    0 -0.10687423689E+01  0.10936797659E+01 -0.55442826682E+01  0.57512969187E+01  0.51100000000E-03 0. -1.
        -11    1    3    3    0    0 -0.20034303281E+01  0.10553940784E+02 -0.84364989093E+01  0.13659206172E+02  0.51100000000E-03 0.  1.
        -12    1    3    3    0    0 -0.13707654553E+01  0.14693949958E+02 -0.22288980367E+02  0.26731812679E+02  0.00000000000E+00 0.  1.
</event>
<event>
 7    1  0.8398055E-009  0.4614232E+02  0.7816164E-02  0.1320468E+00
        -11   -1    0    0    0    0  0.00000000000E+00  0.00000000000E+00  0.45593999997E+02  0.45594000000E+02  0.51100000000E-03 0. -1.
         11   -1    0    0    0    0 -0.00000000000E+00 -0.00000000000E+00 -0.45593999997E+02  0.45594000000E+02  0.51100000000E-03 0.  1.
    9900012    2    1    2    0    0  0.28504230052E+02  0.78477672955E+01 -0.33985798447E+02  0.46142322311E+02  0.10000041491E+02 0.  0.
         12    1    1    2    0    0 -0.28504230052E+02 -0.78477672955E+01  0.33985798447E+02  0.45045677689E+02  0.00000000000E+00 0. -1.
         11    1    3    3    0    0  0.62065650228E+01  0.27505095164E+00 -0.90549830927E+01  0.10981339694E+02  0.51100000000E-03 0. -1.
        -11    1    3    3    0    0  0.65951505508E+01  0.72422244402E+00 -0.28677570950E+01  0.72280384582E+01  0.51100000000E-03 0.  1.
        -12    1    3    3    0    0  0.15702514478E+02  0.68484938998E+01 -0.22063058259E+02  0.27932944159E+02  0.00000000000E+00 0.  1.
</event>
<event>
 7    1  0.8398055E-009  0.4614232E+02  0.7816164E-02  0.1320468E+00
        -11   -1    0    0    0    0  0.00000000000E+00  0.00000000000E+00  0.45593999997E+02  0.45594000000E+02  0.51100000000E-03 0. -1.
         11   -1    0    0    0    0 -0.00000000000E+00 -0.00000000000E+00 -0.45593999997E+02  0.45594000000E+02  0.51100000000E-03 0.  1.
    9900012    2    1    2    0    0 -0.11707506731E+02  0.32558124406E+02 -0.28844693176E+02  0.46142317598E+02  0.99999985084E+01 0.  0.
         12    1    1    2    0    0  0.11707506731E+02 -0.32558124406E+02  0.28844693176E+02  0.45045682402E+02  0.00000000000E+00 0. -1.
         11    1    3    3    0    0 -0.52942314539E+01  0.13332122151E+02 -0.11202223517E+02  0.18200664266E+02  0.51100000000E-03 0.  1.
        -11    1    3    3    0    0 -0.32748849953E+01  0.14599344896E+01 -0.35852720387E+01  0.50705479289E+01  0.51100000000E-03 0. -1.
         12    1    3    3    0    0 -0.31383902817E+01  0.17766067766E+02 -0.14057197620E+02  0.22871105403E+02  0.00000000000E+00 0. -1.
</event>
<event>
 7    1  0.8398055E-009  0.4614231E+02  0.7816164E-02  0.1320468E+00
        -11   -1    0    0    0    0  0.00000000000E+00  0.00000000000E+00  0.45593999997E+02  0.45594000000E+02  0.51100000000E-03 0. -1.
         11   -1    0    0    0    0 -0.00000000000E+00 -0.00000000000E+00 -0.45593999997E+02  0.45594000000E+02  0.51100000000E-03 0.  1.
    9900012    2    1    2    0    0  0.20719983132E+02  0.15014843987E+02  0.37072235440E+02  0.46142313398E+02  0.99999602124E+01 0.  0.
        -12    1    1    2    0    0 -0.20719983132E+02 -0.15014843987E+02 -0.37072235440E+02  0.45045686602E+02  0.00000000000E+00 0.  1.
         11    1    3    3    0    0  0.93007165112E+01  0.99397749227E+01  0.17852723751E+02  0.22450438720E+02  0.51100000000E-03 0. -1.
        -11    1    3    3    0    0  0.24496375837E+01  0.13408662545E+01  0.96834794663E+01  0.10078115967E+02  0.51100000000E-03 0.  1.
         12    1    3    3    0    0  0.89696290372E+01  0.37342028096E+01  0.95360322223E+01  0.13613758711E+02  0.00000000000E+00 0. -1.
</event>
<event>
 7    1  0.1356065E-008  0.4614232E+02  0.7816164E-02  0.1320468E+00
        -11   -1    0    0    0    0  0.00000000000E+00  0.00000000000E+00  0.45593999997E+02  0.45594000000E+02  0.51100000000E-03 0. -1.
         11   -1    0    0    0    0 -0.00000000000E+00 -0.00000000000E+00 -0.45593999997E+02  0.45594000000E+02  0.51100000000E-03 0.  1.
    9900012    2    1    2    0    0 -0.19257719078E+02 -0.99289838466E+01 -0.39492641724E+02  0.46142320799E+02  0.10000027701E+02 0.  0.
         12    1    1    2    0    0  0.19257719078E+02  0.99289838466E+01  0.39492641724E+02  0.45045679201E+02  0.00000000000E+00 0. -1.
         11    1    3    3    0    0 -0.11359950788E+02 -0.78473883560E+01 -0.23864205166E+02  0.27570460177E+02  0.51100000000E-03 0. -1.
        -11    1    3    3    0    0 -0.48311918999E+01 -0.33722151386E+01 -0.13192540989E+02  0.14448369740E+02  0.51100000000E-03 0.  1.
         12    1    3    3    0    0 -0.30665763904E+01  0.12906196479E+01 -0.24358955691E+01  0.41234908824E+01  0.00000000000E+00 0. -1.
</event>
<event>
 7    1  0.8398055E-009  0.4614232E+02  0.7816164E-02  0.1320468E+00
        -11   -1    0    0    0    0  0.00000000000E+00  0.00000000000E+00  0.45593999997E+02  0.45594000000E+02  0.51100000000E-03 0. -1.
         11   -1    0    0    0    0 -0.00000000000E+00 -0.00000000000E+00 -0.45593999997E+02  0.45594000000E+02  0.51100000000E-03 0.  1.
    9900012    2    1    2    0    0  0.28401434182E+02 -0.47328558700E+00 -0.34960666806E+02  0.46142315563E+02  0.99999799593E+01 0.  0.
         12    1    1    2    0    0 -0.28401434182E+02  0.47328558700E+00  0.34960666806E+02  0.45045684437E+02  0.00000000000E+00 0. -1.
         11    1    3    3    0    0  0.63505683979E+01 -0.22635085632E+01 -0.10126578093E+02  0.12165556877E+02  0.51100000000E-03 0. -1.
        -11    1    3    3    0    0  0.11718566054E+02  0.43358898067E+01 -0.14539128086E+02  0.19170575800E+02  0.51100000000E-03 0.  1.
         12    1    3    3    0    0  0.10332299730E+02 -0.25456668306E+01 -0.10294960627E+02  0.14806182886E+02  0.00000000000E+00 0. -1.
</event>
<event>
 7    1  0.8398055E-009  0.4614232E+02  0.7816164E-02  0.1320468E+00
        -11   -1    0    0    0    0  0.00000000000E+00  0.00000000000E+00  0.45593999997E+02  0.45594000000E+02  0.51100000000E-03 0. -1.
         11   -1    0    0    0    0 -0.00000000000E+00 -0.00000000000E+00 -0.45593999997E+02  0.45594000000E+02  0.51100000000E-03 0.  1.
    9900012    2    1    2    0    0 -0.11260907275E+02  0.47214918467E+01 -0.43359114537E+02  0.46142319504E+02  0.10000015894E+02 0.  0.
         12    1    1    2    0    0  0.11260907275E+02 -0.47214918467E+01  0.43359114537E+02  0.45045680496E+02  0.00000000000E+00 0. -1.
         11    1    3    3    0    0 -0.32866545097E+01 -0.75730465783E+00 -0.14441158533E+02  0.14829789892E+02  0.51100000000E-03 0. -1.
        -11    1    3    3    0    0 -0.53535153759E+01  0.59762832209E+01 -0.26582869360E+02  0.27767337497E+02  0.51100000000E-03 0.  1.
        -12    1    3    3    0    0 -0.26207373890E+01 -0.49748671639E+00 -0.23350866446E+01  0.35451921151E+01  0.00000000000E+00 0.  1.
</event>
<event>
 7    1  0.8398055E-009  0.4614232E+02  0.7816164E-02  0.1320468E+00
        -11   -1    0    0    0    0  0.00000000000E+00  0.00000000000E+00  0.45593999997E+02  0.45594000000E+02  0.51100000000E-03 0. -1.
         11   -1    0    0    0    0 -0.00000000000E+00 -0.00000000000E+00 -0.45593999997E+02  0.45594000000E+02  0.51100000000E-03 0.  1.
    9900012    2    1    2    0    0  0.23674741574E+02  0.14008309820E+01  0.38296968287E+02  0.46142317676E+02  0.99999992269E+01 0.  0.
        -12    1    1    2    0    0 -0.23674741574E+02 -0.14008309820E+01 -0.38296968287E+02  0.45045682324E+02  0.00000000000E+00 0.  1.
         11    1    3    3    0    0  0.48409031173E+01 -0.12217428307E+01  0.51568315894E+01  0.71777371669E+01  0.51100000000E-03 0. -1.
        -11    1    3    3    0    0  0.15754861742E+02  0.44030032009E+00  0.21033752423E+02  0.26283612273E+02  0.51100000000E-03 0.  1.
        -12    1    3    3    0    0  0.30789767153E+01  0.21822734926E+01  0.12106384274E+02  0.12680968236E+02  0.00000000000E+00 0.  1.
</event>
<event>
 7    1  0.8398055E-009  0.4614232E+02  0.7816164E-02  0.1320468E+00
        -11   -1    0    0    0    0  0.00000000000E+00  0.00000000000E+00  0.45593999997E+02  0.45594000000E+02  0.51100000000E-03 0. -1.
         11   -1    0    0    0    0 -0.00000000000E+00 -0.00000000000E+00 -0.45593999997E+02  0.45594000000E+02  0.51100000000E-03 0.  1.
    9900012    2    1    2    0    0 -0.44496870443E+01  0.67751257611E+01  0.44310399645E+02  0.46142316959E+02  0.99999926890E+01 0.  0.
        -12    1    1    2    0    0  0.44496870443E+01 -0.67751257611E+01 -0.44310399645E+02  0.45045683041E+02  0.00000000000E+00 0.  1.
         11    1    3    3    0    0 -0.64981891666E+01  0.42054014743E+01  0.27822351121E+02  0.28878973080E+02  0.51100000000E-03 0. -1.
        -11    1    3    3    0    0 -0.67936173017E+00 -0.52597506277E+00  0.16243079417E+01  0.18375414764E+01  0.51100000000E-03 0.  1.
        -12    1    3    3    0    0  0.27278638525E+01  0.30956993495E+01  0.14863740583E+02  0.15425802403E+02  0.00000000000E+00 0.  1.
</event>
<event>
 7    1  0.8398055E-009  0.4614232E+02  0.7816164E-02  0.1320468E+00
        -11   -1    0    0    0    0  0.00000000000E+00  0.00000000000E+00  0.45593999997E+02  0.45594000000E+02  0.51100000000E-03 0. -1.
         11   -1    0    0    0    0 -0.00000000000E+00 -0.00000000000E+00 -0.45593999997E+02  0.45594000000E+02  0.51100000000E-03 0.  1.
    9900012    2    1    2    0    0  0.14220958816E+02 -0.31143475752E+02  0.29273910431E+02  0.46142316705E+02  0.99999903700E+01 0.  0.
        -12    1    1    2    0    0 -0.14220958816E+02  0.31143475752E+02 -0.29273910431E+02  0.45045683295E+02  0.00000000000E+00 0.  1.
         11    1    3    3    0    0  0.43112994117E+01 -0.33729227985E+01  0.59246029501E+01  0.80662774065E+01  0.51100000000E-03 0. -1.
        -11    1    3    3    0    0 -0.10423584384E+00 -0.40927146612E+01  0.15779362495E+01  0.43876031586E+01  0.51100000000E-03 0.  1.
         12    1    3    3    0    0  0.10013895249E+02 -0.23677838292E+02  0.21771371232E+02  0.33688436140E+02  0.00000000000E+00 0. -1.
</event>
<event>
 7    1  0.8398055E-009  0.4614232E+02  0.7816164E-02  0.1320468E+00
        -11   -1    0    0    0    0  0.00000000000E+00  0.00000000000E+00  0.45593999997E+02  0.45594000000E+02  0.51100000000E-03 0. -1.
         11   -1    0    0    0    0 -0.00000000000E+00 -0.00000000000E+00 -0.45593999997E+02  0.45594000000E+02  0.51100000000E-03 0.  1.
    9900012    2    1    2    0    0 -0.12363116759E+02  0.16696189002E+02  0.39968789601E+02  0.46142317350E+02  0.99999962551E+01 0.  0.
        -12    1    1    2    0    0  0.12363116759E+02 -0.16696189002E+02 -0.39968789601E+02  0.45045682650E+02  0.00000000000E+00 0.  1.
         11    1    3    3    0    0 -0.34336381184E+01  0.46650467819E+01  0.13200938923E+02  0.14415870453E+02  0.51100000000E-03 0. -1.
        -11    1    3    3    0    0 -0.58608716013E+00 -0.12300241443E+01  0.20582846549E+01  0.24683989825E+01  0.51100000000E-03 0.  1.
        -12    1    3    3    0    0 -0.83433914810E+01  0.13261166365E+02  0.24709566023E+02  0.29258047915E+02  0.00000000000E+00 0.  1.
</event>
<event>
 7    1  0.8398055E-009  0.4614232E+02  0.7816164E-02  0.1320468E+00
        -11   -1    0    0    0    0  0.00000000000E+00  0.00000000000E+00  0.45593999997E+02  0.45594000000E+02  0.51100000000E-03 0.  1.
         11   -1    0    0    0    0 -0.00000000000E+00 -0.00000000000E+00 -0.45593999997E+02  0.45594000000E+02  0.51100000000E-03 0. -1.
    9900012    2    1    2    0    0  0.42670689285E+02 -0.14395161406E+02 -0.10512214012E+01  0.46142318049E+02  0.10000002625E+02 0.  0.
         12    1    1    2    0    0 -0.42670689285E+02  0.14395161406E+02  0.10512214012E+01  0.45045681951E+02  0.00000000000E+00 0. -1.
         11    1    3    3    0    0  0.21459069610E+02 -0.52808655979E+01 -0.39902547766E+01  0.22456654769E+02  0.51100000000E-03 0. -1.
        -11    1    3    3    0    0  0.14632210925E+02 -0.49112459265E+01  0.36054298393E+01  0.15849954502E+02  0.51100000000E-03 0.  1.
        -12    1    3    3    0    0  0.65794087505E+01 -0.42030498815E+01 -0.66639646399E+00  0.78357087784E+01  0.00000000000E+00 0.  1.
</event>
<event>
 7    1  0.8398055E-009  0.4614232E+02  0.7816164E-02  0.1320468E+00
        -11   -1    0    0    0    0  0.00000000000E+00  0.00000000000E+00  0.45593999997E+02  0.45594000000E+02  0.51100000000E-03 0. -1.
         11   -1    0    0    0    0 -0.00000000000E+00 -0.00000000000E+00 -0.45593999997E+02  0.45594000000E+02  0.51100000000E-03 0.  1.
    9900012    2    1    2    0    0 -0.30141117978E+02 -0.21183402654E+02 -0.25920840015E+02  0.46142317765E+02  0.10000000034E+02 0.  0.
         12    1    1    2    0    0  0.30141117978E+02  0.21183402654E+02  0.25920840015E+02  0.45045682235E+02  0.00000000000E+00 0. -1.
         11    1    3    3    0    0 -0.13450083247E+02 -0.69219273332E+01 -0.11850687240E+02  0.19216050731E+02  0.51100000000E-03 0. -1.
        -11    1    3    3    0    0 -0.13495650681E+02 -0.92320214512E+01 -0.72983399308E+01  0.17906104361E+02  0.51100000000E-03 0.  1.
         12    1    3    3    0    0 -0.31953840491E+01 -0.50294538693E+01 -0.67718128446E+01  0.90201626730E+01  0.00000000000E+00 0. -1.
</event>
<event>
 7    1  0.8398055E-009  0.4614232E+02  0.7816164E-02  0.1320468E+00
        -11   -1    0    0    0    0  0.00000000000E+00  0.00000000000E+00  0.45593999997E+02  0.45594000000E+02  0.51100000000E-03 0. -1.
         11   -1    0    0    0    0 -0.00000000000E+00 -0.00000000000E+00 -0.45593999997E+02  0.45594000000E+02  0.51100000000E-03 0.  1.
    9900012    2    1    2    0    0 -0.81768003764E+01 -0.17043364086E+02  0.40887367265E+02  0.46142321788E+02  0.10000036717E+02 0.  0.
        -12    1    1    2    0    0  0.81768003764E+01  0.17043364086E+02 -0.40887367265E+02  0.45045678212E+02  0.00000000000E+00 0.  1.
         11    1    3    3    0    0 -0.85966203420E+01 -0.16278225358E+02  0.36888098443E+02  0.41226378802E+02  0.51100000000E-03 0. -1.
        -11    1    3    3    0    0 -0.89178163826E+00  0.38478651713E+00  0.22254519265E+01  0.24281622047E+01  0.51100000000E-03 0.  1.
         12    1    3    3    0    0  0.13116016039E+01 -0.11499252454E+01  0.17738168951E+01  0.24877807810E+01  0.00000000000E+00 0. -1.
</event>
<event>
 7    1  0.8398055E-009  0.4614232E+02  0.7816164E-02  0.1320468E+00
        -11   -1    0    0    0    0  0.00000000000E+00  0.00000000000E+00  0.45593999997E+02  0.45594000000E+02  0.51100000000E-03 0. -1.
         11   -1    0    0    0    0 -0.00000000000E+00 -0.00000000000E+00 -0.45593999997E+02  0.45594000000E+02  0.51100000000E-03 0.  1.
    9900012    2    1    2    0    0  0.72479574916E+01  0.10850480851E+01  0.44445508904E+02  0.46142317867E+02  0.10000000961E+02 0.  0.
        -12    1    1    2    0    0 -0.72479574916E+01 -0.10850480851E+01 -0.44445508904E+02  0.45045682133E+02  0.00000000000E+00 0.  1.
         11    1    3    3    0    0  0.62786789375E+01  0.47352046867E+01  0.28047388547E+02  0.29129022936E+02  0.51100000000E-03 0. -1.
        -11    1    3    3    0    0  0.18063061049E+01 -0.26094755812E+01  0.12311902494E+02  0.12714363839E+02  0.51100000000E-03 0.  1.
        -12    1    3    3    0    0 -0.83702755082E+00 -0.10406810204E+01  0.40862178628E+01  0.42989310915E+01  0.00000000000E+00 0.  1.
</event>
<event>
 7    1  0.8398055E-009  0.4614232E+02  0.7816164E-02  0.1320468E+00
        -11   -1    0    0    0    0  0.00000000000E+00  0.00000000000E+00  0.45593999997E+02  0.45594000000E+02  0.51100000000E-03 0. -1.
         11   -1    0    0    0    0 -0.00000000000E+00 -0.00000000000E+00 -0.45593999997E+02  0.45594000000E+02  0.51100000000E-03 0.  1.
    9900012    2    1    2    0    0 -0.39105129810E+02 -0.16345346619E+02  0.15255554510E+02  0.46142317887E+02  0.10000001151E+02 0.  0.
        -12    1    1    2    0    0  0.39105129810E+02  0.16345346619E+02 -0.15255554510E+02  0.45045682113E+02  0.00000000000E+00 0.  1.
         11    1    3    3    0    0 -0.21162892357E+01 -0.29307925914E+01  0.65721419827E+00  0.36742558575E+01  0.51100000000E-03 0. -1.
        -11    1    3    3    0    0 -0.16707949485E+02 -0.76476558473E+01  0.98757126856E+01  0.20860774608E+02  0.51100000000E-03 0.  1.
        -12    1    3    3    0    0 -0.20280891089E+02 -0.57668981808E+01  0.47226276264E+01  0.21607287421E+02  0.00000000000E+00 0.  1.
</event>
<event>
 7    1  0.8398055E-009  0.4614232E+02  0.7816164E-02  0.1320468E+00
        -11   -1    0    0    0    0  0.00000000000E+00  0.00000000000E+00  0.45593999997E+02  0.45594000000E+02  0.51100000000E-03 0. -1.
         11   -1    0    0    0    0 -0.00000000000E+00 -0.00000000000E+00 -0.45593999997E+02  0.45594000000E+02  0.51100000000E-03 0.  1.
    9900012    2    1    2    0    0 -0.44046131180E+01  0.11631140414E+02 -0.43294681255E+02  0.46142317976E+02  0.10000001961E+02 0.  0.
         12    1    1    2    0    0  0.44046131180E+01 -0.11631140414E+02  0.43294681255E+02  0.45045682024E+02  0.00000000000E+00 0. -1.
         11    1    3    3    0    0 -0.19895810718E+01  0.13242271922E+01 -0.74957171601E+01  0.78675146332E+01  0.51100000000E-03 0. -1.
        -11    1    3    3    0    0 -0.28340895578E+00  0.10783013018E+02 -0.33038302333E+02  0.34754612811E+02  0.51100000000E-03 0.  1.
        -12    1    3    3    0    0 -0.21316230904E+01 -0.47609979628E+00 -0.27606617619E+01  0.35201905317E+01  0.00000000000E+00 0.  1.
</event>
<event>
 7    1  0.8398055E-009  0.4614232E+02  0.7816164E-02  0.1320468E+00
        -11   -1    0    0    0    0  0.00000000000E+00  0.00000000000E+00  0.45593999997E+02  0.45594000000E+02  0.51100000000E-03 0. -1.
         11   -1    0    0    0    0 -0.00000000000E+00 -0.00000000000E+00 -0.45593999997E+02  0.45594000000E+02  0.51100000000E-03 0.  1.
    9900012    2    1    2    0    0 -0.15493415677E+02 -0.36331275743E+02  0.21658853087E+02  0.46142318260E+02  0.10000004546E+02 0.  0.
        -12    1    1    2    0    0  0.15493415677E+02  0.36331275743E+02 -0.21658853087E+02  0.45045681740E+02  0.00000000000E+00 0.  1.
         11    1    3    3    0    0 -0.95846175898E+01 -0.18866050179E+02  0.97589170274E+01  0.23302987051E+02  0.51100000000E-03 0. -1.
        -11    1    3    3    0    0 -0.68925568070E+01 -0.11432589358E+02  0.75444968908E+01  0.15333977708E+02  0.51100000000E-03 0.  1.
        -12    1    3    3    0    0  0.98375872002E+00 -0.60326362056E+01  0.43554391684E+01  0.75053534998E+01  0.00000000000E+00 0.  1.
</event>
<event>
 7    1  0.8398055E-009  0.4614232E+02  0.7816164E-02  0.1320468E+00
        -11   -1    0    0    0    0  0.00000000000E+00  0.00000000000E+00  0.45593999997E+02  0.45594000000E+02  0.51100000000E-03 0. -1.
         11   -1    0    0    0    0 -0.00000000000E+00 -0.00000000000E+00 -0.45593999997E+02  0.45594000000E+02  0.51100000000E-03 0.  1.
    9900012    2    1    2    0    0 -0.36953250908E+02  0.18115705495E+02 -0.18313709324E+02  0.46142317771E+02  0.10000000089E+02 0.  0.
         12    1    1    2    0    0  0.36953250908E+02 -0.18115705495E+02  0.18313709324E+02  0.45045682229E+02  0.00000000000E+00 0. -1.
         11    1    3    3    0    0 -0.75905222019E+01  0.28115847470E+00 -0.16366746028E+01  0.77700567181E+01  0.51100000000E-03 0. -1.
        -11    1    3    3    0    0 -0.12328642373E+02  0.53874842147E+01 -0.61123636667E+01  0.14777733209E+02  0.51100000000E-03 0.  1.
        -12    1    3    3    0    0 -0.17034086333E+02  0.12447062806E+02 -0.10564671054E+02  0.23594527844E+02  0.00000000000E+00 0.  1.
</event>
<event>
 7    1  0.8398055E-009  0.4614232E+02  0.7816164E-02  0.1320468E+00
        -11   -1    0    0    0    0  0.00000000000E+00  0.00000000000E+00  0.45593999997E+02  0.45594000000E+02  0.51100000000E-03 0. -1.
         11   -1    0    0    0    0 -0.00000000000E+00 -0.00000000000E+00 -0.45593999997E+02  0.45594000000E+02  0.51100000000E-03 0.  1.
    9900012    2    1    2    0    0  0.12639530596E+02  0.50431976402E+01 -0.42940912486E+02  0.46142317174E+02  0.99999946449E+01 0.  0.
         12    1    1    2    0    0 -0.12639530596E+02 -0.50431976402E+01  0.42940912486E+02  0.45045682826E+02  0.00000000000E+00 0. -1.
         11    1    3    3    0    0  0.26405897539E+01  0.28534981559E+00 -0.63635229659E+01  0.68955466472E+01  0.51100000000E-03 0.  1.
        -11    1    3    3    0    0  0.24619841930E+01 -0.26722781839E+01 -0.87266582405E+01  0.94528832197E+01  0.51100000000E-03 0. -1.
        -12    1    3    3    0    0  0.75369566494E+01  0.74301260085E+01 -0.27850731280E+02  0.29793887307E+02  0.00000000000E+00 0.  1.
</event>
<event>
 7    1  0.8398055E-009  0.4614232E+02  0.7816164E-02  0.1320468E+00
        -11   -1    0    0    0    0  0.00000000000E+00  0.00000000000E+00  0.45593999997E+02  0.45594000000E+02  0.51100000000E-03 0. -1.
         11   -1    0    0    0    0 -0.00000000000E+00 -0.00000000000E+00 -0.45593999997E+02  0.45594000000E+02  0.51100000000E-03 0.  1.
    9900012    2    1    2    0    0 -0.28987569455E+02  0.22235526161E+02  0.26351768305E+02  0.46142317639E+02  0.99999988865E+01 0.  0.
        -12    1    1    2    0    0  0.28987569455E+02 -0.22235526161E+02 -0.26351768305E+02  0.45045682361E+02  0.00000000000E+00 0.  1.
         11    1    3    3    0    0 -0.60726741904E+01  0.48443946438E+01  0.21627163919E+01  0.80636761927E+01  0.51100000000E-03 0. -1.
        -11    1    3    3    0    0 -0.19362092428E+02  0.16163878359E+02  0.18581472960E+02  0.31327826678E+02  0.51100000000E-03 0.  1.
        -12    1    3    3    0    0 -0.35528028365E+01  0.12272531588E+01  0.56075789536E+01  0.67508147680E+01  0.00000000000E+00 0.  1.
</event>
<event>
 7    1  0.8398055E-009  0.4614232E+02  0.7816164E-02  0.1320468E+00
        -11   -1    0    0    0    0  0.00000000000E+00  0.00000000000E+00  0.45593999997E+02  0.45594000000E+02  0.51100000000E-03 0. -1.
         11   -1    0    0    0    0 -0.00000000000E+00 -0.00000000000E+00 -0.45593999997E+02  0.45594000000E+02  0.51100000000E-03 0.  1.
    9900012    2    1    2    0    0  0.38762371601E+01  0.30858901153E+02  0.32585525446E+02  0.46142318037E+02  0.10000002519E+02 0.  0.
        -12    1    1    2    0    0 -0.38762371601E+01 -0.30858901153E+02 -0.32585525446E+02  0.45045681963E+02  0.00000000000E+00 0.  1.
         11    1    3    3    0    0  0.16114675266E+01  0.62228255984E+01  0.71222666414E+01  0.95941163423E+01  0.51100000000E-03 0. -1.
        -11    1    3    3    0    0  0.73403877567E+00  0.11103797806E+02  0.55812406725E+01  0.12449232360E+02  0.51100000000E-03 0.  1.
         12    1    3    3    0    0  0.15307308578E+01  0.13532277749E+02  0.19882018132E+02  0.24098969336E+02  0.00000000000E+00 0. -1.
</event>
<event>
 7    1  0.8398055E-009  0.4614233E+02  0.7816164E-02  0.1320468E+00
        -11   -1    0    0    0    0  0.00000000000E+00  0.00000000000E+00  0.45593999997E+02  0.45594000000E+02  0.51100000000E-03 0. -1.
         11   -1    0    0    0    0 -0.00000000000E+00 -0.00000000000E+00 -0.45593999997E+02  0.45594000000E+02  0.51100000000E-03 0.  1.
    9900012    2    1    2    0    0 -0.86154883037E+01 -0.35426979609E+02 -0.26454016067E+02  0.46142328853E+02  0.10000101148E+02 0.  0.
         12    1    1    2    0    0  0.86154883037E+01  0.35426979609E+02  0.26454016067E+02  0.45045671147E+02  0.00000000000E+00 0. -1.
         11    1    3    3    0    0 -0.29693005780E+00 -0.89468314586E+01 -0.43441991455E+01  0.99501772389E+01  0.51100000000E-03 0. -1.
        -11    1    3    3    0    0 -0.63104969061E+01 -0.20353673552E+02 -0.12768799558E+02  0.24842235018E+02  0.51100000000E-03 0.  1.
         12    1    3    3    0    0 -0.20080613398E+01 -0.61264745982E+01 -0.93410173644E+01  0.11349916597E+02  0.00000000000E+00 0. -1.
</event>
<event>
 7    1  0.8398055E-009  0.4614232E+02  0.7816164E-02  0.1320468E+00
        -11   -1    0    0    0    0  0.00000000000E+00  0.00000000000E+00  0.45593999997E+02  0.45594000000E+02  0.51100000000E-03 0. -1.
         11   -1    0    0    0    0 -0.00000000000E+00 -0.00000000000E+00 -0.45593999997E+02  0.45594000000E+02  0.51100000000E-03 0.  1.
    9900012    2    1    2    0    0  0.78555798452E+01 -0.29918471502E+02  0.32745815805E+02  0.46142317361E+02  0.99999963492E+01 0.  0.
        -12    1    1    2    0    0 -0.78555798452E+01  0.29918471502E+02 -0.32745815805E+02  0.45045682639E+02  0.00000000000E+00 0.  1.
         11    1    3    3    0    0  0.12337251843E+01 -0.95696192117E+01  0.68374207185E+01  0.11825819719E+02  0.51100000000E-03 0. -1.
        -11    1    3    3    0    0  0.22171334893E+01 -0.83822811381E+00  0.40115901658E+01  0.46595239241E+01  0.51100000000E-03 0.  1.
         12    1    3    3    0    0  0.44047211715E+01 -0.19510624177E+02  0.21896804920E+02  0.29656973717E+02  0.00000000000E+00 0. -1.
</event>
<event>
 7    1  0.1162235E-008  0.4614232E+02  0.7816164E-02  0.1320468E+00
        -11   -1    0    0    0    0  0.00000000000E+00  0.00000000000E+00  0.45593999997E+02  0.45594000000E+02  0.51100000000E-03 0. -1.
         11   -1    0    0    0    0 -0.00000000000E+00 -0.00000000000E+00 -0.45593999997E+02  0.45594000000E+02  0.51100000000E-03 0.  1.
    9900012    2    1    2    0    0  0.10600849690E+01  0.66103974771E+01 -0.44545396551E+02  0.46142317756E+02  0.99999999508E+01 0.  0.
         12    1    1    2    0    0 -0.10600849690E+01 -0.66103974771E+01  0.44545396551E+02  0.45045682244E+02  0.00000000000E+00 0. -1.
         11    1    3    3    0    0 -0.13659747431E+01 -0.65158636220E+00 -0.16435772115E+01  0.22342332237E+01  0.51100000000E-03 0. -1.
        -11    1    3    3    0    0  0.92844538968E+00 -0.75123167413E+00 -0.55350081000E+01  0.56623912615E+01  0.51100000000E-03 0.  1.
        -12    1    3    3    0    0  0.14976143225E+01  0.80132155134E+01 -0.37366811240E+02  0.38245693271E+02  0.00000000000E+00 0.  1.
</event>
<event>
 7    1  0.8398055E-009  0.4614232E+02  0.7816164E-02  0.1320468E+00
        -11   -1    0    0    0    0  0.00000000000E+00  0.00000000000E+00  0.45593999997E+02  0.45594000000E+02  0.51100000000E-03 0.  1.
         11   -1    0    0    0    0 -0.00000000000E+00 -0.00000000000E+00 -0.45593999997E+02  0.45594000000E+02  0.51100000000E-03 0. -1.
    9900012    2    1    2    0    0  0.39512875583E+02  0.21439365544E+02  0.28635173861E+01  0.46142318036E+02  0.10000002509E+02 0.  0.
         12    1    1    2    0    0 -0.39512875583E+02 -0.21439365544E+02 -0.28635173861E+01  0.45045681964E+02  0.00000000000E+00 0. -1.
         11    1    3    3    0    0  0.14173838266E+02  0.76672951775E+01 -0.24935265386E+01  0.16306525730E+02  0.51100000000E-03 0.  1.
        -11    1    3    3    0    0  0.11031962731E+02  0.30132869592E+01  0.16412129662E+01  0.11553254098E+02  0.51100000000E-03 0. -1.
        -12    1    3    3    0    0  0.14307074586E+02  0.10758783407E+02  0.37158309585E+01  0.18282538208E+02  0.00000000000E+00 0.  1.
</event>
<event>
 7    1  0.8398055E-009  0.4614232E+02  0.7816164E-02  0.1320468E+00
        -11   -1    0    0    0    0  0.00000000000E+00  0.00000000000E+00  0.45593999997E+02  0.45594000000E+02  0.51100000000E-03 0. -1.
         11   -1    0    0    0    0 -0.00000000000E+00 -0.00000000000E+00 -0.45593999997E+02  0.45594000000E+02  0.51100000000E-03 0.  1.
    9900012    2    1    2    0    0 -0.14865626281E+02  0.12273121651E+01 -0.42504356501E+02  0.46142318059E+02  0.10000002721E+02 0.  0.
         12    1    1    2    0    0  0.14865626281E+02 -0.12273121651E+01  0.42504356501E+02  0.45045681941E+02  0.00000000000E+00 0. -1.
         11    1    3    3    0    0 -0.37903087456E+01  0.34927705387E+01 -0.89336290579E+01  0.10313855478E+02  0.51100000000E-03 0.  1.
        -11    1    3    3    0    0 -0.62960601719E+00  0.92540413277E+00 -0.71822727409E+01  0.72689626860E+01  0.51100000000E-03 0. -1.
        -12    1    3    3    0    0 -0.10445711518E+02 -0.31908625064E+01 -0.26388454703E+02  0.28559499895E+02  0.00000000000E+00 0.  1.
</event>
<event>
 7    1  0.8398055E-009  0.4614232E+02  0.7816164E-02  0.1320468E+00
        -11   -1    0    0    0    0  0.00000000000E+00  0.00000000000E+00  0.45593999997E+02  0.45594000000E+02  0.51100000000E-03 0.  1.
         11   -1    0    0    0    0 -0.00000000000E+00 -0.00000000000E+00 -0.45593999997E+02  0.45594000000E+02  0.51100000000E-03 0. -1.
    9900012    2    1    2    0    0  0.27692914693E+02  0.34679969515E+02 -0.77146353746E+01  0.46142318645E+02  0.10000008059E+02 0.  0.
         12    1    1    2    0    0 -0.27692914693E+02 -0.34679969515E+02  0.77146353746E+01  0.45045681355E+02  0.00000000000E+00 0. -1.
         11    1    3    3    0    0  0.44665331723E+01  0.19729968755E+01  0.10326413179E+01  0.49908900611E+01  0.51100000000E-03 0. -1.
        -11    1    3    3    0    0  0.15199700197E+02  0.23604487175E+02 -0.61358570655E+01  0.28737631132E+02  0.51100000000E-03 0.  1.
         12    1    3    3    0    0  0.80266813240E+01  0.91024854644E+01 -0.26114196270E+01  0.12413797452E+02  0.00000000000E+00 0. -1.
</event>
<event>
 7    1  0.8398055E-009  0.4614232E+02  0.7816164E-02  0.1320468E+00
        -11   -1    0    0    0    0  0.00000000000E+00  0.00000000000E+00  0.45593999997E+02  0.45594000000E+02  0.51100000000E-03 0. -1.
         11   -1    0    0    0    0 -0.00000000000E+00 -0.00000000000E+00 -0.45593999997E+02  0.45594000000E+02  0.51100000000E-03 0.  1.
    9900012    2    1    2    0    0  0.25354977115E+02  0.32239361594E+02 -0.18624237929E+02  0.46142317200E+02  0.99999948873E+01 0.  0.
         12    1    1    2    0    0 -0.25354977115E+02 -0.32239361594E+02  0.18624237929E+02  0.45045682800E+02  0.00000000000E+00 0. -1.
         11    1    3    3    0    0 -0.11285412664E+00  0.16553083468E+01 -0.37989131617E+00  0.17020867927E+01  0.51100000000E-03 0. -1.
        -11    1    3    3    0    0  0.79883462023E+01  0.15479732204E+02 -0.76363370034E+01  0.19019711544E+02  0.51100000000E-03 0.  1.
        -12    1    3    3    0    0  0.17479485039E+02  0.15104321043E+02 -0.10608009609E+02  0.25420518863E+02  0.00000000000E+00 0.  1.
</event>
<event>
 7    1  0.8398055E-009  0.4614232E+02  0.7816164E-02  0.1320468E+00
        -11   -1    0    0    0    0  0.00000000000E+00  0.00000000000E+00  0.45593999997E+02  0.45594000000E+02  0.51100000000E-03 0. -1.
         11   -1    0    0    0    0 -0.00000000000E+00 -0.00000000000E+00 -0.45593999997E+02  0.45594000000E+02  0.51100000000E-03 0.  1.
    9900012    2    1    2    0    0  0.33401265313E+00  0.16322551791E+02  0.41983047431E+02  0.46142317266E+02  0.99999954850E+01 0.  0.
        -12    1    1    2    0    0 -0.33401265313E+00 -0.16322551791E+02 -0.41983047431E+02  0.45045682734E+02  0.00000000000E+00 0.  1.
         11    1    3    3    0    0  0.41431285753E+01  0.58358573127E+01  0.15926522683E+02  0.17460723639E+02  0.51100000000E-03 0. -1.
        -11    1    3    3    0    0 -0.47463201460E+01  0.77214099162E+01  0.20013849582E+02  0.21970477951E+02  0.51100000000E-03 0.  1.
        -12    1    3    3    0    0  0.93720422382E+00  0.27652845618E+01  0.60426751655E+01  0.67111156763E+01  0.00000000000E+00 0.  1.
</event>
<event>
 7    1  0.8398055E-009  0.4614232E+02  0.7816164E-02  0.1320468E+00
        -11   -1    0    0    0    0  0.00000000000E+00  0.00000000000E+00  0.45593999997E+02  0.45594000000E+02  0.51100000000E-03 0. -1.
         11   -1    0    0    0    0 -0.00000000000E+00 -0.00000000000E+00 -0.45593999997E+02  0.45594000000E+02  0.51100000000E-03 0.  1.
    9900012    2    1    2    0    0 -0.21552862637E+02 -0.27762545594E+02 -0.28174965093E+02  0.46142317813E+02  0.10000000472E+02 0.  0.
         12    1    1    2    0    0  0.21552862637E+02  0.27762545594E+02  0.28174965093E+02  0.45045682187E+02  0.00000000000E+00 0. -1.
         11    1    3    3    0    0 -0.11585110443E+01 -0.18950187513E+01 -0.38471459635E+01  0.44422715173E+01  0.51100000000E-03 0. -1.
        -11    1    3    3    0    0 -0.17189053556E+02 -0.19616038426E+02 -0.22488020179E+02  0.34437821905E+02  0.51100000000E-03 0.  1.
        -12    1    3    3    0    0 -0.32052980364E+01 -0.62514884165E+01 -0.18397989501E+01  0.72622243907E+01  0.00000000000E+00 0.  1.
</event>
<event>
 7    1  0.8398055E-009  0.4614232E+02  0.7816164E-02  0.1320468E+00
        -11   -1    0    0    0    0  0.00000000000E+00  0.00000000000E+00  0.45593999997E+02  0.45594000000E+02  0.51100000000E-03 0. -1.
         11   -1    0    0    0    0 -0.00000000000E+00 -0.00000000000E+00 -0.45593999997E+02  0.45594000000E+02  0.51100000000E-03 0.  1.
    9900012    2    1    2    0    0 -0.33555386449E+02  0.21281008170E+02 -0.21219523768E+02  0.46142318104E+02  0.10000003130E+02 0.  0.
         12    1    1    2    0    0  0.33555386449E+02 -0.21281008170E+02  0.21219523768E+02  0.45045681896E+02  0.00000000000E+00 0. -1.
         11    1    3    3    0    0 -0.15964870461E+02  0.10036571894E+02 -0.14744419905E+02  0.23937580972E+02  0.51100000000E-03 0. -1.
        -11    1    3    3    0    0 -0.11320016350E+02  0.92069258016E+01 -0.51932221836E+01  0.15488053777E+02  0.51100000000E-03 0.  1.
         12    1    3    3    0    0 -0.62704996388E+01  0.20375104744E+01 -0.12818816790E+01  0.67166833551E+01  0.00000000000E+00 0. -1.
</event>
<event>
 7    1  0.8398055E-009  0.4614232E+02  0.7816164E-02  0.1320468E+00
        -11   -1    0    0    0    0  0.00000000000E+00  0.00000000000E+00  0.45593999997E+02  0.45594000000E+02  0.51100000000E-03 0. -1.
         11   -1    0    0    0    0 -0.00000000000E+00 -0.00000000000E+00 -0.45593999997E+02  0.45594000000E+02  0.51100000000E-03 0.  1.
    9900012    2    1    2    0    0 -0.66374838443E+01  0.37882661967E+02  0.23451250312E+02  0.46142318624E+02  0.10000007865E+02 0.  0.
        -12    1    1    2    0    0  0.66374838443E+01 -0.37882661967E+02 -0.23451250312E+02  0.45045681376E+02  0.00000000000E+00 0.  1.
         11    1    3    3    0    0 -0.46312913514E+00  0.13683571374E+02  0.66192786052E+01  0.15207546273E+02  0.51100000000E-03 0. -1.
        -11    1    3    3    0    0 -0.59660004146E+01  0.13126403514E+02  0.66015761487E+01  0.15858008642E+02  0.51100000000E-03 0.  1.
        -12    1    3    3    0    0 -0.20835429457E+00  0.11072687078E+02  0.10230395558E+02  0.15076763709E+02  0.00000000000E+00 0.  1.
</event>
<event>
 7    1  0.8398055E-009  0.4614232E+02  0.7816164E-02  0.1320468E+00
        -11   -1    0    0    0    0  0.00000000000E+00  0.00000000000E+00  0.45593999997E+02  0.45594000000E+02  0.51100000000E-03 0. -1.
         11   -1    0    0    0    0 -0.00000000000E+00 -0.00000000000E+00 -0.45593999997E+02  0.45594000000E+02  0.51100000000E-03 0.  1.
    9900012    2    1    2    0    0 -0.15898714107E+02  0.23515629292E+02 -0.34976557713E+02  0.46142317402E+02  0.99999967264E+01 0.  0.
         12    1    1    2    0    0  0.15898714107E+02 -0.23515629292E+02  0.34976557713E+02  0.45045682598E+02  0.00000000000E+00 0. -1.
         11    1    3    3    0    0 -0.11739755598E+01  0.21480596062E+01 -0.62496776681E+01  0.67119929904E+01  0.51100000000E-03 0. -1.
        -11    1    3    3    0    0 -0.77702717799E+01  0.14203338495E+02 -0.12826728304E+02  0.20655190805E+02  0.51100000000E-03 0.  1.
        -12    1    3    3    0    0 -0.69544667673E+01  0.71642311910E+01 -0.15900151741E+02  0.18775133607E+02  0.00000000000E+00 0.  1.
</event>
<event>
 7    1  0.8398055E-009  0.4614232E+02  0.7816164E-02  0.1320468E+00
        -11   -1    0    0    0    0  0.00000000000E+00  0.00000000000E+00  0.45593999997E+02  0.45594000000E+02  0.51100000000E-03 0. -1.
         11   -1    0    0    0    0 -0.00000000000E+00 -0.00000000000E+00 -0.45593999997E+02  0.45594000000E+02  0.51100000000E-03 0.  1.
    9900012    2    1    2    0    0  0.35092808486E+02 -0.24225702434E+02 -0.14516304132E+02  0.46142323720E+02  0.10000054339E+02 0.  0.
         12    1    1    2    0    0 -0.35092808486E+02  0.24225702434E+02  0.14516304132E+02  0.45045676280E+02  0.00000000000E+00 0. -1.
         11    1    3    3    0    0  0.29801188966E+02 -0.15561775660E+02 -0.10907388148E+02  0.35344742776E+02  0.51100000000E-03 0.  1.
        -11    1    3    3    0    0  0.19133965218E+01 -0.33349955416E+01 -0.17142201066E+01  0.42097306740E+01  0.51100000000E-03 0. -1.
        -12    1    3    3    0    0  0.33782229984E+01 -0.53289312324E+01 -0.18946958776E+01  0.65878502696E+01  0.00000000000E+00 0.  1.
</event>
<event>
 7    1  0.8398055E-009  0.4614232E+02  0.7816164E-02  0.1320468E+00
        -11   -1    0    0    0    0  0.00000000000E+00  0.00000000000E+00  0.45593999997E+02  0.45594000000E+02  0.51100000000E-03 0. -1.
         11   -1    0    0    0    0 -0.00000000000E+00 -0.00000000000E+00 -0.45593999997E+02  0.45594000000E+02  0.51100000000E-03 0.  1.
    9900012    2    1    2    0    0  0.18597506892E+02  0.17734702554E+02  0.36996301685E+02  0.46142320122E+02  0.10000021531E+02 0.  0.
        -12    1    1    2    0    0 -0.18597506892E+02 -0.17734702554E+02 -0.36996301685E+02  0.45045679878E+02  0.00000000000E+00 0.  1.
         11    1    3    3    0    0  0.56418038264E+01  0.37392537031E+01  0.38078718140E+01  0.77660708652E+01  0.51100000000E-03 0.  1.
        -11    1    3    3    0    0  0.21981029275E+01  0.10493403086E+01  0.42475836588E+01  0.48964005925E+01  0.51100000000E-03 0. -1.
         12    1    3    3    0    0  0.10757600138E+02  0.12946108542E+02  0.28940846212E+02  0.33479848665E+02  0.00000000000E+00 0. -1.
</event>
<event>
 7    1  0.8398055E-009  0.4614232E+02  0.7816164E-02  0.1320468E+00
        -11   -1    0    0    0    0  0.00000000000E+00  0.00000000000E+00  0.45593999997E+02  0.45594000000E+02  0.51100000000E-03 0. -1.
         11   -1    0    0    0    0 -0.00000000000E+00 -0.00000000000E+00 -0.45593999997E+02  0.45594000000E+02  0.51100000000E-03 0.  1.
    9900012    2    1    2    0    0  0.36462715703E+02  0.12796154081E+02  0.23148267529E+02  0.46142317795E+02  0.10000000313E+02 0.  0.
        -12    1    1    2    0    0 -0.36462715703E+02 -0.12796154081E+02 -0.23148267529E+02  0.45045682205E+02  0.00000000000E+00 0.  1.
         11    1    3    3    0    0  0.16158518857E+02  0.37956914588E+01  0.13618481911E+02  0.21470166630E+02  0.51100000000E-03 0. -1.
        -11    1    3    3    0    0  0.16782900572E+02  0.53622637620E+01  0.82221175557E+01  0.19442809509E+02  0.51100000000E-03 0.  1.
        -12    1    3    3    0    0  0.35212962735E+01  0.36381988601E+01  0.13076680628E+01  0.52293416559E+01  0.00000000000E+00 0.  1.
</event>
<event>
 7    1  0.8398055E-009  0.4614232E+02  0.7816164E-02  0.1320468E+00
        -11   -1    0    0    0    0  0.00000000000E+00  0.00000000000E+00  0.45593999997E+02  0.45594000000E+02  0.51100000000E-03 0. -1.
         11   -1    0    0    0    0 -0.00000000000E+00 -0.00000000000E+00 -0.45593999997E+02  0.45594000000E+02  0.51100000000E-03 0.  1.
    9900012    2    1    2    0    0  0.20537052615E+02  0.37949461458E+02  0.12929861868E+02  0.46142317821E+02  0.10000000546E+02 0.  0.
        -12    1    1    2    0    0 -0.20537052615E+02 -0.37949461458E+02 -0.12929861868E+02  0.45045682179E+02  0.00000000000E+00 0.  1.
         11    1    3    3    0    0  0.10598508406E+02  0.18755189424E+02  0.92012923417E+01  0.23425398434E+02  0.51100000000E-03 0. -1.
        -11    1    3    3    0    0 -0.35396414714E+00  0.31884075615E+01 -0.43461239586E+00  0.32373015910E+01  0.51100000000E-03 0.  1.
        -12    1    3    3    0    0  0.10292508356E+02  0.16005864473E+02  0.41631819218E+01  0.19479617796E+02  0.00000000000E+00 0.  1.
</event>
<event>
 7    1  0.8398055E-009  0.4614232E+02  0.7816164E-02  0.1320468E+00
        -11   -1    0    0    0    0  0.00000000000E+00  0.00000000000E+00  0.45593999997E+02  0.45594000000E+02  0.51100000000E-03 0. -1.
         11   -1    0    0    0    0 -0.00000000000E+00 -0.00000000000E+00 -0.45593999997E+02  0.45594000000E+02  0.51100000000E-03 0.  1.
    9900012    2    1    2    0    0  0.58389691146E+01  0.28401478543E+02 -0.34472829316E+02  0.46142317579E+02  0.99999983386E+01 0.  0.
         12    1    1    2    0    0 -0.58389691146E+01 -0.28401478543E+02  0.34472829316E+02  0.45045682421E+02  0.00000000000E+00 0. -1.
         11    1    3    3    0    0  0.95919591262E+00  0.26656940956E+01 -0.23629374444E+01  0.36890995429E+01  0.51100000000E-03 0.  1.
        -11    1    3    3    0    0 -0.59713455753E+00  0.97818111536E+01 -0.64030363251E+01  0.11706377474E+02  0.51100000000E-03 0. -1.
        -12    1    3    3    0    0  0.54769077595E+01  0.15953973294E+02 -0.25706855546E+02  0.30746840562E+02  0.00000000000E+00 0.  1.
</event>
<event>
 7    1  0.8398055E-009  0.4614232E+02  0.7816164E-02  0.1320468E+00
        -11   -1    0    0    0    0  0.00000000000E+00  0.00000000000E+00  0.45593999997E+02  0.45594000000E+02  0.51100000000E-03 0. -1.
         11   -1    0    0    0    0 -0.00000000000E+00 -0.00000000000E+00 -0.45593999997E+02  0.45594000000E+02  0.51100000000E-03 0.  1.
    9900012    2    1    2    0    0 -0.97565057420E+01  0.16290819156E+02  0.40847684925E+02  0.46142317001E+02  0.99999930712E+01 0.  0.
        -12    1    1    2    0    0  0.97565057420E+01 -0.16290819156E+02 -0.40847684925E+02  0.45045682999E+02  0.00000000000E+00 0.  1.
         11    1    3    3    0    0 -0.37183390958E+01  0.11172880152E+01  0.36116223508E+01  0.53026591825E+01  0.51100000000E-03 0.  1.
        -11    1    3    3    0    0 -0.38855966777E+01  0.96223225339E+01  0.18904214042E+02  0.21565163141E+02  0.51100000000E-03 0. -1.
        -12    1    3    3    0    0 -0.21525699685E+01  0.55512086070E+01  0.18331848533E+02  0.19274494678E+02  0.00000000000E+00 0.  1.
</event>
<event>
 7    1  0.8398055E-009  0.4614232E+02  0.7816164E-02  0.1320468E+00
        -11   -1    0    0    0    0  0.00000000000E+00  0.00000000000E+00  0.45593999997E+02  0.45594000000E+02  0.51100000000E-03 0. -1.
         11   -1    0    0    0    0 -0.00000000000E+00 -0.00000000000E+00 -0.45593999997E+02  0.45594000000E+02  0.51100000000E-03 0.  1.
    9900012    2    1    2    0    0  0.29740866941E+02 -0.54524897410E+01  0.33389588438E+02  0.46142318444E+02  0.10000006230E+02 0.  0.
        -12    1    1    2    0    0 -0.29740866941E+02  0.54524897410E+01 -0.33389588438E+02  0.45045681556E+02  0.00000000000E+00 0.  1.
         11    1    3    3    0    0  0.15661434451E+02 -0.36257403472E+01  0.10736721724E+02  0.19331417842E+02  0.51100000000E-03 0. -1.
        -11    1    3    3    0    0  0.50928779086E+00 -0.44059806260E+00  0.75270122127E+00  0.10099802455E+01  0.51100000000E-03 0.  1.
         12    1    3    3    0    0  0.13570144699E+02 -0.13861513313E+01  0.21900165493E+02  0.25800920357E+02  0.00000000000E+00 0. -1.
</event>
<event>
 7    1  0.8398055E-009  0.4614232E+02  0.7816164E-02  0.1320468E+00
        -11   -1    0    0    0    0  0.00000000000E+00  0.00000000000E+00  0.45593999997E+02  0.45594000000E+02  0.51100000000E-03 0. -1.
         11   -1    0    0    0    0 -0.00000000000E+00 -0.00000000000E+00 -0.45593999997E+02  0.45594000000E+02  0.51100000000E-03 0.  1.
    9900012    2    1    2    0    0  0.12407819178E+02  0.33536706316E+02  0.27394320504E+02  0.46142318263E+02  0.10000004576E+02 0.  0.
        -12    1    1    2    0    0 -0.12407819178E+02 -0.33536706316E+02 -0.27394320504E+02  0.45045681737E+02  0.00000000000E+00 0.  1.
         11    1    3    3    0    0  0.31733653688E+01  0.77089409241E+01  0.77305621281E+01  0.11369239597E+02  0.51100000000E-03 0. -1.
        -11    1    3    3    0    0  0.11486139751E+01 -0.24538758535E+00  0.18003366536E+01  0.21495909979E+01  0.51100000000E-03 0.  1.
         12    1    3    3    0    0  0.80858398340E+01  0.26073152977E+02  0.17863421722E+02  0.32623487668E+02  0.00000000000E+00 0. -1.
</event>
<event>
 7    1  0.8398055E-009  0.4614232E+02  0.7816164E-02  0.1320468E+00
        -11   -1    0    0    0    0  0.00000000000E+00  0.00000000000E+00  0.45593999997E+02  0.45594000000E+02  0.51100000000E-03 0. -1.
         11   -1    0    0    0    0 -0.00000000000E+00 -0.00000000000E+00 -0.45593999997E+02  0.45594000000E+02  0.51100000000E-03 0.  1.
    9900012    2    1    2    0    0 -0.86314444325E+01  0.18928780329E+02 -0.39953885223E+02  0.46142317608E+02  0.99999986044E+01 0.  0.
         12    1    1    2    0    0  0.86314444325E+01 -0.18928780329E+02  0.39953885223E+02  0.45045682392E+02  0.00000000000E+00 0. -1.
         11    1    3    3    0    0 -0.65334266210E+01  0.18331097065E+02 -0.33323925742E+02  0.38590138768E+02  0.51100000000E-03 0. -1.
        -11    1    3    3    0    0 -0.39746814693E+00  0.14077671158E+01 -0.15359839102E+01  0.21210931176E+01  0.51100000000E-03 0.  1.
         12    1    3    3    0    0 -0.17005496646E+01 -0.81008385154E+00 -0.50939755708E+01  0.54310857224E+01  0.00000000000E+00 0. -1.
</event>
<event>
 7    1  0.8398055E-009  0.4614232E+02  0.7816164E-02  0.1320468E+00
        -11   -1    0    0    0    0  0.00000000000E+00  0.00000000000E+00  0.45593999997E+02  0.45594000000E+02  0.51100000000E-03 0. -1.
         11   -1    0    0    0    0 -0.00000000000E+00 -0.00000000000E+00 -0.45593999997E+02  0.45594000000E+02  0.51100000000E-03 0.  1.
    9900012    2    1    2    0    0  0.12155862119E+02  0.19404700900E+02 -0.38791830358E+02  0.46142317594E+02  0.99999984778E+01 0.  0.
         12    1    1    2    0    0 -0.12155862119E+02 -0.19404700900E+02  0.38791830358E+02  0.45045682406E+02  0.00000000000E+00 0. -1.
         11    1    3    3    0    0 -0.11050668672E+00  0.12684538528E+01 -0.12711103817E+01  0.17991411195E+01  0.51100000000E-03 0. -1.
        -11    1    3    3    0    0  0.51235568229E+01  0.13129308897E+01 -0.98724200737E+01  0.11199968768E+02  0.51100000000E-03 0.  1.
        -12    1    3    3    0    0  0.71428119828E+01  0.16823316157E+02 -0.27648299903E+02  0.33143207706E+02  0.00000000000E+00 0.  1.
</event>
<event>
 7    1  0.8398055E-009  0.4614232E+02  0.7816164E-02  0.1320468E+00
        -11   -1    0    0    0    0  0.00000000000E+00  0.00000000000E+00  0.45593999997E+02  0.45594000000E+02  0.51100000000E-03 0. -1.
         11   -1    0    0    0    0 -0.00000000000E+00 -0.00000000000E+00 -0.45593999997E+02  0.45594000000E+02  0.51100000000E-03 0.  1.
    9900012    2    1    2    0    0 -0.27796593868E+01 -0.37851450570E+02 -0.24262209078E+02  0.46142316457E+02  0.99999881046E+01 0.  0.
         12    1    1    2    0    0  0.27796593868E+01  0.37851450570E+02  0.24262209078E+02  0.45045683543E+02  0.00000000000E+00 0. -1.
         11    1    3    3    0    0 -0.14639483826E+01 -0.18188553283E+01 -0.16632041449E+01  0.28666405183E+01  0.51100000000E-03 0. -1.
        -11    1    3    3    0    0  0.85132626581E+00 -0.32927868846E+02 -0.21494318040E+02  0.39331603214E+02  0.51100000000E-03 0.  1.
        -12    1    3    3    0    0 -0.21670372700E+01 -0.31047263952E+01 -0.11046868935E+01  0.39440727239E+01  0.00000000000E+00 0.  1.
</event>
<event>
 7    1  0.8398055E-009  0.4614232E+02  0.7816164E-02  0.1320468E+00
        -11   -1    0    0    0    0  0.00000000000E+00  0.00000000000E+00  0.45593999997E+02  0.45594000000E+02  0.51100000000E-03 0. -1.
         11   -1    0    0    0    0 -0.00000000000E+00 -0.00000000000E+00 -0.45593999997E+02  0.45594000000E+02  0.51100000000E-03 0.  1.
    9900012    2    1    2    0    0  0.21955263002E+01 -0.50231593535E+01  0.44710860436E+02  0.46142317560E+02  0.99999981616E+01 0.  0.
        -12    1    1    2    0    0 -0.21955263002E+01  0.50231593535E+01 -0.44710860436E+02  0.45045682440E+02  0.00000000000E+00 0.  1.
         11    1    3    3    0    0  0.18538277373E+01 -0.80711811005E+00  0.55070037319E+01  0.58664475867E+01  0.51100000000E-03 0. -1.
        -11    1    3    3    0    0 -0.33590133497E+01 -0.24342450741E+01  0.10672030500E+02  0.11449923799E+02  0.51100000000E-03 0.  1.
         12    1    3    3    0    0  0.37007119126E+01 -0.17817961693E+01  0.28531826204E+02  0.28825946173E+02  0.00000000000E+00 0. -1.
</event>
<event>
 7    1  0.8398055E-009  0.4614232E+02  0.7816164E-02  0.1320468E+00
        -11   -1    0    0    0    0  0.00000000000E+00  0.00000000000E+00  0.45593999997E+02  0.45594000000E+02  0.51100000000E-03 0. -1.
         11   -1    0    0    0    0 -0.00000000000E+00 -0.00000000000E+00 -0.45593999997E+02  0.45594000000E+02  0.51100000000E-03 0.  1.
    9900012    2    1    2    0    0  0.34473017651E+01  0.16396358822E+02 -0.41813741372E+02  0.46142318302E+02  0.10000004937E+02 0.  0.
         12    1    1    2    0    0 -0.34473017651E+01 -0.16396358822E+02  0.41813741372E+02  0.45045681698E+02  0.00000000000E+00 0. -1.
         11    1    3    3    0    0  0.72554790592E+00  0.35621326757E-01 -0.34671501512E+01  0.35424312379E+01  0.51100000000E-03 0. -1.
        -11    1    3    3    0    0  0.46944856679E+01  0.67649390621E+01 -0.12594736770E+02  0.15047590863E+02  0.51100000000E-03 0.  1.
        -12    1    3    3    0    0 -0.19727318088E+01  0.95957984334E+01 -0.25751854450E+02  0.27552296202E+02  0.00000000000E+00 0.  1.
</event>
<event>
 7    1  0.8398055E-009  0.4614232E+02  0.7816164E-02  0.1320468E+00
        -11   -1    0    0    0    0  0.00000000000E+00  0.00000000000E+00  0.45593999997E+02  0.45594000000E+02  0.51100000000E-03 0. -1.
         11   -1    0    0    0    0 -0.00000000000E+00 -0.00000000000E+00 -0.45593999997E+02  0.45594000000E+02  0.51100000000E-03 0.  1.
    9900012    2    1    2    0    0 -0.37790401674E+02  0.20119022910E+02 -0.14007996346E+02  0.46142317596E+02  0.99999984982E+01 0.  0.
         12    1    1    2    0    0  0.37790401674E+02 -0.20119022910E+02  0.14007996346E+02  0.45045682404E+02  0.00000000000E+00 0. -1.
         11    1    3    3    0    0 -0.55011798686E+01  0.10799206807E+01  0.43664278254E+00  0.56231544354E+01  0.51100000000E-03 0. -1.
        -11    1    3    3    0    0 -0.12794964678E+02  0.46739926378E+01 -0.45740930532E+01  0.14369399981E+02  0.51100000000E-03 0.  1.
        -12    1    3    3    0    0 -0.19494257127E+02  0.14365109592E+02 -0.98705460756E+01  0.26149763180E+02  0.00000000000E+00 0.  1.
</event>
<event>
 7    1  0.8398055E-009  0.4614232E+02  0.7816164E-02  0.1320468E+00
        -11   -1    0    0    0    0  0.00000000000E+00  0.00000000000E+00  0.45593999997E+02  0.45594000000E+02  0.51100000000E-03 0. -1.
         11   -1    0    0    0    0 -0.00000000000E+00 -0.00000000000E+00 -0.45593999997E+02  0.45594000000E+02  0.51100000000E-03 0.  1.
    9900012    2    1    2    0    0 -0.12412818571E+02  0.32695095875E+02  0.28391304311E+02  0.46142317414E+02  0.99999968312E+01 0.  0.
        -12    1    1    2    0    0  0.12412818571E+02 -0.32695095875E+02 -0.28391304311E+02  0.45045682586E+02  0.00000000000E+00 0.  1.
         11    1    3    3    0    0 -0.47976505032E+01  0.10426133328E+02  0.67556519662E+01  0.13317677736E+02  0.51100000000E-03 0. -1.
        -11    1    3    3    0    0 -0.61196932464E+01  0.68850671991E+01  0.86731014974E+01  0.12652173158E+02  0.51100000000E-03 0.  1.
        -12    1    3    3    0    0 -0.14954748215E+01  0.15383895348E+02  0.12962550848E+02  0.20172466520E+02  0.00000000000E+00 0.  1.
</event>
<event>
 7    1  0.8398055E-009  0.4614232E+02  0.7816164E-02  0.1320468E+00
        -11   -1    0    0    0    0  0.00000000000E+00  0.00000000000E+00  0.45593999997E+02  0.45594000000E+02  0.51100000000E-03 0.  1.
         11   -1    0    0    0    0 -0.00000000000E+00 -0.00000000000E+00 -0.45593999997E+02  0.45594000000E+02  0.51100000000E-03 0. -1.
    9900012    2    1    2    0    0  0.36402873977E+02  0.25232564241E+02  0.82013374293E+01  0.46142317992E+02  0.10000002104E+02 0.  0.
        -12    1    1    2    0    0 -0.36402873977E+02 -0.25232564241E+02 -0.82013374293E+01  0.45045682008E+02  0.00000000000E+00 0.  1.
         11    1    3    3    0    0  0.11817626539E+02  0.12385137477E+02  0.50236033095E+01  0.17840530200E+02  0.51100000000E-03 0. -1.
        -11    1    3    3    0    0  0.12561130578E+02  0.65056799251E+01  0.39464495988E+01  0.14686059287E+02  0.51100000000E-03 0.  1.
         12    1    3    3    0    0  0.12024116861E+02  0.63417468386E+01 -0.76871547902E+00  0.13615728506E+02  0.00000000000E+00 0. -1.
</event>
<event>
 7    1  0.8398055E-009  0.4614232E+02  0.7816164E-02  0.1320468E+00
        -11   -1    0    0    0    0  0.00000000000E+00  0.00000000000E+00  0.45593999997E+02  0.45594000000E+02  0.51100000000E-03 0. -1.
         11   -1    0    0    0    0 -0.00000000000E+00 -0.00000000000E+00 -0.45593999997E+02  0.45594000000E+02  0.51100000000E-03 0.  1.
    9900012    2    1    2    0    0 -0.34268391134E+02 -0.25160013756E+02 -0.14891768133E+02  0.46142315621E+02  0.99999804821E+01 0.  0.
         12    1    1    2    0    0  0.34268391134E+02  0.25160013756E+02  0.14891768133E+02  0.45045684379E+02  0.00000000000E+00 0. -1.
         11    1    3    3    0    0 -0.75239348694E+01 -0.57457392533E+01 -0.58396566056E+00  0.94849423635E+01  0.51100000000E-03 0. -1.
        -11    1    3    3    0    0 -0.45600753032E+01 -0.62220982639E+01 -0.51277242580E+01  0.92629557866E+01  0.51100000000E-03 0.  1.
        -12    1    3    3    0    0 -0.22184380961E+02 -0.13192176238E+02 -0.91800782146E+01  0.27394417471E+02  0.00000000000E+00 0.  1.
</event>
<event>
 7    1  0.8398055E-009  0.4614232E+02  0.7816164E-02  0.1320468E+00
        -11   -1    0    0    0    0  0.00000000000E+00  0.00000000000E+00  0.45593999997E+02  0.45594000000E+02  0.51100000000E-03 0. -1.
         11   -1    0    0    0    0 -0.00000000000E+00 -0.00000000000E+00 -0.45593999997E+02  0.45594000000E+02  0.51100000000E-03 0.  1.
    9900012    2    1    2    0    0 -0.28543082908E+01  0.32192486349E+02  0.31378499971E+02  0.46142317481E+02  0.99999974474E+01 0.  0.
        -12    1    1    2    0    0  0.28543082908E+01 -0.32192486349E+02 -0.31378499971E+02  0.45045682519E+02  0.00000000000E+00 0.  1.
         11    1    3    3    0    0  0.15055927755E+01  0.54332311697E+01  0.70674758790E+01  0.90407978691E+01  0.51100000000E-03 0. -1.
        -11    1    3    3    0    0  0.41589966521E+00 -0.25897247325E+00  0.80071045115E-01  0.49643822054E+00  0.51100000000E-03 0.  1.
         12    1    3    3    0    0 -0.47758007316E+01  0.27018227653E+02  0.24230953047E+02  0.36605081392E+02  0.00000000000E+00 0. -1.
</event>
<event>
 7    1  0.8398055E-009  0.4614232E+02  0.7816164E-02  0.1320468E+00
        -11   -1    0    0    0    0  0.00000000000E+00  0.00000000000E+00  0.45593999997E+02  0.45594000000E+02  0.51100000000E-03 0. -1.
         11   -1    0    0    0    0 -0.00000000000E+00 -0.00000000000E+00 -0.45593999997E+02  0.45594000000E+02  0.51100000000E-03 0.  1.
    9900012    2    1    2    0    0  0.17543578116E+02 -0.20217237552E+02 -0.36229818489E+02  0.46142316798E+02  0.99999912189E+01 0.  0.
         12    1    1    2    0    0 -0.17543578116E+02  0.20217237552E+02  0.36229818489E+02  0.45045683202E+02  0.00000000000E+00 0. -1.
         11    1    3    3    0    0  0.56294682788E+00 -0.45904254701E+01 -0.93960524285E+01  0.10472569724E+02  0.51100000000E-03 0. -1.
        -11    1    3    3    0    0  0.10704217097E+02 -0.10710636308E+02 -0.14379628624E+02  0.20882330172E+02  0.51100000000E-03 0.  1.
        -12    1    3    3    0    0  0.62764141904E+01 -0.49161757744E+01 -0.12454137437E+02  0.14787416902E+02  0.00000000000E+00 0.  1.
</event>
<event>
 7    1  0.8398055E-009  0.4614232E+02  0.7816164E-02  0.1320468E+00
        -11   -1    0    0    0    0  0.00000000000E+00  0.00000000000E+00  0.45593999997E+02  0.45594000000E+02  0.51100000000E-03 0. -1.
         11   -1    0    0    0    0 -0.00000000000E+00 -0.00000000000E+00 -0.45593999997E+02  0.45594000000E+02  0.51100000000E-03 0.  1.
    9900012    2    1    2    0    0  0.12556199563E+02  0.96931215771E+01  0.42160393182E+02  0.46142317559E+02  0.99999981537E+01 0.  0.
        -12    1    1    2    0    0 -0.12556199563E+02 -0.96931215771E+01 -0.42160393182E+02  0.45045682441E+02  0.00000000000E+00 0.  1.
         11    1    3    3    0    0  0.94796565018E+01  0.88993385745E+01  0.24818744616E+02  0.28018426063E+02  0.51100000000E-03 0. -1.
        -11    1    3    3    0    0 -0.59098987668E+00 -0.85357833074E+00  0.60358608469E+01  0.61244984631E+01  0.51100000000E-03 0.  1.
         12    1    3    3    0    0  0.36675329383E+01  0.16473613334E+01  0.11305787718E+02  0.11999393032E+02  0.00000000000E+00 0. -1.
</event>
<event>
 7    1  0.8398055E-009  0.4614232E+02  0.7816164E-02  0.1320468E+00
        -11   -1    0    0    0    0  0.00000000000E+00  0.00000000000E+00  0.45593999997E+02  0.45594000000E+02  0.51100000000E-03 0. -1.
         11   -1    0    0    0    0 -0.00000000000E+00 -0.00000000000E+00 -0.45593999997E+02  0.45594000000E+02  0.51100000000E-03 0.  1.
    9900012    2    1    2    0    0  0.38051489446E+02  0.22637987367E+02  0.82897031543E+01  0.46142317638E+02  0.99999988792E+01 0.  0.
        -12    1    1    2    0    0 -0.38051489446E+02 -0.22637987367E+02 -0.82897031543E+01  0.45045682362E+02  0.00000000000E+00 0.  1.
         11    1    3    3    0    0  0.92327977925E+01  0.84340773741E+01  0.57804072965E+01  0.13776477235E+02  0.51100000000E-03 0. -1.
        -11    1    3    3    0    0  0.12182773803E+02  0.71110471416E+01 -0.10456820903E-01  0.14106277985E+02  0.51100000000E-03 0.  1.
         12    1    3    3    0    0  0.16635917851E+02  0.70928628509E+01  0.25197526787E+01  0.18259562418E+02  0.00000000000E+00 0. -1.
</event>
<event>
 7    1  0.8398055E-009  0.4614232E+02  0.7816164E-02  0.1320468E+00
        -11   -1    0    0    0    0  0.00000000000E+00  0.00000000000E+00  0.45593999997E+02  0.45594000000E+02  0.51100000000E-03 0. -1.
         11   -1    0    0    0    0 -0.00000000000E+00 -0.00000000000E+00 -0.45593999997E+02  0.45594000000E+02  0.51100000000E-03 0.  1.
    9900012    2    1    2    0    0 -0.30640542058E+02 -0.20753415631E+02 -0.25682024818E+02  0.46142317890E+02  0.10000001178E+02 0.  0.
         12    1    1    2    0    0  0.30640542058E+02  0.20753415631E+02  0.25682024818E+02  0.45045682110E+02  0.00000000000E+00 0. -1.
         11    1    3    3    0    0 -0.15503854010E+02 -0.95547296849E+01 -0.16062847252E+02  0.24283274297E+02  0.51100000000E-03 0.  1.
        -11    1    3    3    0    0 -0.14842298734E+02 -0.90175185482E+01 -0.79678322290E+01  0.19107480817E+02  0.51100000000E-03 0. -1.
         12    1    3    3    0    0 -0.29438931398E+00 -0.21811673977E+01 -0.16513453376E+01  0.27515627758E+01  0.00000000000E+00 0. -1.
</event>
<event>
 7    1  0.8398055E-009  0.4614232E+02  0.7816164E-02  0.1320468E+00
        -11   -1    0    0    0    0  0.00000000000E+00  0.00000000000E+00  0.45593999997E+02  0.45594000000E+02  0.51100000000E-03 0.  1.
         11   -1    0    0    0    0 -0.00000000000E+00 -0.00000000000E+00 -0.45593999997E+02  0.45594000000E+02  0.51100000000E-03 0. -1.
    9900012    2    1    2    0    0  0.33307303686E+02 -0.16381311205E+02  0.25522337062E+02  0.46142317357E+02  0.99999963179E+01 0.  0.
        -12    1    1    2    0    0 -0.33307303686E+02  0.16381311205E+02 -0.25522337062E+02  0.45045682643E+02  0.00000000000E+00 0.  1.
         11    1    3    3    0    0  0.21619207138E+02 -0.12785339569E+02  0.18560545338E+02  0.31230575862E+02  0.51100000000E-03 0. -1.
        -11    1    3    3    0    0  0.21540542862E+01 -0.20173702161E+01  0.36551097083E+01  0.46978249964E+01  0.51100000000E-03 0.  1.
        -12    1    3    3    0    0  0.95340422614E+01 -0.15786014202E+01  0.33066820159E+01  0.10213916499E+02  0.00000000000E+00 0.  1.
</event>
<event>
 7    1  0.8398055E-009  0.4614232E+02  0.7816164E-02  0.1320468E+00
        -11   -1    0    0    0    0  0.00000000000E+00  0.00000000000E+00  0.45593999997E+02  0.45594000000E+02  0.51100000000E-03 0. -1.
         11   -1    0    0    0    0 -0.00000000000E+00 -0.00000000000E+00 -0.45593999997E+02  0.45594000000E+02  0.51100000000E-03 0.  1.
    9900012    2    1    2    0    0 -0.75552678844E+01 -0.41669960128E+02  0.15350759151E+02  0.46142318116E+02  0.10000003238E+02 0.  0.
        -12    1    1    2    0    0  0.75552678844E+01  0.41669960128E+02 -0.15350759151E+02  0.45045681884E+02  0.00000000000E+00 0.  1.
         11    1    3    3    0    0 -0.66646035991E+01 -0.22512429462E+02  0.49497931959E+01  0.23994309207E+02  0.51100000000E-03 0. -1.
        -11    1    3    3    0    0 -0.15373754802E+01 -0.30423387309E+01  0.14699552442E+01  0.37121579979E+01  0.51100000000E-03 0.  1.
         12    1    3    3    0    0  0.64671119485E+00 -0.16115191935E+02  0.89310107114E+01  0.18435850911E+02  0.00000000000E+00 0. -1.
</event>
<event>
 7    1  0.8398055E-009  0.4614232E+02  0.7816164E-02  0.1320468E+00
        -11   -1    0    0    0    0  0.00000000000E+00  0.00000000000E+00  0.45593999997E+02  0.45594000000E+02  0.51100000000E-03 0. -1.
         11   -1    0    0    0    0 -0.00000000000E+00 -0.00000000000E+00 -0.45593999997E+02  0.45594000000E+02  0.51100000000E-03 0.  1.
    9900012    2    1    2    0    0 -0.25589348358E+01  0.17858908296E+02 -0.41274986822E+02  0.46142319961E+02  0.10000020056E+02 0.  0.
         12    1    1    2    0    0  0.25589348358E+01 -0.17858908296E+02  0.41274986822E+02  0.45045680039E+02  0.00000000000E+00 0. -1.
         11    1    3    3    0    0  0.41913953888E+00 -0.54788957493E+00 -0.23120797330E+01  0.24127937939E+01  0.51100000000E-03 0. -1.
        -11    1    3    3    0    0 -0.23618943970E+00  0.16004608865E+02 -0.33921166309E+02  0.37507983342E+02  0.51100000000E-03 0.  1.
        -12    1    3    3    0    0 -0.27418849350E+01  0.24021890061E+01 -0.50417407802E+01  0.62215428241E+01  0.00000000000E+00 0.  1.
</event>
<event>
 7    1  0.8398055E-009  0.4614232E+02  0.7816164E-02  0.1320468E+00
        -11   -1    0    0    0    0  0.00000000000E+00  0.00000000000E+00  0.45593999997E+02  0.45594000000E+02  0.51100000000E-03 0.  1.
         11   -1    0    0    0    0 -0.00000000000E+00 -0.00000000000E+00 -0.45593999997E+02  0.45594000000E+02  0.51100000000E-03 0. -1.
    9900012    2    1    2    0    0  0.36862198959E+02  0.10913103192E+02 -0.23477562881E+02  0.46142317719E+02  0.99999996116E+01 0.  0.
         12    1    1    2    0    0 -0.36862198959E+02 -0.10913103192E+02  0.23477562881E+02  0.45045682281E+02  0.00000000000E+00 0. -1.
         11    1    3    3    0    0  0.42704970774E+01  0.31020867377E+01 -0.64514699962E+01  0.83355595366E+01  0.51100000000E-03 0. -1.
        -11    1    3    3    0    0  0.83712675542E+01  0.37613518015E+01 -0.52418903772E+01  0.10568978325E+02  0.51100000000E-03 0.  1.
        -12    1    3    3    0    0  0.24220434327E+02  0.40496646524E+01 -0.11784202508E+02  0.27237779857E+02  0.00000000000E+00 0.  1.
</event>
<event>
 7    1  0.8398055E-009  0.4614232E+02  0.7816164E-02  0.1320468E+00
        -11   -1    0    0    0    0  0.00000000000E+00  0.00000000000E+00  0.45593999997E+02  0.45594000000E+02  0.51100000000E-03 0. -1.
         11   -1    0    0    0    0 -0.00000000000E+00 -0.00000000000E+00 -0.45593999997E+02  0.45594000000E+02  0.51100000000E-03 0.  1.
    9900012    2    1    2    0    0  0.17170603101E+02 -0.19077727609E+02 -0.37017889739E+02  0.46142318051E+02  0.10000002641E+02 0.  0.
         12    1    1    2    0    0 -0.17170603101E+02  0.19077727609E+02  0.37017889739E+02  0.45045681949E+02  0.00000000000E+00 0. -1.
         11    1    3    3    0    0  0.75821306628E+01 -0.83476246383E+01 -0.12451181544E+02  0.16798912601E+02  0.51100000000E-03 0.  1.
        -11    1    3    3    0    0  0.73930988782E+01 -0.77940529907E+01 -0.22943704022E+02  0.25334141540E+02  0.51100000000E-03 0. -1.
         12    1    3    3    0    0  0.21953735597E+01 -0.29360499798E+01 -0.16230041725E+01  0.40092639092E+01  0.00000000000E+00 0. -1.
</event>
<event>
 7    1  0.8398055E-009  0.4614232E+02  0.7816164E-02  0.1320468E+00
        -11   -1    0    0    0    0  0.00000000000E+00  0.00000000000E+00  0.45593999997E+02  0.45594000000E+02  0.51100000000E-03 0. -1.
         11   -1    0    0    0    0 -0.00000000000E+00 -0.00000000000E+00 -0.45593999997E+02  0.45594000000E+02  0.51100000000E-03 0.  1.
    9900012    2    1    2    0    0 -0.48406460626E+01  0.24272775094E+02 -0.37636604520E+02  0.46142318022E+02  0.10000002377E+02 0.  0.
         12    1    1    2    0    0  0.48406460626E+01 -0.24272775094E+02  0.37636604520E+02  0.45045681978E+02  0.00000000000E+00 0. -1.
         11    1    3    3    0    0 -0.54560539788E+01  0.10825612392E+02 -0.13945502922E+02  0.18478080547E+02  0.51100000000E-03 0. -1.
        -11    1    3    3    0    0  0.20697564819E+01  0.67310452622E+01 -0.88535791701E+01  0.11312679903E+02  0.51100000000E-03 0.  1.
        -12    1    3    3    0    0 -0.14543485658E+01  0.67161174407E+01 -0.14837522428E+02  0.16351557572E+02  0.00000000000E+00 0.  1.
</event>
<event>
 7    1  0.8398056E-009  0.4614232E+02  0.7816164E-02  0.1320468E+00
        -11   -1    0    0    0    0  0.00000000000E+00  0.00000000000E+00  0.45593999997E+02  0.45594000000E+02  0.51100000000E-03 0. -1.
         11   -1    0    0    0    0 -0.00000000000E+00 -0.00000000000E+00 -0.45593999997E+02  0.45594000000E+02  0.51100000000E-03 0.  1.
    9900012    2    1    2    0    0  0.22956118518E+02 -0.22725838280E+02 -0.31395325478E+02  0.46142316912E+02  0.99999922583E+01 0.  0.
         12    1    1    2    0    0 -0.22956118518E+02  0.22725838280E+02  0.31395325478E+02  0.45045683088E+02  0.00000000000E+00 0. -1.
         11    1    3    3    0    0  0.35233326996E+01 -0.98801421071E+00 -0.28177747911E+01  0.46184305156E+01  0.51100000000E-03 0. -1.
        -11    1    3    3    0    0  0.13711323867E+02 -0.97280437860E+01 -0.15397276652E+02  0.22797178919E+02  0.51100000000E-03 0.  1.
         12    1    3    3    0    0  0.57214619517E+01 -0.12009780283E+02 -0.13180274035E+02  0.18726707478E+02  0.00000000000E+00 0. -1.
</event>
<event>
 7    1  0.8398055E-009  0.4614232E+02  0.7816164E-02  0.1320468E+00
        -11   -1    0    0    0    0  0.00000000000E+00  0.00000000000E+00  0.45593999997E+02  0.45594000000E+02  0.51100000000E-03 0. -1.
         11   -1    0    0    0    0 -0.00000000000E+00 -0.00000000000E+00 -0.45593999997E+02  0.45594000000E+02  0.51100000000E-03 0.  1.
    9900012    2    1    2    0    0  0.10465468482E+02 -0.27391457396E+02  0.34194963909E+02  0.46142317348E+02  0.99999962334E+01 0.  0.
        -12    1    1    2    0    0 -0.10465468482E+02  0.27391457396E+02 -0.34194963909E+02  0.45045682652E+02  0.00000000000E+00 0.  1.
         11    1    3    3    0    0  0.56168300293E+01 -0.13650070268E+02  0.22276832392E+02  0.26723219483E+02  0.51100000000E-03 0. -1.
        -11    1    3    3    0    0 -0.90250900280E+00 -0.25444215666E+01  0.15632564073E+01  0.31196753781E+01  0.51100000000E-03 0.  1.
         12    1    3    3    0    0  0.57511474559E+01 -0.11196965562E+02  0.10354875110E+02  0.16299422487E+02  0.00000000000E+00 0. -1.
</event>
<event>
 7    1  0.8398055E-009  0.4614232E+02  0.7816164E-02  0.1320468E+00
        -11   -1    0    0    0    0  0.00000000000E+00  0.00000000000E+00  0.45593999997E+02  0.45594000000E+02  0.51100000000E-03 0. -1.
         11   -1    0    0    0    0 -0.00000000000E+00 -0.00000000000E+00 -0.45593999997E+02  0.45594000000E+02  0.51100000000E-03 0.  1.
    9900012    2    1    2    0    0 -0.22971361119E+02  0.74371933868E+01 -0.38027861256E+02  0.46142317534E+02  0.99999979260E+01 0.  0.
         12    1    1    2    0    0  0.22971361119E+02 -0.74371933868E+01  0.38027861256E+02  0.45045682466E+02  0.00000000000E+00 0. -1.
         11    1    3    3    0    0 -0.59651400464E+01 -0.15502363465E+00 -0.10777488122E+02  0.12319138711E+02  0.51100000000E-03 0. -1.
        -11    1    3    3    0    0 -0.18445459062E+01  0.32385754582E+01 -0.87503524976E+01  0.95110141253E+01  0.51100000000E-03 0.  1.
         12    1    3    3    0    0 -0.15161675166E+02  0.43536415632E+01 -0.18500020637E+02  0.24312164697E+02  0.00000000000E+00 0. -1.
</event>
<event>
 7    1  0.8398055E-009  0.4614232E+02  0.7816164E-02  0.1320468E+00
        -11   -1    0    0    0    0  0.00000000000E+00  0.00000000000E+00  0.45593999997E+02  0.45594000000E+02  0.51100000000E-03 0.  1.
         11   -1    0    0    0    0 -0.00000000000E+00 -0.00000000000E+00 -0.45593999997E+02  0.45594000000E+02  0.51100000000E-03 0. -1.
    9900012    2    1    2    0    0  0.15676820430E+02  0.38042222868E+02  0.18334128274E+02  0.46142315644E+02  0.99999806917E+01 0.  0.
        -12    1    1    2    0    0 -0.15676820430E+02 -0.38042222868E+02 -0.18334128274E+02  0.45045684356E+02  0.00000000000E+00 0.  1.
         11    1    3    3    0    0  0.66641941516E+01  0.22412938551E+02  0.10994795686E+02  0.25838669289E+02  0.51100000000E-03 0. -1.
        -11    1    3    3    0    0  0.49832306337E+01  0.11405685223E+02  0.24421058915E+01  0.12684089420E+02  0.51100000000E-03 0.  1.
        -12    1    3    3    0    0  0.40293956447E+01  0.42235990942E+01  0.48972266972E+01  0.76195569355E+01  0.00000000000E+00 0.  1.
</event>
<event>
 7    1  0.8398055E-009  0.4614232E+02  0.7816164E-02  0.1320468E+00
        -11   -1    0    0    0    0  0.00000000000E+00  0.00000000000E+00  0.45593999997E+02  0.45594000000E+02  0.51100000000E-03 0. -1.
         11   -1    0    0    0    0 -0.00000000000E+00 -0.00000000000E+00 -0.45593999997E+02  0.45594000000E+02  0.51100000000E-03 0.  1.
    9900012    2    1    2    0    0  0.22107877428E+02 -0.29890877344E+02 -0.25434045720E+02  0.46142317915E+02  0.10000001406E+02 0.  0.
         12    1    1    2    0    0 -0.22107877428E+02  0.29890877344E+02  0.25434045720E+02  0.45045682085E+02  0.00000000000E+00 0. -1.
         11    1    3    3    0    0  0.17511209764E+02 -0.18527518155E+02 -0.17247341602E+02  0.30779574217E+02  0.51100000000E-03 0. -1.
        -11    1    3    3    0    0  0.12047746154E+01 -0.68533071882E+01 -0.63715295289E+01  0.94348126685E+01  0.51100000000E-03 0.  1.
         12    1    3    3    0    0  0.33918930493E+01 -0.45100520007E+01 -0.18151745893E+01  0.59279310300E+01  0.00000000000E+00 0. -1.
</event>
<event>
 7    1  0.8398055E-009  0.4614232E+02  0.7816164E-02  0.1320468E+00
        -11   -1    0    0    0    0  0.00000000000E+00  0.00000000000E+00  0.45593999997E+02  0.45594000000E+02  0.51100000000E-03 0. -1.
         11   -1    0    0    0    0 -0.00000000000E+00 -0.00000000000E+00 -0.45593999997E+02  0.45594000000E+02  0.51100000000E-03 0.  1.
    9900012    2    1    2    0    0 -0.28200435998E+01 -0.16785250223E+01  0.44925977550E+02  0.46142317066E+02  0.99999936642E+01 0.  0.
        -12    1    1    2    0    0  0.28200435998E+01  0.16785250223E+01 -0.44925977550E+02  0.45045682934E+02  0.00000000000E+00 0.  1.
         11    1    3    3    0    0 -0.25459352487E+00 -0.29918080670E+01  0.36285312375E+02  0.36409334350E+02  0.51100000000E-03 0. -1.
        -11    1    3    3    0    0 -0.62221201021E+00 -0.44947093389E+00  0.71184306791E-01  0.77086923191E+00  0.51100000000E-03 0.  1.
         12    1    3    3    0    0 -0.19432380647E+01  0.17627539786E+01  0.85694808680E+01  0.89621134847E+01  0.00000000000E+00 0. -1.
</event>
<event>
 7    1  0.8398055E-009  0.4614232E+02  0.7816164E-02  0.1320468E+00
        -11   -1    0    0    0    0  0.00000000000E+00  0.00000000000E+00  0.45593999997E+02  0.45594000000E+02  0.51100000000E-03 0. -1.
         11   -1    0    0    0    0 -0.00000000000E+00 -0.00000000000E+00 -0.45593999997E+02  0.45594000000E+02  0.51100000000E-03 0.  1.
    9900012    2    1    2    0    0  0.21714139232E+02  0.40379834668E+01 -0.39259451147E+02  0.46142315884E+02  0.99999828861E+01 0.  0.
         12    1    1    2    0    0 -0.21714139232E+02 -0.40379834668E+01  0.39259451147E+02  0.45045684116E+02  0.00000000000E+00 0. -1.
         11    1    3    3    0    0  0.16939338441E+02  0.44937824839E+01 -0.24609105754E+02  0.30211642691E+02  0.51100000000E-03 0. -1.
        -11    1    3    3    0    0  0.40701976698E+01  0.11122963164E+01 -0.78024221085E+01  0.88702594769E+01  0.51100000000E-03 0.  1.
         12    1    3    3    0    0  0.70460312172E+00 -0.15680953335E+01 -0.68479232847E+01  0.70604137164E+01  0.00000000000E+00 0. -1.
</event>
<event>
 7    1  0.8398055E-009  0.4614232E+02  0.7816164E-02  0.1320468E+00
        -11   -1    0    0    0    0  0.00000000000E+00  0.00000000000E+00  0.45593999997E+02  0.45594000000E+02  0.51100000000E-03 0. -1.
         11   -1    0    0    0    0 -0.00000000000E+00 -0.00000000000E+00 -0.45593999997E+02  0.45594000000E+02  0.51100000000E-03 0.  1.
    9900012    2    1    2    0    0 -0.52860034211E+01 -0.18983000325E+02 -0.40507003223E+02  0.46142318257E+02  0.10000004526E+02 0.  0.
         12    1    1    2    0    0  0.52860034211E+01  0.18983000325E+02  0.40507003223E+02  0.45045681743E+02  0.00000000000E+00 0. -1.
         11    1    3    3    0    0 -0.27282262646E+01 -0.24965197822E+01 -0.36913976185E+01  0.52251551377E+01  0.51100000000E-03 0. -1.
        -11    1    3    3    0    0 -0.26997668049E+01 -0.89283014292E+01 -0.26745682705E+02  0.28325515897E+02  0.51100000000E-03 0.  1.
        -12    1    3    3    0    0  0.14198964839E+00 -0.75581791137E+01 -0.10069922900E+02  0.12591647223E+02  0.00000000000E+00 0.  1.
</event>
<event>
 7    1  0.8398055E-009  0.4614232E+02  0.7816164E-02  0.1320468E+00
        -11   -1    0    0    0    0  0.00000000000E+00  0.00000000000E+00  0.45593999997E+02  0.45594000000E+02  0.51100000000E-03 0. -1.
         11   -1    0    0    0    0 -0.00000000000E+00 -0.00000000000E+00 -0.45593999997E+02  0.45594000000E+02  0.51100000000E-03 0.  1.
    9900012    2    1    2    0    0  0.11819077887E+02  0.43235278894E+02  0.44870398021E+01  0.46142317973E+02  0.10000001930E+02 0.  0.
        -12    1    1    2    0    0 -0.11819077887E+02 -0.43235278894E+02 -0.44870398021E+01  0.45045682027E+02  0.00000000000E+00 0.  1.
         11    1    3    3    0    0  0.43727955996E+01  0.27106445121E+02 -0.95325983572E+00  0.27473431039E+02  0.51100000000E-03 0. -1.
        -11    1    3    3    0    0  0.50787307102E+01  0.11398121087E+02  0.29520869536E+01  0.12822850213E+02  0.51100000000E-03 0.  1.
         12    1    3    3    0    0  0.23675515770E+01  0.47307126855E+01  0.24882126841E+01  0.58460367211E+01  0.00000000000E+00 0. -1.
</event>
<event>
 7    1  0.8398055E-009  0.4614232E+02  0.7816164E-02  0.1320468E+00
        -11   -1    0    0    0    0  0.00000000000E+00  0.00000000000E+00  0.45593999997E+02  0.45594000000E+02  0.51100000000E-03 0. -1.
         11   -1    0    0    0    0 -0.00000000000E+00 -0.00000000000E+00 -0.45593999997E+02  0.45594000000E+02  0.51100000000E-03 0.  1.
    9900012    2    1    2    0    0 -0.13949301813E+01  0.41506875701E+02 -0.17445530182E+02  0.46142322249E+02  0.10000040923E+02 0.  0.
         12    1    1    2    0    0  0.13949301813E+01 -0.41506875701E+02  0.17445530182E+02  0.45045677751E+02  0.00000000000E+00 0. -1.
         11    1    3    3    0    0  0.11189846413E+01  0.10679442727E+02 -0.71377365761E+01  0.12893793363E+02  0.51100000000E-03 0. -1.
        -11    1    3    3    0    0  0.14355802644E+01  0.13060868974E+02 -0.21933973458E+01  0.13321343071E+02  0.51100000000E-03 0.  1.
        -12    1    3    3    0    0 -0.39494950869E+01  0.17766564000E+02 -0.81143962607E+01  0.19927185815E+02  0.00000000000E+00 0.  1.
</event>
<event>
 7    1  0.8398055E-009  0.4614232E+02  0.7816164E-02  0.1320468E+00
        -11   -1    0    0    0    0  0.00000000000E+00  0.00000000000E+00  0.45593999997E+02  0.45594000000E+02  0.51100000000E-03 0. -1.
         11   -1    0    0    0    0 -0.00000000000E+00 -0.00000000000E+00 -0.45593999997E+02  0.45594000000E+02  0.51100000000E-03 0.  1.
    9900012    2    1    2    0    0  0.19917613226E+01  0.12048157838E+02 -0.43358831128E+02  0.46142318106E+02  0.10000003146E+02 0.  0.
         12    1    1    2    0    0 -0.19917613226E+01 -0.12048157838E+02  0.43358831128E+02  0.45045681894E+02  0.00000000000E+00 0. -1.
         11    1    3    3    0    0 -0.29972693787E+01  0.41746751886E+01 -0.13561456290E+02  0.14502573345E+02  0.51100000000E-03 0. -1.
        -11    1    3    3    0    0 -0.33983620371E+00  0.18663932890E+01 -0.22356607136E+01  0.29320797468E+01  0.51100000000E-03 0.  1.
        -12    1    3    3    0    0  0.53288669050E+01  0.60070893604E+01 -0.27561714125E+02  0.28707665015E+02  0.00000000000E+00 0.  1.
</event>
<event>
 7    1  0.8398055E-009  0.4614232E+02  0.7816164E-02  0.1320468E+00
        -11   -1    0    0    0    0  0.00000000000E+00  0.00000000000E+00  0.45593999997E+02  0.45594000000E+02  0.51100000000E-03 0. -1.
         11   -1    0    0    0    0 -0.00000000000E+00 -0.00000000000E+00 -0.45593999997E+02  0.45594000000E+02  0.51100000000E-03 0.  1.
    9900012    2    1    2    0    0 -0.17646450826E+02 -0.14535595152E+02 -0.38812791411E+02  0.46142317296E+02  0.99999957611E+01 0.  0.
         12    1    1    2    0    0  0.17646450826E+02  0.14535595152E+02  0.38812791411E+02  0.45045682704E+02  0.00000000000E+00 0. -1.
         11    1    3    3    0    0 -0.22751141658E+01 -0.52586838658E+01 -0.13004816716E+02  0.14211092799E+02  0.51100000000E-03 0. -1.
        -11    1    3    3    0    0 -0.29201328205E+01 -0.32771747958E+01 -0.31959327908E+01  0.54296442789E+01  0.51100000000E-03 0.  1.
        -12    1    3    3    0    0 -0.12451203839E+02 -0.59997364907E+01 -0.22612041904E+02  0.26501580218E+02  0.00000000000E+00 0.  1.
</event>
<event>
 7    1  0.8398055E-009  0.4614232E+02  0.7816164E-02  0.1320468E+00
        -11   -1    0    0    0    0  0.00000000000E+00  0.00000000000E+00  0.45593999997E+02  0.45594000000E+02  0.51100000000E-03 0. -1.
         11   -1    0    0    0    0 -0.00000000000E+00 -0.00000000000E+00 -0.45593999997E+02  0.45594000000E+02  0.51100000000E-03 0.  1.
    9900012    2    1    2    0    0 -0.49031212170E+01  0.89299300583E+01  0.43878573882E+02  0.46142317694E+02  0.99999993887E+01 0.  0.
        -12    1    1    2    0    0  0.49031212170E+01 -0.89299300583E+01 -0.43878573882E+02  0.45045682306E+02  0.00000000000E+00 0.  1.
         11    1    3    3    0    0 -0.60086068529E+00  0.24096869830E+00  0.20559205286E+02  0.20569395269E+02  0.51100000000E-03 0. -1.
        -11    1    3    3    0    0 -0.21063670316E+01  0.24996113015E+01  0.39879284455E+01  0.51563952794E+01  0.51100000000E-03 0.  1.
         12    1    3    3    0    0 -0.21958935001E+01  0.61893500585E+01  0.19331440150E+02  0.20416527146E+02  0.00000000000E+00 0. -1.
</event>
<event>
 7    1  0.8398055E-009  0.4614232E+02  0.7816164E-02  0.1320468E+00
        -11   -1    0    0    0    0  0.00000000000E+00  0.00000000000E+00  0.45593999997E+02  0.45594000000E+02  0.51100000000E-03 0. -1.
         11   -1    0    0    0    0 -0.00000000000E+00 -0.00000000000E+00 -0.45593999997E+02  0.45594000000E+02  0.51100000000E-03 0.  1.
    9900012    2    1    2    0    0  0.14055169819E+02  0.32001276293E+01 -0.42676982398E+02  0.46142318275E+02  0.10000004685E+02 0.  0.
         12    1    1    2    0    0 -0.14055169819E+02 -0.32001276293E+01  0.42676982398E+02  0.45045681725E+02  0.00000000000E+00 0. -1.
         11    1    3    3    0    0  0.10377645596E+02  0.39162627010E+01 -0.31549132846E+02  0.33442195282E+02  0.51100000000E-03 0.  1.
        -11    1    3    3    0    0  0.38429923014E+00  0.29441661841E+00 -0.80980445878E+01  0.81125022928E+01  0.51100000000E-03 0. -1.
         12    1    3    3    0    0  0.32932249923E+01 -0.10105516901E+01 -0.30298049642E+01  0.45876207002E+01  0.00000000000E+00 0. -1.
</event>
<event>
 7    1  0.8398055E-009  0.4614232E+02  0.7816164E-02  0.1320468E+00
        -11   -1    0    0    0    0  0.00000000000E+00  0.00000000000E+00  0.45593999997E+02  0.45594000000E+02  0.51100000000E-03 0.  1.
         11   -1    0    0    0    0 -0.00000000000E+00 -0.00000000000E+00 -0.45593999997E+02  0.45594000000E+02  0.51100000000E-03 0. -1.
    9900012    2    1    2    0    0 -0.27138049229E+02  0.29209232176E+02  0.20963312634E+02  0.46142318333E+02  0.10000005217E+02 0.  0.
        -12    1    1    2    0    0  0.27138049229E+02 -0.29209232176E+02 -0.20963312634E+02  0.45045681667E+02  0.00000000000E+00 0.  1.
         11    1    3    3    0    0 -0.37623565849E+01  0.38850556322E+01  0.53249752510E+00  0.54343848054E+01  0.51100000000E-03 0. -1.
        -11    1    3    3    0    0 -0.17520651437E+02  0.15177030989E+02  0.16077873712E+02  0.28210166957E+02  0.51100000000E-03 0.  1.
         12    1    3    3    0    0 -0.58550412074E+01  0.10147145555E+02  0.43529413970E+01  0.12497766571E+02  0.00000000000E+00 0. -1.
</event>
<event>
 7    1  0.8398055E-009  0.4614232E+02  0.7816164E-02  0.1320468E+00
        -11   -1    0    0    0    0  0.00000000000E+00  0.00000000000E+00  0.45593999997E+02  0.45594000000E+02  0.51100000000E-03 0. -1.
         11   -1    0    0    0    0 -0.00000000000E+00 -0.00000000000E+00 -0.45593999997E+02  0.45594000000E+02  0.51100000000E-03 0.  1.
    9900012    2    1    2    0    0  0.66045398982E+01  0.14885356639E+02 -0.41999042961E+02  0.46142318751E+02  0.10000009029E+02 0.  0.
         12    1    1    2    0    0 -0.66045398982E+01 -0.14885356639E+02  0.41999042961E+02  0.45045681249E+02  0.00000000000E+00 0. -1.
         11    1    3    3    0    0 -0.94312674948E+00  0.17278710333E+01 -0.10341104257E+02  0.10526797419E+02  0.51100000000E-03 0. -1.
        -11    1    3    3    0    0  0.29668426801E+01  0.10542777690E+02 -0.23058264179E+02  0.25527159342E+02  0.51100000000E-03 0.  1.
        -12    1    3    3    0    0  0.45808239676E+01  0.26147079155E+01 -0.85996745252E+01  0.10088361990E+02  0.00000000000E+00 0.  1.
</event>
<event>
 7    1  0.8398055E-009  0.4614232E+02  0.7816164E-02  0.1320468E+00
        -11   -1    0    0    0    0  0.00000000000E+00  0.00000000000E+00  0.45593999997E+02  0.45594000000E+02  0.51100000000E-03 0.  1.
         11   -1    0    0    0    0 -0.00000000000E+00 -0.00000000000E+00 -0.45593999997E+02  0.45594000000E+02  0.51100000000E-03 0. -1.
    9900012    2    1    2    0    0 -0.17520355246E+02 -0.13855086183E+02 -0.39117607802E+02  0.46142317618E+02  0.99999986984E+01 0.  0.
         12    1    1    2    0    0  0.17520355246E+02  0.13855086183E+02  0.39117607802E+02  0.45045682382E+02  0.00000000000E+00 0. -1.
         11    1    3    3    0    0 -0.74239015378E+00 -0.25130853244E+01 -0.12101519886E+01  0.28863833918E+01  0.51100000000E-03 0. -1.
        -11    1    3    3    0    0 -0.80821195606E+01 -0.56405967710E+01 -0.23544289242E+02  0.25523921029E+02  0.51100000000E-03 0.  1.
        -12    1    3    3    0    0 -0.86958455318E+01 -0.57014040878E+01 -0.14363166571E+02  0.17732013197E+02  0.00000000000E+00 0.  1.
</event>
<event>
 7    1  0.8398055E-009  0.4614232E+02  0.7816164E-02  0.1320468E+00
        -11   -1    0    0    0    0  0.00000000000E+00  0.00000000000E+00  0.45593999997E+02  0.45594000000E+02  0.51100000000E-03 0. -1.
         11   -1    0    0    0    0 -0.00000000000E+00 -0.00000000000E+00 -0.45593999997E+02  0.45594000000E+02  0.51100000000E-03 0.  1.
    9900012    2    1    2    0    0 -0.27734276360E+02 -0.35490715898E+02 -0.57657291868E+00  0.46142318337E+02  0.10000005252E+02 0.  0.
         12    1    1    2    0    0  0.27734276360E+02  0.35490715898E+02  0.57657291868E+00  0.45045681663E+02  0.00000000000E+00 0. -1.
         11    1    3    3    0    0 -0.40715396240E+00 -0.30020309290E+01 -0.83644956076E-01  0.30306700229E+01  0.51100000000E-03 0. -1.
        -11    1    3    3    0    0 -0.51870338858E+01 -0.70564642622E+01  0.28921876721E+01  0.92230015834E+01  0.51100000000E-03 0.  1.
        -12    1    3    3    0    0 -0.22140088511E+02 -0.25432220707E+02 -0.33851156347E+01  0.33888646731E+02  0.00000000000E+00 0.  1.
</event>
<event>
 7    1  0.8398055E-009  0.4614232E+02  0.7816164E-02  0.1320468E+00
        -11   -1    0    0    0    0  0.00000000000E+00  0.00000000000E+00  0.45593999997E+02  0.45594000000E+02  0.51100000000E-03 0. -1.
         11   -1    0    0    0    0 -0.00000000000E+00 -0.00000000000E+00 -0.45593999997E+02  0.45594000000E+02  0.51100000000E-03 0.  1.
    9900012    2    1    2    0    0 -0.11464739393E+01  0.21432670559E+02  0.39603530425E+02  0.46142318832E+02  0.10000009762E+02 0.  0.
        -12    1    1    2    0    0  0.11464739393E+01 -0.21432670559E+02 -0.39603530425E+02  0.45045681168E+02  0.00000000000E+00 0.  1.
         11    1    3    3    0    0  0.11860799978E+01  0.48032829143E+01  0.56603940459E+01  0.75178702790E+01  0.51100000000E-03 0.  1.
        -11    1    3    3    0    0 -0.46208580156E+00  0.11134555717E+02  0.14229435642E+02  0.18073978346E+02  0.51100000000E-03 0. -1.
         12    1    3    3    0    0 -0.18704681356E+01  0.54948319283E+01  0.19713700737E+02  0.20550470207E+02  0.00000000000E+00 0. -1.
</event>
<event>
 7    1  0.8398055E-009  0.4614232E+02  0.7816164E-02  0.1320468E+00
        -11   -1    0    0    0    0  0.00000000000E+00  0.00000000000E+00  0.45593999997E+02  0.45594000000E+02  0.51100000000E-03 0. -1.
         11   -1    0    0    0    0 -0.00000000000E+00 -0.00000000000E+00 -0.45593999997E+02  0.45594000000E+02  0.51100000000E-03 0.  1.
    9900012    2    1    2    0    0  0.11824550563E+02 -0.11869741402E+02 -0.41813905798E+02  0.46142317909E+02  0.10000001348E+02 0.  0.
         12    1    1    2    0    0 -0.11824550563E+02  0.11869741402E+02  0.41813905798E+02  0.45045682091E+02  0.00000000000E+00 0. -1.
         11    1    3    3    0    0 -0.26245153594E+00  0.35892882001E+00 -0.52556456120E+00  0.68842506903E+00  0.51100000000E-03 0. -1.
        -11    1    3    3    0    0  0.33669268261E+01 -0.91629657878E+01 -0.20777290407E+02  0.22956304912E+02  0.51100000000E-03 0.  1.
         12    1    3    3    0    0  0.87200752731E+01 -0.30657044340E+01 -0.20511050830E+02  0.22497587928E+02  0.00000000000E+00 0. -1.
</event>
<event>
 7    1  0.8398055E-009  0.4614232E+02  0.7816164E-02  0.1320468E+00
        -11   -1    0    0    0    0  0.00000000000E+00  0.00000000000E+00  0.45593999997E+02  0.45594000000E+02  0.51100000000E-03 0. -1.
         11   -1    0    0    0    0 -0.00000000000E+00 -0.00000000000E+00 -0.45593999997E+02  0.45594000000E+02  0.51100000000E-03 0.  1.
    9900012    2    1    2    0    0 -0.20142210467E+02  0.72242683545E+01 -0.39638552083E+02  0.46142317554E+02  0.99999981124E+01 0.  0.
         12    1    1    2    0    0  0.20142210467E+02 -0.72242683545E+01  0.39638552083E+02  0.45045682446E+02  0.00000000000E+00 0. -1.
         11    1    3    3    0    0 -0.72482714441E+01  0.33669169318E+00 -0.17875273943E+02  0.19291869246E+02  0.51100000000E-03 0. -1.
        -11    1    3    3    0    0 -0.33279619103E+01  0.48310308136E+01 -0.94522814884E+01  0.11124738864E+02  0.51100000000E-03 0.  1.
        -12    1    3    3    0    0 -0.95659771123E+01  0.20565458478E+01 -0.12310996652E+02  0.15725709444E+02  0.00000000000E+00 0.  1.
</event>
<event>
 7    1  0.8398055E-009  0.4614232E+02  0.7816164E-02  0.1320468E+00
        -11   -1    0    0    0    0  0.00000000000E+00  0.00000000000E+00  0.45593999997E+02  0.45594000000E+02  0.51100000000E-03 0.  1.
         11   -1    0    0    0    0 -0.00000000000E+00 -0.00000000000E+00 -0.45593999997E+02  0.45594000000E+02  0.51100000000E-03 0. -1.
    9900012    2    1    2    0    0  0.10437947515E+02  0.43646935054E+02 -0.38868771830E+01  0.46142317608E+02  0.99999986003E+01 0.  0.
         12    1    1    2    0    0 -0.10437947515E+02 -0.43646935054E+02  0.38868771830E+01  0.45045682392E+02  0.00000000000E+00 0. -1.
         11    1    3    3    0    0  0.84305326365E+01  0.24505002232E+02 -0.46497211480E+01  0.26328481193E+02  0.51100000000E-03 0. -1.
        -11    1    3    3    0    0  0.26712307994E+00  0.71691931292E+00  0.10565783707E+01  0.13044869320E+01  0.51100000000E-03 0.  1.
        -12    1    3    3    0    0  0.17402917990E+01  0.18425013510E+02 -0.29373440571E+00  0.18509349483E+02  0.00000000000E+00 0.  1.
</event>
<event>
 7    1  0.8398055E-009  0.4614232E+02  0.7816164E-02  0.1320468E+00
        -11   -1    0    0    0    0  0.00000000000E+00  0.00000000000E+00  0.45593999997E+02  0.45594000000E+02  0.51100000000E-03 0. -1.
         11   -1    0    0    0    0 -0.00000000000E+00 -0.00000000000E+00 -0.45593999997E+02  0.45594000000E+02  0.51100000000E-03 0.  1.
    9900012    2    1    2    0    0  0.20520268778E+02 -0.72428523623E+01  0.39440754772E+02  0.46142317876E+02  0.10000001045E+02 0.  0.
        -12    1    1    2    0    0 -0.20520268778E+02  0.72428523623E+01 -0.39440754772E+02  0.45045682124E+02  0.00000000000E+00 0.  1.
         11    1    3    3    0    0 -0.85096613004E+00 -0.28777834488E+00  0.18479946955E+01  0.20547613939E+01  0.51100000000E-03 0. -1.
        -11    1    3    3    0    0  0.98765221344E+01 -0.59234659137E+00  0.16187493164E+02  0.18971860720E+02  0.51100000000E-03 0.  1.
         12    1    3    3    0    0  0.11494712774E+02 -0.63627274261E+01  0.21405266912E+02  0.25115695762E+02  0.00000000000E+00 0. -1.
</event>
<event>
 7    1  0.8398055E-009  0.4614232E+02  0.7816164E-02  0.1320468E+00
        -11   -1    0    0    0    0  0.00000000000E+00  0.00000000000E+00  0.45593999997E+02  0.45594000000E+02  0.51100000000E-03 0. -1.
         11   -1    0    0    0    0 -0.00000000000E+00 -0.00000000000E+00 -0.45593999997E+02  0.45594000000E+02  0.51100000000E-03 0.  1.
    9900012    2    1    2    0    0 -0.14571612852E+02 -0.42575725541E+02 -0.20221645516E+01  0.46142318121E+02  0.10000003285E+02 0.  0.
        -12    1    1    2    0    0  0.14571612852E+02  0.42575725541E+02  0.20221645516E+01  0.45045681879E+02  0.00000000000E+00 0.  1.
         11    1    3    3    0    0 -0.56728051119E+01 -0.17121306618E+02 -0.11720813962E+01  0.18074668274E+02  0.51100000000E-03 0. -1.
        -11    1    3    3    0    0 -0.68394848486E+01 -0.14093574194E+02 -0.38635815998E+01  0.16134889203E+02  0.51100000000E-03 0.  1.
        -12    1    3    3    0    0 -0.20593228914E+01 -0.11360844729E+02  0.30134984444E+01  0.11932760644E+02  0.00000000000E+00 0.  1.
</event>
<event>
 7    1  0.8398055E-009  0.4614232E+02  0.7816164E-02  0.1320468E+00
        -11   -1    0    0    0    0  0.00000000000E+00  0.00000000000E+00  0.45593999997E+02  0.45594000000E+02  0.51100000000E-03 0. -1.
         11   -1    0    0    0    0 -0.00000000000E+00 -0.00000000000E+00 -0.45593999997E+02  0.45594000000E+02  0.51100000000E-03 0.  1.
    9900012    2    1    2    0    0 -0.57946504115E+01  0.89035985384E+01  0.43775124280E+02  0.46142317121E+02  0.99999941655E+01 0.  0.
        -12    1    1    2    0    0  0.57946504115E+01 -0.89035985384E+01 -0.43775124280E+02  0.45045682879E+02  0.00000000000E+00 0.  1.
         11    1    3    3    0    0 -0.97416732333E+00  0.38213343855E+01  0.26308542846E+02  0.26602462770E+02  0.51100000000E-03 0.  1.
        -11    1    3    3    0    0 -0.53209663619E+01  0.41658841024E+01  0.17173658280E+02  0.18455400628E+02  0.51100000000E-03 0. -1.
        -12    1    3    3    0    0  0.50048327371E+00  0.91638005046E+00  0.29292315353E+00  0.10844537233E+01  0.00000000000E+00 0.  1.
</event>
<event>
 7    1  0.8398055E-009  0.4614232E+02  0.7816164E-02  0.1320468E+00
        -11   -1    0    0    0    0  0.00000000000E+00  0.00000000000E+00  0.45593999997E+02  0.45594000000E+02  0.51100000000E-03 0. -1.
         11   -1    0    0    0    0 -0.00000000000E+00 -0.00000000000E+00 -0.45593999997E+02  0.45594000000E+02  0.51100000000E-03 0.  1.
    9900012    2    1    2    0    0 -0.81389701478E+01  0.19966581064E+02  0.39550050980E+02  0.46142315113E+02  0.99999758547E+01 0.  0.
        -12    1    1    2    0    0  0.81389701478E+01 -0.19966581064E+02 -0.39550050980E+02  0.45045684887E+02  0.00000000000E+00 0.  1.
         11    1    3    3    0    0 -0.52393924908E+01  0.14309334253E+02  0.21836024734E+02  0.26627434290E+02  0.51100000000E-03 0. -1.
        -11    1    3    3    0    0  0.55049555359E+00  0.20583433170E+01  0.10696820821E+02  0.10906961011E+02  0.51100000000E-03 0.  1.
         12    1    3    3    0    0 -0.34500732106E+01  0.35989034937E+01  0.70172054246E+01  0.86079198118E+01  0.00000000000E+00 0. -1.
</event>
<event>
 7    1  0.8398055E-009  0.4614232E+02  0.7816164E-02  0.1320468E+00
        -11   -1    0    0    0    0  0.00000000000E+00  0.00000000000E+00  0.45593999997E+02  0.45594000000E+02  0.51100000000E-03 0. -1.
         11   -1    0    0    0    0 -0.00000000000E+00 -0.00000000000E+00 -0.45593999997E+02  0.45594000000E+02  0.51100000000E-03 0.  1.
    9900012    2    1    2    0    0 -0.30775612918E+01 -0.21160850712E+02 -0.39646695201E+02  0.46142318445E+02  0.10000006238E+02 0.  0.
         12    1    1    2    0    0  0.30775612918E+01  0.21160850712E+02  0.39646695201E+02  0.45045681555E+02  0.00000000000E+00 0. -1.
         11    1    3    3    0    0 -0.29196311319E+01 -0.15615973541E+02 -0.21187519020E+02  0.26481953064E+02  0.51100000000E-03 0.  1.
        -11    1    3    3    0    0 -0.13713409784E+01 -0.53357988904E+01 -0.14371703473E+02  0.15391464741E+02  0.51100000000E-03 0. -1.
        -12    1    3    3    0    0  0.12134108185E+01 -0.20907828016E+00 -0.40874727078E+01  0.42689006406E+01  0.00000000000E+00 0.  1.
</event>
<event>
 7    1  0.8398055E-009  0.4614232E+02  0.7816164E-02  0.1320468E+00
        -11   -1    0    0    0    0  0.00000000000E+00  0.00000000000E+00  0.45593999997E+02  0.45594000000E+02  0.51100000000E-03 0.  1.
         11   -1    0    0    0    0 -0.00000000000E+00 -0.00000000000E+00 -0.45593999997E+02  0.45594000000E+02  0.51100000000E-03 0. -1.
    9900012    2    1    2    0    0 -0.37979464625E+02  0.23267240618E+02  0.67311746355E+01  0.46142323946E+02  0.10000056401E+02 0.  0.
        -12    1    1    2    0    0  0.37979464625E+02 -0.23267240618E+02 -0.67311746355E+01  0.45045676054E+02  0.00000000000E+00 0.  1.
         11    1    3    3    0    0 -0.15396554459E+02  0.11457002973E+02  0.37420331960E+01  0.19552995142E+02  0.51100000000E-03 0. -1.
        -11    1    3    3    0    0 -0.18682909500E+02  0.10511411238E+02  0.50014394610E+01  0.22012616168E+02  0.51100000000E-03 0.  1.
        -12    1    3    3    0    0 -0.39000006657E+01  0.12988264076E+01 -0.20122980215E+01  0.45767126365E+01  0.00000000000E+00 0.  1.
</event>
<event>
 7    1  0.8398055E-009  0.4614232E+02  0.7816164E-02  0.1320468E+00
        -11   -1    0    0    0    0  0.00000000000E+00  0.00000000000E+00  0.45593999997E+02  0.45594000000E+02  0.51100000000E-03 0. -1.
         11   -1    0    0    0    0 -0.00000000000E+00 -0.00000000000E+00 -0.45593999997E+02  0.45594000000E+02  0.51100000000E-03 0.  1.
    9900012    2    1    2    0    0  0.12921454850E+02 -0.29631127232E+02 -0.31371097579E+02  0.46142318079E+02  0.10000002895E+02 0.  0.
         12    1    1    2    0    0 -0.12921454850E+02  0.29631127232E+02  0.31371097579E+02  0.45045681921E+02  0.00000000000E+00 0. -1.
         11    1    3    3    0    0  0.91188147887E+00 -0.11095345773E+02 -0.85455691250E+01  0.14034421170E+02  0.51100000000E-03 0. -1.
        -11    1    3    3    0    0  0.19504579249E+01 -0.13247454906E+01 -0.10369588828E+01  0.25757563389E+01  0.51100000000E-03 0.  1.
         12    1    3    3    0    0  0.10059115446E+02 -0.17211035968E+02 -0.21788569571E+02  0.29532140569E+02  0.00000000000E+00 0. -1.
</event>
<event>
 7    1  0.8398055E-009  0.4614232E+02  0.7816164E-02  0.1320468E+00
        -11   -1    0    0    0    0  0.00000000000E+00  0.00000000000E+00  0.45593999997E+02  0.45594000000E+02  0.51100000000E-03 0.  1.
         11   -1    0    0    0    0 -0.00000000000E+00 -0.00000000000E+00 -0.45593999997E+02  0.45594000000E+02  0.51100000000E-03 0. -1.
    9900012    2    1    2    0    0  0.41021829623E+02  0.18487261362E+02 -0.21317587520E+01  0.46142315038E+02  0.99999751697E+01 0.  0.
         12    1    1    2    0    0 -0.41021829623E+02 -0.18487261362E+02  0.21317587520E+01  0.45045684962E+02  0.00000000000E+00 0. -1.
         11    1    3    3    0    0  0.14084902896E+02  0.45995674744E+01  0.25928651160E+01  0.15042056386E+02  0.51100000000E-03 0. -1.
        -11    1    3    3    0    0  0.17615549417E+02  0.10756528390E+02 -0.12744904542E+01  0.20679332931E+02  0.51100000000E-03 0.  1.
        -12    1    3    3    0    0  0.93213773098E+01  0.31311654983E+01 -0.34501334137E+01  0.10420925722E+02  0.00000000000E+00 0.  1.
</event>
<event>
 7    1  0.8398055E-009  0.4614232E+02  0.7816164E-02  0.1320468E+00
        -11   -1    0    0    0    0  0.00000000000E+00  0.00000000000E+00  0.45593999997E+02  0.45594000000E+02  0.51100000000E-03 0. -1.
         11   -1    0    0    0    0 -0.00000000000E+00 -0.00000000000E+00 -0.45593999997E+02  0.45594000000E+02  0.51100000000E-03 0.  1.
    9900012    2    1    2    0    0  0.14337703862E+02 -0.35691079710E+02 -0.23445478686E+02  0.46142318812E+02  0.10000009583E+02 0.  0.
         12    1    1    2    0    0 -0.14337703862E+02  0.35691079710E+02  0.23445478686E+02  0.45045681188E+02  0.00000000000E+00 0. -1.
         11    1    3    3    0    0  0.21446372215E+01 -0.21127738227E+01 -0.21457576271E+01  0.36969660660E+01  0.51100000000E-03 0. -1.
        -11    1    3    3    0    0 -0.48446640667E+00 -0.80982234871E+01 -0.63213989236E+01  0.10284746762E+02  0.51100000000E-03 0.  1.
         12    1    3    3    0    0  0.12677533048E+02 -0.25480082400E+02 -0.14978322135E+02  0.32160605984E+02  0.00000000000E+00 0. -1.
</event>
<event>
 7    1  0.8398055E-009  0.4614232E+02  0.7816164E-02  0.1320468E+00
        -11   -1    0    0    0    0  0.00000000000E+00  0.00000000000E+00  0.45593999997E+02  0.45594000000E+02  0.51100000000E-03 0. -1.
         11   -1    0    0    0    0 -0.00000000000E+00 -0.00000000000E+00 -0.45593999997E+02  0.45594000000E+02  0.51100000000E-03 0.  1.
    9900012    2    1    2    0    0  0.17353799199E+02 -0.15015434896E+02  0.38762040939E+02  0.46142318192E+02  0.10000003933E+02 0.  0.
        -12    1    1    2    0    0 -0.17353799199E+02  0.15015434896E+02 -0.38762040939E+02  0.45045681808E+02  0.00000000000E+00 0.  1.
         11    1    3    3    0    0  0.58365878452E+01 -0.50023924183E+01  0.17990254840E+02  0.19563715318E+02  0.51100000000E-03 0. -1.
        -11    1    3    3    0    0  0.10101610992E+02 -0.77683191535E+01  0.12339027549E+02  0.17738120763E+02  0.51100000000E-03 0.  1.
        -12    1    3    3    0    0  0.14156003620E+01 -0.22447233237E+01  0.84327585508E+01  0.88404821113E+01  0.00000000000E+00 0.  1.
</event>
<event>
 7    1  0.8398055E-009  0.4614232E+02  0.7816164E-02  0.1320468E+00
        -11   -1    0    0    0    0  0.00000000000E+00  0.00000000000E+00  0.45593999997E+02  0.45594000000E+02  0.51100000000E-03 0. -1.
         11   -1    0    0    0    0 -0.00000000000E+00 -0.00000000000E+00 -0.45593999997E+02  0.45594000000E+02  0.51100000000E-03 0.  1.
    9900012    2    1    2    0    0  0.36897325821E+02 -0.70479728245E+01 -0.24860143653E+02  0.46142319673E+02  0.10000017432E+02 0.  0.
         12    1    1    2    0    0 -0.36897325821E+02  0.70479728245E+01  0.24860143653E+02  0.45045680327E+02  0.00000000000E+00 0. -1.
         11    1    3    3    0    0  0.48445811075E+01 -0.14255549046E+01 -0.18084722464E+01  0.53640232121E+01  0.51100000000E-03 0. -1.
        -11    1    3    3    0    0  0.28780890447E+02 -0.76579395825E+01 -0.20551252603E+02  0.36184771346E+02  0.51100000000E-03 0.  1.
        -12    1    3    3    0    0  0.32718542666E+01  0.20355216627E+01 -0.25004188035E+01  0.45935251141E+01  0.00000000000E+00 0.  1.
</event>
<event>
 7    1  0.8398055E-009  0.4614232E+02  0.7816164E-02  0.1320468E+00
        -11   -1    0    0    0    0  0.00000000000E+00  0.00000000000E+00  0.45593999997E+02  0.45594000000E+02  0.51100000000E-03 0. -1.
         11   -1    0    0    0    0 -0.00000000000E+00 -0.00000000000E+00 -0.45593999997E+02  0.45594000000E+02  0.51100000000E-03 0.  1.
    9900012    2    1    2    0    0 -0.17627900091E+02 -0.12184361094E+02 -0.39622114109E+02  0.46142318261E+02  0.10000004555E+02 0.  0.
         12    1    1    2    0    0  0.17627900091E+02  0.12184361094E+02  0.39622114109E+02  0.45045681739E+02  0.00000000000E+00 0. -1.
         11    1    3    3    0    0 -0.37114470360E+01  0.37187505238E+00 -0.69395892905E+01  0.78785169885E+01  0.51100000000E-03 0. -1.
        -11    1    3    3    0    0 -0.13322827945E+02 -0.13054246603E+02 -0.32493055471E+02  0.37466114729E+02  0.51100000000E-03 0.  1.
        -12    1    3    3    0    0 -0.59362510991E+00  0.49801045722E+00 -0.18946934794E+00  0.79768654271E+00  0.00000000000E+00 0.  1.
</event>
<event>
 7    1  0.8398055E-009  0.4614232E+02  0.7816164E-02  0.1320468E+00
        -11   -1    0    0    0    0  0.00000000000E+00  0.00000000000E+00  0.45593999997E+02  0.45594000000E+02  0.51100000000E-03 0.  1.
         11   -1    0    0    0    0 -0.00000000000E+00 -0.00000000000E+00 -0.45593999997E+02  0.45594000000E+02  0.51100000000E-03 0. -1.
    9900012    2    1    2    0    0 -0.41651274703E+02 -0.53568267036E+01  0.16296908340E+02  0.46142317653E+02  0.99999990124E+01 0.  0.
        -12    1    1    2    0    0  0.41651274703E+02  0.53568267036E+01 -0.16296908340E+02  0.45045682347E+02  0.00000000000E+00 0.  1.
         11    1    3    3    0    0 -0.93154224103E+01  0.16928828904E+01  0.30323455347E+01  0.99417335946E+01  0.51100000000E-03 0. -1.
        -11    1    3    3    0    0 -0.60539456121E+01 -0.35359727347E+01  0.42287667852E+01  0.81875411107E+01  0.51100000000E-03 0.  1.
         12    1    3    3    0    0 -0.26281906680E+02 -0.35137368593E+01  0.90357960197E+01  0.28013042948E+02  0.00000000000E+00 0. -1.
</event>
<event>
 7    1  0.8398055E-009  0.4614232E+02  0.7816164E-02  0.1320468E+00
        -11   -1    0    0    0    0  0.00000000000E+00  0.00000000000E+00  0.45593999997E+02  0.45594000000E+02  0.51100000000E-03 0. -1.
         11   -1    0    0    0    0 -0.00000000000E+00 -0.00000000000E+00 -0.45593999997E+02  0.45594000000E+02  0.51100000000E-03 0.  1.
    9900012    2    1    2    0    0  0.41227511115E+01  0.68503001402E+01  0.44330455297E+02  0.46142323675E+02  0.10000053924E+02 0.  0.
        -12    1    1    2    0    0 -0.41227511115E+01 -0.68503001402E+01 -0.44330455297E+02  0.45045676325E+02  0.00000000000E+00 0.  1.
         11    1    3    3    0    0  0.38940622010E+01 -0.36832508184E-01  0.15474982555E+02  0.15957448492E+02  0.51100000000E-03 0. -1.
        -11    1    3    3    0    0  0.17607370110E+01  0.50557900556E+01  0.11732482828E+02  0.12896215006E+02  0.51100000000E-03 0.  1.
         12    1    3    3    0    0 -0.15320481005E+01  0.18313425928E+01  0.17122989915E+02  0.17288660177E+02  0.00000000000E+00 0. -1.
</event>
<event>
 7    1  0.8398055E-009  0.4614232E+02  0.7816164E-02  0.1320468E+00
        -11   -1    0    0    0    0  0.00000000000E+00  0.00000000000E+00  0.45593999997E+02  0.45594000000E+02  0.51100000000E-03 0. -1.
         11   -1    0    0    0    0 -0.00000000000E+00 -0.00000000000E+00 -0.45593999997E+02  0.45594000000E+02  0.51100000000E-03 0.  1.
    9900012    2    1    2    0    0 -0.34695834697E+02 -0.12541536303E+02 -0.25846129060E+02  0.46142318015E+02  0.10000002315E+02 0.  0.
         12    1    1    2    0    0  0.34695834697E+02  0.12541536303E+02  0.25846129060E+02  0.45045681985E+02  0.00000000000E+00 0. -1.
         11    1    3    3    0    0 -0.12339267105E+00 -0.66598624850E+00 -0.45863226148E+00  0.81798975962E+00  0.51100000000E-03 0. -1.
        -11    1    3    3    0    0 -0.29290781728E+02 -0.12640097161E+02 -0.23649580170E+02  0.39711768948E+02  0.51100000000E-03 0.  1.
         12    1    3    3    0    0 -0.52816602970E+01  0.76454710708E+00 -0.17379166287E+01  0.56125593075E+01  0.00000000000E+00 0. -1.
</event>
<event>
 7    1  0.8398055E-009  0.4614232E+02  0.7816164E-02  0.1320468E+00
        -11   -1    0    0    0    0  0.00000000000E+00  0.00000000000E+00  0.45593999997E+02  0.45594000000E+02  0.51100000000E-03 0.  1.
         11   -1    0    0    0    0 -0.00000000000E+00 -0.00000000000E+00 -0.45593999997E+02  0.45594000000E+02  0.51100000000E-03 0. -1.
    9900012    2    1    2    0    0 -0.29532227358E+02 -0.33271448668E+02  0.70690554345E+01  0.46142319920E+02  0.10000019685E+02 0.  0.
         12    1    1    2    0    0  0.29532227358E+02  0.33271448668E+02 -0.70690554345E+01  0.45045680080E+02  0.00000000000E+00 0. -1.
         11    1    3    3    0    0 -0.48916389325E+01 -0.21984771890E+01  0.28021758498E+01  0.60509191989E+01  0.51100000000E-03 0. -1.
        -11    1    3    3    0    0 -0.22318349557E+01 -0.14730622521E+01 -0.27863515204E+00  0.26886125562E+01  0.51100000000E-03 0.  1.
        -12    1    3    3    0    0 -0.22408753469E+02 -0.29599909227E+02  0.45455147368E+01  0.37402788165E+02  0.00000000000E+00 0.  1.
</event>
<event>
 7    1  0.8398055E-009  0.4614232E+02  0.7816164E-02  0.1320468E+00
        -11   -1    0    0    0    0  0.00000000000E+00  0.00000000000E+00  0.45593999997E+02  0.45594000000E+02  0.51100000000E-03 0. -1.
         11   -1    0    0    0    0 -0.00000000000E+00 -0.00000000000E+00 -0.45593999997E+02  0.45594000000E+02  0.51100000000E-03 0.  1.
    9900012    2    1    2    0    0 -0.17678564301E+02 -0.14283365884E+02  0.38891739045E+02  0.46142317159E+02  0.99999945060E+01 0.  0.
        -12    1    1    2    0    0  0.17678564301E+02  0.14283365884E+02 -0.38891739045E+02  0.45045682841E+02  0.00000000000E+00 0.  1.
         11    1    3    3    0    0 -0.31555904279E+00  0.51238059937E+00  0.46105535039E+00  0.75807894400E+00  0.51100000000E-03 0. -1.
        -11    1    3    3    0    0 -0.26680458301E+01  0.38062545239E+00  0.71254207960E+01  0.76180683948E+01  0.51100000000E-03 0.  1.
         12    1    3    3    0    0 -0.14694959428E+02 -0.15176371935E+02  0.31305262898E+02  0.37766169820E+02  0.00000000000E+00 0. -1.
</event>
<event>
 7    1  0.8398055E-009  0.4614232E+02  0.7816164E-02  0.1320468E+00
        -11   -1    0    0    0    0  0.00000000000E+00  0.00000000000E+00  0.45593999997E+02  0.45594000000E+02  0.51100000000E-03 0. -1.
         11   -1    0    0    0    0 -0.00000000000E+00 -0.00000000000E+00 -0.45593999997E+02  0.45594000000E+02  0.51100000000E-03 0.  1.
    9900012    2    1    2    0    0 -0.26864829545E+01  0.31219125691E+02  0.32361434888E+02  0.46142317992E+02  0.10000002103E+02 0.  0.
        -12    1    1    2    0    0  0.26864829545E+01 -0.31219125691E+02 -0.32361434888E+02  0.45045682008E+02  0.00000000000E+00 0.  1.
         11    1    3    3    0    0 -0.59616358918E+01  0.19912946448E+02  0.20318286884E+02  0.29067151923E+02  0.51100000000E-03 0. -1.
        -11    1    3    3    0    0  0.93569323600E+00  0.71002241597E+00  0.65491333493E+00  0.13448291343E+01  0.51100000000E-03 0.  1.
        -12    1    3    3    0    0  0.23394597013E+01  0.10596156827E+02  0.11388234670E+02  0.15730336935E+02  0.00000000000E+00 0.  1.
</event>
<event>
 7    1  0.8398055E-009  0.4614232E+02  0.7816164E-02  0.1320468E+00
        -11   -1    0    0    0    0  0.00000000000E+00  0.00000000000E+00  0.45593999997E+02  0.45594000000E+02  0.51100000000E-03 0. -1.
         11   -1    0    0    0    0 -0.00000000000E+00 -0.00000000000E+00 -0.45593999997E+02  0.45594000000E+02  0.51100000000E-03 0.  1.
    9900012    2    1    2    0    0  0.73428966621E+01 -0.20229022834E+02  0.39572489853E+02  0.46142318194E+02  0.10000003948E+02 0.  0.
        -12    1    1    2    0    0 -0.73428966621E+01  0.20229022834E+02 -0.39572489853E+02  0.45045681806E+02  0.00000000000E+00 0.  1.
         11    1    3    3    0    0  0.58398416020E+01 -0.88071696633E+01  0.21361723257E+02  0.23832608086E+02  0.51100000000E-03 0. -1.
        -11    1    3    3    0    0  0.67006336902E+00 -0.48130774735E+01  0.12918285472E+02  0.13802057798E+02  0.51100000000E-03 0.  1.
        -12    1    3    3    0    0  0.83299169112E+00 -0.66087756970E+01  0.52924811244E+01  0.85076523097E+01  0.00000000000E+00 0.  1.
</event>
<event>
 7    1  0.8398055E-009  0.4614232E+02  0.7816164E-02  0.1320468E+00
        -11   -1    0    0    0    0  0.00000000000E+00  0.00000000000E+00  0.45593999997E+02  0.45594000000E+02  0.51100000000E-03 0. -1.
         11   -1    0    0    0    0 -0.00000000000E+00 -0.00000000000E+00 -0.45593999997E+02  0.45594000000E+02  0.51100000000E-03 0.  1.
    9900012    2    1    2    0    0  0.16559598074E+02 -0.37388139865E+02  0.18894978182E+02  0.46142317727E+02  0.99999996874E+01 0.  0.
        -12    1    1    2    0    0 -0.16559598074E+02  0.37388139865E+02 -0.18894978182E+02  0.45045682273E+02  0.00000000000E+00 0.  1.
         11    1    3    3    0    0 -0.32493603246E-01 -0.33652296438E+01  0.35772371356E+01  0.49114613075E+01  0.51100000000E-03 0.  1.
        -11    1    3    3    0    0  0.14663385064E+02 -0.30944041444E+02  0.11923873860E+02  0.36259168916E+02  0.51100000000E-03 0. -1.
         12    1    3    3    0    0  0.19287066138E+01 -0.30788687779E+01  0.33938671860E+01  0.49716875032E+01  0.00000000000E+00 0. -1.
</event>
<event>
 7    1  0.8398055E-009  0.4614232E+02  0.7816164E-02  0.1320468E+00
        -11   -1    0    0    0    0  0.00000000000E+00  0.00000000000E+00  0.45593999997E+02  0.45594000000E+02  0.51100000000E-03 0. -1.
         11   -1    0    0    0    0 -0.00000000000E+00 -0.00000000000E+00 -0.45593999997E+02  0.45594000000E+02  0.51100000000E-03 0.  1.
    9900012    2    1    2    0    0  0.90853477070E+01 -0.22220253877E+02  0.38116010492E+02  0.46142317841E+02  0.10000000732E+02 0.  0.
        -12    1    1    2    0    0 -0.90853477070E+01  0.22220253877E+02 -0.38116010492E+02  0.45045682159E+02  0.00000000000E+00 0.  1.
         11    1    3    3    0    0  0.39436074441E+01 -0.92687414139E+01  0.94547329130E+01  0.13814976720E+02  0.51100000000E-03 0. -1.
        -11    1    3    3    0    0  0.35492610287E+01 -0.81018333681E+01  0.12039376483E+02  0.14939328771E+02  0.51100000000E-03 0.  1.
        -12    1    3    3    0    0  0.15924792342E+01 -0.48496790953E+01  0.16621901096E+02  0.17388012350E+02  0.00000000000E+00 0.  1.
</event>
<event>
 7    1  0.8398055E-009  0.4614232E+02  0.7816164E-02  0.1320468E+00
        -11   -1    0    0    0    0  0.00000000000E+00  0.00000000000E+00  0.45593999997E+02  0.45594000000E+02  0.51100000000E-03 0. -1.
         11   -1    0    0    0    0 -0.00000000000E+00 -0.00000000000E+00 -0.45593999997E+02  0.45594000000E+02  0.51100000000E-03 0.  1.
    9900012    2    1    2    0    0 -0.10468680015E+02 -0.43726596126E+01 -0.43593578887E+02  0.46142317260E+02  0.99999954261E+01 0.  0.
         12    1    1    2    0    0  0.10468680015E+02  0.43726596126E+01  0.43593578887E+02  0.45045682740E+02  0.00000000000E+00 0. -1.
         11    1    3    3    0    0  0.14367304207E+01 -0.14092119538E+01 -0.48248363899E+01  0.52277259954E+01  0.51100000000E-03 0. -1.
        -11    1    3    3    0    0 -0.14408995732E+01 -0.65209896859E+00 -0.16746342370E+01  0.23034375906E+01  0.51100000000E-03 0.  1.
        -12    1    3    3    0    0 -0.10464510862E+02 -0.23113486902E+01 -0.37094108261E+02  0.38611153674E+02  0.00000000000E+00 0.  1.
</event>
<event>
 7    1  0.8398055E-009  0.4614232E+02  0.7816164E-02  0.1320468E+00
        -11   -1    0    0    0    0  0.00000000000E+00  0.00000000000E+00  0.45593999997E+02  0.45594000000E+02  0.51100000000E-03 0. -1.
         11   -1    0    0    0    0 -0.00000000000E+00 -0.00000000000E+00 -0.45593999997E+02  0.45594000000E+02  0.51100000000E-03 0.  1.
    9900012    2    1    2    0    0  0.64544848192E+00 -0.28929510787E+02 -0.34522172677E+02  0.46142316472E+02  0.99999882447E+01 0.  0.
         12    1    1    2    0    0 -0.64544848192E+00  0.28929510787E+02  0.34522172677E+02  0.45045683528E+02  0.00000000000E+00 0. -1.
         11    1    3    3    0    0  0.12096789158E+01 -0.73944274183E+01 -0.80335165095E+01  0.10985366070E+02  0.51100000000E-03 0. -1.
        -11    1    3    3    0    0  0.37351609901E+01 -0.12151986288E+02 -0.13138507036E+02  0.18282301982E+02  0.51100000000E-03 0.  1.
        -12    1    3    3    0    0 -0.42993914240E+01 -0.93830970807E+01 -0.13350149132E+02  0.16874648420E+02  0.00000000000E+00 0.  1.
</event>
<event>
 7    1  0.8398055E-009  0.4614232E+02  0.7816164E-02  0.1320468E+00
        -11   -1    0    0    0    0  0.00000000000E+00  0.00000000000E+00  0.45593999997E+02  0.45594000000E+02  0.51100000000E-03 0. -1.
         11   -1    0    0    0    0 -0.00000000000E+00 -0.00000000000E+00 -0.45593999997E+02  0.45594000000E+02  0.51100000000E-03 0.  1.
    9900012    2    1    2    0    0 -0.58634486411E+00 -0.29226807093E+02 -0.34271905201E+02  0.46142317197E+02  0.99999948520E+01 0.  0.
         12    1    1    2    0    0  0.58634486411E+00  0.29226807093E+02  0.34271905201E+02  0.45045682803E+02  0.00000000000E+00 0. -1.
         11    1    3    3    0    0 -0.21603429224E+01 -0.35510362611E+01 -0.78883432319E+01  0.89164398319E+01  0.51100000000E-03 0. -1.
        -11    1    3    3    0    0 -0.19465261458E+01 -0.89069657954E+01 -0.86751395827E+01  0.12584953347E+02  0.51100000000E-03 0.  1.
         12    1    3    3    0    0  0.35205242041E+01 -0.16768805036E+02 -0.17708422386E+02  0.24640924017E+02  0.00000000000E+00 0. -1.
</event>
<event>
 7    1  0.8398055E-009  0.4614232E+02  0.7816164E-02  0.1320468E+00
        -11   -1    0    0    0    0  0.00000000000E+00  0.00000000000E+00  0.45593999997E+02  0.45594000000E+02  0.51100000000E-03 0. -1.
         11   -1    0    0    0    0 -0.00000000000E+00 -0.00000000000E+00 -0.45593999997E+02  0.45594000000E+02  0.51100000000E-03 0.  1.
    9900012    2    1    2    0    0 -0.20606275258E+02  0.22320974268E+02 -0.33260624547E+02  0.46142316327E+02  0.99999869258E+01 0.  0.
         12    1    1    2    0    0  0.20606275258E+02 -0.22320974268E+02  0.33260624547E+02  0.45045683673E+02  0.00000000000E+00 0. -1.
         11    1    3    3    0    0 -0.13186690082E+01  0.18459708541E+00 -0.25525465436E+00  0.13557725608E+01  0.51100000000E-03 0. -1.
        -11    1    3    3    0    0  0.21839921395E+00  0.83092637407E+00  0.83239915057E-01  0.86317205722E+00  0.51100000000E-03 0.  1.
        -12    1    3    3    0    0 -0.19506005464E+02  0.21305450809E+02 -0.33088609808E+02  0.43923371709E+02  0.00000000000E+00 0.  1.
</event>
<event>
 7    1  0.8398055E-009  0.4614232E+02  0.7816164E-02  0.1320468E+00
        -11   -1    0    0    0    0  0.00000000000E+00  0.00000000000E+00  0.45593999997E+02  0.45594000000E+02  0.51100000000E-03 0. -1.
         11   -1    0    0    0    0 -0.00000000000E+00 -0.00000000000E+00 -0.45593999997E+02  0.45594000000E+02  0.51100000000E-03 0.  1.
    9900012    2    1    2    0    0  0.20468572870E+02 -0.63802435563E+01  0.39616199601E+02  0.46142320362E+02  0.10000023719E+02 0.  0.
        -12    1    1    2    0    0 -0.20468572870E+02  0.63802435563E+01 -0.39616199601E+02  0.45045679638E+02  0.00000000000E+00 0.  1.
         11    1    3    3    0    0  0.47307279346E+01  0.33427747655E+00  0.15581698480E+02  0.16287444735E+02  0.51100000000E-03 0. -1.
        -11    1    3    3    0    0  0.10543108204E+02 -0.58195092583E+01  0.19411306379E+02  0.22843437443E+02  0.51100000000E-03 0.  1.
        -12    1    3    3    0    0  0.51947367312E+01 -0.89501177457E+00  0.46231947430E+01  0.70114381845E+01  0.00000000000E+00 0.  1.
</event>
<event>
 7    1  0.8398055E-009  0.4614232E+02  0.7816164E-02  0.1320468E+00
        -11   -1    0    0    0    0  0.00000000000E+00  0.00000000000E+00  0.45593999997E+02  0.45594000000E+02  0.51100000000E-03 0. -1.
         11   -1    0    0    0    0 -0.00000000000E+00 -0.00000000000E+00 -0.45593999997E+02  0.45594000000E+02  0.51100000000E-03 0.  1.
    9900012    2    1    2    0    0  0.36184390564E+01 -0.62483005405E+01 -0.44463233636E+02  0.46142317563E+02  0.99999981965E+01 0.  0.
         12    1    1    2    0    0 -0.36184390564E+01  0.62483005405E+01  0.44463233636E+02  0.45045682437E+02  0.00000000000E+00 0. -1.
         11    1    3    3    0    0  0.51581406414E+01 -0.45650163275E+01 -0.17985905744E+02  0.19259766215E+02  0.51100000000E-03 0. -1.
        -11    1    3    3    0    0 -0.10329685794E+01 -0.30348305707E+01 -0.18026070335E+02  0.18308916753E+02  0.51100000000E-03 0.  1.
         12    1    3    3    0    0 -0.50673300566E+00  0.13515463577E+01 -0.84512575564E+01  0.85736345957E+01  0.00000000000E+00 0. -1.
</event>
<event>
 7    1  0.8398055E-009  0.4614232E+02  0.7816164E-02  0.1320468E+00
        -11   -1    0    0    0    0  0.00000000000E+00  0.00000000000E+00  0.45593999997E+02  0.45594000000E+02  0.51100000000E-03 0. -1.
         11   -1    0    0    0    0 -0.00000000000E+00 -0.00000000000E+00 -0.45593999997E+02  0.45594000000E+02  0.51100000000E-03 0.  1.
    9900012    2    1    2    0    0 -0.26195398631E+02  0.32985690510E+02 -0.15964298453E+02  0.46142317487E+02  0.99999975049E+01 0.  0.
         12    1    1    2    0    0  0.26195398631E+02 -0.32985690510E+02  0.15964298453E+02  0.45045682513E+02  0.00000000000E+00 0. -1.
         11    1    3    3    0    0 -0.52199958085E+01  0.32740906856E+01 -0.28731256059E+01  0.67987408442E+01  0.51100000000E-03 0. -1.
        -11    1    3    3    0    0 -0.47983797684E+01  0.30823529706E+01 -0.45615231999E+00  0.57213130868E+01  0.51100000000E-03 0.  1.
        -12    1    3    3    0    0 -0.16177023054E+02  0.26629246854E+02 -0.12635020528E+02  0.33622263556E+02  0.00000000000E+00 0.  1.
</event>
<event>
 7    1  0.8398055E-009  0.4614232E+02  0.7816164E-02  0.1320468E+00
        -11   -1    0    0    0    0  0.00000000000E+00  0.00000000000E+00  0.45593999997E+02  0.45594000000E+02  0.51100000000E-03 0. -1.
         11   -1    0    0    0    0 -0.00000000000E+00 -0.00000000000E+00 -0.45593999997E+02  0.45594000000E+02  0.51100000000E-03 0.  1.
    9900012    2    1    2    0    0 -0.61380800262E+01 -0.15393503643E+02 -0.41886485552E+02  0.46142315937E+02  0.99999833631E+01 0.  0.
         12    1    1    2    0    0  0.61380800262E+01  0.15393503643E+02  0.41886485552E+02  0.45045684063E+02  0.00000000000E+00 0. -1.
         11    1    3    3    0    0 -0.25280473879E+01 -0.12362723671E+02 -0.29820314562E+02  0.32380227315E+02  0.51100000000E-03 0. -1.
        -11    1    3    3    0    0 -0.19509737787E+01 -0.41585256921E+01 -0.88626877881E+01  0.99823278702E+01  0.51100000000E-03 0.  1.
         12    1    3    3    0    0 -0.16590588596E+01  0.11277457202E+01 -0.32034832026E+01  0.37797607515E+01  0.00000000000E+00 0. -1.
</event>
<event>
 7    1  0.8398055E-009  0.4614232E+02  0.7816164E-02  0.1320468E+00
        -11   -1    0    0    0    0  0.00000000000E+00  0.00000000000E+00  0.45593999997E+02  0.45594000000E+02  0.51100000000E-03 0.  1.
         11   -1    0    0    0    0 -0.00000000000E+00 -0.00000000000E+00 -0.45593999997E+02  0.45594000000E+02  0.51100000000E-03 0. -1.
    9900012    2    1    2    0    0 -0.25056269631E+00 -0.44948446655E+02  0.29475302313E+01  0.46142316824E+02  0.99999914524E+01 0.  0.
        -12    1    1    2    0    0  0.25056269631E+00  0.44948446655E+02 -0.29475302313E+01  0.45045683176E+02  0.00000000000E+00 0.  1.
         11    1    3    3    0    0 -0.39754486695E+00 -0.76670591331E+01  0.55427606783E+00  0.76973410924E+01  0.51100000000E-03 0. -1.
        -11    1    3    3    0    0  0.88104600222E+00 -0.33620386276E+02 -0.63430355840E+00  0.33637909517E+02  0.51100000000E-03 0.  1.
        -12    1    3    3    0    0 -0.73406383159E+00 -0.36610012455E+01  0.30275577218E+01  0.48070662142E+01  0.00000000000E+00 0.  1.
</event>
<event>
 7    1  0.8398055E-009  0.4614232E+02  0.7816164E-02  0.1320468E+00
        -11   -1    0    0    0    0  0.00000000000E+00  0.00000000000E+00  0.45593999997E+02  0.45594000000E+02  0.51100000000E-03 0. -1.
         11   -1    0    0    0    0 -0.00000000000E+00 -0.00000000000E+00 -0.45593999997E+02  0.45594000000E+02  0.51100000000E-03 0.  1.
    9900012    2    1    2    0    0 -0.35732230051E+02  0.28909162488E+00  0.27426951678E+02  0.46142317446E+02  0.99999971286E+01 0.  0.
        -12    1    1    2    0    0  0.35732230051E+02 -0.28909162488E+00 -0.27426951678E+02  0.45045682554E+02  0.00000000000E+00 0.  1.
         11    1    3    3    0    0 -0.16037911587E+02 -0.16631290693E+01  0.16784061208E+02  0.23274134082E+02  0.51100000000E-03 0. -1.
        -11    1    3    3    0    0 -0.92904909843E+00  0.11032231498E+01  0.98325295212E+00  0.17455715897E+01  0.51100000000E-03 0.  1.
         12    1    3    3    0    0 -0.18765269366E+02  0.84899754437E+00  0.96596375176E+01  0.21122611775E+02  0.00000000000E+00 0. -1.
</event>
<event>
 7    1  0.8398055E-009  0.4614232E+02  0.7816164E-02  0.1320468E+00
        -11   -1    0    0    0    0  0.00000000000E+00  0.00000000000E+00  0.45593999997E+02  0.45594000000E+02  0.51100000000E-03 0. -1.
         11   -1    0    0    0    0 -0.00000000000E+00 -0.00000000000E+00 -0.45593999997E+02  0.45594000000E+02  0.51100000000E-03 0.  1.
    9900012    2    1    2    0    0 -0.17370503741E+02 -0.95057062566E+01  0.40460112618E+02  0.46142316914E+02  0.99999922710E+01 0.  0.
        -12    1    1    2    0    0  0.17370503741E+02  0.95057062566E+01 -0.40460112618E+02  0.45045683086E+02  0.00000000000E+00 0.  1.
         11    1    3    3    0    0 -0.38734385967E+01 -0.13395877087E+01  0.59772504589E+01  0.72474509382E+01  0.51100000000E-03 0. -1.
        -11    1    3    3    0    0 -0.13096588467E+02 -0.78279058279E+01  0.24263496314E+02  0.28662065396E+02  0.51100000000E-03 0.  1.
        -12    1    3    3    0    0 -0.40047667685E+00 -0.33821271994E+00  0.10219365845E+02  0.10232800579E+02  0.00000000000E+00 0.  1.
</event>
<event>
 7    1  0.8398055E-009  0.4614232E+02  0.7816164E-02  0.1320468E+00
        -11   -1    0    0    0    0  0.00000000000E+00  0.00000000000E+00  0.45593999997E+02  0.45594000000E+02  0.51100000000E-03 0. -1.
         11   -1    0    0    0    0 -0.00000000000E+00 -0.00000000000E+00 -0.45593999997E+02  0.45594000000E+02  0.51100000000E-03 0.  1.
    9900012    2    1    2    0    0  0.10263277783E+02 -0.52461049813E+01  0.43546033216E+02  0.46142317663E+02  0.99999991057E+01 0.  0.
        -12    1    1    2    0    0 -0.10263277783E+02  0.52461049813E+01 -0.43546033216E+02  0.45045682337E+02  0.00000000000E+00 0.  1.
         11    1    3    3    0    0  0.56816699752E+01 -0.20754574496E+01  0.13933487312E+02  0.15189831015E+02  0.51100000000E-03 0. -1.
        -11    1    3    3    0    0  0.29852195948E+01 -0.52907435131E+01  0.16713788891E+02  0.17783538520E+02  0.51100000000E-03 0.  1.
        -12    1    3    3    0    0  0.15963882127E+01  0.21200959814E+01  0.12898757014E+02  0.13168948128E+02  0.00000000000E+00 0.  1.
</event>
<event>
 7    1  0.8398055E-009  0.4614232E+02  0.7816164E-02  0.1320468E+00
        -11   -1    0    0    0    0  0.00000000000E+00  0.00000000000E+00  0.45593999997E+02  0.45594000000E+02  0.51100000000E-03 0. -1.
         11   -1    0    0    0    0 -0.00000000000E+00 -0.00000000000E+00 -0.45593999997E+02  0.45594000000E+02  0.51100000000E-03 0.  1.
    9900012    2    1    2    0    0  0.73434019220E+01  0.20226925819E+02 -0.39573470532E+02  0.46142315969E+02  0.99999836589E+01 0.  0.
         12    1    1    2    0    0 -0.73434019220E+01 -0.20226925819E+02  0.39573470532E+02  0.45045684031E+02  0.00000000000E+00 0. -1.
         11    1    3    3    0    0  0.35703734808E+01  0.55860043511E+01 -0.19887124014E+02  0.20963032061E+02  0.51100000000E-03 0.  1.
        -11    1    3    3    0    0  0.37176779091E+01  0.62295958555E+01 -0.99260801005E+01  0.12294554078E+02  0.51100000000E-03 0. -1.
        -12    1    3    3    0    0  0.55350532074E-01  0.84113256126E+01 -0.97602664178E+01  0.12884729830E+02  0.00000000000E+00 0.  1.
</event>
<event>
 7    1  0.8398055E-009  0.4614231E+02  0.7816164E-02  0.1320468E+00
        -11   -1    0    0    0    0  0.00000000000E+00  0.00000000000E+00  0.45593999997E+02  0.45594000000E+02  0.51100000000E-03 0. -1.
         11   -1    0    0    0    0 -0.00000000000E+00 -0.00000000000E+00 -0.45593999997E+02  0.45594000000E+02  0.51100000000E-03 0.  1.
    9900012    2    1    2    0    0 -0.54515749690E+01 -0.28123669424E+02  0.34762819391E+02  0.46142311377E+02  0.99999417853E+01 0.  0.
        -12    1    1    2    0    0  0.54515749690E+01  0.28123669424E+02 -0.34762819391E+02  0.45045688623E+02  0.00000000000E+00 0.  1.
         11    1    3    3    0    0 -0.88737459880E+00 -0.65390604372E+01  0.68973026068E+01  0.95456549587E+01  0.51100000000E-03 0. -1.
        -11    1    3    3    0    0 -0.25448371489E+01 -0.56303726395E+01  0.27256427851E+01  0.67532526258E+01  0.51100000000E-03 0.  1.
        -12    1    3    3    0    0 -0.20193632213E+01 -0.15954236347E+02  0.25139873999E+02  0.29843403793E+02  0.00000000000E+00 0.  1.
</event>
<event>
 7    1  0.8398055E-009  0.4614232E+02  0.7816164E-02  0.1320468E+00
        -11   -1    0    0    0    0  0.00000000000E+00  0.00000000000E+00  0.45593999997E+02  0.45594000000E+02  0.51100000000E-03 0. -1.
         11   -1    0    0    0    0 -0.00000000000E+00 -0.00000000000E+00 -0.45593999997E+02  0.45594000000E+02  0.51100000000E-03 0.  1.
    9900012    2    1    2    0    0 -0.80185182687E+01 -0.42741431634E+02 -0.11746782425E+02  0.46142317514E+02  0.99999977443E+01 0.  0.
         12    1    1    2    0    0  0.80185182687E+01  0.42741431634E+02  0.11746782425E+02  0.45045682486E+02  0.00000000000E+00 0. -1.
         11    1    3    3    0    0 -0.65451647463E+01 -0.26891808566E+02 -0.54695413025E+01  0.28212132706E+02  0.51100000000E-03 0. -1.
        -11    1    3    3    0    0 -0.54196709508E+00 -0.12894957376E+02 -0.26779392863E+01  0.13181237163E+02  0.51100000000E-03 0.  1.
        -12    1    3    3    0    0 -0.93138642728E+00 -0.29546656919E+01 -0.35993018361E+01  0.47489476450E+01  0.00000000000E+00 0.  1.
</event>
<event>
 7    1  0.8398055E-009  0.4614232E+02  0.7816164E-02  0.1320468E+00
        -11   -1    0    0    0    0  0.00000000000E+00  0.00000000000E+00  0.45593999997E+02  0.45594000000E+02  0.51100000000E-03 0. -1.
         11   -1    0    0    0    0 -0.00000000000E+00 -0.00000000000E+00 -0.45593999997E+02  0.45594000000E+02  0.51100000000E-03 0.  1.
    9900012    2    1    2    0    0  0.46548319060E+01  0.27612907667E+01  0.44719361758E+02  0.46142317601E+02  0.99999985355E+01 0.  0.
        -12    1    1    2    0    0 -0.46548319060E+01 -0.27612907667E+01 -0.44719361758E+02  0.45045682399E+02  0.00000000000E+00 0.  1.
         11    1    3    3    0    0  0.18407292973E+00  0.26090919006E+01  0.29513810118E+01  0.39435889146E+01  0.51100000000E-03 0. -1.
        -11    1    3    3    0    0  0.22351633622E+01 -0.19234416623E+01  0.19062582612E+02  0.19289314119E+02  0.51100000000E-03 0.  1.
         12    1    3    3    0    0  0.22355956140E+01  0.20756405284E+01  0.22705398134E+02  0.22909414567E+02  0.00000000000E+00 0. -1.
</event>
<event>
 7    1  0.8398055E-009  0.4614232E+02  0.7816164E-02  0.1320468E+00
        -11   -1    0    0    0    0  0.00000000000E+00  0.00000000000E+00  0.45593999997E+02  0.45594000000E+02  0.51100000000E-03 0. -1.
         11   -1    0    0    0    0 -0.00000000000E+00 -0.00000000000E+00 -0.45593999997E+02  0.45594000000E+02  0.51100000000E-03 0.  1.
    9900012    2    1    2    0    0  0.35698834310E+02 -0.61891850715E+01  0.26765661773E+02  0.46142318375E+02  0.10000005595E+02 0.  0.
        -12    1    1    2    0    0 -0.35698834310E+02  0.61891850715E+01 -0.26765661773E+02  0.45045681625E+02  0.00000000000E+00 0.  1.
         11    1    3    3    0    0  0.30445715856E+02 -0.63373498617E+01  0.23563562281E+02  0.39017240867E+02  0.51100000000E-03 0. -1.
        -11    1    3    3    0    0 -0.31620438496E+00 -0.32911785534E+00  0.10328196020E+01  0.11291679978E+01  0.51100000000E-03 0.  1.
        -12    1    3    3    0    0  0.55693228390E+01  0.47728264551E+00  0.21692798902E+01  0.59959095099E+01  0.00000000000E+00 0.  1.
</event>
<event>
 7    1  0.8398055E-009  0.4614232E+02  0.7816164E-02  0.1320468E+00
        -11   -1    0    0    0    0  0.00000000000E+00  0.00000000000E+00  0.45593999997E+02  0.45594000000E+02  0.51100000000E-03 0. -1.
         11   -1    0    0    0    0 -0.00000000000E+00 -0.00000000000E+00 -0.45593999997E+02  0.45594000000E+02  0.51100000000E-03 0.  1.
    9900012    2    1    2    0    0  0.83405746089E+01 -0.27225983448E+02 -0.34904070509E+02  0.46142317658E+02  0.99999990611E+01 0.  0.
         12    1    1    2    0    0 -0.83405746089E+01  0.27225983448E+02  0.34904070509E+02  0.45045682342E+02  0.00000000000E+00 0. -1.
         11    1    3    3    0    0  0.50382695140E+00 -0.32944614425E+01 -0.25648339391E+01  0.42054359096E+01  0.51100000000E-03 0. -1.
        -11    1    3    3    0    0  0.60226067823E+01 -0.22302760464E+02 -0.24268302693E+02  0.33505752232E+02  0.51100000000E-03 0.  1.
         12    1    3    3    0    0  0.18141408752E+01 -0.16287615414E+01 -0.80709338772E+01  0.84311295165E+01  0.00000000000E+00 0. -1.
</event>
<event>
 7    1  0.8398055E-009  0.4614232E+02  0.7816164E-02  0.1320468E+00
        -11   -1    0    0    0    0  0.00000000000E+00  0.00000000000E+00  0.45593999997E+02  0.45594000000E+02  0.51100000000E-03 0.  1.
         11   -1    0    0    0    0 -0.00000000000E+00 -0.00000000000E+00 -0.45593999997E+02  0.45594000000E+02  0.51100000000E-03 0. -1.
    9900012    2    1    2    0    0 -0.41597060984E+02  0.22691678522E+01  0.17136186613E+02  0.46142317667E+02  0.99999991396E+01 0.  0.
         12    1    1    2    0    0  0.41597060984E+02 -0.22691678522E+01 -0.17136186613E+02  0.45045682333E+02  0.00000000000E+00 0. -1.
         11    1    3    3    0    0 -0.19250204845E+02 -0.29605702010E+00  0.65798928586E+01  0.20345835609E+02  0.51100000000E-03 0. -1.
        -11    1    3    3    0    0 -0.22350569841E+02  0.29716007921E+01  0.11088913547E+02  0.25126527564E+02  0.51100000000E-03 0.  1.
         12    1    3    3    0    0  0.37137027084E-02 -0.40637591979E+00 -0.53261979295E+00  0.66995449369E+00  0.00000000000E+00 0. -1.
</event>
<event>
 7    1  0.8398055E-009  0.4614232E+02  0.7816164E-02  0.1320468E+00
        -11   -1    0    0    0    0  0.00000000000E+00  0.00000000000E+00  0.45593999997E+02  0.45594000000E+02  0.51100000000E-03 0. -1.
         11   -1    0    0    0    0 -0.00000000000E+00 -0.00000000000E+00 -0.45593999997E+02  0.45594000000E+02  0.51100000000E-03 0.  1.
    9900012    2    1    2    0    0 -0.28161623258E+02  0.22083297270E+02  0.27356252335E+02  0.46142316692E+02  0.99999902521E+01 0.  0.
        -12    1    1    2    0    0  0.28161623258E+02 -0.22083297270E+02 -0.27356252335E+02  0.45045683308E+02  0.00000000000E+00 0.  1.
         11    1    3    3    0    0 -0.10150392027E+02  0.58338522636E+01  0.48542909501E+01  0.12673927230E+02  0.51100000000E-03 0. -1.
        -11    1    3    3    0    0 -0.17321384715E+02  0.13786921620E+02  0.19296121710E+02  0.29367497161E+02  0.51100000000E-03 0.  1.
        -12    1    3    3    0    0 -0.68984651633E+00  0.24625233869E+01  0.32058396752E+01  0.41008923017E+01  0.00000000000E+00 0.  1.
</event>
<event>
 7    1  0.8398055E-009  0.4614232E+02  0.7816164E-02  0.1320468E+00
        -11   -1    0    0    0    0  0.00000000000E+00  0.00000000000E+00  0.45593999997E+02  0.45594000000E+02  0.51100000000E-03 0. -1.
         11   -1    0    0    0    0 -0.00000000000E+00 -0.00000000000E+00 -0.45593999997E+02  0.45594000000E+02  0.51100000000E-03 0.  1.
    9900012    2    1    2    0    0  0.36608707523E+02  0.10810341841E+01  0.26224938348E+02  0.46142317713E+02  0.99999995580E+01 0.  0.
        -12    1    1    2    0    0 -0.36608707523E+02 -0.10810341841E+01 -0.26224938348E+02  0.45045682287E+02  0.00000000000E+00 0.  1.
         11    1    3    3    0    0  0.58773490846E+01 -0.17152657468E+01  0.42075936707E+01  0.74289443128E+01  0.51100000000E-03 0. -1.
        -11    1    3    3    0    0  0.38042748384E+01 -0.22818151472E+01  0.33056647571E+01  0.55323238480E+01  0.51100000000E-03 0.  1.
         12    1    3    3    0    0  0.26927083600E+02  0.50781150781E+01  0.18711679920E+02  0.33181049552E+02  0.00000000000E+00 0. -1.
</event>
<event>
 7    1  0.8398055E-009  0.4614232E+02  0.7816164E-02  0.1320468E+00
        -11   -1    0    0    0    0  0.00000000000E+00  0.00000000000E+00  0.45593999997E+02  0.45594000000E+02  0.51100000000E-03 0. -1.
         11   -1    0    0    0    0 -0.00000000000E+00 -0.00000000000E+00 -0.45593999997E+02  0.45594000000E+02  0.51100000000E-03 0.  1.
    9900012    2    1    2    0    0 -0.28410438171E+02  0.28957846774E+02  0.19580693036E+02  0.46142318447E+02  0.10000006255E+02 0.  0.
        -12    1    1    2    0    0  0.28410438171E+02 -0.28957846774E+02 -0.19580693036E+02  0.45045681553E+02  0.00000000000E+00 0.  1.
         11    1    3    3    0    0 -0.20143086383E+01 -0.22855277113E+00  0.86381484892E+00  0.22035997853E+01  0.51100000000E-03 0. -1.
        -11    1    3    3    0    0 -0.15556864670E+02  0.13599299220E+02  0.11342551719E+02  0.23571390655E+02  0.51100000000E-03 0.  1.
        -12    1    3    3    0    0 -0.10839264862E+02  0.15587100325E+02  0.73743264673E+01  0.20367328007E+02  0.00000000000E+00 0.  1.
</event>
<event>
 7    1  0.8398055E-009  0.4614232E+02  0.7816164E-02  0.1320468E+00
        -11   -1    0    0    0    0  0.00000000000E+00  0.00000000000E+00  0.45593999997E+02  0.45594000000E+02  0.51100000000E-03 0. -1.
         11   -1    0    0    0    0 -0.00000000000E+00 -0.00000000000E+00 -0.45593999997E+02  0.45594000000E+02  0.51100000000E-03 0.  1.
    9900012    2    1    2    0    0 -0.24421374300E+02  0.87475300929E+01 -0.36826493426E+02  0.46142318481E+02  0.10000006567E+02 0.  0.
         12    1    1    2    0    0  0.24421374300E+02 -0.87475300929E+01  0.36826493426E+02  0.45045681519E+02  0.00000000000E+00 0. -1.
         11    1    3    3    0    0 -0.18332885608E+01 -0.34087043458E+00 -0.14821024346E+01  0.23819671467E+01  0.51100000000E-03 0. -1.
        -11    1    3    3    0    0 -0.12001278078E+02  0.43997560001E+01 -0.11248616506E+02  0.17027034443E+02  0.51100000000E-03 0.  1.
        -12    1    3    3    0    0 -0.10586807662E+02  0.46886445274E+01 -0.24095774486E+02  0.26733316892E+02  0.00000000000E+00 0.  1.
</event>
<event>
 7    1  0.8398055E-009  0.4614232E+02  0.7816164E-02  0.1320468E+00
        -11   -1    0    0    0    0  0.00000000000E+00  0.00000000000E+00  0.45593999997E+02  0.45594000000E+02  0.51100000000E-03 0. -1.
         11   -1    0    0    0    0 -0.00000000000E+00 -0.00000000000E+00 -0.45593999997E+02  0.45594000000E+02  0.51100000000E-03 0.  1.
    9900012    2    1    2    0    0  0.38187750657E+02  0.10083886781E+02 -0.21659282576E+02  0.46142316583E+02  0.99999892545E+01 0.  0.
         12    1    1    2    0    0 -0.38187750657E+02 -0.10083886781E+02  0.21659282576E+02  0.45045683417E+02  0.00000000000E+00 0. -1.
         11    1    3    3    0    0  0.10576719819E+01  0.23814738719E+01 -0.10269502328E+01  0.28008418137E+01  0.51100000000E-03 0. -1.
        -11    1    3    3    0    0  0.13006204515E+02  0.45254192291E+01 -0.79876433804E+01  0.15919900191E+02  0.51100000000E-03 0.  1.
         12    1    3    3    0    0  0.24123874160E+02  0.31769936796E+01 -0.12644688963E+02  0.27421574578E+02  0.00000000000E+00 0. -1.
</event>
<event>
 7    1  0.8398055E-009  0.4614232E+02  0.7816164E-02  0.1320468E+00
        -11   -1    0    0    0    0  0.00000000000E+00  0.00000000000E+00  0.45593999997E+02  0.45594000000E+02  0.51100000000E-03 0. -1.
         11   -1    0    0    0    0 -0.00000000000E+00 -0.00000000000E+00 -0.45593999997E+02  0.45594000000E+02  0.51100000000E-03 0.  1.
    9900012    2    1    2    0    0 -0.30389911958E+02  0.11652078259E+02  0.31141545180E+02  0.46142317491E+02  0.99999975330E+01 0.  0.
        -12    1    1    2    0    0  0.30389911958E+02 -0.11652078259E+02 -0.31141545180E+02  0.45045682509E+02  0.00000000000E+00 0.  1.
         11    1    3    3    0    0 -0.17312208713E+01  0.23244287538E+01  0.39342449905E+01  0.48865507921E+01  0.51100000000E-03 0. -1.
        -11    1    3    3    0    0 -0.26275114728E+02  0.10574107750E+02  0.24820115928E+02  0.37659415338E+02  0.51100000000E-03 0.  1.
        -12    1    3    3    0    0 -0.23835763580E+01 -0.12464582440E+01  0.23871842612E+01  0.35963513601E+01  0.00000000000E+00 0.  1.
</event>
<event>
 7    1  0.8398055E-009  0.4614232E+02  0.7816164E-02  0.1320468E+00
        -11   -1    0    0    0    0  0.00000000000E+00  0.00000000000E+00  0.45593999997E+02  0.45594000000E+02  0.51100000000E-03 0. -1.
         11   -1    0    0    0    0 -0.00000000000E+00 -0.00000000000E+00 -0.45593999997E+02  0.45594000000E+02  0.51100000000E-03 0.  1.
    9900012    2    1    2    0    0  0.14292023646E+01 -0.24659928357E+02 -0.37669070143E+02  0.46142317283E+02  0.99999956412E+01 0.  0.
         12    1    1    2    0    0 -0.14292023646E+01  0.24659928357E+02  0.37669070143E+02  0.45045682717E+02  0.00000000000E+00 0. -1.
         11    1    3    3    0    0  0.54304804934E+00  0.65487537356E+00 -0.65471079232E+00  0.10735033402E+01  0.51100000000E-03 0. -1.
        -11    1    3    3    0    0  0.23132997925E+01 -0.79485674527E+01 -0.12496295184E+02  0.14989612205E+02  0.51100000000E-03 0.  1.
         12    1    3    3    0    0 -0.14271454772E+01 -0.17366236278E+02 -0.24518064167E+02  0.30079201737E+02  0.00000000000E+00 0. -1.
</event>
<event>
 7    1  0.8398055E-009  0.4614231E+02  0.7816164E-02  0.1320468E+00
        -11   -1    0    0    0    0  0.00000000000E+00  0.00000000000E+00  0.45593999997E+02  0.45594000000E+02  0.51100000000E-03 0. -1.
         11   -1    0    0    0    0 -0.00000000000E+00 -0.00000000000E+00 -0.45593999997E+02  0.45594000000E+02  0.51100000000E-03 0.  1.
    9900012    2    1    2    0    0  0.14931207990E+01 -0.86243324024E+01  0.44187165442E+02  0.46142310873E+02  0.99999371861E+01 0.  0.
        -12    1    1    2    0    0 -0.14931207990E+01  0.86243324024E+01 -0.44187165442E+02  0.45045689127E+02  0.00000000000E+00 0.  1.
         11    1    3    3    0    0  0.32204224490E+00 -0.11629369988E+01  0.11811670447E+02  0.11873150074E+02  0.51100000000E-03 0. -1.
        -11    1    3    3    0    0  0.42658286311E+01 -0.50161778937E+01  0.13946811600E+02  0.15423128367E+02  0.51100000000E-03 0.  1.
         12    1    3    3    0    0 -0.30947500771E+01 -0.24452175099E+01  0.18428683396E+02  0.18846032432E+02  0.00000000000E+00 0. -1.
</event>
<event>
 7    1  0.8398055E-009  0.4614232E+02  0.7816164E-02  0.1320468E+00
        -11   -1    0    0    0    0  0.00000000000E+00  0.00000000000E+00  0.45593999997E+02  0.45594000000E+02  0.51100000000E-03 0. -1.
         11   -1    0    0    0    0 -0.00000000000E+00 -0.00000000000E+00 -0.45593999997E+02  0.45594000000E+02  0.51100000000E-03 0.  1.
    9900012    2    1    2    0    0 -0.18387165361E+02 -0.34908374572E+01 -0.40973646080E+02  0.46142317973E+02  0.10000001934E+02 0.  0.
         12    1    1    2    0    0  0.18387165361E+02  0.34908374572E+01  0.40973646080E+02  0.45045682027E+02  0.00000000000E+00 0. -1.
         11    1    3    3    0    0  0.82137855471E+00  0.21038680212E+00 -0.17166623078E+01  0.19146422843E+01  0.51100000000E-03 0. -1.
        -11    1    3    3    0    0 -0.13103198263E+02 -0.51287889729E+01 -0.26030463755E+02  0.29590257258E+02  0.51100000000E-03 0.  1.
         12    1    3    3    0    0 -0.61053456530E+01  0.14275647136E+01 -0.13226520017E+02  0.14637418431E+02  0.00000000000E+00 0. -1.
</event>
<event>
 7    1  0.8398055E-009  0.4614232E+02  0.7816164E-02  0.1320468E+00
        -11   -1    0    0    0    0  0.00000000000E+00  0.00000000000E+00  0.45593999997E+02  0.45594000000E+02  0.51100000000E-03 0.  1.
         11   -1    0    0    0    0 -0.00000000000E+00 -0.00000000000E+00 -0.45593999997E+02  0.45594000000E+02  0.51100000000E-03 0. -1.
    9900012    2    1    2    0    0 -0.87760090344E+01 -0.43573839019E+02 -0.73086140288E+01  0.46142316295E+02  0.99999866289E+01 0.  0.
         12    1    1    2    0    0  0.87760090344E+01  0.43573839019E+02  0.73086140288E+01  0.45045683705E+02  0.00000000000E+00 0. -1.
         11    1    3    3    0    0  0.35130990281E+00 -0.46567973505E+01  0.14934603326E+01  0.49030199100E+01  0.51100000000E-03 0. -1.
        -11    1    3    3    0    0 -0.13261916723E+01 -0.71644343120E+01  0.32196437623E+00  0.72932547387E+01  0.51100000000E-03 0.  1.
         12    1    3    3    0    0 -0.78011272649E+01 -0.31752607357E+02 -0.91240387376E+01  0.33946041646E+02  0.00000000000E+00 0. -1.
</event>
<event>
 7    1  0.8398055E-009  0.4614232E+02  0.7816164E-02  0.1320468E+00
        -11   -1    0    0    0    0  0.00000000000E+00  0.00000000000E+00  0.45593999997E+02  0.45594000000E+02  0.51100000000E-03 0.  1.
         11   -1    0    0    0    0 -0.00000000000E+00 -0.00000000000E+00 -0.45593999997E+02  0.45594000000E+02  0.51100000000E-03 0. -1.
    9900012    2    1    2    0    0  0.20150476958E+02 -0.35898102067E+02  0.18286548965E+02  0.46142319555E+02  0.10000016360E+02 0.  0.
        -12    1    1    2    0    0 -0.20150476958E+02  0.35898102067E+02 -0.18286548965E+02  0.45045680445E+02  0.00000000000E+00 0.  1.
         11    1    3    3    0    0  0.12340654879E+02 -0.25540786344E+02  0.11181620016E+02  0.30490197710E+02  0.51100000000E-03 0.  1.
        -11    1    3    3    0    0  0.40064778843E+01 -0.87986861592E+01  0.38389321444E+01  0.10402218198E+02  0.51100000000E-03 0. -1.
        -12    1    3    3    0    0  0.38033441952E+01 -0.15586295640E+01  0.32659968044E+01  0.52499036478E+01  0.00000000000E+00 0.  1.
</event>
<event>
 7    1  0.8398055E-009  0.4614232E+02  0.7816164E-02  0.1320468E+00
        -11   -1    0    0    0    0  0.00000000000E+00  0.00000000000E+00  0.45593999997E+02  0.45594000000E+02  0.51100000000E-03 0. -1.
         11   -1    0    0    0    0 -0.00000000000E+00 -0.00000000000E+00 -0.45593999997E+02  0.45594000000E+02  0.51100000000E-03 0.  1.
    9900012    2    1    2    0    0 -0.23919569687E+02  0.31645200014E+02 -0.21343592426E+02  0.46142318347E+02  0.10000005343E+02 0.  0.
         12    1    1    2    0    0  0.23919569687E+02 -0.31645200014E+02  0.21343592426E+02  0.45045681653E+02  0.00000000000E+00 0. -1.
         11    1    3    3    0    0 -0.26518364400E+01  0.15722543529E+01 -0.35805972769E+01  0.47249230021E+01  0.51100000000E-03 0. -1.
        -11    1    3    3    0    0 -0.54384851368E+01  0.52792491705E+01 -0.12446219539E+01  0.76809294006E+01  0.51100000000E-03 0.  1.
        -12    1    3    3    0    0 -0.15829248110E+02  0.24793696491E+02 -0.16518373195E+02  0.33736465944E+02  0.00000000000E+00 0.  1.
</event>
<event>
 7    1  0.8398055E-009  0.4614232E+02  0.7816164E-02  0.1320468E+00
        -11   -1    0    0    0    0  0.00000000000E+00  0.00000000000E+00  0.45593999997E+02  0.45594000000E+02  0.51100000000E-03 0. -1.
         11   -1    0    0    0    0 -0.00000000000E+00 -0.00000000000E+00 -0.45593999997E+02  0.45594000000E+02  0.51100000000E-03 0.  1.
    9900012    2    1    2    0    0 -0.20468520036E+02  0.12191272803E+02 -0.38229909642E+02  0.46142318339E+02  0.10000005271E+02 0.  0.
         12    1    1    2    0    0  0.20468520036E+02 -0.12191272803E+02  0.38229909642E+02  0.45045681661E+02  0.00000000000E+00 0. -1.
         11    1    3    3    0    0 -0.87462100352E+01  0.58404437836E+01 -0.14580897644E+02  0.17978029645E+02  0.51100000000E-03 0.  1.
        -11    1    3    3    0    0 -0.27633285968E+01  0.48897872257E+01 -0.54452765759E+01  0.78228537821E+01  0.51100000000E-03 0. -1.
         12    1    3    3    0    0 -0.89589814041E+01  0.14610417935E+01 -0.18203735423E+02  0.20341434912E+02  0.00000000000E+00 0. -1.
</event>
<event>
 7    1  0.8398055E-009  0.4614232E+02  0.7816164E-02  0.1320468E+00
        -11   -1    0    0    0    0  0.00000000000E+00  0.00000000000E+00  0.45593999997E+02  0.45594000000E+02  0.51100000000E-03 0. -1.
         11   -1    0    0    0    0 -0.00000000000E+00 -0.00000000000E+00 -0.45593999997E+02  0.45594000000E+02  0.51100000000E-03 0.  1.
    9900012    2    1    2    0    0 -0.37177244705E+02  0.74248107996E+01 -0.24327720542E+02  0.46142319563E+02  0.10000016430E+02 0.  0.
         12    1    1    2    0    0  0.37177244705E+02 -0.74248107996E+01  0.24327720542E+02  0.45045680437E+02  0.00000000000E+00 0. -1.
         11    1    3    3    0    0 -0.62183836181E+01  0.47826304858E+01 -0.46369483762E+01  0.91128008696E+01  0.51100000000E-03 0. -1.
        -11    1    3    3    0    0 -0.25652880179E+02  0.29222871648E+01 -0.17922251490E+02  0.31429558102E+02  0.51100000000E-03 0.  1.
        -12    1    3    3    0    0 -0.53059809080E+01 -0.28010685090E+00 -0.17685206762E+01  0.55999605915E+01  0.00000000000E+00 0.  1.
</event>
<event>
 7    1  0.8398055E-009  0.4614232E+02  0.7816164E-02  0.1320468E+00
        -11   -1    0    0    0    0  0.00000000000E+00  0.00000000000E+00  0.45593999997E+02  0.45594000000E+02  0.51100000000E-03 0. -1.
         11   -1    0    0    0    0 -0.00000000000E+00 -0.00000000000E+00 -0.45593999997E+02  0.45594000000E+02  0.51100000000E-03 0.  1.
    9900012    2    1    2    0    0  0.13333426296E+02  0.34032812632E+02 -0.26326808339E+02  0.46142318411E+02  0.10000005930E+02 0.  0.
         12    1    1    2    0    0 -0.13333426296E+02 -0.34032812632E+02  0.26326808339E+02  0.45045681589E+02  0.00000000000E+00 0. -1.
         11    1    3    3    0    0  0.10205597200E+02  0.24258646191E+02 -0.14145576840E+02  0.29878645780E+02  0.51100000000E-03 0. -1.
        -11    1    3    3    0    0  0.24469418107E+01  0.89875452492E+01 -0.91424845741E+01  0.13051763033E+02  0.51100000000E-03 0.  1.
         12    1    3    3    0    0  0.68088728547E+00  0.78662119217E+00 -0.30387469246E+01  0.32119095983E+01  0.00000000000E+00 0. -1.
</event>
<event>
 7    1  0.8398055E-009  0.4614232E+02  0.7816164E-02  0.1320468E+00
        -11   -1    0    0    0    0  0.00000000000E+00  0.00000000000E+00  0.45593999997E+02  0.45594000000E+02  0.51100000000E-03 0. -1.
         11   -1    0    0    0    0 -0.00000000000E+00 -0.00000000000E+00 -0.45593999997E+02  0.45594000000E+02  0.51100000000E-03 0.  1.
    9900012    2    1    2    0    0 -0.38805094001E+02 -0.14184369419E+02 -0.17946634329E+02  0.46142319408E+02  0.10000015019E+02 0.  0.
         12    1    1    2    0    0  0.38805094001E+02  0.14184369419E+02  0.17946634329E+02  0.45045680592E+02  0.00000000000E+00 0. -1.
         11    1    3    3    0    0 -0.78403398297E+01 -0.91821399504E+00 -0.59876138147E+01  0.99078537051E+01  0.51100000000E-03 0. -1.
        -11    1    3    3    0    0 -0.11042282045E+02 -0.68963142684E+01 -0.24026455961E+01  0.13238725368E+02  0.51100000000E-03 0.  1.
         12    1    3    3    0    0 -0.19922472127E+02 -0.63698411552E+01 -0.95563749186E+01  0.22995740335E+02  0.00000000000E+00 0. -1.
</event>
<event>
 7    1  0.8398055E-009  0.4614232E+02  0.7816164E-02  0.1320468E+00
        -11   -1    0    0    0    0  0.00000000000E+00  0.00000000000E+00  0.45593999997E+02  0.45594000000E+02  0.51100000000E-03 0. -1.
         11   -1    0    0    0    0 -0.00000000000E+00 -0.00000000000E+00 -0.45593999997E+02  0.45594000000E+02  0.51100000000E-03 0.  1.
    9900012    2    1    2    0    0  0.18841480962E+02  0.21048304180E+02 -0.35086763528E+02  0.46142317759E+02  0.99999999771E+01 0.  0.
         12    1    1    2    0    0 -0.18841480962E+02 -0.21048304180E+02  0.35086763528E+02  0.45045682241E+02  0.00000000000E+00 0. -1.
         11    1    3    3    0    0  0.43463583625E+01  0.85279158610E+00 -0.35149156572E+01  0.56544422221E+01  0.51100000000E-03 0. -1.
        -11    1    3    3    0    0  0.18857852342E+01  0.10061068423E+01 -0.45562301469E+01  0.50326603641E+01  0.51100000000E-03 0.  1.
        -12    1    3    3    0    0  0.12609337365E+02  0.19189405752E+02 -0.27015617724E+02  0.35455215172E+02  0.00000000000E+00 0.  1.
</event>
<event>
 7    1  0.8398055E-009  0.4614232E+02  0.7816164E-02  0.1320468E+00
        -11   -1    0    0    0    0  0.00000000000E+00  0.00000000000E+00  0.45593999997E+02  0.45594000000E+02  0.51100000000E-03 0. -1.
         11   -1    0    0    0    0 -0.00000000000E+00 -0.00000000000E+00 -0.45593999997E+02  0.45594000000E+02  0.51100000000E-03 0.  1.
    9900012    2    1    2    0    0  0.36723967457E+02  0.20590534490E+02 -0.16015416270E+02  0.46142318135E+02  0.10000003412E+02 0.  0.
         12    1    1    2    0    0 -0.36723967457E+02 -0.20590534490E+02  0.16015416270E+02  0.45045681865E+02  0.00000000000E+00 0. -1.
         11    1    3    3    0    0  0.21689893082E+02  0.12910709365E+02 -0.83963612987E+01  0.26601442847E+02  0.51100000000E-03 0. -1.
        -11    1    3    3    0    0  0.96385541980E+01  0.33013573567E+01 -0.15312408432E+01  0.10302688300E+02  0.51100000000E-03 0.  1.
         12    1    3    3    0    0  0.53955201769E+01  0.43784677683E+01 -0.60878141277E+01  0.92381869883E+01  0.00000000000E+00 0. -1.
</event>
<event>
 7    1  0.8398055E-009  0.4614232E+02  0.7816164E-02  0.1320468E+00
        -11   -1    0    0    0    0  0.00000000000E+00  0.00000000000E+00  0.45593999997E+02  0.45594000000E+02  0.51100000000E-03 0. -1.
         11   -1    0    0    0    0 -0.00000000000E+00 -0.00000000000E+00 -0.45593999997E+02  0.45594000000E+02  0.51100000000E-03 0.  1.
    9900012    2    1    2    0    0 -0.17841775602E+02 -0.41166918741E+02  0.40086544739E+01  0.46142318010E+02  0.10000002274E+02 0.  0.
        -12    1    1    2    0    0  0.17841775602E+02  0.41166918741E+02 -0.40086544739E+01  0.45045681990E+02  0.00000000000E+00 0.  1.
         11    1    3    3    0    0 -0.25260775164E+01 -0.59921101650E+01  0.77144816967E+00  0.65484031938E+01  0.51100000000E-03 0. -1.
        -11    1    3    3    0    0 -0.18679722737E+01 -0.82290767146E+01  0.42780871510E+01  0.94609224668E+01  0.51100000000E-03 0.  1.
         12    1    3    3    0    0 -0.13447725812E+02 -0.26945731861E+02 -0.10408808468E+01  0.30132992350E+02  0.00000000000E+00 0. -1.
</event>
<event>
 7    1  0.8398055E-009  0.4614232E+02  0.7816164E-02  0.1320468E+00
        -11   -1    0    0    0    0  0.00000000000E+00  0.00000000000E+00  0.45593999997E+02  0.45594000000E+02  0.51100000000E-03 0. -1.
         11   -1    0    0    0    0 -0.00000000000E+00 -0.00000000000E+00 -0.45593999997E+02  0.45594000000E+02  0.51100000000E-03 0.  1.
    9900012    2    1    2    0    0 -0.31564146387E+02 -0.70021657460E+01  0.31365392952E+02  0.46142317218E+02  0.99999950445E+01 0.  0.
        -12    1    1    2    0    0  0.31564146387E+02  0.70021657460E+01 -0.31365392952E+02  0.45045682782E+02  0.00000000000E+00 0.  1.
         11    1    3    3    0    0 -0.46211101722E+01 -0.12399919025E+00  0.48173000512E+01  0.66765571268E+01  0.51100000000E-03 0.  1.
        -11    1    3    3    0    0 -0.71255161008E+01 -0.42202718245E+01  0.12632502730E+02  0.15105091839E+02  0.51100000000E-03 0. -1.
         12    1    3    3    0    0 -0.19817520114E+02 -0.26578947313E+01  0.13915590171E+02  0.24360668252E+02  0.00000000000E+00 0. -1.
</event>
<event>
 7    1  0.8398055E-009  0.4614232E+02  0.7816164E-02  0.1320468E+00
        -11   -1    0    0    0    0  0.00000000000E+00  0.00000000000E+00  0.45593999997E+02  0.45594000000E+02  0.51100000000E-03 0. -1.
         11   -1    0    0    0    0 -0.00000000000E+00 -0.00000000000E+00 -0.45593999997E+02  0.45594000000E+02  0.51100000000E-03 0.  1.
    9900012    2    1    2    0    0  0.18116346348E+02  0.23643429394E+02  0.33792007950E+02  0.46142316969E+02  0.99999927734E+01 0.  0.
        -12    1    1    2    0    0 -0.18116346348E+02 -0.23643429394E+02 -0.33792007950E+02  0.45045683031E+02  0.00000000000E+00 0.  1.
         11    1    3    3    0    0  0.45975168379E+00  0.86781774479E+00  0.41596021469E+01  0.42739641471E+01  0.51100000000E-03 0. -1.
        -11    1    3    3    0    0  0.12040630936E+02  0.19318525789E+02  0.24989266158E+02  0.33803042102E+02  0.51100000000E-03 0.  1.
        -12    1    3    3    0    0  0.56159637279E+01  0.34570858603E+01  0.46431396451E+01  0.80653107195E+01  0.00000000000E+00 0.  1.
</event>
<event>
 7    1  0.8398055E-009  0.4614232E+02  0.7816164E-02  0.1320468E+00
        -11   -1    0    0    0    0  0.00000000000E+00  0.00000000000E+00  0.45593999997E+02  0.45594000000E+02  0.51100000000E-03 0. -1.
         11   -1    0    0    0    0 -0.00000000000E+00 -0.00000000000E+00 -0.45593999997E+02  0.45594000000E+02  0.51100000000E-03 0.  1.
    9900012    2    1    2    0    0  0.53127500788E+01 -0.17038520540E+02  0.41359122178E+02  0.46142317822E+02  0.10000000556E+02 0.  0.
        -12    1    1    2    0    0 -0.53127500788E+01  0.17038520540E+02 -0.41359122178E+02  0.45045682178E+02  0.00000000000E+00 0.  1.
         11    1    3    3    0    0  0.46666000091E+01 -0.82788286002E+01  0.28930162525E+02  0.30451115951E+02  0.51100000000E-03 0. -1.
        -11    1    3    3    0    0  0.70169469582E+00 -0.35977375981E+00  0.13275396371E+00  0.79964772268E+00  0.51100000000E-03 0.  1.
         12    1    3    3    0    0 -0.55544626186E-01 -0.83999181796E+01  0.12296205689E+02  0.14891554149E+02  0.00000000000E+00 0. -1.
</event>
<event>
 7    1  0.8398055E-009  0.4614232E+02  0.7816164E-02  0.1320468E+00
        -11   -1    0    0    0    0  0.00000000000E+00  0.00000000000E+00  0.45593999997E+02  0.45594000000E+02  0.51100000000E-03 0. -1.
         11   -1    0    0    0    0 -0.00000000000E+00 -0.00000000000E+00 -0.45593999997E+02  0.45594000000E+02  0.51100000000E-03 0.  1.
    9900012    2    1    2    0    0 -0.92477963520E+01  0.14076800619E+02  0.41778409406E+02  0.46142317127E+02  0.99999942145E+01 0.  0.
        -12    1    1    2    0    0  0.92477963520E+01 -0.14076800619E+02 -0.41778409406E+02  0.45045682873E+02  0.00000000000E+00 0.  1.
         11    1    3    3    0    0 -0.44143197755E+01  0.59847874614E+01  0.10602564491E+02  0.12950609024E+02  0.51100000000E-03 0. -1.
        -11    1    3    3    0    0 -0.34066550004E+01  0.30307457778E+00  0.10921191767E+02  0.11444194265E+02  0.51100000000E-03 0.  1.
         12    1    3    3    0    0 -0.14268215761E+01  0.77889385794E+01  0.20254653147E+02  0.21747513838E+02  0.00000000000E+00 0. -1.
</event>
<event>
 7    1  0.8398055E-009  0.4614232E+02  0.7816164E-02  0.1320468E+00
        -11   -1    0    0    0    0  0.00000000000E+00  0.00000000000E+00  0.45593999997E+02  0.45594000000E+02  0.51100000000E-03 0. -1.
         11   -1    0    0    0    0 -0.00000000000E+00 -0.00000000000E+00 -0.45593999997E+02  0.45594000000E+02  0.51100000000E-03 0.  1.
    9900012    2    1    2    0    0  0.23584254553E+02 -0.20660178324E+02 -0.32342749841E+02  0.46142317648E+02  0.99999989725E+01 0.  0.
         12    1    1    2    0    0 -0.23584254553E+02  0.20660178324E+02  0.32342749841E+02  0.45045682352E+02  0.00000000000E+00 0. -1.
         11    1    3    3    0    0  0.16587682001E+02 -0.12290830683E+02 -0.18770474432E+02  0.27902444762E+02  0.51100000000E-03 0. -1.
        -11    1    3    3    0    0  0.66214617093E+01 -0.90693761802E+01 -0.11754877166E+02  0.16256521058E+02  0.51100000000E-03 0.  1.
         12    1    3    3    0    0  0.37511084303E+00  0.70002853892E+00 -0.18173982428E+01  0.19833518278E+01  0.00000000000E+00 0. -1.
</event>
<event>
 7    1  0.8398055E-009  0.4614231E+02  0.7816164E-02  0.1320468E+00
        -11   -1    0    0    0    0  0.00000000000E+00  0.00000000000E+00  0.45593999997E+02  0.45594000000E+02  0.51100000000E-03 0. -1.
         11   -1    0    0    0    0 -0.00000000000E+00 -0.00000000000E+00 -0.45593999997E+02  0.45594000000E+02  0.51100000000E-03 0.  1.
    9900012    2    1    2    0    0 -0.27211661429E+02 -0.17116304772E+02 -0.31554262331E+02  0.46142313436E+02  0.99999605619E+01 0.  0.
         12    1    1    2    0    0  0.27211661429E+02  0.17116304772E+02  0.31554262331E+02  0.45045686564E+02  0.00000000000E+00 0. -1.
         11    1    3    3    0    0 -0.96610707617E+01 -0.38718663139E+01 -0.93822011366E+01  0.14012613441E+02  0.51100000000E-03 0. -1.
        -11    1    3    3    0    0 -0.89868052062E+01 -0.25350022403E+01 -0.69361628682E+01  0.11631821000E+02  0.51100000000E-03 0.  1.
         12    1    3    3    0    0 -0.85637854613E+01 -0.10709436218E+02 -0.15235898326E+02  0.20497878996E+02  0.00000000000E+00 0. -1.
</event>
<event>
 7    1  0.8398055E-009  0.4614232E+02  0.7816164E-02  0.1320468E+00
        -11   -1    0    0    0    0  0.00000000000E+00  0.00000000000E+00  0.45593999997E+02  0.45594000000E+02  0.51100000000E-03 0. -1.
         11   -1    0    0    0    0 -0.00000000000E+00 -0.00000000000E+00 -0.45593999997E+02  0.45594000000E+02  0.51100000000E-03 0.  1.
    9900012    2    1    2    0    0 -0.11512458939E+01  0.69721882084E+01 -0.44487938174E+02  0.46142318537E+02  0.10000007075E+02 0.  0.
         12    1    1    2    0    0  0.11512458939E+01 -0.69721882084E+01  0.44487938174E+02  0.45045681463E+02  0.00000000000E+00 0. -1.
         11    1    3    3    0    0  0.15599809801E+01 -0.26421279221E-01 -0.54979676294E+01  0.57150579225E+01  0.51100000000E-03 0. -1.
        -11    1    3    3    0    0 -0.43132977381E+01  0.93670340159E+00 -0.16149465326E+02  0.16741779511E+02  0.51100000000E-03 0.  1.
        -12    1    3    3    0    0  0.16020708641E+01  0.60619060860E+01 -0.22840505219E+02  0.23685481103E+02  0.00000000000E+00 0.  1.
</event>
<event>
 7    1  0.8398055E-009  0.4614232E+02  0.7816164E-02  0.1320468E+00
        -11   -1    0    0    0    0  0.00000000000E+00  0.00000000000E+00  0.45593999997E+02  0.45594000000E+02  0.51100000000E-03 0. -1.
         11   -1    0    0    0    0 -0.00000000000E+00 -0.00000000000E+00 -0.45593999997E+02  0.45594000000E+02  0.51100000000E-03 0.  1.
    9900012    2    1    2    0    0 -0.12656857889E+02 -0.38281926147E+01  0.43061146856E+02  0.46142317867E+02  0.10000000961E+02 0.  0.
        -12    1    1    2    0    0  0.12656857889E+02  0.38281926147E+01 -0.43061146856E+02  0.45045682133E+02  0.00000000000E+00 0.  1.
         11    1    3    3    0    0 -0.44989085909E+01 -0.25793792415E+01  0.89631930692E+01  0.10355298452E+02  0.51100000000E-03 0. -1.
        -11    1    3    3    0    0 -0.60818615121E+01  0.21954174373E+01  0.25305255572E+02  0.26118285875E+02  0.51100000000E-03 0.  1.
         12    1    3    3    0    0 -0.20760877859E+01 -0.34442308105E+01  0.87926982144E+01  0.96687335396E+01  0.00000000000E+00 0. -1.
</event>
<event>
 7    1  0.8398055E-009  0.4614232E+02  0.7816164E-02  0.1320468E+00
        -11   -1    0    0    0    0  0.00000000000E+00  0.00000000000E+00  0.45593999997E+02  0.45594000000E+02  0.51100000000E-03 0. -1.
         11   -1    0    0    0    0 -0.00000000000E+00 -0.00000000000E+00 -0.45593999997E+02  0.45594000000E+02  0.51100000000E-03 0.  1.
    9900012    2    1    2    0    0  0.32845554735E+01  0.36193295000E+02 -0.26615229475E+02  0.46142319323E+02  0.10000014247E+02 0.  0.
         12    1    1    2    0    0 -0.32845554735E+01 -0.36193295000E+02  0.26615229475E+02  0.45045680677E+02  0.00000000000E+00 0. -1.
         11    1    3    3    0    0  0.17001845483E+01  0.66770916141E+01 -0.90149906298E+01  0.11346551733E+02  0.51100000000E-03 0. -1.
        -11    1    3    3    0    0  0.17976795926E+01  0.21554816390E+02 -0.15339650768E+02  0.26516912480E+02  0.51100000000E-03 0.  1.
         12    1    3    3    0    0 -0.21330866737E+00  0.79613869951E+01 -0.22605880774E+01  0.82788551098E+01  0.00000000000E+00 0. -1.
</event>
<event>
 7    1  0.8398055E-009  0.4614232E+02  0.7816164E-02  0.1320468E+00
        -11   -1    0    0    0    0  0.00000000000E+00  0.00000000000E+00  0.45593999997E+02  0.45594000000E+02  0.51100000000E-03 0. -1.
         11   -1    0    0    0    0 -0.00000000000E+00 -0.00000000000E+00 -0.45593999997E+02  0.45594000000E+02  0.51100000000E-03 0.  1.
    9900012    2    1    2    0    0 -0.50514668834E+01  0.41952012781E+01  0.44564520158E+02  0.46142317761E+02  0.10000000003E+02 0.  0.
        -12    1    1    2    0    0  0.50514668834E+01 -0.41952012781E+01 -0.44564520158E+02  0.45045682239E+02  0.00000000000E+00 0.  1.
         11    1    3    3    0    0 -0.48403149348E+01  0.91930459738E+00  0.12469977659E+02  0.13407986899E+02  0.51100000000E-03 0. -1.
        -11    1    3    3    0    0 -0.15391191078E+01 -0.53990106728E+00  0.35685494291E+01  0.39236368435E+01  0.51100000000E-03 0.  1.
        -12    1    3    3    0    0  0.13279671592E+01  0.38157977480E+01  0.28525993070E+02  0.28810694019E+02  0.00000000000E+00 0.  1.
</event>
<event>
 7    1  0.8398055E-009  0.4614232E+02  0.7816164E-02  0.1320468E+00
        -11   -1    0    0    0    0  0.00000000000E+00  0.00000000000E+00  0.45593999997E+02  0.45594000000E+02  0.51100000000E-03 0. -1.
         11   -1    0    0    0    0 -0.00000000000E+00 -0.00000000000E+00 -0.45593999997E+02  0.45594000000E+02  0.51100000000E-03 0.  1.
    9900012    2    1    2    0    0 -0.10881103425E+02 -0.14426325869E+02 -0.41262528179E+02  0.46142317392E+02  0.99999966383E+01 0.  0.
         12    1    1    2    0    0  0.10881103425E+02  0.14426325869E+02  0.41262528179E+02  0.45045682608E+02  0.00000000000E+00 0. -1.
         11    1    3    3    0    0 -0.32604838706E+01 -0.30598461564E+01 -0.16083326725E+02  0.16693316399E+02  0.51100000000E-03 0. -1.
        -11    1    3    3    0    0 -0.76183231564E+01 -0.55449312153E+01 -0.16425337117E+02  0.18936124460E+02  0.51100000000E-03 0.  1.
         12    1    3    3    0    0 -0.22963978953E-02 -0.58215484976E+01 -0.87538643368E+01  0.10512876534E+02  0.00000000000E+00 0. -1.
</event>
<event>
 7    1  0.8398055E-009  0.4614231E+02  0.7816164E-02  0.1320468E+00
        -11   -1    0    0    0    0  0.00000000000E+00  0.00000000000E+00  0.45593999997E+02  0.45594000000E+02  0.51100000000E-03 0. -1.
         11   -1    0    0    0    0 -0.00000000000E+00 -0.00000000000E+00 -0.45593999997E+02  0.45594000000E+02  0.51100000000E-03 0.  1.
    9900012    2    1    2    0    0  0.15651496315E+01 -0.22724455848E+02 -0.38862111053E+02  0.46142309169E+02  0.99999216465E+01 0.  0.
         12    1    1    2    0    0 -0.15651496315E+01  0.22724455848E+02  0.38862111053E+02  0.45045690831E+02  0.00000000000E+00 0. -1.
         11    1    3    3    0    0  0.18899690536E+01 -0.16667558155E+01 -0.32252013178E+01  0.40929184909E+01  0.51100000000E-03 0. -1.
        -11    1    3    3    0    0  0.13348760990E+01 -0.14195031590E+02 -0.17412102534E+02  0.22504713528E+02  0.51100000000E-03 0.  1.
        -12    1    3    3    0    0 -0.16596955210E+01 -0.68626684425E+01 -0.18224807201E+02  0.19544677150E+02  0.00000000000E+00 0.  1.
</event>
<event>
 7    1  0.8398055E-009  0.4614230E+02  0.7816164E-02  0.1320468E+00
        -11   -1    0    0    0    0  0.00000000000E+00  0.00000000000E+00  0.45593999997E+02  0.45594000000E+02  0.51100000000E-03 0. -1.
         11   -1    0    0    0    0 -0.00000000000E+00 -0.00000000000E+00 -0.45593999997E+02  0.45594000000E+02  0.51100000000E-03 0.  1.
    9900012    2    1    2    0    0 -0.93153026392E+01 -0.24321484392E+02 -0.36753304118E+02  0.46142302870E+02  0.99998642103E+01 0.  0.
         12    1    1    2    0    0  0.93153026392E+01  0.24321484392E+02  0.36753304118E+02  0.45045697130E+02  0.00000000000E+00 0. -1.
         11    1    3    3    0    0 -0.14915483560E+01 -0.22298058631E+01 -0.17898538673E+01  0.32249539241E+01  0.51100000000E-03 0. -1.
        -11    1    3    3    0    0 -0.71303503455E+01 -0.80137572514E+01 -0.16683350155E+02  0.19834222293E+02  0.51100000000E-03 0.  1.
         12    1    3    3    0    0 -0.69340393771E+00 -0.14077921278E+02 -0.18280100096E+02  0.23083126652E+02  0.00000000000E+00 0. -1.
</event>
<event>
 7    1  0.8398055E-009  0.4614231E+02  0.7816164E-02  0.1320468E+00
        -11   -1    0    0    0    0  0.00000000000E+00  0.00000000000E+00  0.45593999997E+02  0.45594000000E+02  0.51100000000E-03 0. -1.
         11   -1    0    0    0    0 -0.00000000000E+00 -0.00000000000E+00 -0.45593999997E+02  0.45594000000E+02  0.51100000000E-03 0.  1.
    9900012    2    1    2    0    0 -0.26412475133E+02  0.33992366345E+02 -0.13267051806E+02  0.46142306799E+02  0.99999000344E+01 0.  0.
         12    1    1    2    0    0  0.26412475133E+02 -0.33992366345E+02  0.13267051806E+02  0.45045693201E+02  0.00000000000E+00 0. -1.
         11    1    3    3    0    0 -0.10607652007E+02  0.19303260693E+02 -0.72283821834E+01  0.23181623406E+02  0.51100000000E-03 0.  1.
        -11    1    3    3    0    0 -0.36618687683E+01  0.15352848759E+01 -0.25589409904E+01  0.47238291438E+01  0.51100000000E-03 0. -1.
        -12    1    3    3    0    0 -0.12142954358E+02  0.13153820776E+02 -0.34797286320E+01  0.18236854249E+02  0.00000000000E+00 0.  1.
</event>
<event>
 7    1  0.8398055E-009  0.4614232E+02  0.7816164E-02  0.1320468E+00
        -11   -1    0    0    0    0  0.00000000000E+00  0.00000000000E+00  0.45593999997E+02  0.45594000000E+02  0.51100000000E-03 0. -1.
         11   -1    0    0    0    0 -0.00000000000E+00 -0.00000000000E+00 -0.45593999997E+02  0.45594000000E+02  0.51100000000E-03 0.  1.
    9900012    2    1    2    0    0 -0.10001406180E+02 -0.14288597805E+02  0.41532171360E+02  0.46142318624E+02  0.10000007866E+02 0.  0.
        -12    1    1    2    0    0  0.10001406180E+02  0.14288597805E+02 -0.41532171360E+02  0.45045681376E+02  0.00000000000E+00 0.  1.
         11    1    3    3    0    0  0.12122731678E+01 -0.10623241236E+01  0.35422752350E+01  0.38917673207E+01  0.51100000000E-03 0. -1.
        -11    1    3    3    0    0 -0.58877268740E+01 -0.27577383278E+01  0.10405930012E+02  0.12270037820E+02  0.51100000000E-03 0.  1.
        -12    1    3    3    0    0 -0.53259524739E+01 -0.10468535354E+02  0.27583966113E+02  0.29980513483E+02  0.00000000000E+00 0.  1.
</event>
<event>
 7    1  0.8398055E-009  0.4614232E+02  0.7816164E-02  0.1320468E+00
        -11   -1    0    0    0    0  0.00000000000E+00  0.00000000000E+00  0.45593999997E+02  0.45594000000E+02  0.51100000000E-03 0. -1.
         11   -1    0    0    0    0 -0.00000000000E+00 -0.00000000000E+00 -0.45593999997E+02  0.45594000000E+02  0.51100000000E-03 0.  1.
    9900012    2    1    2    0    0 -0.23796451498E+02  0.19481700550E+02  0.32913613812E+02  0.46142315030E+02  0.99999750991E+01 0.  0.
        -12    1    1    2    0    0  0.23796451498E+02 -0.19481700550E+02 -0.32913613812E+02  0.45045684970E+02  0.00000000000E+00 0.  1.
         11    1    3    3    0    0 -0.59302479119E+00  0.19999131028E+01  0.12174797124E+01  0.24152821643E+01  0.51100000000E-03 0.  1.
        -11    1    3    3    0    0 -0.16703389081E+02  0.78021556418E+01  0.18493187102E+02  0.26112732697E+02  0.51100000000E-03 0. -1.
        -12    1    3    3    0    0 -0.65000376250E+01  0.96796318054E+01  0.13202946997E+02  0.17614300169E+02  0.00000000000E+00 0.  1.
</event>
<event>
 7    1  0.8398055E-009  0.4614232E+02  0.7816164E-02  0.1320468E+00
        -11   -1    0    0    0    0  0.00000000000E+00  0.00000000000E+00  0.45593999997E+02  0.45594000000E+02  0.51100000000E-03 0. -1.
         11   -1    0    0    0    0 -0.00000000000E+00 -0.00000000000E+00 -0.45593999997E+02  0.45594000000E+02  0.51100000000E-03 0.  1.
    9900012    2    1    2    0    0 -0.29828010995E+02 -0.29889759781E+01  0.33622450686E+02  0.46142318659E+02  0.10000008189E+02 0.  0.
        -12    1    1    2    0    0  0.29828010995E+02  0.29889759781E+01 -0.33622450686E+02  0.45045681341E+02  0.00000000000E+00 0.  1.
         11    1    3    3    0    0 -0.18777855081E+02  0.10239461604E+01  0.23818428585E+02  0.30347550934E+02  0.51100000000E-03 0. -1.
        -11    1    3    3    0    0 -0.34167961267E+01  0.50015188018E+00  0.34839051396E+01  0.49053280173E+01  0.51100000000E-03 0.  1.
        -12    1    3    3    0    0 -0.76333597874E+01 -0.45130740187E+01  0.63201169618E+01  0.10889439708E+02  0.00000000000E+00 0.  1.
</event>
<event>
 7    1  0.8398055E-009  0.4614232E+02  0.7816164E-02  0.1320468E+00
        -11   -1    0    0    0    0  0.00000000000E+00  0.00000000000E+00  0.45593999997E+02  0.45594000000E+02  0.51100000000E-03 0. -1.
         11   -1    0    0    0    0 -0.00000000000E+00 -0.00000000000E+00 -0.45593999997E+02  0.45594000000E+02  0.51100000000E-03 0.  1.
    9900012    2    1    2    0    0  0.25532202015E+02  0.22730058653E+02 -0.29335380204E+02  0.46142318322E+02  0.10000005114E+02 0.  0.
         12    1    1    2    0    0 -0.25532202015E+02 -0.22730058653E+02  0.29335380204E+02  0.45045681678E+02  0.00000000000E+00 0. -1.
         11    1    3    3    0    0  0.32271700246E+01  0.12095654555E+01 -0.27183407548E+01  0.43894249827E+01  0.51100000000E-03 0. -1.
        -11    1    3    3    0    0  0.21114224894E+01  0.11895242017E+01 -0.59429924125E+01  0.64181174678E+01  0.51100000000E-03 0.  1.
         12    1    3    3    0    0  0.20193609501E+02  0.20330968996E+02 -0.20674047037E+02  0.35334775871E+02  0.00000000000E+00 0. -1.
</event>
<event>
 7    1  0.8398055E-009  0.4614232E+02  0.7816164E-02  0.1320468E+00
        -11   -1    0    0    0    0  0.00000000000E+00  0.00000000000E+00  0.45593999997E+02  0.45594000000E+02  0.51100000000E-03 0. -1.
         11   -1    0    0    0    0 -0.00000000000E+00 -0.00000000000E+00 -0.45593999997E+02  0.45594000000E+02  0.51100000000E-03 0.  1.
    9900012    2    1    2    0    0  0.32561188772E+02  0.18048846054E+02 -0.25359841331E+02  0.46142318626E+02  0.10000007888E+02 0.  0.
         12    1    1    2    0    0 -0.32561188772E+02 -0.18048846054E+02  0.25359841331E+02  0.45045681374E+02  0.00000000000E+00 0. -1.
         11    1    3    3    0    0  0.16318598481E+02  0.51998161967E+01 -0.13486936408E+02  0.21799821073E+02  0.51100000000E-03 0. -1.
        -11    1    3    3    0    0  0.92064319562E+01  0.75160270082E+01 -0.94592264413E+01  0.15189668083E+02  0.51100000000E-03 0.  1.
         12    1    3    3    0    0  0.70361583346E+01  0.53330028489E+01 -0.24136784815E+01  0.91528294701E+01  0.00000000000E+00 0. -1.
</event>
<event>
 7    1  0.8398055E-009  0.4614232E+02  0.7816164E-02  0.1320468E+00
        -11   -1    0    0    0    0  0.00000000000E+00  0.00000000000E+00  0.45593999997E+02  0.45594000000E+02  0.51100000000E-03 0. -1.
         11   -1    0    0    0    0 -0.00000000000E+00 -0.00000000000E+00 -0.45593999997E+02  0.45594000000E+02  0.51100000000E-03 0.  1.
    9900012    2    1    2    0    0  0.39893688306E+02 -0.72621278499E+01 -0.19618069767E+02  0.46142317311E+02  0.99999958967E+01 0.  0.
         12    1    1    2    0    0 -0.39893688306E+02  0.72621278499E+01  0.19618069767E+02  0.45045682689E+02  0.00000000000E+00 0. -1.
         11    1    3    3    0    0  0.54275994944E+01  0.11926064632E+01 -0.20549878477E+01  0.59248731432E+01  0.51100000000E-03 0. -1.
        -11    1    3    3    0    0  0.16146317096E+02 -0.18705844624E+01 -0.48330128953E+01  0.16957613509E+02  0.51100000000E-03 0.  1.
        -12    1    3    3    0    0  0.18319771715E+02 -0.65841498507E+01 -0.12730069024E+02  0.23259830659E+02  0.00000000000E+00 0.  1.
</event>
<event>
 7    1  0.8398055E-009  0.4614232E+02  0.7816164E-02  0.1320468E+00
        -11   -1    0    0    0    0  0.00000000000E+00  0.00000000000E+00  0.45593999997E+02  0.45594000000E+02  0.51100000000E-03 0. -1.
         11   -1    0    0    0    0 -0.00000000000E+00 -0.00000000000E+00 -0.45593999997E+02  0.45594000000E+02  0.51100000000E-03 0.  1.
    9900012    2    1    2    0    0  0.78993086796E+01  0.18142074609E+02  0.40467017355E+02  0.46142318272E+02  0.10000004662E+02 0.  0.
        -12    1    1    2    0    0 -0.78993086796E+01 -0.18142074609E+02 -0.40467017355E+02  0.45045681728E+02  0.00000000000E+00 0.  1.
         11    1    3    3    0    0  0.11662470502E+01  0.61974125632E+00 -0.48808904617E-01  0.13215876729E+01  0.51100000000E-03 0. -1.
        -11    1    3    3    0    0 -0.50529778661E+00  0.82908780283E+00  0.21464470521E+01  0.23558326864E+01  0.51100000000E-03 0.  1.
         12    1    3    3    0    0  0.72383594161E+01  0.16693245550E+02  0.38369379207E+02  0.42464897913E+02  0.00000000000E+00 0. -1.
</event>
<event>
 7    1  0.8398055E-009  0.4614231E+02  0.7816164E-02  0.1320468E+00
        -11   -1    0    0    0    0  0.00000000000E+00  0.00000000000E+00  0.45593999997E+02  0.45594000000E+02  0.51100000000E-03 0. -1.
         11   -1    0    0    0    0 -0.00000000000E+00 -0.00000000000E+00 -0.45593999997E+02  0.45594000000E+02  0.51100000000E-03 0.  1.
    9900012    2    1    2    0    0  0.24924878249E+02 -0.47528902030E+00  0.37518506203E+02  0.46142314712E+02  0.99999721985E+01 0.  0.
        -12    1    1    2    0    0 -0.24924878249E+02  0.47528902030E+00 -0.37518506203E+02  0.45045685288E+02  0.00000000000E+00 0.  1.
         11    1    3    3    0    0  0.99946215092E+01  0.78528918412E+00  0.10451102740E+02  0.14482219684E+02  0.51100000000E-03 0. -1.
        -11    1    3    3    0    0  0.16220603600E+01  0.91555829730E+00  0.60246023024E+00  0.19576223837E+01  0.51100000000E-03 0.  1.
         12    1    3    3    0    0  0.13308196380E+02 -0.21761365017E+01  0.26464943232E+02  0.29702472645E+02  0.00000000000E+00 0. -1.
</event>
<event>
 7    1  0.8398055E-009  0.4614232E+02  0.7816164E-02  0.1320468E+00
        -11   -1    0    0    0    0  0.00000000000E+00  0.00000000000E+00  0.45593999997E+02  0.45594000000E+02  0.51100000000E-03 0. -1.
         11   -1    0    0    0    0 -0.00000000000E+00 -0.00000000000E+00 -0.45593999997E+02  0.45594000000E+02  0.51100000000E-03 0.  1.
    9900012    2    1    2    0    0  0.29152954058E+02  0.16678138816E+02 -0.30017635504E+02  0.46142317788E+02  0.10000000246E+02 0.  0.
         12    1    1    2    0    0 -0.29152954058E+02 -0.16678138816E+02  0.30017635504E+02  0.45045682212E+02  0.00000000000E+00 0. -1.
         11    1    3    3    0    0  0.44984484914E+01  0.28749503284E+01 -0.25504569142E+01  0.59166045122E+01  0.51100000000E-03 0. -1.
        -11    1    3    3    0    0  0.44583862773E+01  0.59139113163E+01 -0.46261951624E+01  0.87323099577E+01  0.51100000000E-03 0.  1.
         12    1    3    3    0    0  0.20196119290E+02  0.78892771716E+01 -0.22840983427E+02  0.31493403318E+02  0.00000000000E+00 0. -1.
</event>
<event>
 7    1  0.8398055E-009  0.4614232E+02  0.7816164E-02  0.1320468E+00
        -11   -1    0    0    0    0  0.00000000000E+00  0.00000000000E+00  0.45593999997E+02  0.45594000000E+02  0.51100000000E-03 0. -1.
         11   -1    0    0    0    0 -0.00000000000E+00 -0.00000000000E+00 -0.45593999997E+02  0.45594000000E+02  0.51100000000E-03 0.  1.
    9900012    2    1    2    0    0 -0.77430613503E+01  0.43947379487E+02 -0.61470609600E+01  0.46142317396E+02  0.99999966700E+01 0.  0.
         12    1    1    2    0    0  0.77430613503E+01 -0.43947379487E+02  0.61470609600E+01  0.45045682604E+02  0.00000000000E+00 0. -1.
         11    1    3    3    0    0 -0.15422852692E+00  0.87558029408E+01  0.75254644570E+00  0.87894367277E+01  0.51100000000E-03 0. -1.
        -11    1    3    3    0    0 -0.23627120157E+01  0.26164816382E+02 -0.52979277546E+01  0.26800150431E+02  0.51100000000E-03 0.  1.
         12    1    3    3    0    0 -0.52261208077E+01  0.90267601637E+01 -0.16016796511E+01  0.10552730237E+02  0.00000000000E+00 0. -1.
</event>
<event>
 7    1  0.8398055E-009  0.4614232E+02  0.7816164E-02  0.1320468E+00
        -11   -1    0    0    0    0  0.00000000000E+00  0.00000000000E+00  0.45593999997E+02  0.45594000000E+02  0.51100000000E-03 0. -1.
         11   -1    0    0    0    0 -0.00000000000E+00 -0.00000000000E+00 -0.45593999997E+02  0.45594000000E+02  0.51100000000E-03 0.  1.
    9900012    2    1    2    0    0  0.22955587036E+02 -0.27780741589E+02 -0.27025635552E+02  0.46142317006E+02  0.99999931131E+01 0.  0.
         12    1    1    2    0    0 -0.22955587036E+02  0.27780741589E+02  0.27025635552E+02  0.45045682994E+02  0.00000000000E+00 0. -1.
         11    1    3    3    0    0  0.16041258310E+01 -0.50772006781E+00 -0.38326366397E+00  0.17256565841E+01  0.51100000000E-03 0. -1.
        -11    1    3    3    0    0  0.15049519260E+02 -0.14824604670E+02 -0.12480397739E+02  0.24536040054E+02  0.51100000000E-03 0.  1.
         12    1    3    3    0    0  0.63019419453E+01 -0.12448416852E+02 -0.14161974149E+02  0.19880620368E+02  0.00000000000E+00 0. -1.
</event>
<event>
 7    1  0.8398055E-009  0.4614232E+02  0.7816164E-02  0.1320468E+00
        -11   -1    0    0    0    0  0.00000000000E+00  0.00000000000E+00  0.45593999997E+02  0.45594000000E+02  0.51100000000E-03 0.  1.
         11   -1    0    0    0    0 -0.00000000000E+00 -0.00000000000E+00 -0.45593999997E+02  0.45594000000E+02  0.51100000000E-03 0. -1.
    9900012    2    1    2    0    0 -0.39158617038E+02 -0.16796349138E+02  0.14615022051E+02  0.46142317607E+02  0.99999985991E+01 0.  0.
        -12    1    1    2    0    0  0.39158617038E+02  0.16796349138E+02 -0.14615022051E+02  0.45045682393E+02  0.00000000000E+00 0.  1.
         11    1    3    3    0    0 -0.28760367994E+02 -0.10374097620E+02  0.11559824355E+02  0.32686544755E+02  0.51100000000E-03 0. -1.
        -11    1    3    3    0    0 -0.96615288867E+01 -0.41114813431E+01  0.15831922232E+01  0.10618658914E+02  0.51100000000E-03 0.  1.
        -12    1    3    3    0    0 -0.73672015648E+00 -0.23107701747E+01  0.14720054727E+01  0.28371139386E+01  0.00000000000E+00 0.  1.
</event>
<event>
 7    1  0.8398055E-009  0.4614232E+02  0.7816164E-02  0.1320468E+00
        -11   -1    0    0    0    0  0.00000000000E+00  0.00000000000E+00  0.45593999997E+02  0.45594000000E+02  0.51100000000E-03 0. -1.
         11   -1    0    0    0    0 -0.00000000000E+00 -0.00000000000E+00 -0.45593999997E+02  0.45594000000E+02  0.51100000000E-03 0.  1.
    9900012    2    1    2    0    0 -0.44631461858E+01 -0.33292742926E+02  0.30013116870E+02  0.46142316637E+02  0.99999897458E+01 0.  0.
        -12    1    1    2    0    0  0.44631461858E+01  0.33292742926E+02 -0.30013116870E+02  0.45045683363E+02  0.00000000000E+00 0.  1.
         11    1    3    3    0    0 -0.14547932769E+01 -0.14760065002E+02  0.13455402196E+02  0.20025578415E+02  0.51100000000E-03 0. -1.
        -11    1    3    3    0    0 -0.35567085444E+01 -0.15553830237E+02  0.16683976250E+02  0.23085208998E+02  0.51100000000E-03 0.  1.
        -12    1    3    3    0    0  0.54835563548E+00 -0.29788476875E+01 -0.12626157605E+00  0.30315292237E+01  0.00000000000E+00 0.  1.
</event>
<event>
 7    1  0.8398055E-009  0.4614232E+02  0.7816164E-02  0.1320468E+00
        -11   -1    0    0    0    0  0.00000000000E+00  0.00000000000E+00  0.45593999997E+02  0.45594000000E+02  0.51100000000E-03 0. -1.
         11   -1    0    0    0    0 -0.00000000000E+00 -0.00000000000E+00 -0.45593999997E+02  0.45594000000E+02  0.51100000000E-03 0.  1.
    9900012    2    1    2    0    0  0.93072676744E+01  0.41087560394E+02  0.15946804269E+02  0.46142318553E+02  0.10000007220E+02 0.  0.
        -12    1    1    2    0    0 -0.93072676744E+01 -0.41087560394E+02 -0.15946804269E+02  0.45045681447E+02  0.00000000000E+00 0.  1.
         11    1    3    3    0    0  0.16951834141E+01  0.25104822026E+01  0.12488655697E+01  0.32765581285E+01  0.51100000000E-03 0. -1.
        -11    1    3    3    0    0 -0.43311585110E+00  0.17267116610E+02  0.85485822709E+01  0.19272238180E+02  0.51100000000E-03 0.  1.
        -12    1    3    3    0    0  0.80452001115E+01  0.21309961581E+02  0.61493564279E+01  0.23593522245E+02  0.00000000000E+00 0.  1.
</event>
<event>
 7    1  0.8398055E-009  0.4614232E+02  0.7816164E-02  0.1320468E+00
        -11   -1    0    0    0    0  0.00000000000E+00  0.00000000000E+00  0.45593999997E+02  0.45594000000E+02  0.51100000000E-03 0. -1.
         11   -1    0    0    0    0 -0.00000000000E+00 -0.00000000000E+00 -0.45593999997E+02  0.45594000000E+02  0.51100000000E-03 0.  1.
    9900012    2    1    2    0    0  0.32336219392E+02  0.13956550313E+02  0.28083751776E+02  0.46142317687E+02  0.99999993276E+01 0.  0.
        -12    1    1    2    0    0 -0.32336219392E+02 -0.13956550313E+02 -0.28083751776E+02  0.45045682313E+02  0.00000000000E+00 0.  1.
         11    1    3    3    0    0  0.49175858773E-03  0.17733544555E+01  0.86965580414E+00  0.19751171472E+01  0.51100000000E-03 0.  1.
        -11    1    3    3    0    0  0.81100242824E+01  0.19078312944E+01  0.49021653970E+01  0.96666198823E+01  0.51100000000E-03 0. -1.
        -12    1    3    3    0    0  0.24225703351E+02  0.10275364563E+02  0.22311930575E+02  0.34500580658E+02  0.00000000000E+00 0.  1.
</event>
<event>
 7    1  0.8398055E-009  0.4614233E+02  0.7816164E-02  0.1320468E+00
        -11   -1    0    0    0    0  0.00000000000E+00  0.00000000000E+00  0.45593999997E+02  0.45594000000E+02  0.51100000000E-03 0. -1.
         11   -1    0    0    0    0 -0.00000000000E+00 -0.00000000000E+00 -0.45593999997E+02  0.45594000000E+02  0.51100000000E-03 0.  1.
    9900012    2    1    2    0    0  0.14709744816E+02  0.29770980040E+02 -0.30437230316E+02  0.46142325020E+02  0.10000066191E+02 0.  0.
         12    1    1    2    0    0 -0.14709744816E+02 -0.29770980040E+02  0.30437230316E+02  0.45045674980E+02  0.00000000000E+00 0. -1.
         11    1    3    3    0    0  0.10733506688E+01  0.38940019846E+01 -0.65212548660E+00  0.40915279574E+01  0.51100000000E-03 0. -1.
        -11    1    3    3    0    0  0.55337480636E+01  0.95254406157E+01 -0.14726786921E+02  0.18391156566E+02  0.51100000000E-03 0.  1.
        -12    1    3    3    0    0  0.81026460834E+01  0.16351537440E+02 -0.15058317909E+02  0.23659640497E+02  0.00000000000E+00 0.  1.
</event>
<event>
 7    1  0.8398055E-009  0.4614232E+02  0.7816164E-02  0.1320468E+00
        -11   -1    0    0    0    0  0.00000000000E+00  0.00000000000E+00  0.45593999997E+02  0.45594000000E+02  0.51100000000E-03 0. -1.
         11   -1    0    0    0    0 -0.00000000000E+00 -0.00000000000E+00 -0.45593999997E+02  0.45594000000E+02  0.51100000000E-03 0.  1.
    9900012    2    1    2    0    0 -0.14207299930E+02 -0.20717992697E+02  0.37390251657E+02  0.46142317503E+02  0.99999976444E+01 0.  0.
        -12    1    1    2    0    0  0.14207299930E+02  0.20717992697E+02 -0.37390251657E+02  0.45045682497E+02  0.00000000000E+00 0.  1.
         11    1    3    3    0    0  0.33504797934E+00 -0.67053243979E+00  0.10257487912E+01  0.12704454907E+01  0.51100000000E-03 0.  1.
        -11    1    3    3    0    0 -0.12665773736E+02 -0.12655409504E+02  0.20164346337E+02  0.26966313754E+02  0.51100000000E-03 0. -1.
         12    1    3    3    0    0 -0.18765741732E+01 -0.73920507537E+01  0.16200156528E+02  0.17905558258E+02  0.00000000000E+00 0. -1.
</event>
<event>
 7    1  0.8398055E-009  0.4614232E+02  0.7816164E-02  0.1320468E+00
        -11   -1    0    0    0    0  0.00000000000E+00  0.00000000000E+00  0.45593999997E+02  0.45594000000E+02  0.51100000000E-03 0. -1.
         11   -1    0    0    0    0 -0.00000000000E+00 -0.00000000000E+00 -0.45593999997E+02  0.45594000000E+02  0.51100000000E-03 0.  1.
    9900012    2    1    2    0    0 -0.14925797355E+02 -0.59450144319E+01  0.42083143071E+02  0.46142317032E+02  0.99999933544E+01 0.  0.
        -12    1    1    2    0    0  0.14925797355E+02  0.59450144319E+01 -0.42083143071E+02  0.45045682968E+02  0.00000000000E+00 0.  1.
         11    1    3    3    0    0 -0.88428145627E+00 -0.17255294884E+01  0.46411503531E+01  0.50298789817E+01  0.51100000000E-03 0. -1.
        -11    1    3    3    0    0 -0.36915846804E+01 -0.53777086373E+01  0.15862468199E+02  0.17151252003E+02  0.51100000000E-03 0.  1.
        -12    1    3    3    0    0 -0.10349931218E+02  0.11582236938E+01  0.21579524519E+02  0.23961186048E+02  0.00000000000E+00 0.  1.
</event>
<event>
 7    1  0.8398055E-009  0.4614232E+02  0.7816164E-02  0.1320468E+00
        -11   -1    0    0    0    0  0.00000000000E+00  0.00000000000E+00  0.45593999997E+02  0.45594000000E+02  0.51100000000E-03 0.  1.
         11   -1    0    0    0    0 -0.00000000000E+00 -0.00000000000E+00 -0.45593999997E+02  0.45594000000E+02  0.51100000000E-03 0. -1.
    9900012    2    1    2    0    0  0.37383307717E+02 -0.68907538134E+00  0.25122240925E+02  0.46142317523E+02  0.99999978292E+01 0.  0.
        -12    1    1    2    0    0 -0.37383307717E+02  0.68907538134E+00 -0.25122240925E+02  0.45045682477E+02  0.00000000000E+00 0.  1.
         11    1    3    3    0    0  0.30980556068E+02  0.48102029948E+00  0.17123572193E+02  0.35401171728E+02  0.51100000000E-03 0. -1.
        -11    1    3    3    0    0  0.67040914942E+01 -0.90315251461E+00  0.74937782722E+01  0.10095406890E+02  0.51100000000E-03 0.  1.
        -12    1    3    3    0    0 -0.30133984562E+00 -0.26694316621E+00  0.50489045967E+00  0.64573890452E+00  0.00000000000E+00 0.  1.
</event>
<event>
 7    1  0.8398055E-009  0.4614232E+02  0.7816164E-02  0.1320468E+00
        -11   -1    0    0    0    0  0.00000000000E+00  0.00000000000E+00  0.45593999997E+02  0.45594000000E+02  0.51100000000E-03 0.  1.
         11   -1    0    0    0    0 -0.00000000000E+00 -0.00000000000E+00 -0.45593999997E+02  0.45594000000E+02  0.51100000000E-03 0. -1.
    9900012    2    1    2    0    0  0.36839894143E+01  0.31735049314E+02  0.31755760947E+02  0.46142317784E+02  0.10000000210E+02 0.  0.
        -12    1    1    2    0    0 -0.36839894143E+01 -0.31735049314E+02 -0.31755760947E+02  0.45045682216E+02  0.00000000000E+00 0.  1.
         11    1    3    3    0    0 -0.13153415705E+01  0.92790153832E+01  0.12927272598E+02  0.15966985533E+02  0.51100000000E-03 0. -1.
        -11    1    3    3    0    0 -0.65295085918E+00  0.96695056795E+00  0.20879312200E+00  0.11852987194E+01  0.51100000000E-03 0.  1.
         12    1    3    3    0    0  0.56522818440E+01  0.21489083363E+02  0.18619695227E+02  0.28990033532E+02  0.00000000000E+00 0. -1.
</event>
<event>
 7    1  0.8398055E-009  0.4614232E+02  0.7816164E-02  0.1320468E+00
        -11   -1    0    0    0    0  0.00000000000E+00  0.00000000000E+00  0.45593999997E+02  0.45594000000E+02  0.51100000000E-03 0. -1.
         11   -1    0    0    0    0 -0.00000000000E+00 -0.00000000000E+00 -0.45593999997E+02  0.45594000000E+02  0.51100000000E-03 0.  1.
    9900012    2    1    2    0    0 -0.25904776139E+02  0.80510705964E+01  0.35961594111E+02  0.46142318569E+02  0.10000007371E+02 0.  0.
        -12    1    1    2    0    0  0.25904776139E+02 -0.80510705964E+01 -0.35961594111E+02  0.45045681431E+02  0.00000000000E+00 0.  1.
         11    1    3    3    0    0 -0.92562893532E+01  0.26189739585E+01  0.82512373740E+01  0.12673627565E+02  0.51100000000E-03 0. -1.
        -11    1    3    3    0    0 -0.22932346744E+01 -0.11879654850E+01  0.19165616130E+01  0.32161150388E+01  0.51100000000E-03 0.  1.
         12    1    3    3    0    0 -0.14355252111E+02  0.66200621229E+01  0.25793795124E+02  0.30252575966E+02  0.00000000000E+00 0. -1.
</event>
<event>
 7    1  0.8398055E-009  0.4614232E+02  0.7816164E-02  0.1320468E+00
        -11   -1    0    0    0    0  0.00000000000E+00  0.00000000000E+00  0.45593999997E+02  0.45594000000E+02  0.51100000000E-03 0. -1.
         11   -1    0    0    0    0 -0.00000000000E+00 -0.00000000000E+00 -0.45593999997E+02  0.45594000000E+02  0.51100000000E-03 0.  1.
    9900012    2    1    2    0    0 -0.21111162591E+02  0.83847441859E+01  0.38898950790E+02  0.46142317703E+02  0.99999994734E+01 0.  0.
        -12    1    1    2    0    0  0.21111162591E+02 -0.83847441859E+01 -0.38898950790E+02  0.45045682297E+02  0.00000000000E+00 0.  1.
         11    1    3    3    0    0 -0.36522193622E+01  0.25187307410E+01  0.51106923704E+01  0.67677091826E+01  0.51100000000E-03 0. -1.
        -11    1    3    3    0    0 -0.37885503871E+01  0.11592795760E+00  0.19741875947E+01  0.42736366536E+01  0.51100000000E-03 0.  1.
         12    1    3    3    0    0 -0.13670392841E+02  0.57500854873E+01  0.31814070825E+02  0.35100971867E+02  0.00000000000E+00 0. -1.
</event>
<event>
 7    1  0.8398055E-009  0.4614232E+02  0.7816164E-02  0.1320468E+00
        -11   -1    0    0    0    0  0.00000000000E+00  0.00000000000E+00  0.45593999997E+02  0.45594000000E+02  0.51100000000E-03 0. -1.
         11   -1    0    0    0    0 -0.00000000000E+00 -0.00000000000E+00 -0.45593999997E+02  0.45594000000E+02  0.51100000000E-03 0.  1.
    9900012    2    1    2    0    0  0.30474273515E+02  0.27532905898E+02 -0.18503273994E+02  0.46142318720E+02  0.10000008748E+02 0.  0.
         12    1    1    2    0    0 -0.30474273515E+02 -0.27532905898E+02  0.18503273994E+02  0.45045681280E+02  0.00000000000E+00 0. -1.
         11    1    3    3    0    0  0.88096592332E+01  0.33875198613E+01 -0.52927772534E+01  0.10821223495E+02  0.51100000000E-03 0. -1.
        -11    1    3    3    0    0  0.17340783817E+02  0.18006355593E+02 -0.82631432447E+01  0.26328903541E+02  0.51100000000E-03 0.  1.
        -12    1    3    3    0    0  0.43238304644E+01  0.61390304432E+01 -0.49473534959E+01  0.89921916840E+01  0.00000000000E+00 0.  1.
</event>
<event>
 7    1  0.8398055E-009  0.4614232E+02  0.7816164E-02  0.1320468E+00
        -11   -1    0    0    0    0  0.00000000000E+00  0.00000000000E+00  0.45593999997E+02  0.45594000000E+02  0.51100000000E-03 0. -1.
         11   -1    0    0    0    0 -0.00000000000E+00 -0.00000000000E+00 -0.45593999997E+02  0.45594000000E+02  0.51100000000E-03 0.  1.
    9900012    2    1    2    0    0 -0.13934222385E+02 -0.13211812048E+02 -0.40747993483E+02  0.46142317588E+02  0.99999984233E+01 0.  0.
         12    1    1    2    0    0  0.13934222385E+02  0.13211812048E+02  0.40747993483E+02  0.45045682412E+02  0.00000000000E+00 0. -1.
         11    1    3    3    0    0 -0.67743219946E+01 -0.23495162267E+01 -0.12755119549E+02  0.14632318338E+02  0.51100000000E-03 0. -1.
        -11    1    3    3    0    0 -0.18856937798E+01  0.40824902217E+00 -0.26611047893E+01  0.32869419308E+01  0.51100000000E-03 0.  1.
        -12    1    3    3    0    0 -0.52742066103E+01 -0.11270544843E+02 -0.25331769145E+02  0.28223057319E+02  0.00000000000E+00 0.  1.
</event>
<event>
 7    1  0.8398055E-009  0.4614232E+02  0.7816164E-02  0.1320468E+00
        -11   -1    0    0    0    0  0.00000000000E+00  0.00000000000E+00  0.45593999997E+02  0.45594000000E+02  0.51100000000E-03 0. -1.
         11   -1    0    0    0    0 -0.00000000000E+00 -0.00000000000E+00 -0.45593999997E+02  0.45594000000E+02  0.51100000000E-03 0.  1.
    9900012    2    1    2    0    0 -0.35357590413E+02  0.71477223462E+01  0.26978960320E+02  0.46142318359E+02  0.10000005451E+02 0.  0.
        -12    1    1    2    0    0  0.35357590413E+02 -0.71477223462E+01 -0.26978960320E+02  0.45045681641E+02  0.00000000000E+00 0.  1.
         11    1    3    3    0    0 -0.17713140909E+02  0.28755075611E+01  0.14494305738E+02  0.23067483688E+02  0.51100000000E-03 0. -1.
        -11    1    3    3    0    0 -0.98399546009E+01  0.56832656008E+01  0.61250958286E+01  0.12908950910E+02  0.51100000000E-03 0.  1.
        -12    1    3    3    0    0 -0.78044949035E+01 -0.14110508157E+01  0.63595587533E+01  0.10165883761E+02  0.00000000000E+00 0.  1.
</event>
<event>
 7    1  0.8398055E-009  0.4614232E+02  0.7816164E-02  0.1320468E+00
        -11   -1    0    0    0    0  0.00000000000E+00  0.00000000000E+00  0.45593999997E+02  0.45594000000E+02  0.51100000000E-03 0.  1.
         11   -1    0    0    0    0 -0.00000000000E+00 -0.00000000000E+00 -0.45593999997E+02  0.45594000000E+02  0.51100000000E-03 0. -1.
    9900012    2    1    2    0    0  0.35742682614E+02 -0.72045978361E+01 -0.26451236174E+02  0.46142317792E+02  0.10000000284E+02 0.  0.
         12    1    1    2    0    0 -0.35742682614E+02  0.72045978361E+01  0.26451236174E+02  0.45045682208E+02  0.00000000000E+00 0. -1.
         11    1    3    3    0    0  0.82550476541E+00 -0.10817728383E+01 -0.27249729871E+00  0.13877844322E+01  0.51100000000E-03 0. -1.
        -11    1    3    3    0    0  0.58738716412E+01 -0.22788987208E+01 -0.15681748436E+01  0.64926820373E+01  0.51100000000E-03 0.  1.
         12    1    3    3    0    0  0.29043306208E+02 -0.38439262771E+01 -0.24610564031E+02  0.38261851323E+02  0.00000000000E+00 0. -1.
</event>
<event>
 7    1  0.8778204E-009  0.4614232E+02  0.7816164E-02  0.1320468E+00
        -11   -1    0    0    0    0  0.00000000000E+00  0.00000000000E+00  0.45593999997E+02  0.45594000000E+02  0.51100000000E-03 0. -1.
         11   -1    0    0    0    0 -0.00000000000E+00 -0.00000000000E+00 -0.45593999997E+02  0.45594000000E+02  0.51100000000E-03 0.  1.
    9900012    2    1    2    0    0  0.26675453367E+02  0.17277361417E+02 -0.31922195592E+02  0.46142316508E+02  0.99999885702E+01 0.  0.
         12    1    1    2    0    0 -0.26675453367E+02 -0.17277361417E+02  0.31922195592E+02  0.45045683492E+02  0.00000000000E+00 0. -1.
         11    1    3    3    0    0  0.10514315785E+02  0.96635749522E+01 -0.14079520151E+02  0.20054136860E+02  0.51100000000E-03 0. -1.
        -11    1    3    3    0    0  0.14086208678E+02  0.82650813057E+01 -0.17409006852E+02  0.23870617163E+02  0.51100000000E-03 0.  1.
         12    1    3    3    0    0  0.20749289036E+01 -0.65129484089E+00 -0.43366858951E+00  0.22175624840E+01  0.00000000000E+00 0. -1.
</event>
<event>
 7    1  0.8398055E-009  0.4614232E+02  0.7816164E-02  0.1320468E+00
        -11   -1    0    0    0    0  0.00000000000E+00  0.00000000000E+00  0.45593999997E+02  0.45594000000E+02  0.51100000000E-03 0. -1.
         11   -1    0    0    0    0 -0.00000000000E+00 -0.00000000000E+00 -0.45593999997E+02  0.45594000000E+02  0.51100000000E-03 0.  1.
    9900012    2    1    2    0    0 -0.16726015312E+01 -0.19793020965E+02 -0.40429594641E+02  0.46142318768E+02  0.10000009184E+02 0.  0.
         12    1    1    2    0    0  0.16726015312E+01  0.19793020965E+02  0.40429594641E+02  0.45045681232E+02  0.00000000000E+00 0. -1.
         11    1    3    3    0    0 -0.19738457091E+01 -0.87253865315E+01 -0.11857818702E+02  0.14853831211E+02  0.51100000000E-03 0. -1.
        -11    1    3    3    0    0  0.25996161161E+01 -0.41408194542E+01 -0.16228919044E+02  0.16949401267E+02  0.51100000000E-03 0.  1.
        -12    1    3    3    0    0 -0.22983719381E+01 -0.69268149790E+01 -0.12342856895E+02  0.14339086291E+02  0.00000000000E+00 0.  1.
</event>
<event>
 7    1  0.8398055E-009  0.4614232E+02  0.7816164E-02  0.1320468E+00
        -11   -1    0    0    0    0  0.00000000000E+00  0.00000000000E+00  0.45593999997E+02  0.45594000000E+02  0.51100000000E-03 0. -1.
         11   -1    0    0    0    0 -0.00000000000E+00 -0.00000000000E+00 -0.45593999997E+02  0.45594000000E+02  0.51100000000E-03 0.  1.
    9900012    2    1    2    0    0 -0.36796026156E+02  0.11708212742E+02  0.23196631201E+02  0.46142317792E+02  0.10000000285E+02 0.  0.
        -12    1    1    2    0    0  0.36796026156E+02 -0.11708212742E+02 -0.23196631201E+02  0.45045682208E+02  0.00000000000E+00 0.  1.
         11    1    3    3    0    0 -0.11149726542E+02  0.21950018054E+01  0.58568635914E+01  0.12784259316E+02  0.51100000000E-03 0. -1.
        -11    1    3    3    0    0 -0.33232963832E+01  0.21961122981E+01 -0.27955724097E+00  0.39931642326E+01  0.51100000000E-03 0.  1.
         12    1    3    3    0    0 -0.22323003231E+02  0.73170986382E+01  0.17619324851E+02  0.29364894243E+02  0.00000000000E+00 0. -1.
</event>
<event>
 7    1  0.8398055E-009  0.4614231E+02  0.7816164E-02  0.1320468E+00
        -11   -1    0    0    0    0  0.00000000000E+00  0.00000000000E+00  0.45593999997E+02  0.45594000000E+02  0.51100000000E-03 0. -1.
         11   -1    0    0    0    0 -0.00000000000E+00 -0.00000000000E+00 -0.45593999997E+02  0.45594000000E+02  0.51100000000E-03 0.  1.
    9900012    2    1    2    0    0 -0.14546480566E+02 -0.23613744637E+02  0.35495148707E+02  0.46142305263E+02  0.99998860310E+01 0.  0.
        -12    1    1    2    0    0  0.14546480566E+02  0.23613744637E+02 -0.35495148707E+02  0.45045694737E+02  0.00000000000E+00 0.  1.
         11    1    3    3    0    0 -0.75040187871E+01 -0.11573765752E+02  0.19638212579E+02  0.23998369636E+02  0.51100000000E-03 0. -1.
        -11    1    3    3    0    0 -0.48795566798E+01 -0.66483130286E+01  0.13613294350E+02  0.15916404205E+02  0.51100000000E-03 0.  1.
        -12    1    3    3    0    0 -0.21629050987E+01 -0.53916658566E+01  0.22436417781E+01  0.62275314214E+01  0.00000000000E+00 0.  1.
</event>
<event>
 7    1  0.8398055E-009  0.4614232E+02  0.7816164E-02  0.1320468E+00
        -11   -1    0    0    0    0  0.00000000000E+00  0.00000000000E+00  0.45593999997E+02  0.45594000000E+02  0.51100000000E-03 0. -1.
         11   -1    0    0    0    0 -0.00000000000E+00 -0.00000000000E+00 -0.45593999997E+02  0.45594000000E+02  0.51100000000E-03 0.  1.
    9900012    2    1    2    0    0  0.13533034015E+01 -0.95119711031E+01  0.44009140012E+02  0.46142318421E+02  0.10000006014E+02 0.  0.
        -12    1    1    2    0    0 -0.13533034015E+01  0.95119711031E+01 -0.44009140012E+02  0.45045681579E+02  0.00000000000E+00 0.  1.
         11    1    3    3    0    0  0.23867960258E+01 -0.50843260476E+01  0.25675630238E+02  0.26282791994E+02  0.51100000000E-03 0. -1.
        -11    1    3    3    0    0  0.95881773443E+00 -0.48355716034E+00  0.12476632653E+02  0.12522760143E+02  0.51100000000E-03 0.  1.
        -12    1    3    3    0    0 -0.19923103587E+01 -0.39440878952E+01  0.58568771207E+01  0.73367662834E+01  0.00000000000E+00 0.  1.
</event>
<event>
 7    1  0.8398055E-009  0.4614232E+02  0.7816164E-02  0.1320468E+00
        -11   -1    0    0    0    0  0.00000000000E+00  0.00000000000E+00  0.45593999997E+02  0.45594000000E+02  0.51100000000E-03 0. -1.
         11   -1    0    0    0    0 -0.00000000000E+00 -0.00000000000E+00 -0.45593999997E+02  0.45594000000E+02  0.51100000000E-03 0.  1.
    9900012    2    1    2    0    0  0.12746834233E+02 -0.94980970834E+00  0.43194092183E+02  0.46142317399E+02  0.99999967020E+01 0.  0.
        -12    1    1    2    0    0 -0.12746834233E+02  0.94980970834E+00 -0.43194092183E+02  0.45045682601E+02  0.00000000000E+00 0.  1.
         11    1    3    3    0    0  0.67270744749E+01 -0.29192906801E+01  0.17835168800E+02  0.19283906126E+02  0.51100000000E-03 0. -1.
        -11    1    3    3    0    0 -0.50261585445E+00 -0.13009346265E+01  0.24929998755E+01  0.28565892670E+01  0.51100000000E-03 0.  1.
         12    1    3    3    0    0  0.65223756124E+01  0.32704155983E+01  0.22865923507E+02  0.24001822007E+02  0.00000000000E+00 0. -1.
</event>
<event>
 7    1  0.8398055E-009  0.4614232E+02  0.7816164E-02  0.1320468E+00
        -11   -1    0    0    0    0  0.00000000000E+00  0.00000000000E+00  0.45593999997E+02  0.45594000000E+02  0.51100000000E-03 0. -1.
         11   -1    0    0    0    0 -0.00000000000E+00 -0.00000000000E+00 -0.45593999997E+02  0.45594000000E+02  0.51100000000E-03 0.  1.
    9900012    2    1    2    0    0 -0.34098100028E+02 -0.15129364104E+02  0.25249464688E+02  0.46142317069E+02  0.99999936886E+01 0.  0.
        -12    1    1    2    0    0  0.34098100028E+02  0.15129364104E+02 -0.25249464688E+02  0.45045682931E+02  0.00000000000E+00 0.  1.
         11    1    3    3    0    0 -0.46400268964E+01 -0.31923385867E+01  0.63790374979E+01  0.85095825345E+01  0.51100000000E-03 0. -1.
        -11    1    3    3    0    0 -0.83694080375E+01 -0.10920492269E+00  0.44396413305E+01  0.94746679107E+01  0.51100000000E-03 0.  1.
         12    1    3    3    0    0 -0.21088665094E+02 -0.11827820595E+02  0.14430785859E+02  0.28158066624E+02  0.00000000000E+00 0. -1.
</event>
<event>
 7    1  0.8398055E-009  0.4614232E+02  0.7816164E-02  0.1320468E+00
        -11   -1    0    0    0    0  0.00000000000E+00  0.00000000000E+00  0.45593999997E+02  0.45594000000E+02  0.51100000000E-03 0. -1.
         11   -1    0    0    0    0 -0.00000000000E+00 -0.00000000000E+00 -0.45593999997E+02  0.45594000000E+02  0.51100000000E-03 0.  1.
    9900012    2    1    2    0    0  0.65839919154E+01  0.14646171291E+02  0.42086272439E+02  0.46142316402E+02  0.99999876051E+01 0.  0.
        -12    1    1    2    0    0 -0.65839919154E+01 -0.14646171291E+02 -0.42086272439E+02  0.45045683598E+02  0.00000000000E+00 0.  1.
         11    1    3    3    0    0  0.63281384538E+01  0.11197606549E+02  0.26492463177E+02  0.29449657624E+02  0.51100000000E-03 0. -1.
        -11    1    3    3    0    0  0.54865319888E+00  0.19566093001E+01  0.15217797990E+01  0.25387308451E+01  0.51100000000E-03 0.  1.
         12    1    3    3    0    0 -0.29279973728E+00  0.14919554417E+01  0.14072029463E+02  0.14153927933E+02  0.00000000000E+00 0. -1.
</event>
<event>
 7    1  0.8398055E-009  0.4614232E+02  0.7816164E-02  0.1320468E+00
        -11   -1    0    0    0    0  0.00000000000E+00  0.00000000000E+00  0.45593999997E+02  0.45594000000E+02  0.51100000000E-03 0. -1.
         11   -1    0    0    0    0 -0.00000000000E+00 -0.00000000000E+00 -0.45593999997E+02  0.45594000000E+02  0.51100000000E-03 0.  1.
    9900012    2    1    2    0    0  0.42067207948E+02  0.14546469967E+02 -0.69183473968E+01  0.46142319811E+02  0.10000018691E+02 0.  0.
        -12    1    1    2    0    0 -0.42067207948E+02 -0.14546469967E+02  0.69183473968E+01  0.45045680189E+02  0.00000000000E+00 0.  1.
         11    1    3    3    0    0  0.30556320507E+02  0.60944144713E+01 -0.42617889147E+01  0.31448266339E+02  0.51100000000E-03 0. -1.
        -11    1    3    3    0    0  0.13701980433E+01  0.19428721912E+01 -0.12331171494E+00  0.23806303932E+01  0.51100000000E-03 0.  1.
        -12    1    3    3    0    0  0.10140689397E+02  0.65091833043E+01 -0.25332467671E+01  0.12313423079E+02  0.00000000000E+00 0.  1.
</event>
<event>
 7    1  0.8398055E-009  0.4614232E+02  0.7816164E-02  0.1320468E+00
        -11   -1    0    0    0    0  0.00000000000E+00  0.00000000000E+00  0.45593999997E+02  0.45594000000E+02  0.51100000000E-03 0. -1.
         11   -1    0    0    0    0 -0.00000000000E+00 -0.00000000000E+00 -0.45593999997E+02  0.45594000000E+02  0.51100000000E-03 0.  1.
    9900012    2    1    2    0    0 -0.19052710002E+02 -0.10493773475E+02  0.39446018934E+02  0.46142318188E+02  0.10000003895E+02 0.  0.
        -12    1    1    2    0    0  0.19052710002E+02  0.10493773475E+02 -0.39446018934E+02  0.45045681812E+02  0.00000000000E+00 0.  1.
         11    1    3    3    0    0 -0.36846924283E+01 -0.27496129260E+01  0.56137976633E+01  0.72561735095E+01  0.51100000000E-03 0. -1.
        -11    1    3    3    0    0 -0.11122897319E+02 -0.82500189284E+01  0.19411639736E+02  0.23845196887E+02  0.51100000000E-03 0.  1.
        -12    1    3    3    0    0 -0.42451202552E+01  0.50585837987E+00  0.14420581535E+02  0.15040947792E+02  0.00000000000E+00 0.  1.
</event>
<event>
 7    1  0.8398055E-009  0.4614232E+02  0.7816164E-02  0.1320468E+00
        -11   -1    0    0    0    0  0.00000000000E+00  0.00000000000E+00  0.45593999997E+02  0.45594000000E+02  0.51100000000E-03 0. -1.
         11   -1    0    0    0    0 -0.00000000000E+00 -0.00000000000E+00 -0.45593999997E+02  0.45594000000E+02  0.51100000000E-03 0.  1.
    9900012    2    1    2    0    0 -0.94318906289E+01 -0.42747194485E+02 -0.10622163179E+02  0.46142317101E+02  0.99999939839E+01 0.  0.
         12    1    1    2    0    0  0.94318906289E+01  0.42747194485E+02  0.10622163179E+02  0.45045682899E+02  0.00000000000E+00 0. -1.
         11    1    3    3    0    0 -0.60925092880E+01 -0.26647280138E+02 -0.31197952913E+01  0.27512348702E+02  0.51100000000E-03 0. -1.
        -11    1    3    3    0    0 -0.41445411635E+01 -0.10652389147E+02 -0.40299672633E+01  0.12119870148E+02  0.51100000000E-03 0.  1.
         12    1    3    3    0    0  0.80515982264E+00 -0.54475252010E+01 -0.34724006248E+01  0.65100982523E+01  0.00000000000E+00 0. -1.
</event>
<event>
 7    1  0.8398055E-009  0.4614232E+02  0.7816164E-02  0.1320468E+00
        -11   -1    0    0    0    0  0.00000000000E+00  0.00000000000E+00  0.45593999997E+02  0.45594000000E+02  0.51100000000E-03 0.  1.
         11   -1    0    0    0    0 -0.00000000000E+00 -0.00000000000E+00 -0.45593999997E+02  0.45594000000E+02  0.51100000000E-03 0. -1.
    9900012    2    1    2    0    0 -0.31151589058E+02 -0.48757643825E+00  0.32533889925E+02  0.46142320681E+02  0.10000026626E+02 0.  0.
        -12    1    1    2    0    0  0.31151589058E+02  0.48757643825E+00 -0.32533889925E+02  0.45045679319E+02  0.00000000000E+00 0.  1.
         11    1    3    3    0    0 -0.23217239715E+02  0.25522039637E+01  0.22658118673E+02  0.32541424479E+02  0.51100000000E-03 0. -1.
        -11    1    3    3    0    0 -0.14328818625E+01  0.54011648634E+00  0.34853498035E+01  0.38069068500E+01  0.51100000000E-03 0.  1.
        -12    1    3    3    0    0 -0.65014674807E+01 -0.35798968883E+01  0.63904214484E+01  0.97939893517E+01  0.00000000000E+00 0.  1.
</event>
<event>
 7    1  0.8398055E-009  0.4614232E+02  0.7816164E-02  0.1320468E+00
        -11   -1    0    0    0    0  0.00000000000E+00  0.00000000000E+00  0.45593999997E+02  0.45594000000E+02  0.51100000000E-03 0. -1.
         11   -1    0    0    0    0 -0.00000000000E+00 -0.00000000000E+00 -0.45593999997E+02  0.45594000000E+02  0.51100000000E-03 0.  1.
    9900012    2    1    2    0    0  0.31171049114E+02 -0.30558886549E+02 -0.11119065483E+02  0.46142317996E+02  0.10000002144E+02 0.  0.
         12    1    1    2    0    0 -0.31171049114E+02  0.30558886549E+02  0.11119065483E+02  0.45045682004E+02  0.00000000000E+00 0. -1.
         11    1    3    3    0    0  0.26333517350E+01 -0.61935625409E+01  0.78305921952E-01  0.67305936133E+01  0.51100000000E-03 0. -1.
        -11    1    3    3    0    0  0.11066090891E+02 -0.98409629451E+01 -0.21850236555E+01  0.14969209997E+02  0.51100000000E-03 0.  1.
        -12    1    3    3    0    0  0.17471606488E+02 -0.14524361063E+02 -0.90123477498E+01  0.24442514386E+02  0.00000000000E+00 0.  1.
</event>
<event>
 7    1  0.8398055E-009  0.4614232E+02  0.7816164E-02  0.1320468E+00
        -11   -1    0    0    0    0  0.00000000000E+00  0.00000000000E+00  0.45593999997E+02  0.45594000000E+02  0.51100000000E-03 0. -1.
         11   -1    0    0    0    0 -0.00000000000E+00 -0.00000000000E+00 -0.45593999997E+02  0.45594000000E+02  0.51100000000E-03 0.  1.
    9900012    2    1    2    0    0  0.16733056465E+02 -0.13375467523E+01  0.41801067676E+02  0.46142317978E+02  0.10000001981E+02 0.  0.
        -12    1    1    2    0    0 -0.16733056465E+02  0.13375467523E+01 -0.41801067676E+02  0.45045682022E+02  0.00000000000E+00 0.  1.
         11    1    3    3    0    0  0.67157559112E+01  0.23956397551E+01  0.10747612434E+02  0.12897737809E+02  0.51100000000E-03 0. -1.
        -11    1    3    3    0    0  0.12457468326E+01  0.28986996914E+00  0.84690360363E+00  0.15339999169E+01  0.51100000000E-03 0.  1.
         12    1    3    3    0    0  0.87715537213E+01 -0.40230564765E+01  0.30206551638E+02  0.31710580253E+02  0.00000000000E+00 0. -1.
</event>
<event>
 7    1  0.8398055E-009  0.4614231E+02  0.7816164E-02  0.1320468E+00
        -11   -1    0    0    0    0  0.00000000000E+00  0.00000000000E+00  0.45593999997E+02  0.45594000000E+02  0.51100000000E-03 0. -1.
         11   -1    0    0    0    0 -0.00000000000E+00 -0.00000000000E+00 -0.45593999997E+02  0.45594000000E+02  0.51100000000E-03 0.  1.
    9900012    2    1    2    0    0 -0.26444478817E+02 -0.25557490207E+02 -0.26011882424E+02  0.46142314381E+02  0.99999691802E+01 0.  0.
         12    1    1    2    0    0  0.26444478817E+02  0.25557490207E+02  0.26011882424E+02  0.45045685619E+02  0.00000000000E+00 0. -1.
         11    1    3    3    0    0 -0.18236496976E+01 -0.17643156861E+01  0.41145607502E+00  0.25705650006E+01  0.51100000000E-03 0. -1.
        -11    1    3    3    0    0 -0.24488578205E+02 -0.23179899226E+02 -0.24877100114E+02  0.41903082237E+02  0.51100000000E-03 0.  1.
        -12    1    3    3    0    0 -0.13225091443E+00 -0.61327529532E+00 -0.15462383849E+01  0.16686671433E+01  0.00000000000E+00 0.  1.
</event>
<event>
 7    1  0.8398055E-009  0.4614232E+02  0.7816164E-02  0.1320468E+00
        -11   -1    0    0    0    0  0.00000000000E+00  0.00000000000E+00  0.45593999997E+02  0.45594000000E+02  0.51100000000E-03 0. -1.
         11   -1    0    0    0    0 -0.00000000000E+00 -0.00000000000E+00 -0.45593999997E+02  0.45594000000E+02  0.51100000000E-03 0.  1.
    9900012    2    1    2    0    0 -0.24429815608E+02 -0.18728010765E+02  0.32887069924E+02  0.46142316011E+02  0.99999840435E+01 0.  0.
        -12    1    1    2    0    0  0.24429815608E+02  0.18728010765E+02 -0.32887069924E+02  0.45045683989E+02  0.00000000000E+00 0.  1.
         11    1    3    3    0    0 -0.26085815072E+01 -0.54279788988E+01  0.60074031148E+01  0.85062650353E+01  0.51100000000E-03 0.  1.
        -11    1    3    3    0    0 -0.60577025177E+01 -0.68331729963E+01  0.11485490051E+02  0.14673257817E+02  0.51100000000E-03 0. -1.
        -12    1    3    3    0    0 -0.15763531583E+02 -0.64668588697E+01  0.15394176758E+02  0.22962793159E+02  0.00000000000E+00 0.  1.
</event>
<event>
 7    1  0.8398055E-009  0.4614232E+02  0.7816164E-02  0.1320468E+00
        -11   -1    0    0    0    0  0.00000000000E+00  0.00000000000E+00  0.45593999997E+02  0.45594000000E+02  0.51100000000E-03 0. -1.
         11   -1    0    0    0    0 -0.00000000000E+00 -0.00000000000E+00 -0.45593999997E+02  0.45594000000E+02  0.51100000000E-03 0.  1.
    9900012    2    1    2    0    0  0.14341087063E+02 -0.31530971699E+02  0.28796605840E+02  0.46142318050E+02  0.10000002637E+02 0.  0.
        -12    1    1    2    0    0 -0.14341087063E+02  0.31530971699E+02 -0.28796605840E+02  0.45045681950E+02  0.00000000000E+00 0.  1.
         11    1    3    3    0    0  0.53782950979E+01 -0.38946921959E+01  0.59195825168E+01  0.88958497568E+01  0.51100000000E-03 0. -1.
        -11    1    3    3    0    0  0.38357375604E+01 -0.84942414797E+01  0.96799294078E+01  0.13437486913E+02  0.51100000000E-03 0.  1.
        -12    1    3    3    0    0  0.51270544048E+01 -0.19142038023E+02  0.13197093916E+02  0.23808981380E+02  0.00000000000E+00 0.  1.
</event>
<event>
 7    1  0.8398055E-009  0.4614232E+02  0.7816164E-02  0.1320468E+00
        -11   -1    0    0    0    0  0.00000000000E+00  0.00000000000E+00  0.45593999997E+02  0.45594000000E+02  0.51100000000E-03 0. -1.
         11   -1    0    0    0    0 -0.00000000000E+00 -0.00000000000E+00 -0.45593999997E+02  0.45594000000E+02  0.51100000000E-03 0.  1.
    9900012    2    1    2    0    0  0.21602700241E+02 -0.12756115555E+02  0.37412809601E+02  0.46142318032E+02  0.10000002468E+02 0.  0.
        -12    1    1    2    0    0 -0.21602700241E+02  0.12756115555E+02 -0.37412809601E+02  0.45045681968E+02  0.00000000000E+00 0.  1.
         11    1    3    3    0    0 -0.83789187948E+00 -0.25505153670E+00  0.15089154636E+01  0.17446891486E+01  0.51100000000E-03 0.  1.
        -11    1    3    3    0    0  0.14540427225E+02 -0.98368777383E+01  0.26946610899E+02  0.32160659612E+02  0.51100000000E-03 0. -1.
         12    1    3    3    0    0  0.79001648958E+01 -0.26641862800E+01  0.89572832386E+01  0.12236969271E+02  0.00000000000E+00 0. -1.
</event>
<event>
 7    1  0.8398055E-009  0.4614232E+02  0.7816164E-02  0.1320468E+00
        -11   -1    0    0    0    0  0.00000000000E+00  0.00000000000E+00  0.45593999997E+02  0.45594000000E+02  0.51100000000E-03 0. -1.
         11   -1    0    0    0    0 -0.00000000000E+00 -0.00000000000E+00 -0.45593999997E+02  0.45594000000E+02  0.51100000000E-03 0.  1.
    9900012    2    1    2    0    0 -0.14204470342E+02  0.11774951384E+01  0.42731251825E+02  0.46142319241E+02  0.10000013496E+02 0.  0.
        -12    1    1    2    0    0  0.14204470342E+02 -0.11774951384E+01 -0.42731251825E+02  0.45045680759E+02  0.00000000000E+00 0.  1.
         11    1    3    3    0    0 -0.48318740742E+01  0.10717858956E+01  0.10651453967E+02  0.11745177902E+02  0.51100000000E-03 0.  1.
        -11    1    3    3    0    0 -0.80992172308E+01  0.18957349855E+01  0.14792534872E+02  0.16970863829E+02  0.51100000000E-03 0. -1.
        -12    1    3    3    0    0 -0.12733790366E+01 -0.17900257428E+01  0.17287262986E+02  0.17426277510E+02  0.00000000000E+00 0.  1.
</event>
<event>
 7    1  0.8398055E-009  0.4614232E+02  0.7816164E-02  0.1320468E+00
        -11   -1    0    0    0    0  0.00000000000E+00  0.00000000000E+00  0.45593999997E+02  0.45594000000E+02  0.51100000000E-03 0. -1.
         11   -1    0    0    0    0 -0.00000000000E+00 -0.00000000000E+00 -0.45593999997E+02  0.45594000000E+02  0.51100000000E-03 0.  1.
    9900012    2    1    2    0    0  0.26800503180E+02  0.32177840394E+02  0.16596183097E+02  0.46142315673E+02  0.99999809567E+01 0.  0.
        -12    1    1    2    0    0 -0.26800503180E+02 -0.32177840394E+02 -0.16596183097E+02  0.45045684327E+02  0.00000000000E+00 0.  1.
         11    1    3    3    0    0  0.22069604519E+02  0.22107049361E+02  0.13286869516E+02  0.33945986167E+02  0.51100000000E-03 0. -1.
        -11    1    3    3    0    0 -0.17583222873E+00  0.23427870286E-01  0.68961630044E+00  0.71206512393E+00  0.51100000000E-03 0.  1.
         12    1    3    3    0    0  0.49067308904E+01  0.10047363162E+02  0.26196972804E+01  0.11484264382E+02  0.00000000000E+00 0. -1.
</event>
<event>
 7    1  0.8398055E-009  0.4614232E+02  0.7816164E-02  0.1320468E+00
        -11   -1    0    0    0    0  0.00000000000E+00  0.00000000000E+00  0.45593999997E+02  0.45594000000E+02  0.51100000000E-03 0. -1.
         11   -1    0    0    0    0 -0.00000000000E+00 -0.00000000000E+00 -0.45593999997E+02  0.45594000000E+02  0.51100000000E-03 0.  1.
    9900012    2    1    2    0    0  0.67685326168E+01 -0.32822217149E+02  0.30099874686E+02  0.46142318425E+02  0.10000006056E+02 0.  0.
        -12    1    1    2    0    0 -0.67685326168E+01  0.32822217149E+02 -0.30099874686E+02  0.45045681575E+02  0.00000000000E+00 0.  1.
         11    1    3    3    0    0  0.61607848013E+00 -0.14581620095E+02  0.11119497707E+02  0.18347927043E+02  0.51100000000E-03 0. -1.
        -11    1    3    3    0    0  0.10665296529E+01 -0.35983511061E+01  0.68412372804E+00  0.38149235536E+01  0.51100000000E-03 0.  1.
         12    1    3    3    0    0  0.50859244838E+01 -0.14642245949E+02  0.18296253252E+02  0.23979467828E+02  0.00000000000E+00 0. -1.
</event>
<event>
 7    1  0.1028357E-008  0.4614232E+02  0.7816164E-02  0.1320468E+00
        -11   -1    0    0    0    0  0.00000000000E+00  0.00000000000E+00  0.45593999997E+02  0.45594000000E+02  0.51100000000E-03 0. -1.
         11   -1    0    0    0    0 -0.00000000000E+00 -0.00000000000E+00 -0.45593999997E+02  0.45594000000E+02  0.51100000000E-03 0.  1.
    9900012    2    1    2    0    0  0.11435830778E+02 -0.20804777221E+02 -0.38281804357E+02  0.46142317347E+02  0.99999962259E+01 0.  0.
         12    1    1    2    0    0 -0.11435830778E+02  0.20804777221E+02  0.38281804357E+02  0.45045682653E+02  0.00000000000E+00 0. -1.
         11    1    3    3    0    0  0.14558352894E+01  0.19883636059E+00 -0.33095209845E+01  0.36210387593E+01  0.51100000000E-03 0. -1.
        -11    1    3    3    0    0  0.26535525115E+00  0.43914730818E+00 -0.16102627721E+01  0.16900326103E+01  0.51100000000E-03 0.  1.
        -12    1    3    3    0    0  0.97146402370E+01 -0.21442760890E+02 -0.33362020601E+02  0.40831245978E+02  0.00000000000E+00 0.  1.
</event>
<event>
 7    1  0.8398055E-009  0.4614232E+02  0.7816164E-02  0.1320468E+00
        -11   -1    0    0    0    0  0.00000000000E+00  0.00000000000E+00  0.45593999997E+02  0.45594000000E+02  0.51100000000E-03 0. -1.
         11   -1    0    0    0    0 -0.00000000000E+00 -0.00000000000E+00 -0.45593999997E+02  0.45594000000E+02  0.51100000000E-03 0.  1.
    9900012    2    1    2    0    0 -0.40808251993E+02  0.11946513474E+01 -0.19036093763E+02  0.46142317761E+02  0.10000000003E+02 0.  0.
         12    1    1    2    0    0  0.40808251993E+02 -0.11946513474E+01  0.19036093763E+02  0.45045682239E+02  0.00000000000E+00 0. -1.
         11    1    3    3    0    0 -0.84805985234E+01 -0.16681227316E+01 -0.68645126173E+00  0.86703172005E+01  0.51100000000E-03 0. -1.
        -11    1    3    3    0    0 -0.15841684864E+02  0.32545849192E+00 -0.71689730114E+01  0.17391350634E+02  0.51100000000E-03 0.  1.
         12    1    3    3    0    0 -0.16485968605E+02  0.25373155871E+01 -0.11180669490E+02  0.20080649927E+02  0.00000000000E+00 0. -1.
</event>
<event>
 7    1  0.8398055E-009  0.4614232E+02  0.7816164E-02  0.1320468E+00
        -11   -1    0    0    0    0  0.00000000000E+00  0.00000000000E+00  0.45593999997E+02  0.45594000000E+02  0.51100000000E-03 0. -1.
         11   -1    0    0    0    0 -0.00000000000E+00 -0.00000000000E+00 -0.45593999997E+02  0.45594000000E+02  0.51100000000E-03 0.  1.
    9900012    2    1    2    0    0  0.18097710211E+02  0.13560239820E+02 -0.38957749618E+02  0.46142317919E+02  0.10000001443E+02 0.  0.
         12    1    1    2    0    0 -0.18097710211E+02 -0.13560239820E+02  0.38957749618E+02  0.45045682081E+02  0.00000000000E+00 0. -1.
         11    1    3    3    0    0  0.21697318337E+01  0.27711269505E+00 -0.51118045737E+00  0.22462932572E+01  0.51100000000E-03 0. -1.
        -11    1    3    3    0    0  0.43545262742E+01  0.39717868737E+01 -0.72487762399E+01  0.93424700845E+01  0.51100000000E-03 0.  1.
        -12    1    3    3    0    0  0.11573452103E+02  0.93113402509E+01 -0.31197792920E+02  0.34553554578E+02  0.00000000000E+00 0.  1.
</event>
<event>
 7    1  0.8398055E-009  0.4614232E+02  0.7816164E-02  0.1320468E+00
        -11   -1    0    0    0    0  0.00000000000E+00  0.00000000000E+00  0.45593999997E+02  0.45594000000E+02  0.51100000000E-03 0. -1.
         11   -1    0    0    0    0 -0.00000000000E+00 -0.00000000000E+00 -0.45593999997E+02  0.45594000000E+02  0.51100000000E-03 0.  1.
    9900012    2    1    2    0    0 -0.15029674100E+02 -0.35654246486E+02 -0.23065062461E+02  0.46142317606E+02  0.99999985856E+01 0.  0.
         12    1    1    2    0    0  0.15029674100E+02  0.35654246486E+02  0.23065062461E+02  0.45045682394E+02  0.00000000000E+00 0. -1.
         11    1    3    3    0    0 -0.98674169167E+01 -0.20763568328E+02 -0.80310558202E+01  0.24351376638E+02  0.51100000000E-03 0. -1.
        -11    1    3    3    0    0 -0.30997885686E+01 -0.86824054419E+01 -0.92291644186E+01  0.13044935015E+02  0.51100000000E-03 0.  1.
         12    1    3    3    0    0 -0.20624686144E+01 -0.62082727163E+01 -0.58048422222E+01  0.87460059530E+01  0.00000000000E+00 0. -1.
</event>
<event>
 7    1  0.8398055E-009  0.4614232E+02  0.7816164E-02  0.1320468E+00
        -11   -1    0    0    0    0  0.00000000000E+00  0.00000000000E+00  0.45593999997E+02  0.45594000000E+02  0.51100000000E-03 0. -1.
         11   -1    0    0    0    0 -0.00000000000E+00 -0.00000000000E+00 -0.45593999997E+02  0.45594000000E+02  0.51100000000E-03 0.  1.
    9900012    2    1    2    0    0 -0.97534761248E+00 -0.25948689893E+02 -0.36807983737E+02  0.46142317889E+02  0.10000001162E+02 0.  0.
         12    1    1    2    0    0  0.97534761248E+00  0.25948689893E+02  0.36807983737E+02  0.45045682111E+02  0.00000000000E+00 0. -1.
         11    1    3    3    0    0  0.53208268394E-01 -0.14388891831E+01 -0.66745249811E+01  0.68280683348E+01  0.51100000000E-03 0. -1.
        -11    1    3    3    0    0 -0.26918735687E+01 -0.17131840713E+02 -0.23808760070E+02  0.29455104920E+02  0.51100000000E-03 0.  1.
        -12    1    3    3    0    0  0.16633176878E+01 -0.73779599962E+01 -0.63246986859E+01  0.98591446335E+01  0.00000000000E+00 0.  1.
</event>
<event>
 7    1  0.8398055E-009  0.4614232E+02  0.7816164E-02  0.1320468E+00
        -11   -1    0    0    0    0  0.00000000000E+00  0.00000000000E+00  0.45593999997E+02  0.45594000000E+02  0.51100000000E-03 0. -1.
         11   -1    0    0    0    0 -0.00000000000E+00 -0.00000000000E+00 -0.45593999997E+02  0.45594000000E+02  0.51100000000E-03 0.  1.
    9900012    2    1    2    0    0 -0.41039807248E+02  0.18553891109E+02  0.77506800816E+00  0.46142318912E+02  0.10000010496E+02 0.  0.
         12    1    1    2    0    0  0.41039807248E+02 -0.18553891109E+02 -0.77506800816E+00  0.45045681088E+02  0.00000000000E+00 0. -1.
         11    1    3    3    0    0 -0.10078444789E+02  0.47280316175E+01 -0.13656881291E+01  0.11215811904E+02  0.51100000000E-03 0. -1.
        -11    1    3    3    0    0 -0.19754067661E+01  0.22769457780E+01 -0.17457110551E+01  0.34834209215E+01  0.51100000000E-03 0.  1.
        -12    1    3    3    0    0 -0.28985955694E+02  0.11548913713E+02  0.38864671923E+01  0.31443086087E+02  0.00000000000E+00 0.  1.
</event>
<event>
 7    1  0.8398055E-009  0.4614232E+02  0.7816164E-02  0.1320468E+00
        -11   -1    0    0    0    0  0.00000000000E+00  0.00000000000E+00  0.45593999997E+02  0.45594000000E+02  0.51100000000E-03 0. -1.
         11   -1    0    0    0    0 -0.00000000000E+00 -0.00000000000E+00 -0.45593999997E+02  0.45594000000E+02  0.51100000000E-03 0.  1.
    9900012    2    1    2    0    0 -0.73561017463E+01  0.25481206972E+02 -0.36410291832E+02  0.46142317710E+02  0.99999995383E+01 0.  0.
         12    1    1    2    0    0  0.73561017463E+01 -0.25481206972E+02  0.36410291832E+02  0.45045682290E+02  0.00000000000E+00 0. -1.
         11    1    3    3    0    0 -0.37610351507E+01  0.76757975549E+01 -0.12209168454E+02  0.14903927271E+02  0.51100000000E-03 0. -1.
        -11    1    3    3    0    0  0.15129220830E+01  0.98613460789E+01 -0.15266435269E+02  0.18237300398E+02  0.51100000000E-03 0.  1.
         12    1    3    3    0    0 -0.51079886785E+01  0.79440633380E+01 -0.89346881086E+01  0.13001090041E+02  0.00000000000E+00 0. -1.
</event>
<event>
 7    1  0.8398055E-009  0.4614232E+02  0.7816164E-02  0.1320468E+00
        -11   -1    0    0    0    0  0.00000000000E+00  0.00000000000E+00  0.45593999997E+02  0.45594000000E+02  0.51100000000E-03 0. -1.
         11   -1    0    0    0    0 -0.00000000000E+00 -0.00000000000E+00 -0.45593999997E+02  0.45594000000E+02  0.51100000000E-03 0.  1.
    9900012    2    1    2    0    0  0.30564468858E+02 -0.69087727628E+01 -0.32360393526E+02  0.46142323550E+02  0.10000052788E+02 0.  0.
         12    1    1    2    0    0 -0.30564468858E+02  0.69087727628E+01  0.32360393526E+02  0.45045676450E+02  0.00000000000E+00 0. -1.
         11    1    3    3    0    0  0.80986884133E+01 -0.17763561913E+01 -0.12458592231E+02  0.14965317102E+02  0.51100000000E-03 0. -1.
        -11    1    3    3    0    0  0.94494584276E+01  0.78951773139E+00 -0.59273990344E+01  0.11182560637E+02  0.51100000000E-03 0.  1.
        -12    1    3    3    0    0  0.13016322017E+02 -0.59219343030E+01 -0.13974402261E+02  0.19994445811E+02  0.00000000000E+00 0.  1.
</event>
<event>
 7    1  0.8398055E-009  0.4614233E+02  0.7816164E-02  0.1320468E+00
        -11   -1    0    0    0    0  0.00000000000E+00  0.00000000000E+00  0.45593999997E+02  0.45594000000E+02  0.51100000000E-03 0. -1.
         11   -1    0    0    0    0 -0.00000000000E+00 -0.00000000000E+00 -0.45593999997E+02  0.45594000000E+02  0.51100000000E-03 0.  1.
    9900012    2    1    2    0    0 -0.12618702531E+02  0.11412793113E+02  0.41708863026E+02  0.46142325900E+02  0.10000074214E+02 0.  0.
        -12    1    1    2    0    0  0.12618702531E+02 -0.11412793113E+02 -0.41708863026E+02  0.45045674100E+02  0.00000000000E+00 0.  1.
         11    1    3    3    0    0 -0.45986624046E+01  0.68234022802E+01  0.20208912406E+02  0.21819868365E+02  0.51100000000E-03 0. -1.
        -11    1    3    3    0    0 -0.17817060727E+01 -0.14046224069E+01  0.77676280577E+01  0.80921867588E+01  0.51100000000E-03 0.  1.
        -12    1    3    3    0    0 -0.62383340533E+01  0.59940132400E+01  0.13732322563E+02  0.16230270776E+02  0.00000000000E+00 0.  1.
</event>
<event>
 7    1  0.8398055E-009  0.4614232E+02  0.7816164E-02  0.1320468E+00
        -11   -1    0    0    0    0  0.00000000000E+00  0.00000000000E+00  0.45593999997E+02  0.45594000000E+02  0.51100000000E-03 0.  1.
         11   -1    0    0    0    0 -0.00000000000E+00 -0.00000000000E+00 -0.45593999997E+02  0.45594000000E+02  0.51100000000E-03 0. -1.
    9900012    2    1    2    0    0  0.39588421685E+02  0.17308530536E+02  0.12739118109E+02  0.46142317731E+02  0.99999997287E+01 0.  0.
        -12    1    1    2    0    0 -0.39588421685E+02 -0.17308530536E+02 -0.12739118109E+02  0.45045682269E+02  0.00000000000E+00 0.  1.
         11    1    3    3    0    0  0.26127931788E+02  0.94594422173E+01  0.69873580967E+01  0.28652627105E+02  0.51100000000E-03 0. -1.
        -11    1    3    3    0    0  0.13846373566E+02  0.71972670513E+01  0.59591757008E+01  0.16704325464E+02  0.51100000000E-03 0.  1.
        -12    1    3    3    0    0 -0.38588366804E+00  0.65182126770E+00 -0.20741568870E+00  0.78536516233E+00  0.00000000000E+00 0.  1.
</event>
<event>
 7    1  0.8398055E-009  0.4614232E+02  0.7816164E-02  0.1320468E+00
        -11   -1    0    0    0    0  0.00000000000E+00  0.00000000000E+00  0.45593999997E+02  0.45594000000E+02  0.51100000000E-03 0. -1.
         11   -1    0    0    0    0 -0.00000000000E+00 -0.00000000000E+00 -0.45593999997E+02  0.45594000000E+02  0.51100000000E-03 0.  1.
    9900012    2    1    2    0    0 -0.22083239784E+02 -0.30644864870E+01 -0.39141447730E+02  0.46142317775E+02  0.10000000123E+02 0.  0.
         12    1    1    2    0    0  0.22083239784E+02  0.30644864870E+01  0.39141447730E+02  0.45045682225E+02  0.00000000000E+00 0. -1.
         11    1    3    3    0    0 -0.10304220537E+01 -0.25432900415E+01 -0.24230879849E+01  0.36607990231E+01  0.51100000000E-03 0. -1.
        -11    1    3    3    0    0 -0.95371045655E+01 -0.19136324242E+01 -0.15496513959E+02  0.18296455877E+02  0.51100000000E-03 0.  1.
         12    1    3    3    0    0 -0.11515713165E+02  0.13924359787E+01 -0.21221845786E+02  0.24185062874E+02  0.00000000000E+00 0. -1.
</event>
<event>
 7    1  0.8398055E-009  0.4614232E+02  0.7816164E-02  0.1320468E+00
        -11   -1    0    0    0    0  0.00000000000E+00  0.00000000000E+00  0.45593999997E+02  0.45594000000E+02  0.51100000000E-03 0.  1.
         11   -1    0    0    0    0 -0.00000000000E+00 -0.00000000000E+00 -0.45593999997E+02  0.45594000000E+02  0.51100000000E-03 0. -1.
    9900012    2    1    2    0    0 -0.41831277949E+02 -0.23246952595E+01 -0.16548515200E+02  0.46142318983E+02  0.10000011147E+02 0.  0.
         12    1    1    2    0    0  0.41831277949E+02  0.23246952595E+01  0.16548515200E+02  0.45045681017E+02  0.00000000000E+00 0. -1.
         11    1    3    3    0    0 -0.33508901957E+02  0.13234889516E+01 -0.11422996501E+02  0.35427150361E+02  0.51100000000E-03 0. -1.
        -11    1    3    3    0    0 -0.97034602481E-01  0.27525004971E+00 -0.10212325177E+00  0.30920498641E+00  0.51100000000E-03 0.  1.
        -12    1    3    3    0    0 -0.82253413894E+01 -0.39234342608E+01 -0.50233954475E+01  0.10405963636E+02  0.00000000000E+00 0.  1.
</event>
<event>
 7    1  0.8398055E-009  0.4614232E+02  0.7816164E-02  0.1320468E+00
        -11   -1    0    0    0    0  0.00000000000E+00  0.00000000000E+00  0.45593999997E+02  0.45594000000E+02  0.51100000000E-03 0. -1.
         11   -1    0    0    0    0 -0.00000000000E+00 -0.00000000000E+00 -0.45593999997E+02  0.45594000000E+02  0.51100000000E-03 0.  1.
    9900012    2    1    2    0    0 -0.64809556285E+01  0.29098141542E+02  0.33769940562E+02  0.46142317492E+02  0.99999975467E+01 0.  0.
        -12    1    1    2    0    0  0.64809556285E+01 -0.29098141542E+02 -0.33769940562E+02  0.45045682508E+02  0.00000000000E+00 0.  1.
         11    1    3    3    0    0 -0.59593365057E+01  0.27220544483E+02  0.32137827009E+02  0.42536004263E+02  0.51100000000E-03 0. -1.
        -11    1    3    3    0    0  0.78359519661E+00  0.10016132800E+01  0.15870992719E+01  0.20337489901E+01  0.51100000000E-03 0.  1.
         12    1    3    3    0    0 -0.13052143194E+01  0.87598377923E+00  0.45014281103E-01  0.15725642393E+01  0.00000000000E+00 0. -1.
</event>
<event>
 7    1  0.8398055E-009  0.4614232E+02  0.7816164E-02  0.1320468E+00
        -11   -1    0    0    0    0  0.00000000000E+00  0.00000000000E+00  0.45593999997E+02  0.45594000000E+02  0.51100000000E-03 0. -1.
         11   -1    0    0    0    0 -0.00000000000E+00 -0.00000000000E+00 -0.45593999997E+02  0.45594000000E+02  0.51100000000E-03 0.  1.
    9900012    2    1    2    0    0 -0.28025316565E+02 -0.23940024136E+02 -0.25895374736E+02  0.46142317000E+02  0.99999930618E+01 0.  0.
         12    1    1    2    0    0  0.28025316565E+02  0.23940024136E+02  0.25895374736E+02  0.45045683000E+02  0.00000000000E+00 0. -1.
         11    1    3    3    0    0 -0.50211743628E+00  0.77403639919E+00 -0.78349766446E+00  0.12104227024E+01  0.51100000000E-03 0. -1.
        -11    1    3    3    0    0 -0.13364699952E+02 -0.10644920518E+02 -0.13987254315E+02  0.22081051179E+02  0.51100000000E-03 0.  1.
         12    1    3    3    0    0 -0.14158499177E+02 -0.14069140018E+02 -0.11124622757E+02  0.22850843119E+02  0.00000000000E+00 0. -1.
</event>
<event>
 7    1  0.8398055E-009  0.4614232E+02  0.7816164E-02  0.1320468E+00
        -11   -1    0    0    0    0  0.00000000000E+00  0.00000000000E+00  0.45593999997E+02  0.45594000000E+02  0.51100000000E-03 0. -1.
         11   -1    0    0    0    0 -0.00000000000E+00 -0.00000000000E+00 -0.45593999997E+02  0.45594000000E+02  0.51100000000E-03 0.  1.
    9900012    2    1    2    0    0 -0.11058684564E+02  0.31857507756E+02 -0.29864998567E+02  0.46142318253E+02  0.10000004484E+02 0.  0.
         12    1    1    2    0    0  0.11058684564E+02 -0.31857507756E+02  0.29864998567E+02  0.45045681747E+02  0.00000000000E+00 0. -1.
         11    1    3    3    0    0  0.73473064107E-01  0.11413113302E+01 -0.18710152679E+01  0.21928721434E+01  0.51100000000E-03 0.  1.
        -11    1    3    3    0    0 -0.11877613219E+01  0.19733702551E+01 -0.59679596274E+01  0.63969922226E+01  0.51100000000E-03 0. -1.
         12    1    3    3    0    0 -0.99443963064E+01  0.28742826170E+02 -0.22026023671E+02  0.37552453887E+02  0.00000000000E+00 0. -1.
</event>
<event>
 7    1  0.8398055E-009  0.4614232E+02  0.7816164E-02  0.1320468E+00
        -11   -1    0    0    0    0  0.00000000000E+00  0.00000000000E+00  0.45593999997E+02  0.45594000000E+02  0.51100000000E-03 0. -1.
         11   -1    0    0    0    0 -0.00000000000E+00 -0.00000000000E+00 -0.45593999997E+02  0.45594000000E+02  0.51100000000E-03 0.  1.
    9900012    2    1    2    0    0 -0.20423973894E+02  0.15787089648E+01 -0.40118355097E+02  0.46142318217E+02  0.10000004156E+02 0.  0.
         12    1    1    2    0    0  0.20423973894E+02 -0.15787089648E+01  0.40118355097E+02  0.45045681783E+02  0.00000000000E+00 0. -1.
         11    1    3    3    0    0 -0.67069148893E+01 -0.39138600688E+01 -0.12565187452E+02  0.14771084724E+02  0.51100000000E-03 0. -1.
        -11    1    3    3    0    0 -0.47886222045E+01  0.32444126816E+01 -0.10138701598E+02  0.11672634091E+02  0.51100000000E-03 0.  1.
         12    1    3    3    0    0 -0.89284368003E+01  0.22481563520E+01 -0.17414466048E+02  0.19698599402E+02  0.00000000000E+00 0. -1.
</event>
<event>
 7    1  0.8398055E-009  0.4614232E+02  0.7816164E-02  0.1320468E+00
        -11   -1    0    0    0    0  0.00000000000E+00  0.00000000000E+00  0.45593999997E+02  0.45594000000E+02  0.51100000000E-03 0. -1.
         11   -1    0    0    0    0 -0.00000000000E+00 -0.00000000000E+00 -0.45593999997E+02  0.45594000000E+02  0.51100000000E-03 0.  1.
    9900012    2    1    2    0    0 -0.34354586861E+01 -0.17982428373E+02  0.41157543128E+02  0.46142318043E+02  0.10000002574E+02 0.  0.
        -12    1    1    2    0    0  0.34354586861E+01  0.17982428373E+02 -0.41157543128E+02  0.45045681957E+02  0.00000000000E+00 0.  1.
         11    1    3    3    0    0 -0.38325727676E+01 -0.10000275767E+02  0.23214620624E+02  0.25565851060E+02  0.51100000000E-03 0. -1.
        -11    1    3    3    0    0 -0.62711670870E+00 -0.86589981794E+01  0.16741885866E+02  0.18859010245E+02  0.51100000000E-03 0.  1.
         12    1    3    3    0    0  0.10242307902E+01  0.67684557265E+00  0.12010366384E+01  0.17174567382E+01  0.00000000000E+00 0. -1.
</event>
<event>
 7    1  0.8398055E-009  0.4614232E+02  0.7816164E-02  0.1320468E+00
        -11   -1    0    0    0    0  0.00000000000E+00  0.00000000000E+00  0.45593999997E+02  0.45594000000E+02  0.51100000000E-03 0.  1.
         11   -1    0    0    0    0 -0.00000000000E+00 -0.00000000000E+00 -0.45593999997E+02  0.45594000000E+02  0.51100000000E-03 0. -1.
    9900012    2    1    2    0    0  0.12559050228E+02 -0.40363116248E+02  0.15562861943E+02  0.46142316880E+02  0.99999919670E+01 0.  0.
        -12    1    1    2    0    0 -0.12559050228E+02  0.40363116248E+02 -0.15562861943E+02  0.45045683120E+02  0.00000000000E+00 0.  1.
         11    1    3    3    0    0  0.22686511987E+01 -0.15819951613E+01  0.34231437398E+00  0.27868739375E+01  0.51100000000E-03 0. -1.
        -11    1    3    3    0    0  0.33742593441E+01 -0.50728334240E+01  0.33639506858E+01  0.69595567062E+01  0.51100000000E-03 0.  1.
         12    1    3    3    0    0  0.69161396852E+01 -0.33708287662E+02  0.11856596884E+02  0.36395886236E+02  0.00000000000E+00 0. -1.
</event>
<event>
 7    1  0.8398055E-009  0.4614232E+02  0.7816164E-02  0.1320468E+00
        -11   -1    0    0    0    0  0.00000000000E+00  0.00000000000E+00  0.45593999997E+02  0.45594000000E+02  0.51100000000E-03 0. -1.
         11   -1    0    0    0    0 -0.00000000000E+00 -0.00000000000E+00 -0.45593999997E+02  0.45594000000E+02  0.51100000000E-03 0.  1.
    9900012    2    1    2    0    0 -0.25128116133E+02  0.80376072053E+01  0.36511478086E+02  0.46142318942E+02  0.10000010766E+02 0.  0.
        -12    1    1    2    0    0  0.25128116133E+02 -0.80376072053E+01 -0.36511478086E+02  0.45045681058E+02  0.00000000000E+00 0.  1.
         11    1    3    3    0    0 -0.12099544570E+02  0.69203154457E+01  0.21416153432E+02  0.25552717522E+02  0.51100000000E-03 0. -1.
        -11    1    3    3    0    0 -0.28416068763E+01 -0.12614778640E+01  0.58670816564E+01  0.66399324894E+01  0.51100000000E-03 0.  1.
        -12    1    3    3    0    0 -0.10186964686E+02  0.23787696235E+01  0.92282429979E+01  0.13949668930E+02  0.00000000000E+00 0.  1.
</event>
<event>
 7    1  0.8398055E-009  0.4614232E+02  0.7816164E-02  0.1320468E+00
        -11   -1    0    0    0    0  0.00000000000E+00  0.00000000000E+00  0.45593999997E+02  0.45594000000E+02  0.51100000000E-03 0. -1.
         11   -1    0    0    0    0 -0.00000000000E+00 -0.00000000000E+00 -0.45593999997E+02  0.45594000000E+02  0.51100000000E-03 0.  1.
    9900012    2    1    2    0    0 -0.21190800697E+02  0.84981935087E+01 -0.38830968602E+02  0.46142318191E+02  0.10000003919E+02 0.  0.
         12    1    1    2    0    0  0.21190800697E+02 -0.84981935087E+01  0.38830968602E+02  0.45045681809E+02  0.00000000000E+00 0. -1.
         11    1    3    3    0    0 -0.30205409227E+01 -0.15053396088E+01 -0.10456180769E+02  0.10987330492E+02  0.51100000000E-03 0. -1.
        -11    1    3    3    0    0 -0.92719507000E+01  0.49367651392E+01 -0.14922889600E+02  0.18249201465E+02  0.51100000000E-03 0.  1.
         12    1    3    3    0    0 -0.88983090745E+01  0.50667679783E+01 -0.13451898232E+02  0.16905786234E+02  0.00000000000E+00 0. -1.
</event>
<event>
 7    1  0.8398055E-009  0.4614232E+02  0.7816164E-02  0.1320468E+00
        -11   -1    0    0    0    0  0.00000000000E+00  0.00000000000E+00  0.45593999997E+02  0.45594000000E+02  0.51100000000E-03 0. -1.
         11   -1    0    0    0    0 -0.00000000000E+00 -0.00000000000E+00 -0.45593999997E+02  0.45594000000E+02  0.51100000000E-03 0.  1.
    9900012    2    1    2    0    0  0.22297033139E+02 -0.94414089443E+01 -0.37984411889E+02  0.46142318341E+02  0.10000005284E+02 0.  0.
         12    1    1    2    0    0 -0.22297033139E+02  0.94414089443E+01  0.37984411889E+02  0.45045681659E+02  0.00000000000E+00 0. -1.
         11    1    3    3    0    0  0.93158537697E+01 -0.29341749180E+01 -0.23118595633E+02  0.25097091031E+02  0.51100000000E-03 0. -1.
        -11    1    3    3    0    0  0.68212344327E+01 -0.45576948629E+01 -0.10125143811E+02  0.13031514076E+02  0.51100000000E-03 0.  1.
         12    1    3    3    0    0  0.61599449363E+01 -0.19495391634E+01 -0.47406724439E+01  0.80137132335E+01  0.00000000000E+00 0. -1.
</event>
<event>
 7    1  0.8398055E-009  0.4614232E+02  0.7816164E-02  0.1320468E+00
        -11   -1    0    0    0    0  0.00000000000E+00  0.00000000000E+00  0.45593999997E+02  0.45594000000E+02  0.51100000000E-03 0. -1.
         11   -1    0    0    0    0 -0.00000000000E+00 -0.00000000000E+00 -0.45593999997E+02  0.45594000000E+02  0.51100000000E-03 0.  1.
    9900012    2    1    2    0    0  0.17968965711E+02 -0.37981073054E+02  0.16237845779E+02  0.46142320134E+02  0.10000021638E+02 0.  0.
        -12    1    1    2    0    0 -0.17968965711E+02  0.37981073054E+02 -0.16237845779E+02  0.45045679866E+02  0.00000000000E+00 0.  1.
         11    1    3    3    0    0  0.46377205647E+01 -0.19128448134E+02  0.95482367664E+01  0.21876352659E+02  0.51100000000E-03 0. -1.
        -11    1    3    3    0    0  0.85182860748E+01 -0.14283727362E+02  0.55507417411E+01  0.17532735073E+02  0.51100000000E-03 0.  1.
         12    1    3    3    0    0  0.48129590714E+01 -0.45688975579E+01  0.11388672716E+01  0.67332324020E+01  0.00000000000E+00 0. -1.
</event>
<event>
 7    1  0.8398055E-009  0.4614230E+02  0.7816164E-02  0.1320468E+00
        -11   -1    0    0    0    0  0.00000000000E+00  0.00000000000E+00  0.45593999997E+02  0.45594000000E+02  0.51100000000E-03 0. -1.
         11   -1    0    0    0    0 -0.00000000000E+00 -0.00000000000E+00 -0.45593999997E+02  0.45594000000E+02  0.51100000000E-03 0.  1.
    9900012    2    1    2    0    0  0.40075095075E+02 -0.12011881863E+02  0.16697790004E+02  0.46142303844E+02  0.99998730946E+01 0.  0.
        -12    1    1    2    0    0 -0.40075095075E+02  0.12011881863E+02 -0.16697790004E+02  0.45045696156E+02  0.00000000000E+00 0.  1.
         11    1    3    3    0    0  0.15367820482E+02 -0.48764969957E+01  0.89119348751E+01  0.18422071349E+02  0.51100000000E-03 0. -1.
        -11    1    3    3    0    0  0.42786749973E+01  0.13004224017E+01  0.18139089866E+01  0.48258081425E+01  0.51100000000E-03 0.  1.
        -12    1    3    3    0    0  0.20428599596E+02 -0.84358072689E+01  0.59719461418E+01  0.22894424353E+02  0.00000000000E+00 0.  1.
</event>
<event>
 7    1  0.8398055E-009  0.4614232E+02  0.7816164E-02  0.1320468E+00
        -11   -1    0    0    0    0  0.00000000000E+00  0.00000000000E+00  0.45593999997E+02  0.45594000000E+02  0.51100000000E-03 0. -1.
         11   -1    0    0    0    0 -0.00000000000E+00 -0.00000000000E+00 -0.45593999997E+02  0.45594000000E+02  0.51100000000E-03 0.  1.
    9900012    2    1    2    0    0 -0.15545304781E+02 -0.76157375200E+01 -0.41586743215E+02  0.46142321295E+02  0.10000032227E+02 0.  0.
         12    1    1    2    0    0  0.15545304781E+02  0.76157375200E+01  0.41586743215E+02  0.45045678705E+02  0.00000000000E+00 0. -1.
         11    1    3    3    0    0 -0.55400629741E+01 -0.20840769234E+01 -0.16830155180E+02  0.17840678182E+02  0.51100000000E-03 0. -1.
        -11    1    3    3    0    0 -0.43178566592E+01  0.91865080040E+00 -0.13046211096E+02  0.13772851181E+02  0.51100000000E-03 0.  1.
         12    1    3    3    0    0 -0.56873851476E+01 -0.64503113970E+01 -0.11710376940E+02  0.14528791932E+02  0.00000000000E+00 0. -1.
</event>
<event>
 7    1  0.8398055E-009  0.4614232E+02  0.7816164E-02  0.1320468E+00
        -11   -1    0    0    0    0  0.00000000000E+00  0.00000000000E+00  0.45593999997E+02  0.45594000000E+02  0.51100000000E-03 0. -1.
         11   -1    0    0    0    0 -0.00000000000E+00 -0.00000000000E+00 -0.45593999997E+02  0.45594000000E+02  0.51100000000E-03 0.  1.
    9900012    2    1    2    0    0 -0.23812100654E+01  0.22710600934E+02  0.38828752292E+02  0.46142316958E+02  0.99999926789E+01 0.  0.
        -12    1    1    2    0    0  0.23812100654E+01 -0.22710600934E+02 -0.38828752292E+02  0.45045683042E+02  0.00000000000E+00 0.  1.
         11    1    3    3    0    0 -0.38658965486E+01  0.56812548071E+01  0.14997788495E+02  0.16497135276E+02  0.51100000000E-03 0. -1.
        -11    1    3    3    0    0 -0.80108861091E+00  0.10080484752E+02  0.16011745841E+02  0.18937632400E+02  0.51100000000E-03 0.  1.
        -12    1    3    3    0    0  0.22857750940E+01  0.69488613745E+01  0.78192179565E+01  0.10707549282E+02  0.00000000000E+00 0.  1.
</event>
<event>
 7    1  0.8398055E-009  0.4614232E+02  0.7816164E-02  0.1320468E+00
        -11   -1    0    0    0    0  0.00000000000E+00  0.00000000000E+00  0.45593999997E+02  0.45594000000E+02  0.51100000000E-03 0. -1.
         11   -1    0    0    0    0 -0.00000000000E+00 -0.00000000000E+00 -0.45593999997E+02  0.45594000000E+02  0.51100000000E-03 0.  1.
    9900012    2    1    2    0    0 -0.14445032128E+02  0.19478699850E+02 -0.37960963809E+02  0.46142317916E+02  0.10000001416E+02 0.  0.
         12    1    1    2    0    0  0.14445032128E+02 -0.19478699850E+02  0.37960963809E+02  0.45045682084E+02  0.00000000000E+00 0. -1.
         11    1    3    3    0    0 -0.42868362442E+01  0.66621421884E+01 -0.61898345265E+01  0.10053614039E+02  0.51100000000E-03 0. -1.
        -11    1    3    3    0    0 -0.66895605830E+01  0.10369769604E+02 -0.19232670191E+02  0.22851213214E+02  0.51100000000E-03 0.  1.
        -12    1    3    3    0    0 -0.34686353011E+01  0.24467880580E+01 -0.12538459092E+02  0.13237490663E+02  0.00000000000E+00 0.  1.
</event>
<event>
 7    1  0.8398055E-009  0.4614232E+02  0.7816164E-02  0.1320468E+00
        -11   -1    0    0    0    0  0.00000000000E+00  0.00000000000E+00  0.45593999997E+02  0.45594000000E+02  0.51100000000E-03 0. -1.
         11   -1    0    0    0    0 -0.00000000000E+00 -0.00000000000E+00 -0.45593999997E+02  0.45594000000E+02  0.51100000000E-03 0.  1.
    9900012    2    1    2    0    0  0.26651873260E+02  0.10133687480E+02  0.34872619494E+02  0.46142316959E+02  0.99999926894E+01 0.  0.
        -12    1    1    2    0    0 -0.26651873260E+02 -0.10133687480E+02 -0.34872619494E+02  0.45045683041E+02  0.00000000000E+00 0.  1.
         11    1    3    3    0    0  0.55671911096E+01 -0.46212383298E+00  0.60727681023E+01  0.82514052121E+01  0.51100000000E-03 0. -1.
        -11    1    3    3    0    0  0.50607953105E+01  0.25449270914E-01  0.35920948018E+01  0.62060810634E+01  0.51100000000E-03 0.  1.
         12    1    3    3    0    0  0.16023886840E+02  0.10570362043E+02  0.25207756590E+02  0.31684830684E+02  0.00000000000E+00 0. -1.
</event>
<event>
 7    1  0.8398055E-009  0.4614232E+02  0.7816164E-02  0.1320468E+00
        -11   -1    0    0    0    0  0.00000000000E+00  0.00000000000E+00  0.45593999997E+02  0.45594000000E+02  0.51100000000E-03 0.  1.
         11   -1    0    0    0    0 -0.00000000000E+00 -0.00000000000E+00 -0.45593999997E+02  0.45594000000E+02  0.51100000000E-03 0. -1.
    9900012    2    1    2    0    0 -0.28989531578E+02 -0.30009885696E+02 -0.16974312272E+02  0.46142318101E+02  0.10000003104E+02 0.  0.
         12    1    1    2    0    0  0.28989531578E+02  0.30009885696E+02  0.16974312272E+02  0.45045681899E+02  0.00000000000E+00 0. -1.
         11    1    3    3    0    0 -0.12242823545E+02 -0.10459291788E+02 -0.48169483493E+01  0.16807334849E+02  0.51100000000E-03 0. -1.
        -11    1    3    3    0    0 -0.15072065703E+02 -0.15413923051E+02 -0.73530345654E+01  0.22777693166E+02  0.51100000000E-03 0.  1.
         12    1    3    3    0    0 -0.16746423307E+01 -0.41366708563E+01 -0.48043293574E+01  0.65572900869E+01  0.00000000000E+00 0. -1.
</event>
<event>
 7    1  0.8398055E-009  0.4614232E+02  0.7816164E-02  0.1320468E+00
        -11   -1    0    0    0    0  0.00000000000E+00  0.00000000000E+00  0.45593999997E+02  0.45594000000E+02  0.51100000000E-03 0. -1.
         11   -1    0    0    0    0 -0.00000000000E+00 -0.00000000000E+00 -0.45593999997E+02  0.45594000000E+02  0.51100000000E-03 0.  1.
    9900012    2    1    2    0    0 -0.50228106041E+01  0.13886820140E+02  0.42556327588E+02  0.46142318545E+02  0.10000007146E+02 0.  0.
        -12    1    1    2    0    0  0.50228106041E+01 -0.13886820140E+02 -0.42556327588E+02  0.45045681455E+02  0.00000000000E+00 0.  1.
         11    1    3    3    0    0  0.16937176928E+01  0.14506444981E+01  0.59010543576E+01  0.63083668152E+01  0.51100000000E-03 0. -1.
        -11    1    3    3    0    0 -0.59988782769E+01  0.10813162712E+02  0.23456181563E+02  0.26516098547E+02  0.51100000000E-03 0.  1.
         12    1    3    3    0    0 -0.71765002000E+00  0.16230129301E+01  0.13199091668E+02  0.13317853182E+02  0.00000000000E+00 0. -1.
</event>
<event>
 7    1  0.8398055E-009  0.4614232E+02  0.7816164E-02  0.1320468E+00
        -11   -1    0    0    0    0  0.00000000000E+00  0.00000000000E+00  0.45593999997E+02  0.45594000000E+02  0.51100000000E-03 0. -1.
         11   -1    0    0    0    0 -0.00000000000E+00 -0.00000000000E+00 -0.45593999997E+02  0.45594000000E+02  0.51100000000E-03 0.  1.
    9900012    2    1    2    0    0 -0.26071285562E+02  0.21390288083E+02 -0.29863977898E+02  0.46142317288E+02  0.99999956815E+01 0.  0.
         12    1    1    2    0    0  0.26071285562E+02 -0.21390288083E+02  0.29863977898E+02  0.45045682712E+02  0.00000000000E+00 0. -1.
         11    1    3    3    0    0 -0.58835510298E+00 -0.27823539889E+00  0.23545189970E+00  0.69210875056E+00  0.51100000000E-03 0. -1.
        -11    1    3    3    0    0 -0.19762861163E+02  0.16909136449E+02 -0.26683085802E+02  0.37262268382E+02  0.51100000000E-03 0.  1.
         12    1    3    3    0    0 -0.57200692957E+01  0.47593870332E+01 -0.34163439955E+01  0.81879401545E+01  0.00000000000E+00 0. -1.
</event>
<event>
 7    1  0.8398055E-009  0.4614232E+02  0.7816164E-02  0.1320468E+00
        -11   -1    0    0    0    0  0.00000000000E+00  0.00000000000E+00  0.45593999997E+02  0.45594000000E+02  0.51100000000E-03 0. -1.
         11   -1    0    0    0    0 -0.00000000000E+00 -0.00000000000E+00 -0.45593999997E+02  0.45594000000E+02  0.51100000000E-03 0.  1.
    9900012    2    1    2    0    0  0.19237419606E+01 -0.29323622586E+02 -0.34139976284E+02  0.46142316462E+02  0.99999881514E+01 0.  0.
         12    1    1    2    0    0 -0.19237419606E+01  0.29323622586E+02  0.34139976284E+02  0.45045683538E+02  0.00000000000E+00 0. -1.
         11    1    3    3    0    0 -0.26297519333E+01 -0.15722086123E+02 -0.21443890190E+02  0.26719655949E+02  0.51100000000E-03 0. -1.
        -11    1    3    3    0    0  0.41137882400E+00 -0.70869415228E-01 -0.93035113656E+00  0.10197100123E+01  0.51100000000E-03 0.  1.
         12    1    3    3    0    0  0.41421150699E+01 -0.13530667048E+02 -0.11765734958E+02  0.18402950500E+02  0.00000000000E+00 0. -1.
</event>
<event>
 7    1  0.8398055E-009  0.4614232E+02  0.7816164E-02  0.1320468E+00
        -11   -1    0    0    0    0  0.00000000000E+00  0.00000000000E+00  0.45593999997E+02  0.45594000000E+02  0.51100000000E-03 0. -1.
         11   -1    0    0    0    0 -0.00000000000E+00 -0.00000000000E+00 -0.45593999997E+02  0.45594000000E+02  0.51100000000E-03 0.  1.
    9900012    2    1    2    0    0 -0.70643449948E+01  0.14179056945E+02  0.42168262960E+02  0.46142322880E+02  0.10000046682E+02 0.  0.
        -12    1    1    2    0    0  0.70643449948E+01 -0.14179056945E+02 -0.42168262960E+02  0.45045677120E+02  0.00000000000E+00 0.  1.
         11    1    3    3    0    0 -0.77128407949E+00  0.20937691425E+01  0.58141478668E+01  0.62276049996E+01  0.51100000000E-03 0. -1.
        -11    1    3    3    0    0 -0.16507841562E+01  0.23189657802E+01  0.20664577367E+02  0.20859708738E+02  0.51100000000E-03 0.  1.
        -12    1    3    3    0    0 -0.46422767591E+01  0.97663220224E+01  0.15689537727E+02  0.19055009143E+02  0.00000000000E+00 0.  1.
</event>
<event>
 7    1  0.8398055E-009  0.4614232E+02  0.7816164E-02  0.1320468E+00
        -11   -1    0    0    0    0  0.00000000000E+00  0.00000000000E+00  0.45593999997E+02  0.45594000000E+02  0.51100000000E-03 0. -1.
         11   -1    0    0    0    0 -0.00000000000E+00 -0.00000000000E+00 -0.45593999997E+02  0.45594000000E+02  0.51100000000E-03 0.  1.
    9900012    2    1    2    0    0 -0.36926004630E+02 -0.31247468529E+01  0.25608974813E+02  0.46142318167E+02  0.10000003701E+02 0.  0.
        -12    1    1    2    0    0  0.36926004630E+02  0.31247468529E+01 -0.25608974813E+02  0.45045681833E+02  0.00000000000E+00 0.  1.
         11    1    3    3    0    0 -0.51861364381E+01 -0.18624955485E+00  0.60773309170E+01  0.79915362345E+01  0.51100000000E-03 0.  1.
        -11    1    3    3    0    0 -0.23450884153E+02  0.12083916898E+01  0.14620504678E+02  0.27661585915E+02  0.51100000000E-03 0. -1.
        -12    1    3    3    0    0 -0.82889840390E+01 -0.41468889878E+01  0.49111392176E+01  0.10489196017E+02  0.00000000000E+00 0.  1.
</event>
<event>
 7    1  0.8398055E-009  0.4614232E+02  0.7816164E-02  0.1320468E+00
        -11   -1    0    0    0    0  0.00000000000E+00  0.00000000000E+00  0.45593999997E+02  0.45594000000E+02  0.51100000000E-03 0. -1.
         11   -1    0    0    0    0 -0.00000000000E+00 -0.00000000000E+00 -0.45593999997E+02  0.45594000000E+02  0.51100000000E-03 0.  1.
    9900012    2    1    2    0    0  0.40752427336E+01  0.42833889699E+02  0.13332811452E+02  0.46142316841E+02  0.99999916082E+01 0.  0.
        -12    1    1    2    0    0 -0.40752427336E+01 -0.42833889699E+02 -0.13332811452E+02  0.45045683159E+02  0.00000000000E+00 0.  1.
         11    1    3    3    0    0 -0.50120419756E+00  0.14377102352E+02  0.39330289204E+01  0.14913785382E+02  0.51100000000E-03 0. -1.
        -11    1    3    3    0    0 -0.28616126151E-01  0.41344833728E+01 -0.11925094600E+01  0.43031210436E+01  0.51100000000E-03 0.  1.
        -12    1    3    3    0    0  0.46050630573E+01  0.24322303974E+02  0.10592291992E+02  0.26925410415E+02  0.00000000000E+00 0.  1.
</event>
<event>
 7    1  0.8398055E-009  0.4614232E+02  0.7816164E-02  0.1320468E+00
        -11   -1    0    0    0    0  0.00000000000E+00  0.00000000000E+00  0.45593999997E+02  0.45594000000E+02  0.51100000000E-03 0. -1.
         11   -1    0    0    0    0 -0.00000000000E+00 -0.00000000000E+00 -0.45593999997E+02  0.45594000000E+02  0.51100000000E-03 0.  1.
    9900012    2    1    2    0    0  0.17569133144E+02 -0.22155936398E+02  0.35064992536E+02  0.46142315871E+02  0.99999827622E+01 0.  0.
        -12    1    1    2    0    0 -0.17569133144E+02  0.22155936398E+02 -0.35064992536E+02  0.45045684129E+02  0.00000000000E+00 0.  1.
         11    1    3    3    0    0  0.30696319602E+01 -0.17483413731E+01  0.76152193697E+01  0.83946950057E+01  0.51100000000E-03 0. -1.
        -11    1    3    3    0    0  0.21491570859E+01 -0.16296593584E+01  0.64380484582E+01  0.69801958436E+01  0.51100000000E-03 0.  1.
        -12    1    3    3    0    0  0.12350344098E+02 -0.18777935666E+02  0.21011724708E+02  0.30767425021E+02  0.00000000000E+00 0.  1.
</event>
<event>
 7    1  0.8398055E-009  0.4614232E+02  0.7816164E-02  0.1320468E+00
        -11   -1    0    0    0    0  0.00000000000E+00  0.00000000000E+00  0.45593999997E+02  0.45594000000E+02  0.51100000000E-03 0. -1.
         11   -1    0    0    0    0 -0.00000000000E+00 -0.00000000000E+00 -0.45593999997E+02  0.45594000000E+02  0.51100000000E-03 0.  1.
    9900012    2    1    2    0    0  0.18180647006E+02  0.33345747382E+02 -0.24220623476E+02  0.46142318791E+02  0.10000009392E+02 0.  0.
         12    1    1    2    0    0 -0.18180647006E+02 -0.33345747382E+02  0.24220623476E+02  0.45045681209E+02  0.00000000000E+00 0. -1.
         11    1    3    3    0    0 -0.19661879873E+00  0.31179857188E+01 -0.48169440286E+01  0.57413799674E+01  0.51100000000E-03 0. -1.
        -11    1    3    3    0    0  0.45130683860E+01  0.60128192078E+01 -0.36394177270E+01  0.83526727899E+01  0.51100000000E-03 0.  1.
         12    1    3    3    0    0  0.13864197419E+02  0.24214942456E+02 -0.15764261720E+02  0.32048266034E+02  0.00000000000E+00 0. -1.
</event>
<event>
 7    1  0.8398055E-009  0.4614232E+02  0.7816164E-02  0.1320468E+00
        -11   -1    0    0    0    0  0.00000000000E+00  0.00000000000E+00  0.45593999997E+02  0.45594000000E+02  0.51100000000E-03 0. -1.
         11   -1    0    0    0    0 -0.00000000000E+00 -0.00000000000E+00 -0.45593999997E+02  0.45594000000E+02  0.51100000000E-03 0.  1.
    9900012    2    1    2    0    0 -0.49073392499E+01  0.39679214866E+02  0.20750698597E+02  0.46142316931E+02  0.99999924286E+01 0.  0.
        -12    1    1    2    0    0  0.49073392499E+01 -0.39679214866E+02 -0.20750698597E+02  0.45045683069E+02  0.00000000000E+00 0.  1.
         11    1    3    3    0    0 -0.44718489915E+01  0.21421458267E+02  0.61505227060E+01  0.22731151257E+02  0.51100000000E-03 0. -1.
        -11    1    3    3    0    0 -0.16708437966E-01  0.14000216903E+01  0.15463971026E+01  0.20860690701E+01  0.51100000000E-03 0.  1.
         12    1    3    3    0    0 -0.41878182049E+00  0.16857734909E+02  0.13053778788E+02  0.21325096603E+02  0.00000000000E+00 0. -1.
</event>
<event>
 7    1  0.8398055E-009  0.4614232E+02  0.7816164E-02  0.1320468E+00
        -11   -1    0    0    0    0  0.00000000000E+00  0.00000000000E+00  0.45593999997E+02  0.45594000000E+02  0.51100000000E-03 0. -1.
         11   -1    0    0    0    0 -0.00000000000E+00 -0.00000000000E+00 -0.45593999997E+02  0.45594000000E+02  0.51100000000E-03 0.  1.
    9900012    2    1    2    0    0  0.45154174600E+01 -0.27651035660E+02 -0.35272434635E+02  0.46142318598E+02  0.10000007630E+02 0.  0.
         12    1    1    2    0    0 -0.45154174600E+01  0.27651035660E+02  0.35272434635E+02  0.45045681402E+02  0.00000000000E+00 0. -1.
         11    1    3    3    0    0  0.12916319791E+01 -0.66025969747E+01 -0.61497280977E+01  0.91149194136E+01  0.51100000000E-03 0. -1.
        -11    1    3    3    0    0  0.57096796544E+01 -0.17621152427E+02 -0.25032255295E+02  0.31140315670E+02  0.51100000000E-03 0.  1.
         12    1    3    3    0    0 -0.24858941735E+01 -0.34272862584E+01 -0.40904512422E+01  0.58870835143E+01  0.00000000000E+00 0. -1.
</event>
<event>
 7    1  0.8398055E-009  0.4614232E+02  0.7816164E-02  0.1320468E+00
        -11   -1    0    0    0    0  0.00000000000E+00  0.00000000000E+00  0.45593999997E+02  0.45594000000E+02  0.51100000000E-03 0. -1.
         11   -1    0    0    0    0 -0.00000000000E+00 -0.00000000000E+00 -0.45593999997E+02  0.45594000000E+02  0.51100000000E-03 0.  1.
    9900012    2    1    2    0    0  0.21660030542E+02 -0.38162437347E+02 -0.10177668910E+02  0.46142317723E+02  0.99999996530E+01 0.  0.
         12    1    1    2    0    0 -0.21660030542E+02  0.38162437347E+02  0.10177668910E+02  0.45045682277E+02  0.00000000000E+00 0. -1.
         11    1    3    3    0    0  0.46314709548E+01 -0.49823129559E+01 -0.20350364864E+01  0.71003760012E+01  0.51100000000E-03 0. -1.
        -11    1    3    3    0    0  0.98670220254E+01 -0.10582125819E+02 -0.26713804130E+01  0.14713116056E+02  0.51100000000E-03 0.  1.
         12    1    3    3    0    0  0.71615375613E+01 -0.22597998573E+02 -0.54712520103E+01  0.24328825666E+02  0.00000000000E+00 0. -1.
</event>
<event>
 7    1  0.8398055E-009  0.4614232E+02  0.7816164E-02  0.1320468E+00
        -11   -1    0    0    0    0  0.00000000000E+00  0.00000000000E+00  0.45593999997E+02  0.45594000000E+02  0.51100000000E-03 0. -1.
         11   -1    0    0    0    0 -0.00000000000E+00 -0.00000000000E+00 -0.45593999997E+02  0.45594000000E+02  0.51100000000E-03 0.  1.
    9900012    2    1    2    0    0  0.18878482922E+02  0.12687952461E+02 -0.38881002853E+02  0.46142316100E+02  0.99999848566E+01 0.  0.
         12    1    1    2    0    0 -0.18878482922E+02 -0.12687952461E+02  0.38881002853E+02  0.45045683900E+02  0.00000000000E+00 0. -1.
         11    1    3    3    0    0  0.40164199785E+01  0.42603736356E+00 -0.41295986101E+01  0.57763935306E+01  0.51100000000E-03 0. -1.
        -11    1    3    3    0    0  0.10756262128E+02  0.49914841885E+01 -0.16752058786E+02  0.20524218943E+02  0.51100000000E-03 0.  1.
         12    1    3    3    0    0  0.41058008156E+01  0.72704309092E+01 -0.17999345457E+02  0.19841703627E+02  0.00000000000E+00 0. -1.
</event>
<event>
 7    1  0.8398055E-009  0.4614232E+02  0.7816164E-02  0.1320468E+00
        -11   -1    0    0    0    0  0.00000000000E+00  0.00000000000E+00  0.45593999997E+02  0.45594000000E+02  0.51100000000E-03 0. -1.
         11   -1    0    0    0    0 -0.00000000000E+00 -0.00000000000E+00 -0.45593999997E+02  0.45594000000E+02  0.51100000000E-03 0.  1.
    9900012    2    1    2    0    0 -0.64715643830E+01 -0.34194208762E+02  0.28600496946E+02  0.46142317809E+02  0.10000000439E+02 0.  0.
        -12    1    1    2    0    0  0.64715643830E+01  0.34194208762E+02 -0.28600496946E+02  0.45045682191E+02  0.00000000000E+00 0.  1.
         11    1    3    3    0    0 -0.41597394987E+00 -0.13220852668E+02  0.10348833333E+02  0.16794711406E+02  0.51100000000E-03 0. -1.
        -11    1    3    3    0    0 -0.38269997973E+01 -0.18585884783E+02  0.12467433745E+02  0.22705020262E+02  0.51100000000E-03 0.  1.
         12    1    3    3    0    0 -0.22285906358E+01 -0.23874713113E+01  0.57842298678E+01  0.66425861416E+01  0.00000000000E+00 0. -1.
</event>
<event>
 7    1  0.8398055E-009  0.4614232E+02  0.7816164E-02  0.1320468E+00
        -11   -1    0    0    0    0  0.00000000000E+00  0.00000000000E+00  0.45593999997E+02  0.45594000000E+02  0.51100000000E-03 0. -1.
         11   -1    0    0    0    0 -0.00000000000E+00 -0.00000000000E+00 -0.45593999997E+02  0.45594000000E+02  0.51100000000E-03 0.  1.
    9900012    2    1    2    0    0 -0.74702871364E+01  0.11199240498E+02  0.42987036535E+02  0.46142317769E+02  0.10000000069E+02 0.  0.
        -12    1    1    2    0    0  0.74702871364E+01 -0.11199240498E+02 -0.42987036535E+02  0.45045682231E+02  0.00000000000E+00 0.  1.
         11    1    3    3    0    0 -0.43823165331E+01  0.43628840953E+01  0.17595064083E+02  0.18650086760E+02  0.51100000000E-03 0. -1.
        -11    1    3    3    0    0  0.10787436144E+01  0.32060495049E+01  0.33228828648E+01  0.47417287995E+01  0.51100000000E-03 0.  1.
        -12    1    3    3    0    0 -0.41667142177E+01  0.36303068976E+01  0.22069089587E+02  0.22750502209E+02  0.00000000000E+00 0.  1.
</event>
<event>
 7    1  0.8398055E-009  0.4614232E+02  0.7816164E-02  0.1320468E+00
        -11   -1    0    0    0    0  0.00000000000E+00  0.00000000000E+00  0.45593999997E+02  0.45594000000E+02  0.51100000000E-03 0. -1.
         11   -1    0    0    0    0 -0.00000000000E+00 -0.00000000000E+00 -0.45593999997E+02  0.45594000000E+02  0.51100000000E-03 0.  1.
    9900012    2    1    2    0    0  0.14772679049E+02 -0.50313202692E+01 -0.42255972261E+02  0.46142318502E+02  0.10000006755E+02 0.  0.
         12    1    1    2    0    0 -0.14772679049E+02  0.50313202692E+01  0.42255972261E+02  0.45045681498E+02  0.00000000000E+00 0. -1.
         11    1    3    3    0    0  0.86147028520E+01 -0.40100432381E+01 -0.13616303746E+02  0.16604134424E+02  0.51100000000E-03 0. -1.
        -11    1    3    3    0    0  0.61786720500E+01 -0.17981205894E+01 -0.26145309632E+02  0.26925572268E+02  0.51100000000E-03 0.  1.
        -12    1    3    3    0    0 -0.20695853541E-01  0.77684355834E+00 -0.24943588825E+01  0.26126118095E+01  0.00000000000E+00 0.  1.
</event>
<event>
 7    1  0.8398055E-009  0.4614232E+02  0.7816164E-02  0.1320468E+00
        -11   -1    0    0    0    0  0.00000000000E+00  0.00000000000E+00  0.45593999997E+02  0.45594000000E+02  0.51100000000E-03 0. -1.
         11   -1    0    0    0    0 -0.00000000000E+00 -0.00000000000E+00 -0.45593999997E+02  0.45594000000E+02  0.51100000000E-03 0.  1.
    9900012    2    1    2    0    0 -0.15687878683E+02 -0.74819619728E+01  0.41557481359E+02  0.46142317083E+02  0.99999938204E+01 0.  0.
        -12    1    1    2    0    0  0.15687878683E+02  0.74819619728E+01 -0.41557481359E+02  0.45045682917E+02  0.00000000000E+00 0.  1.
         11    1    3    3    0    0 -0.11460717496E+02 -0.42482036877E+01  0.24367517662E+02  0.27261166471E+02  0.51100000000E-03 0. -1.
        -11    1    3    3    0    0 -0.29708853529E+01 -0.27470286813E+00  0.26514435844E+01  0.39914627379E+01  0.51100000000E-03 0.  1.
        -12    1    3    3    0    0 -0.12562758334E+01 -0.29590554170E+01  0.14538520113E+02  0.14889687875E+02  0.00000000000E+00 0.  1.
</event>
<event>
 7    1  0.8398055E-009  0.4614232E+02  0.7816164E-02  0.1320468E+00
        -11   -1    0    0    0    0  0.00000000000E+00  0.00000000000E+00  0.45593999997E+02  0.45594000000E+02  0.51100000000E-03 0. -1.
         11   -1    0    0    0    0 -0.00000000000E+00 -0.00000000000E+00 -0.45593999997E+02  0.45594000000E+02  0.51100000000E-03 0.  1.
    9900012    2    1    2    0    0  0.14401874102E+02 -0.41267874603E+02  0.10893216460E+02  0.46142316337E+02  0.99999870106E+01 0.  0.
        -12    1    1    2    0    0 -0.14401874102E+02  0.41267874603E+02 -0.10893216460E+02  0.45045683663E+02  0.00000000000E+00 0.  1.
         11    1    3    3    0    0  0.35800960445E+01 -0.67026142537E+01  0.29877423311E+01  0.81650921624E+01  0.51100000000E-03 0. -1.
        -11    1    3    3    0    0  0.92886481784E+01 -0.24647086435E+02  0.21955603131E+01  0.26430632608E+02  0.51100000000E-03 0.  1.
        -12    1    3    3    0    0  0.15331298788E+01 -0.99181739137E+01  0.57099138159E+01  0.11546591566E+02  0.00000000000E+00 0.  1.
</event>
<event>
 7    1  0.8398055E-009  0.4614231E+02  0.7816164E-02  0.1320468E+00
        -11   -1    0    0    0    0  0.00000000000E+00  0.00000000000E+00  0.45593999997E+02  0.45594000000E+02  0.51100000000E-03 0. -1.
         11   -1    0    0    0    0 -0.00000000000E+00 -0.00000000000E+00 -0.45593999997E+02  0.45594000000E+02  0.51100000000E-03 0.  1.
    9900012    2    1    2    0    0 -0.15953474847E+02  0.12604643235E+02 -0.40196061455E+02  0.46142314888E+02  0.99999737973E+01 0.  0.
         12    1    1    2    0    0  0.15953474847E+02 -0.12604643235E+02  0.40196061455E+02  0.45045685112E+02  0.00000000000E+00 0. -1.
         11    1    3    3    0    0 -0.15421942436E+01  0.22690068768E+01 -0.13369183364E+01  0.30519020612E+01  0.51100000000E-03 0. -1.
        -11    1    3    3    0    0 -0.98039395179E+00  0.10672376361E+01 -0.85078573573E+01  0.86304000803E+01  0.51100000000E-03 0.  1.
        -12    1    3    3    0    0 -0.13430886652E+02  0.92683987218E+01 -0.30351285761E+02  0.34460012746E+02  0.00000000000E+00 0.  1.
</event>
<event>
 7    1  0.8398055E-009  0.4614232E+02  0.7816164E-02  0.1320468E+00
        -11   -1    0    0    0    0  0.00000000000E+00  0.00000000000E+00  0.45593999997E+02  0.45594000000E+02  0.51100000000E-03 0. -1.
         11   -1    0    0    0    0 -0.00000000000E+00 -0.00000000000E+00 -0.45593999997E+02  0.45594000000E+02  0.51100000000E-03 0.  1.
    9900012    2    1    2    0    0  0.14853266783E+02 -0.13781245291E+02 -0.40231471157E+02  0.46142317328E+02  0.99999960530E+01 0.  0.
         12    1    1    2    0    0 -0.14853266783E+02  0.13781245291E+02  0.40231471157E+02  0.45045682672E+02  0.00000000000E+00 0. -1.
         11    1    3    3    0    0  0.70307317661E+01 -0.66171396513E+01 -0.10600175607E+02  0.14338111783E+02  0.51100000000E-03 0. -1.
        -11    1    3    3    0    0  0.67095450806E+01 -0.31957839615E+01 -0.18886910067E+02  0.20296462806E+02  0.51100000000E-03 0.  1.
         12    1    3    3    0    0  0.11129899367E+01 -0.39683216787E+01 -0.10744385483E+02  0.11507742739E+02  0.00000000000E+00 0. -1.
</event>
<event>
 7    1  0.8398055E-009  0.4614232E+02  0.7816164E-02  0.1320468E+00
        -11   -1    0    0    0    0  0.00000000000E+00  0.00000000000E+00  0.45593999997E+02  0.45594000000E+02  0.51100000000E-03 0. -1.
         11   -1    0    0    0    0 -0.00000000000E+00 -0.00000000000E+00 -0.45593999997E+02  0.45594000000E+02  0.51100000000E-03 0.  1.
    9900012    2    1    2    0    0 -0.22841944443E+01 -0.34643638406E+02 -0.28700423886E+02  0.46142316994E+02  0.99999930019E+01 0.  0.
         12    1    1    2    0    0  0.22841944443E+01  0.34643638406E+02  0.28700423886E+02  0.45045683006E+02  0.00000000000E+00 0. -1.
         11    1    3    3    0    0 -0.76902564676E+00 -0.76664894983E+01 -0.20310757308E+01  0.79681698375E+01  0.51100000000E-03 0. -1.
        -11    1    3    3    0    0 -0.24228848142E+00 -0.20359553500E+02 -0.17869639879E+02  0.27090480839E+02  0.51100000000E-03 0.  1.
         12    1    3    3    0    0 -0.12728803161E+01 -0.66175954075E+01 -0.87997082766E+01  0.11083666317E+02  0.00000000000E+00 0. -1.
</event>
<event>
 7    1  0.8398055E-009  0.4614232E+02  0.7816164E-02  0.1320468E+00
        -11   -1    0    0    0    0  0.00000000000E+00  0.00000000000E+00  0.45593999997E+02  0.45594000000E+02  0.51100000000E-03 0. -1.
         11   -1    0    0    0    0 -0.00000000000E+00 -0.00000000000E+00 -0.45593999997E+02  0.45594000000E+02  0.51100000000E-03 0.  1.
    9900012    2    1    2    0    0  0.32186274165E+02  0.64576302493E+00  0.31507780587E+02  0.46142317721E+02  0.99999996340E+01 0.  0.
        -12    1    1    2    0    0 -0.32186274165E+02 -0.64576302493E+00 -0.31507780587E+02  0.45045682279E+02  0.00000000000E+00 0.  1.
         11    1    3    3    0    0  0.21312905616E+02 -0.50750635051E+00  0.21731841470E+02  0.30442904632E+02  0.51100000000E-03 0. -1.
        -11    1    3    3    0    0  0.10924368754E+02 -0.78769978355E-01  0.80141758319E+01  0.13548987117E+02  0.51100000000E-03 0.  1.
        -12    1    3    3    0    0 -0.51000204617E-01  0.12320393538E+01  0.17617632846E+01  0.21504259720E+01  0.00000000000E+00 0.  1.
</event>
<event>
 7    1  0.8398055E-009  0.4614232E+02  0.7816164E-02  0.1320468E+00
        -11   -1    0    0    0    0  0.00000000000E+00  0.00000000000E+00  0.45593999997E+02  0.45594000000E+02  0.51100000000E-03 0. -1.
         11   -1    0    0    0    0 -0.00000000000E+00 -0.00000000000E+00 -0.45593999997E+02  0.45594000000E+02  0.51100000000E-03 0.  1.
    9900012    2    1    2    0    0  0.10450831249E+02 -0.40204017780E+02  0.17422126048E+02  0.46142318792E+02  0.10000009402E+02 0.  0.
        -12    1    1    2    0    0 -0.10450831249E+02  0.40204017780E+02 -0.17422126048E+02  0.45045681208E+02  0.00000000000E+00 0.  1.
         11    1    3    3    0    0  0.46604830479E+01 -0.67038207109E+01  0.17510646517E+01  0.83503019131E+01  0.51100000000E-03 0. -1.
        -11    1    3    3    0    0  0.51408671620E+01 -0.14768384452E+02  0.75610497554E+01  0.17369604721E+02  0.51100000000E-03 0.  1.
        -12    1    3    3    0    0  0.64948103880E+00 -0.18731812617E+02  0.81100116412E+01  0.20422412158E+02  0.00000000000E+00 0.  1.
</event>
<event>
 7    1  0.8398055E-009  0.4614232E+02  0.7816164E-02  0.1320468E+00
        -11   -1    0    0    0    0  0.00000000000E+00  0.00000000000E+00  0.45593999997E+02  0.45594000000E+02  0.51100000000E-03 0. -1.
         11   -1    0    0    0    0 -0.00000000000E+00 -0.00000000000E+00 -0.45593999997E+02  0.45594000000E+02  0.51100000000E-03 0.  1.
    9900012    2    1    2    0    0 -0.17763128564E+02 -0.35656875535E+02 -0.21027886201E+02  0.46142317550E+02  0.99999980732E+01 0.  0.
         12    1    1    2    0    0  0.17763128564E+02  0.35656875535E+02  0.21027886201E+02  0.45045682450E+02  0.00000000000E+00 0. -1.
         11    1    3    3    0    0 -0.88877357297E+01 -0.14315960956E+02 -0.84332376121E+01  0.18842984938E+02  0.51100000000E-03 0. -1.
        -11    1    3    3    0    0 -0.78557545319E+01 -0.11882975473E+02 -0.10108420433E+02  0.17467058976E+02  0.51100000000E-03 0.  1.
         12    1    3    3    0    0 -0.10196383028E+01 -0.94579391057E+01 -0.24862281552E+01  0.98322736351E+01  0.00000000000E+00 0. -1.
</event>
<event>
 7    1  0.8398055E-009  0.4614232E+02  0.7816164E-02  0.1320468E+00
        -11   -1    0    0    0    0  0.00000000000E+00  0.00000000000E+00  0.45593999997E+02  0.45594000000E+02  0.51100000000E-03 0. -1.
         11   -1    0    0    0    0 -0.00000000000E+00 -0.00000000000E+00 -0.45593999997E+02  0.45594000000E+02  0.51100000000E-03 0.  1.
    9900012    2    1    2    0    0 -0.33504485742E+02 -0.20017918039E+02 -0.22491018061E+02  0.46142317622E+02  0.99999987340E+01 0.  0.
         12    1    1    2    0    0  0.33504485742E+02  0.20017918039E+02  0.22491018061E+02  0.45045682378E+02  0.00000000000E+00 0. -1.
         11    1    3    3    0    0 -0.80422801903E+01 -0.52955867957E+01 -0.43877438670E+01  0.10581767654E+02  0.51100000000E-03 0. -1.
        -11    1    3    3    0    0 -0.23844007472E+02 -0.12633646835E+02 -0.13312193361E+02  0.30089204327E+02  0.51100000000E-03 0.  1.
         12    1    3    3    0    0 -0.16181980795E+01 -0.20886844087E+01 -0.47910808333E+01  0.54713456420E+01  0.00000000000E+00 0. -1.
</event>
<event>
 7    1  0.8398055E-009  0.4614232E+02  0.7816164E-02  0.1320468E+00
        -11   -1    0    0    0    0  0.00000000000E+00  0.00000000000E+00  0.45593999997E+02  0.45594000000E+02  0.51100000000E-03 0. -1.
         11   -1    0    0    0    0 -0.00000000000E+00 -0.00000000000E+00 -0.45593999997E+02  0.45594000000E+02  0.51100000000E-03 0.  1.
    9900012    2    1    2    0    0  0.44848840741E+02  0.35585596446E+01 -0.22431480066E+01  0.46142316794E+02  0.99999911803E+01 0.  0.
         12    1    1    2    0    0 -0.44848840741E+02 -0.35585596446E+01  0.22431480066E+01  0.45045683206E+02  0.00000000000E+00 0. -1.
         11    1    3    3    0    0  0.11035106018E+01 -0.60006992791E+00 -0.14353536108E+01  0.19073698686E+01  0.51100000000E-03 0. -1.
        -11    1    3    3    0    0  0.39764001330E+01  0.18395064216E+01  0.19822528693E+00  0.43857536888E+01  0.51100000000E-03 0.  1.
         12    1    3    3    0    0  0.39768930006E+02  0.23191231509E+01 -0.10060196827E+01  0.39849193237E+02  0.00000000000E+00 0. -1.
</event>
<event>
 7    1  0.8398055E-009  0.4614232E+02  0.7816164E-02  0.1320468E+00
        -11   -1    0    0    0    0  0.00000000000E+00  0.00000000000E+00  0.45593999997E+02  0.45594000000E+02  0.51100000000E-03 0. -1.
         11   -1    0    0    0    0 -0.00000000000E+00 -0.00000000000E+00 -0.45593999997E+02  0.45594000000E+02  0.51100000000E-03 0.  1.
    9900012    2    1    2    0    0  0.15667697038E+02  0.42040362190E+02 -0.40304670352E+01  0.46142318208E+02  0.10000004078E+02 0.  0.
        -12    1    1    2    0    0 -0.15667697038E+02 -0.42040362190E+02  0.40304670352E+01  0.45045681792E+02  0.00000000000E+00 0.  1.
         11    1    3    3    0    0  0.26706538971E+01  0.92246334711E+01  0.21873674195E+01  0.98494076677E+01  0.51100000000E-03 0. -1.
        -11    1    3    3    0    0  0.10534702552E+02  0.19987944414E+02 -0.52434279090E+01  0.23194641973E+02  0.51100000000E-03 0.  1.
        -12    1    3    3    0    0  0.24623405887E+01  0.12827784305E+02 -0.97440654565E+00  0.13098268568E+02  0.00000000000E+00 0.  1.
</event>
<event>
 7    1  0.8398055E-009  0.4614232E+02  0.7816164E-02  0.1320468E+00
        -11   -1    0    0    0    0  0.00000000000E+00  0.00000000000E+00  0.45593999997E+02  0.45594000000E+02  0.51100000000E-03 0. -1.
         11   -1    0    0    0    0 -0.00000000000E+00 -0.00000000000E+00 -0.45593999997E+02  0.45594000000E+02  0.51100000000E-03 0.  1.
    9900012    2    1    2    0    0 -0.30383941967E+02 -0.26126644676E+02 -0.20574936080E+02  0.46142317785E+02  0.10000000222E+02 0.  0.
         12    1    1    2    0    0  0.30383941967E+02  0.26126644676E+02  0.20574936080E+02  0.45045682215E+02  0.00000000000E+00 0. -1.
         11    1    3    3    0    0 -0.12468258554E+02 -0.10707149436E+02 -0.38923826407E+01  0.16889380193E+02  0.51100000000E-03 0. -1.
        -11    1    3    3    0    0 -0.57590360197E+01 -0.70286197726E+01 -0.80780901974E+01  0.12158270160E+02  0.51100000000E-03 0.  1.
        -12    1    3    3    0    0 -0.12156647393E+02 -0.83908754676E+01 -0.86044632420E+01  0.17094667433E+02  0.00000000000E+00 0.  1.
</event>
<event>
 7    1  0.8398055E-009  0.4614232E+02  0.7816164E-02  0.1320468E+00
        -11   -1    0    0    0    0  0.00000000000E+00  0.00000000000E+00  0.45593999997E+02  0.45594000000E+02  0.51100000000E-03 0. -1.
         11   -1    0    0    0    0 -0.00000000000E+00 -0.00000000000E+00 -0.45593999997E+02  0.45594000000E+02  0.51100000000E-03 0.  1.
    9900012    2    1    2    0    0  0.38457084500E+02 -0.31660678620E-01 -0.23455593645E+02  0.46142320696E+02  0.10000026767E+02 0.  0.
         12    1    1    2    0    0 -0.38457084500E+02  0.31660678620E-01  0.23455593645E+02  0.45045679304E+02  0.00000000000E+00 0. -1.
         11    1    3    3    0    0  0.51969686296E+01 -0.62452343448E+00 -0.26169207576E+01  0.58520754413E+01  0.51100000000E-03 0. -1.
        -11    1    3    3    0    0  0.24551830226E+02  0.44020489337E+01 -0.14275645572E+02  0.28739597405E+02  0.51100000000E-03 0.  1.
         12    1    3    3    0    0  0.87082856451E+01 -0.38091861779E+01 -0.65630273160E+01  0.11550647850E+02  0.00000000000E+00 0. -1.
</event>
<event>
 7    1  0.8398055E-009  0.4614232E+02  0.7816164E-02  0.1320468E+00
        -11   -1    0    0    0    0  0.00000000000E+00  0.00000000000E+00  0.45593999997E+02  0.45594000000E+02  0.51100000000E-03 0. -1.
         11   -1    0    0    0    0 -0.00000000000E+00 -0.00000000000E+00 -0.45593999997E+02  0.45594000000E+02  0.51100000000E-03 0.  1.
    9900012    2    1    2    0    0  0.29608617406E+01  0.36675494916E+02  0.25985668597E+02  0.46142316500E+02  0.99999885022E+01 0.  0.
        -12    1    1    2    0    0 -0.29608617406E+01 -0.36675494916E+02 -0.25985668597E+02  0.45045683500E+02  0.00000000000E+00 0.  1.
         11    1    3    3    0    0 -0.15529864121E+01  0.25453981531E+02  0.15551654797E+02  0.29869230151E+02  0.51100000000E-03 0. -1.
        -11    1    3    3    0    0  0.63982814945E-01  0.39430164583E+01  0.36511231589E+01  0.53742137261E+01  0.51100000000E-03 0.  1.
        -12    1    3    3    0    0  0.44498653378E+01  0.72784969261E+01  0.67828906401E+01  0.10898872624E+02  0.00000000000E+00 0.  1.
</event>
<event>
 7    1  0.8398055E-009  0.4614232E+02  0.7816164E-02  0.1320468E+00
        -11   -1    0    0    0    0  0.00000000000E+00  0.00000000000E+00  0.45593999997E+02  0.45594000000E+02  0.51100000000E-03 0. -1.
         11   -1    0    0    0    0 -0.00000000000E+00 -0.00000000000E+00 -0.45593999997E+02  0.45594000000E+02  0.51100000000E-03 0.  1.
    9900012    2    1    2    0    0 -0.64386712370E+01  0.99864833721E+01  0.43450283355E+02  0.46142318064E+02  0.10000002761E+02 0.  0.
        -12    1    1    2    0    0  0.64386712370E+01 -0.99864833721E+01 -0.43450283355E+02  0.45045681936E+02  0.00000000000E+00 0.  1.
         11    1    3    3    0    0  0.99813177781E+00 -0.56975312195E+00  0.65952490041E+01  0.66946392997E+01  0.51100000000E-03 0. -1.
        -11    1    3    3    0    0 -0.44581722677E+01  0.31994627667E+01  0.21159887252E+02  0.21859841965E+02  0.51100000000E-03 0.  1.
         12    1    3    3    0    0 -0.29786307471E+01  0.73567737273E+01  0.15695147099E+02  0.17587836799E+02  0.00000000000E+00 0. -1.
</event>
<event>
 7    1  0.8398055E-009  0.4614232E+02  0.7816164E-02  0.1320468E+00
        -11   -1    0    0    0    0  0.00000000000E+00  0.00000000000E+00  0.45593999997E+02  0.45594000000E+02  0.51100000000E-03 0. -1.
         11   -1    0    0    0    0 -0.00000000000E+00 -0.00000000000E+00 -0.45593999997E+02  0.45594000000E+02  0.51100000000E-03 0.  1.
    9900012    2    1    2    0    0  0.16451118318E+02 -0.39094456829E+02  0.15168968367E+02  0.46142318188E+02  0.10000003889E+02 0.  0.
        -12    1    1    2    0    0 -0.16451118318E+02  0.39094456829E+02 -0.15168968367E+02  0.45045681812E+02  0.00000000000E+00 0.  1.
         11    1    3    3    0    0  0.11353640957E+02 -0.31739328384E+02  0.87383256488E+01  0.34823102456E+02  0.51100000000E-03 0. -1.
        -11    1    3    3    0    0  0.17833851850E+00 -0.86533206946E+00  0.16621498313E+01  0.18823778953E+01  0.51100000000E-03 0.  1.
         12    1    3    3    0    0  0.49191388416E+01 -0.64897963754E+01  0.47684928874E+01  0.94368378366E+01  0.00000000000E+00 0. -1.
</event>
<event>
 7    1  0.8398055E-009  0.4614232E+02  0.7816164E-02  0.1320468E+00
        -11   -1    0    0    0    0  0.00000000000E+00  0.00000000000E+00  0.45593999997E+02  0.45594000000E+02  0.51100000000E-03 0. -1.
         11   -1    0    0    0    0 -0.00000000000E+00 -0.00000000000E+00 -0.45593999997E+02  0.45594000000E+02  0.51100000000E-03 0.  1.
    9900012    2    1    2    0    0  0.31452741902E+02 -0.18708537734E+02  0.26264600822E+02  0.46142316370E+02  0.99999873176E+01 0.  0.
        -12    1    1    2    0    0 -0.31452741902E+02  0.18708537734E+02 -0.26264600822E+02  0.45045683630E+02  0.00000000000E+00 0.  1.
         11    1    3    3    0    0  0.86874972848E+01 -0.46827097837E+01  0.31396761555E+01  0.10356541248E+02  0.51100000000E-03 0. -1.
        -11    1    3    3    0    0  0.78002257645E+01 -0.18809997681E+01  0.73168670950E+01  0.10859015906E+02  0.51100000000E-03 0.  1.
         12    1    3    3    0    0  0.14965018853E+02 -0.12144828182E+02  0.15808057572E+02  0.24926759216E+02  0.00000000000E+00 0. -1.
</event>
<event>
 7    1  0.8398055E-009  0.4614232E+02  0.7816164E-02  0.1320468E+00
        -11   -1    0    0    0    0  0.00000000000E+00  0.00000000000E+00  0.45593999997E+02  0.45594000000E+02  0.51100000000E-03 0. -1.
         11   -1    0    0    0    0 -0.00000000000E+00 -0.00000000000E+00 -0.45593999997E+02  0.45594000000E+02  0.51100000000E-03 0.  1.
    9900012    2    1    2    0    0 -0.19868874583E+02 -0.22141572186E+02  0.33824433566E+02  0.46142315388E+02  0.99999783635E+01 0.  0.
        -12    1    1    2    0    0  0.19868874583E+02  0.22141572186E+02 -0.33824433566E+02  0.45045684612E+02  0.00000000000E+00 0.  1.
         11    1    3    3    0    0 -0.10184402902E+01 -0.11737190283E+01  0.29774810830E+01  0.33586054908E+01  0.51100000000E-03 0. -1.
        -11    1    3    3    0    0 -0.89344062458E+01 -0.51742104034E+01  0.15542440143E+02  0.18659140230E+02  0.51100000000E-03 0.  1.
         12    1    3    3    0    0 -0.99160280467E+01 -0.15793642754E+02  0.15304512340E+02  0.24124569668E+02  0.00000000000E+00 0. -1.
</event>
<event>
 7    1  0.8398055E-009  0.4614233E+02  0.7816164E-02  0.1320468E+00
        -11   -1    0    0    0    0  0.00000000000E+00  0.00000000000E+00  0.45593999997E+02  0.45594000000E+02  0.51100000000E-03 0. -1.
         11   -1    0    0    0    0 -0.00000000000E+00 -0.00000000000E+00 -0.45593999997E+02  0.45594000000E+02  0.51100000000E-03 0.  1.
    9900012    2    1    2    0    0  0.36417041644E+02  0.20202836189E+02  0.17168487256E+02  0.46142329100E+02  0.10000103392E+02 0.  0.
         12    1    1    2    0    0 -0.36417041644E+02 -0.20202836189E+02 -0.17168487256E+02  0.45045670900E+02  0.00000000000E+00 0. -1.
         11    1    3    3    0    0  0.51131657729E+00 -0.49084858490E+00  0.58230293442E+00  0.91730798758E+00  0.51100000000E-03 0. -1.
        -11    1    3    3    0    0  0.31068576762E+02  0.16301880180E+02  0.16295039904E+02  0.38685088666E+02  0.51100000000E-03 0.  1.
         12    1    3    3    0    0  0.48371483054E+01  0.43918045939E+01  0.29114441795E+00  0.65399324455E+01  0.00000000000E+00 0. -1.
</event>
<event>
 7    1  0.8398055E-009  0.4614232E+02  0.7816164E-02  0.1320468E+00
        -11   -1    0    0    0    0  0.00000000000E+00  0.00000000000E+00  0.45593999997E+02  0.45594000000E+02  0.51100000000E-03 0.  1.
         11   -1    0    0    0    0 -0.00000000000E+00 -0.00000000000E+00 -0.45593999997E+02  0.45594000000E+02  0.51100000000E-03 0. -1.
    9900012    2    1    2    0    0  0.35204597215E+02 -0.14423828524E+02  0.24118519345E+02  0.46142317967E+02  0.10000001881E+02 0.  0.
        -12    1    1    2    0    0 -0.35204597215E+02  0.14423828524E+02 -0.24118519345E+02  0.45045682033E+02  0.00000000000E+00 0.  1.
         11    1    3    3    0    0  0.10506027713E+02 -0.14716485622E+01  0.44091583350E+01  0.11488387410E+02  0.51100000000E-03 0. -1.
        -11    1    3    3    0    0  0.43231357681E+01 -0.42799999187E+00  0.47837374488E+01  0.64619525766E+01  0.51100000000E-03 0.  1.
        -12    1    3    3    0    0  0.20375433735E+02 -0.12524179970E+02  0.14925623561E+02  0.28191977981E+02  0.00000000000E+00 0.  1.
</event>
<event>
 7    1  0.8398055E-009  0.4614232E+02  0.7816164E-02  0.1320468E+00
        -11   -1    0    0    0    0  0.00000000000E+00  0.00000000000E+00  0.45593999997E+02  0.45594000000E+02  0.51100000000E-03 0. -1.
         11   -1    0    0    0    0 -0.00000000000E+00 -0.00000000000E+00 -0.45593999997E+02  0.45594000000E+02  0.51100000000E-03 0.  1.
    9900012    2    1    2    0    0  0.69560248593E+01  0.41773046738E+02  0.15353820858E+02  0.46142317293E+02  0.99999957307E+01 0.  0.
        -12    1    1    2    0    0 -0.69560248593E+01 -0.41773046738E+02 -0.15353820858E+02  0.45045682707E+02  0.00000000000E+00 0.  1.
         11    1    3    3    0    0  0.55564993583E+01  0.15989774245E+02  0.85730869720E+01  0.18974861950E+02  0.51100000000E-03 0.  1.
        -11    1    3    3    0    0 -0.91363166860E+00  0.12643960652E+02  0.53141580267E+01  0.13745717137E+02  0.51100000000E-03 0. -1.
        -12    1    3    3    0    0  0.23131571695E+01  0.13139311841E+02  0.14665758595E+01  0.13421738207E+02  0.00000000000E+00 0.  1.
</event>
<event>
 7    1  0.8398055E-009  0.4614232E+02  0.7816164E-02  0.1320468E+00
        -11   -1    0    0    0    0  0.00000000000E+00  0.00000000000E+00  0.45593999997E+02  0.45594000000E+02  0.51100000000E-03 0. -1.
         11   -1    0    0    0    0 -0.00000000000E+00 -0.00000000000E+00 -0.45593999997E+02  0.45594000000E+02  0.51100000000E-03 0.  1.
    9900012    2    1    2    0    0 -0.49935557472E+00  0.39897650113E+02 -0.20905541164E+02  0.46142317722E+02  0.99999996426E+01 0.  0.
         12    1    1    2    0    0  0.49935557472E+00 -0.39897650113E+02  0.20905541164E+02  0.45045682278E+02  0.00000000000E+00 0. -1.
         11    1    3    3    0    0 -0.97881760626E+00  0.21261856358E+01 -0.28239065525E+01  0.36678601040E+01  0.51100000000E-03 0. -1.
        -11    1    3    3    0    0 -0.15131104615E+01  0.30290801748E+02 -0.11946357900E+02  0.32596589410E+02  0.51100000000E-03 0.  1.
        -12    1    3    3    0    0  0.19925724930E+01  0.74806627290E+01 -0.61352767121E+01  0.98778682082E+01  0.00000000000E+00 0.  1.
</event>
<event>
 7    1  0.8398055E-009  0.4614231E+02  0.7816164E-02  0.1320468E+00
        -11   -1    0    0    0    0  0.00000000000E+00  0.00000000000E+00  0.45593999997E+02  0.45594000000E+02  0.51100000000E-03 0.  1.
         11   -1    0    0    0    0 -0.00000000000E+00 -0.00000000000E+00 -0.45593999997E+02  0.45594000000E+02  0.51100000000E-03 0. -1.
    9900012    2    1    2    0    0 -0.36442519414E+02 -0.92864372323E-01  0.26477325959E+02  0.46142305034E+02  0.99998839430E+01 0.  0.
        -12    1    1    2    0    0  0.36442519414E+02  0.92864372323E-01 -0.26477325959E+02  0.45045694966E+02  0.00000000000E+00 0.  1.
         11    1    3    3    0    0 -0.44351852899E+01 -0.10380262708E+01  0.60346742396E+01  0.75607976123E+01  0.51100000000E-03 0. -1.
        -11    1    3    3    0    0 -0.58823853109E+01  0.24387363146E+01  0.24403271262E+01  0.68194639454E+01  0.51100000000E-03 0.  1.
         12    1    3    3    0    0 -0.26124948813E+02 -0.14935744162E+01  0.18002324593E+02  0.31762043476E+02  0.00000000000E+00 0. -1.
</event>
<event>
 7    1  0.8398055E-009  0.4614232E+02  0.7816164E-02  0.1320468E+00
        -11   -1    0    0    0    0  0.00000000000E+00  0.00000000000E+00  0.45593999997E+02  0.45594000000E+02  0.51100000000E-03 0.  1.
         11   -1    0    0    0    0 -0.00000000000E+00 -0.00000000000E+00 -0.45593999997E+02  0.45594000000E+02  0.51100000000E-03 0. -1.
    9900012    2    1    2    0    0 -0.38948565549E+02 -0.90200151801E+01 -0.20754801865E+02  0.46142320600E+02  0.10000025889E+02 0.  0.
         12    1    1    2    0    0  0.38948565549E+02  0.90200151801E+01  0.20754801865E+02  0.45045679400E+02  0.00000000000E+00 0. -1.
         11    1    3    3    0    0 -0.59884701500E+01  0.24591277265E+00 -0.24735327557E+01  0.64838732548E+01  0.51100000000E-03 0. -1.
        -11    1    3    3    0    0 -0.25643915451E+02 -0.40690205470E+01 -0.15607196424E+02  0.30294420416E+02  0.51100000000E-03 0.  1.
        -12    1    3    3    0    0 -0.73161799476E+01 -0.51969074058E+01 -0.26740726851E+01  0.93640269294E+01  0.00000000000E+00 0.  1.
</event>
<event>
 7    1  0.1066992E-008  0.4614232E+02  0.7816164E-02  0.1320468E+00
        -11   -1    0    0    0    0  0.00000000000E+00  0.00000000000E+00  0.45593999997E+02  0.45594000000E+02  0.51100000000E-03 0. -1.
         11   -1    0    0    0    0 -0.00000000000E+00 -0.00000000000E+00 -0.45593999997E+02  0.45594000000E+02  0.51100000000E-03 0.  1.
    9900012    2    1    2    0    0 -0.85687439891E+01 -0.12825132812E+02 -0.42322644226E+02  0.46142316306E+02  0.99999867267E+01 0.  0.
         12    1    1    2    0    0  0.85687439891E+01  0.12825132812E+02  0.42322644226E+02  0.45045683694E+02  0.00000000000E+00 0. -1.
         11    1    3    3    0    0 -0.37601852054E+01 -0.63230279998E+01 -0.16607984218E+02  0.18164383169E+02  0.51100000000E-03 0. -1.
        -11    1    3    3    0    0 -0.68381269707E+01 -0.54060411206E+01 -0.20289862499E+02  0.22083110776E+02  0.51100000000E-03 0.  1.
         12    1    3    3    0    0  0.20295681870E+01 -0.10960636911E+01 -0.54247975096E+01  0.58948223604E+01  0.00000000000E+00 0. -1.
</event>
<event>
 7    1  0.8398055E-009  0.4614232E+02  0.7816164E-02  0.1320468E+00
        -11   -1    0    0    0    0  0.00000000000E+00  0.00000000000E+00  0.45593999997E+02  0.45594000000E+02  0.51100000000E-03 0. -1.
         11   -1    0    0    0    0 -0.00000000000E+00 -0.00000000000E+00 -0.45593999997E+02  0.45594000000E+02  0.51100000000E-03 0.  1.
    9900012    2    1    2    0    0 -0.16970497593E+02 -0.29581490288E+02 -0.29428746072E+02  0.46142318170E+02  0.10000003726E+02 0.  0.
         12    1    1    2    0    0  0.16970497593E+02  0.29581490288E+02  0.29428746072E+02  0.45045681830E+02  0.00000000000E+00 0. -1.
         11    1    3    3    0    0 -0.54738201000E+01 -0.36276418392E+01 -0.60500778257E+01  0.89289379973E+01  0.51100000000E-03 0. -1.
        -11    1    3    3    0    0 -0.27410611767E+01 -0.60734831911E+01 -0.88565880429E+01  0.11083310267E+02  0.51100000000E-03 0.  1.
         12    1    3    3    0    0 -0.87556163158E+01 -0.19880365258E+02 -0.14522080203E+02  0.26130069906E+02  0.00000000000E+00 0. -1.
</event>
<event>
 7    1  0.8398055E-009  0.4614232E+02  0.7816164E-02  0.1320468E+00
        -11   -1    0    0    0    0  0.00000000000E+00  0.00000000000E+00  0.45593999997E+02  0.45594000000E+02  0.51100000000E-03 0. -1.
         11   -1    0    0    0    0 -0.00000000000E+00 -0.00000000000E+00 -0.45593999997E+02  0.45594000000E+02  0.51100000000E-03 0.  1.
    9900012    2    1    2    0    0  0.20730919481E+02  0.41171109592E+01  0.39779287531E+02  0.46142319389E+02  0.10000014848E+02 0.  0.
        -12    1    1    2    0    0 -0.20730919481E+02 -0.41171109592E+01 -0.39779287531E+02  0.45045680611E+02  0.00000000000E+00 0.  1.
         11    1    3    3    0    0  0.14227173920E+02  0.63040193348E+01  0.28204227914E+02  0.32212289736E+02  0.51100000000E-03 0. -1.
        -11    1    3    3    0    0  0.92899820191E+00 -0.21134438449E+00  0.24236695986E-01  0.95304343372E+00  0.51100000000E-03 0.  1.
         12    1    3    3    0    0  0.55747473598E+01 -0.19755639911E+01  0.11550822921E+02  0.12976986220E+02  0.00000000000E+00 0. -1.
</event>
<event>
 7    1  0.8398055E-009  0.4614232E+02  0.7816164E-02  0.1320468E+00
        -11   -1    0    0    0    0  0.00000000000E+00  0.00000000000E+00  0.45593999997E+02  0.45594000000E+02  0.51100000000E-03 0. -1.
         11   -1    0    0    0    0 -0.00000000000E+00 -0.00000000000E+00 -0.45593999997E+02  0.45594000000E+02  0.51100000000E-03 0.  1.
    9900012    2    1    2    0    0 -0.17316010941E+02  0.49005624017E+01 -0.41294718264E+02  0.46142317596E+02  0.99999984917E+01 0.  0.
         12    1    1    2    0    0  0.17316010941E+02 -0.49005624017E+01  0.41294718264E+02  0.45045682404E+02  0.00000000000E+00 0. -1.
         11    1    3    3    0    0 -0.12201404092E+01  0.24860336736E+01 -0.31388942873E+01  0.41859005784E+01  0.51100000000E-03 0. -1.
        -11    1    3    3    0    0 -0.58916507703E+01 -0.19967039698E+01 -0.16031674240E+02  0.17196306427E+02  0.51100000000E-03 0.  1.
        -12    1    3    3    0    0 -0.10204219762E+02  0.44112326979E+01 -0.22124149737E+02  0.24760110590E+02  0.00000000000E+00 0.  1.
</event>
<event>
 7    1  0.8398055E-009  0.4614232E+02  0.7816164E-02  0.1320468E+00
        -11   -1    0    0    0    0  0.00000000000E+00  0.00000000000E+00  0.45593999997E+02  0.45594000000E+02  0.51100000000E-03 0. -1.
         11   -1    0    0    0    0 -0.00000000000E+00 -0.00000000000E+00 -0.45593999997E+02  0.45594000000E+02  0.51100000000E-03 0.  1.
    9900012    2    1    2    0    0 -0.27202240917E+02 -0.26003109682E+02 -0.24758633123E+02  0.46142317209E+02  0.99999949645E+01 0.  0.
         12    1    1    2    0    0  0.27202240917E+02  0.26003109682E+02  0.24758633123E+02  0.45045682791E+02  0.00000000000E+00 0. -1.
         11    1    3    3    0    0 -0.13392828233E+02 -0.16248483469E+02 -0.14046099189E+02  0.25311538195E+02  0.51100000000E-03 0.  1.
        -11    1    3    3    0    0 -0.27634521369E+01 -0.42563365832E+01 -0.11073597603E+01  0.51941615995E+01  0.51100000000E-03 0. -1.
        -12    1    3    3    0    0 -0.11045960547E+02 -0.54982896295E+01 -0.96051741734E+01  0.15636617414E+02  0.00000000000E+00 0.  1.
</event>
<event>
 7    1  0.8398055E-009  0.4614232E+02  0.7816164E-02  0.1320468E+00
        -11   -1    0    0    0    0  0.00000000000E+00  0.00000000000E+00  0.45593999997E+02  0.45594000000E+02  0.51100000000E-03 0. -1.
         11   -1    0    0    0    0 -0.00000000000E+00 -0.00000000000E+00 -0.45593999997E+02  0.45594000000E+02  0.51100000000E-03 0.  1.
    9900012    2    1    2    0    0 -0.33702040710E+02 -0.81758716331E+01  0.28747887497E+02  0.46142318070E+02  0.10000002816E+02 0.  0.
        -12    1    1    2    0    0  0.33702040710E+02  0.81758716331E+01 -0.28747887497E+02  0.45045681930E+02  0.00000000000E+00 0.  1.
         11    1    3    3    0    0 -0.23200281673E+02 -0.58463512161E+01  0.16895827332E+02  0.29289961996E+02  0.51100000000E-03 0. -1.
        -11    1    3    3    0    0 -0.56398262436E+00  0.97031175395E+00  0.12280969752E+00  0.11290100900E+01  0.51100000000E-03 0.  1.
        -12    1    3    3    0    0 -0.99377764130E+01 -0.32998321709E+01  0.11729250467E+02  0.15723345983E+02  0.00000000000E+00 0.  1.
</event>
<event>
 7    1  0.8398055E-009  0.4614232E+02  0.7816164E-02  0.1320468E+00
        -11   -1    0    0    0    0  0.00000000000E+00  0.00000000000E+00  0.45593999997E+02  0.45594000000E+02  0.51100000000E-03 0. -1.
         11   -1    0    0    0    0 -0.00000000000E+00 -0.00000000000E+00 -0.45593999997E+02  0.45594000000E+02  0.51100000000E-03 0.  1.
    9900012    2    1    2    0    0  0.15685360566E+02  0.65568767485E+01 -0.41714388572E+02  0.46142318934E+02  0.10000010695E+02 0.  0.
         12    1    1    2    0    0 -0.15685360566E+02 -0.65568767485E+01  0.41714388572E+02  0.45045681066E+02  0.00000000000E+00 0. -1.
         11    1    3    3    0    0  0.14368880096E+01 -0.10350517266E+01 -0.96692196344E+00  0.20176514995E+01  0.51100000000E-03 0. -1.
        -11    1    3    3    0    0  0.52080886302E+01  0.52854906521E+01 -0.14912702826E+02  0.16656809552E+02  0.51100000000E-03 0.  1.
        -12    1    3    3    0    0  0.90403839264E+01  0.23064378229E+01 -0.25834763783E+02  0.27467857883E+02  0.00000000000E+00 0.  1.
</event>
<event>
 7    1  0.8398055E-009  0.4614232E+02  0.7816164E-02  0.1320468E+00
        -11   -1    0    0    0    0  0.00000000000E+00  0.00000000000E+00  0.45593999997E+02  0.45594000000E+02  0.51100000000E-03 0. -1.
         11   -1    0    0    0    0 -0.00000000000E+00 -0.00000000000E+00 -0.45593999997E+02  0.45594000000E+02  0.51100000000E-03 0.  1.
    9900012    2    1    2    0    0  0.33613234466E+02  0.16756035550E+02 -0.24869645181E+02  0.46142317521E+02  0.99999978084E+01 0.  0.
         12    1    1    2    0    0 -0.33613234466E+02 -0.16756035550E+02  0.24869645181E+02  0.45045682479E+02  0.00000000000E+00 0. -1.
         11    1    3    3    0    0  0.19819751134E+01 -0.15485406078E+00  0.16052115715E+00  0.19944855059E+01  0.51100000000E-03 0. -1.
        -11    1    3    3    0    0  0.23429751168E+01  0.55696171788E+00 -0.20685567226E+00  0.24171322437E+01  0.51100000000E-03 0.  1.
        -12    1    3    3    0    0  0.29288284235E+02  0.16353927893E+02 -0.24823310666E+02  0.41730699771E+02  0.00000000000E+00 0.  1.
</event>
<event>
 7    1  0.8398055E-009  0.4614232E+02  0.7816164E-02  0.1320468E+00
        -11   -1    0    0    0    0  0.00000000000E+00  0.00000000000E+00  0.45593999997E+02  0.45594000000E+02  0.51100000000E-03 0. -1.
         11   -1    0    0    0    0 -0.00000000000E+00 -0.00000000000E+00 -0.45593999997E+02  0.45594000000E+02  0.51100000000E-03 0.  1.
    9900012    2    1    2    0    0 -0.20804034704E+01 -0.27575252888E+02 -0.35558273197E+02  0.46142318262E+02  0.10000004572E+02 0.  0.
         12    1    1    2    0    0  0.20804034704E+01  0.27575252888E+02  0.35558273197E+02  0.45045681738E+02  0.00000000000E+00 0. -1.
         11    1    3    3    0    0  0.17538770702E+00 -0.81548864222E+01 -0.64078182611E+01  0.10372707869E+02  0.51100000000E-03 0. -1.
        -11    1    3    3    0    0 -0.43100550543E+01 -0.86595513191E+01 -0.11913065541E+02  0.15345537933E+02  0.51100000000E-03 0.  1.
         12    1    3    3    0    0  0.20542638768E+01 -0.10760815147E+02 -0.17237389395E+02  0.20424072460E+02  0.00000000000E+00 0. -1.
</event>
<event>
 7    1  0.8398055E-009  0.4614232E+02  0.7816164E-02  0.1320468E+00
        -11   -1    0    0    0    0  0.00000000000E+00  0.00000000000E+00  0.45593999997E+02  0.45594000000E+02  0.51100000000E-03 0. -1.
         11   -1    0    0    0    0 -0.00000000000E+00 -0.00000000000E+00 -0.45593999997E+02  0.45594000000E+02  0.51100000000E-03 0.  1.
    9900012    2    1    2    0    0 -0.17905130830E+02 -0.29761825421E+00  0.41333174212E+02  0.46142316776E+02  0.99999910192E+01 0.  0.
        -12    1    1    2    0    0  0.17905130830E+02  0.29761825421E+00 -0.41333174212E+02  0.45045683224E+02  0.00000000000E+00 0.  1.
         11    1    3    3    0    0 -0.52578912243E+01  0.35263797734E+01  0.14900127487E+02  0.16189335187E+02  0.51100000000E-03 0. -1.
        -11    1    3    3    0    0 -0.33995545211E+01 -0.21368333655E+01  0.41812509685E+01  0.57970585383E+01  0.51100000000E-03 0.  1.
         12    1    3    3    0    0 -0.92476850848E+01 -0.16871646621E+01  0.22251795757E+02  0.24155923051E+02  0.00000000000E+00 0. -1.
</event>
<event>
 7    1  0.1090963E-008  0.4614232E+02  0.7816164E-02  0.1320468E+00
        -11   -1    0    0    0    0  0.00000000000E+00  0.00000000000E+00  0.45593999997E+02  0.45594000000E+02  0.51100000000E-03 0. -1.
         11   -1    0    0    0    0 -0.00000000000E+00 -0.00000000000E+00 -0.45593999997E+02  0.45594000000E+02  0.51100000000E-03 0.  1.
    9900012    2    1    2    0    0  0.59142123556E+01  0.11307235444E+02 -0.43200486898E+02  0.46142317084E+02  0.99999938233E+01 0.  0.
         12    1    1    2    0    0 -0.59142123556E+01 -0.11307235444E+02  0.43200486898E+02  0.45045682916E+02  0.00000000000E+00 0. -1.
         11    1    3    3    0    0  0.51106759061E+01  0.42255049370E+01 -0.16526343879E+02  0.17807131786E+02  0.51100000000E-03 0. -1.
        -11    1    3    3    0    0  0.29955982650E+01  0.55918131171E+01 -0.13760340183E+02  0.15152192749E+02  0.51100000000E-03 0.  1.
         12    1    3    3    0    0 -0.21920618156E+01  0.14899173897E+01 -0.12913802837E+02  0.13182992549E+02  0.00000000000E+00 0. -1.
</event>
<event>
 7    1  0.8398055E-009  0.4614232E+02  0.7816164E-02  0.1320468E+00
        -11   -1    0    0    0    0  0.00000000000E+00  0.00000000000E+00  0.45593999997E+02  0.45594000000E+02  0.51100000000E-03 0. -1.
         11   -1    0    0    0    0 -0.00000000000E+00 -0.00000000000E+00 -0.45593999997E+02  0.45594000000E+02  0.51100000000E-03 0.  1.
    9900012    2    1    2    0    0  0.14974101007E+02  0.97494676283E+01  0.41350183599E+02  0.46142317591E+02  0.99999984518E+01 0.  0.
        -12    1    1    2    0    0 -0.14974101007E+02 -0.97494676283E+01 -0.41350183599E+02  0.45045682409E+02  0.00000000000E+00 0.  1.
         11    1    3    3    0    0  0.29084194797E+01  0.59451854311E+01  0.11761585705E+02  0.13495889457E+02  0.51100000000E-03 0. -1.
        -11    1    3    3    0    0  0.38674159470E+01  0.20840122758E+01  0.49279022277E+01  0.66018356462E+01  0.51100000000E-03 0.  1.
        -12    1    3    3    0    0  0.81982655803E+01  0.17202699213E+01  0.24660695666E+02  0.26044592488E+02  0.00000000000E+00 0.  1.
</event>
<event>
 7    1  0.8398055E-009  0.4614232E+02  0.7816164E-02  0.1320468E+00
        -11   -1    0    0    0    0  0.00000000000E+00  0.00000000000E+00  0.45593999997E+02  0.45594000000E+02  0.51100000000E-03 0. -1.
         11   -1    0    0    0    0 -0.00000000000E+00 -0.00000000000E+00 -0.45593999997E+02  0.45594000000E+02  0.51100000000E-03 0.  1.
    9900012    2    1    2    0    0  0.13173426604E+02  0.18233310319E+02 -0.39027179968E+02  0.46142317078E+02  0.99999937712E+01 0.  0.
         12    1    1    2    0    0 -0.13173426604E+02 -0.18233310319E+02  0.39027179968E+02  0.45045682922E+02  0.00000000000E+00 0. -1.
         11    1    3    3    0    0  0.22605461434E+01  0.24507998392E+00 -0.13661159628E+01  0.26526225042E+01  0.51100000000E-03 0. -1.
        -11    1    3    3    0    0  0.67011609781E+01  0.14285681921E+02 -0.24001615604E+02  0.28723924145E+02  0.51100000000E-03 0.  1.
         12    1    3    3    0    0  0.42117194821E+01  0.37025484147E+01 -0.13659448400E+02  0.14765770429E+02  0.00000000000E+00 0. -1.
</event>
<event>
 7    1  0.8398055E-009  0.4614232E+02  0.7816164E-02  0.1320468E+00
        -11   -1    0    0    0    0  0.00000000000E+00  0.00000000000E+00  0.45593999997E+02  0.45594000000E+02  0.51100000000E-03 0. -1.
         11   -1    0    0    0    0 -0.00000000000E+00 -0.00000000000E+00 -0.45593999997E+02  0.45594000000E+02  0.51100000000E-03 0.  1.
    9900012    2    1    2    0    0 -0.22677098566E+02  0.24547400490E+02 -0.30204100071E+02  0.46142319505E+02  0.10000015901E+02 0.  0.
         12    1    1    2    0    0  0.22677098566E+02 -0.24547400490E+02  0.30204100071E+02  0.45045680495E+02  0.00000000000E+00 0. -1.
         11    1    3    3    0    0  0.52686318601E-01 -0.44914474347E+00 -0.63538353116E+00  0.77988418470E+00  0.51100000000E-03 0. -1.
        -11    1    3    3    0    0 -0.13553204772E+02  0.18724051207E+02 -0.17797223505E+02  0.29172257677E+02  0.51100000000E-03 0.  1.
         12    1    3    3    0    0 -0.91765801124E+01  0.62724940260E+01 -0.11771493035E+02  0.16190177643E+02  0.00000000000E+00 0. -1.
</event>
<event>
 7    1  0.8398055E-009  0.4614232E+02  0.7816164E-02  0.1320468E+00
        -11   -1    0    0    0    0  0.00000000000E+00  0.00000000000E+00  0.45593999997E+02  0.45594000000E+02  0.51100000000E-03 0. -1.
         11   -1    0    0    0    0 -0.00000000000E+00 -0.00000000000E+00 -0.45593999997E+02  0.45594000000E+02  0.51100000000E-03 0.  1.
    9900012    2    1    2    0    0  0.13326168345E+02  0.23193219292E+02 -0.36243637997E+02  0.46142317864E+02  0.10000000935E+02 0.  0.
         12    1    1    2    0    0 -0.13326168345E+02 -0.23193219292E+02  0.36243637997E+02  0.45045682136E+02  0.00000000000E+00 0. -1.
         11    1    3    3    0    0  0.49266128192E+01  0.11893737349E+02 -0.17816295915E+02  0.21980739351E+02  0.51100000000E-03 0. -1.
        -11    1    3    3    0    0  0.73997404101E+01  0.12111492021E+02 -0.15821197747E+02  0.21254521766E+02  0.51100000000E-03 0.  1.
         12    1    3    3    0    0  0.99981511551E+00 -0.81201007845E+00 -0.26061443352E+01  0.29070567467E+01  0.00000000000E+00 0. -1.
</event>
<event>
 7    1  0.1143491E-008  0.4614232E+02  0.7816164E-02  0.1320468E+00
        -11   -1    0    0    0    0  0.00000000000E+00  0.00000000000E+00  0.45593999997E+02  0.45594000000E+02  0.51100000000E-03 0. -1.
         11   -1    0    0    0    0 -0.00000000000E+00 -0.00000000000E+00 -0.45593999997E+02  0.45594000000E+02  0.51100000000E-03 0.  1.
    9900012    2    1    2    0    0 -0.23037673119E+02  0.70893002318E+01 -0.38054182441E+02  0.46142319166E+02  0.10000012813E+02 0.  0.
         12    1    1    2    0    0  0.23037673119E+02 -0.70893002318E+01  0.38054182441E+02  0.45045680834E+02  0.00000000000E+00 0. -1.
         11    1    3    3    0    0 -0.11032203993E+02 -0.26397658245E+00 -0.16203548924E+02  0.19604443541E+02  0.51100000000E-03 0. -1.
        -11    1    3    3    0    0 -0.10954555370E+02  0.43596207752E+01 -0.18370913278E+02  0.21828857771E+02  0.51100000000E-03 0.  1.
         12    1    3    3    0    0 -0.10509137557E+01  0.29936560391E+01 -0.34797202394E+01  0.47090178537E+01  0.00000000000E+00 0. -1.
</event>
<event>
 7    1  0.8398055E-009  0.4614232E+02  0.7816164E-02  0.1320468E+00
        -11   -1    0    0    0    0  0.00000000000E+00  0.00000000000E+00  0.45593999997E+02  0.45594000000E+02  0.51100000000E-03 0. -1.
         11   -1    0    0    0    0 -0.00000000000E+00 -0.00000000000E+00 -0.45593999997E+02  0.45594000000E+02  0.51100000000E-03 0.  1.
    9900012    2    1    2    0    0  0.35037721124E+02  0.10417088609E+02  0.26324055208E+02  0.46142317418E+02  0.99999968723E+01 0.  0.
        -12    1    1    2    0    0 -0.35037721124E+02 -0.10417088609E+02 -0.26324055208E+02  0.45045682582E+02  0.00000000000E+00 0.  1.
         11    1    3    3    0    0  0.92813006316E+01  0.28581206169E+01  0.11467547822E+02  0.15027176986E+02  0.51100000000E-03 0. -1.
        -11    1    3    3    0    0  0.10259738907E+02  0.39452108071E+01  0.88307483824E+01  0.14099966241E+02  0.51100000000E-03 0.  1.
        -12    1    3    3    0    0  0.15496681585E+02  0.36137571851E+01  0.60257590042E+01  0.17015174190E+02  0.00000000000E+00 0.  1.
</event>
<event>
 7    1  0.8398055E-009  0.4614232E+02  0.7816164E-02  0.1320468E+00
        -11   -1    0    0    0    0  0.00000000000E+00  0.00000000000E+00  0.45593999997E+02  0.45594000000E+02  0.51100000000E-03 0. -1.
         11   -1    0    0    0    0 -0.00000000000E+00 -0.00000000000E+00 -0.45593999997E+02  0.45594000000E+02  0.51100000000E-03 0.  1.
    9900012    2    1    2    0    0 -0.17113722576E+01  0.77931291276E+01 -0.44333416651E+02  0.46142317759E+02  0.99999999841E+01 0.  0.
         12    1    1    2    0    0  0.17113722576E+01 -0.77931291276E+01  0.44333416651E+02  0.45045682241E+02  0.00000000000E+00 0. -1.
         11    1    3    3    0    0 -0.11036862979E+01  0.13841880978E+01 -0.33147361692E+02  0.33194603290E+02  0.51100000000E-03 0. -1.
        -11    1    3    3    0    0 -0.31627564509E+00  0.22835568558E+01 -0.50086962275E+01  0.55137736949E+01  0.51100000000E-03 0.  1.
         12    1    3    3    0    0 -0.29141031457E+00  0.41253841740E+01 -0.61773587308E+01  0.74339407749E+01  0.00000000000E+00 0. -1.
</event>
<event>
 7    1  0.8398055E-009  0.4614232E+02  0.7816164E-02  0.1320468E+00
        -11   -1    0    0    0    0  0.00000000000E+00  0.00000000000E+00  0.45593999997E+02  0.45594000000E+02  0.51100000000E-03 0. -1.
         11   -1    0    0    0    0 -0.00000000000E+00 -0.00000000000E+00 -0.45593999997E+02  0.45594000000E+02  0.51100000000E-03 0.  1.
    9900012    2    1    2    0    0 -0.27354639526E+02 -0.11459738569E+00 -0.35788602070E+02  0.46142317917E+02  0.10000001424E+02 0.  0.
         12    1    1    2    0    0  0.27354639526E+02  0.11459738569E+00  0.35788602070E+02  0.45045682083E+02  0.00000000000E+00 0. -1.
         11    1    3    3    0    0 -0.10959440762E+00  0.12787462614E+00 -0.49206424068E+00  0.52008685070E+00  0.51100000000E-03 0. -1.
        -11    1    3    3    0    0 -0.18992232557E+01  0.26845040249E+01 -0.53573340960E+01  0.62860671101E+01  0.51100000000E-03 0.  1.
         12    1    3    3    0    0 -0.25345821863E+02 -0.29269760367E+01 -0.29939203733E+02  0.39336163956E+02  0.00000000000E+00 0. -1.
</event>
<event>
 7    1  0.9625490E-009  0.4614232E+02  0.7816164E-02  0.1320468E+00
        -11   -1    0    0    0    0  0.00000000000E+00  0.00000000000E+00  0.45593999997E+02  0.45594000000E+02  0.51100000000E-03 0. -1.
         11   -1    0    0    0    0 -0.00000000000E+00 -0.00000000000E+00 -0.45593999997E+02  0.45594000000E+02  0.51100000000E-03 0.  1.
    9900012    2    1    2    0    0  0.30915641398E+02  0.49880277235E+01 -0.32379872396E+02  0.46142318298E+02  0.10000004892E+02 0.  0.
         12    1    1    2    0    0 -0.30915641398E+02 -0.49880277235E+01  0.32379872396E+02  0.45045681702E+02  0.00000000000E+00 0. -1.
         11    1    3    3    0    0  0.88007899076E+01 -0.12403806354E+01 -0.12341175666E+02  0.15208453709E+02  0.51100000000E-03 0. -1.
        -11    1    3    3    0    0  0.20261881271E+02  0.44741556789E+01 -0.19137502921E+02  0.28227750884E+02  0.51100000000E-03 0.  1.
         12    1    3    3    0    0  0.18529702201E+01  0.17542526800E+01 -0.90119380889E+00  0.27061137048E+01  0.00000000000E+00 0. -1.
</event>
<event>
 7    1  0.8398055E-009  0.4614232E+02  0.7816164E-02  0.1320468E+00
        -11   -1    0    0    0    0  0.00000000000E+00  0.00000000000E+00  0.45593999997E+02  0.45594000000E+02  0.51100000000E-03 0. -1.
         11   -1    0    0    0    0 -0.00000000000E+00 -0.00000000000E+00 -0.45593999997E+02  0.45594000000E+02  0.51100000000E-03 0.  1.
    9900012    2    1    2    0    0  0.40868421911E+02  0.13991232739E+02  0.12772274309E+02  0.46142317698E+02  0.99999994216E+01 0.  0.
        -12    1    1    2    0    0 -0.40868421911E+02 -0.13991232739E+02 -0.12772274309E+02  0.45045682302E+02  0.00000000000E+00 0.  1.
         11    1    3    3    0    0  0.31599504277E+01  0.26280959525E+01  0.38608377910E+01  0.56389931504E+01  0.51100000000E-03 0. -1.
        -11    1    3    3    0    0  0.18225412680E+02  0.40422155434E+01  0.34337033645E+01  0.18981451286E+02  0.51100000000E-03 0.  1.
         12    1    3    3    0    0  0.19483058803E+02  0.73209212435E+01  0.54777331539E+01  0.21521873261E+02  0.00000000000E+00 0. -1.
</event>
<event>
 7    1  0.8398055E-009  0.4614232E+02  0.7816164E-02  0.1320468E+00
        -11   -1    0    0    0    0  0.00000000000E+00  0.00000000000E+00  0.45593999997E+02  0.45594000000E+02  0.51100000000E-03 0.  1.
         11   -1    0    0    0    0 -0.00000000000E+00 -0.00000000000E+00 -0.45593999997E+02  0.45594000000E+02  0.51100000000E-03 0. -1.
    9900012    2    1    2    0    0 -0.25798878113E+02 -0.36566459651E+02  0.51405627604E+01  0.46142317979E+02  0.10000001985E+02 0.  0.
         12    1    1    2    0    0  0.25798878113E+02  0.36566459651E+02 -0.51405627604E+01  0.45045682021E+02  0.00000000000E+00 0. -1.
         11    1    3    3    0    0 -0.67234341815E+01 -0.15640612051E+02  0.13535380924E+00  0.17025029616E+02  0.51100000000E-03 0. -1.
        -11    1    3    3    0    0 -0.13400056403E+02 -0.17541513479E+02  0.39933201666E+01  0.22432405421E+02  0.51100000000E-03 0.  1.
         12    1    3    3    0    0 -0.56753875281E+01 -0.33843341209E+01  0.10118887845E+01  0.66848829420E+01  0.00000000000E+00 0. -1.
</event>
<event>
 7    1  0.8398055E-009  0.4614232E+02  0.7816164E-02  0.1320468E+00
        -11   -1    0    0    0    0  0.00000000000E+00  0.00000000000E+00  0.45593999997E+02  0.45594000000E+02  0.51100000000E-03 0. -1.
         11   -1    0    0    0    0 -0.00000000000E+00 -0.00000000000E+00 -0.45593999997E+02  0.45594000000E+02  0.51100000000E-03 0.  1.
    9900012    2    1    2    0    0  0.47385024532E+01 -0.39067209992E+02  0.21918329839E+02  0.46142317798E+02  0.10000000338E+02 0.  0.
        -12    1    1    2    0    0 -0.47385024532E+01  0.39067209992E+02 -0.21918329839E+02  0.45045682202E+02  0.00000000000E+00 0.  1.
         11    1    3    3    0    0  0.34096900089E+01 -0.30138929773E+02  0.17182023158E+02  0.34859761816E+02  0.51100000000E-03 0. -1.
        -11    1    3    3    0    0  0.22553668649E+00 -0.44554569617E+01  0.49589225113E+01  0.66702980644E+01  0.51100000000E-03 0.  1.
        -12    1    3    3    0    0  0.11032757578E+01 -0.44728232579E+01 -0.22261582951E+00  0.46122579180E+01  0.00000000000E+00 0.  1.
</event>
<event>
 7    1  0.8398055E-009  0.4614232E+02  0.7816164E-02  0.1320468E+00
        -11   -1    0    0    0    0  0.00000000000E+00  0.00000000000E+00  0.45593999997E+02  0.45594000000E+02  0.51100000000E-03 0. -1.
         11   -1    0    0    0    0 -0.00000000000E+00 -0.00000000000E+00 -0.45593999997E+02  0.45594000000E+02  0.51100000000E-03 0.  1.
    9900012    2    1    2    0    0 -0.15144171049E+02 -0.18331343864E+02 -0.38258717597E+02  0.46142317002E+02  0.99999930775E+01 0.  0.
         12    1    1    2    0    0  0.15144171049E+02  0.18331343864E+02  0.38258717597E+02  0.45045682998E+02  0.00000000000E+00 0. -1.
         11    1    3    3    0    0 -0.11812762534E+02 -0.16925420803E+02 -0.26976178526E+02  0.33966534062E+02  0.51100000000E-03 0.  1.
        -11    1    3    3    0    0 -0.30052518391E+01 -0.20140982728E+01 -0.10619300136E+02  0.11218630313E+02  0.51100000000E-03 0. -1.
        -12    1    3    3    0    0 -0.32615667528E+00  0.60817521238E+00 -0.66323893525E+00  0.95715262681E+00  0.00000000000E+00 0.  1.
</event>
<event>
 7    1  0.8398055E-009  0.4614232E+02  0.7816164E-02  0.1320468E+00
        -11   -1    0    0    0    0  0.00000000000E+00  0.00000000000E+00  0.45593999997E+02  0.45594000000E+02  0.51100000000E-03 0. -1.
         11   -1    0    0    0    0 -0.00000000000E+00 -0.00000000000E+00 -0.45593999997E+02  0.45594000000E+02  0.51100000000E-03 0.  1.
    9900012    2    1    2    0    0 -0.26377784342E+02  0.32479447149E+02 -0.16685665462E+02  0.46142318455E+02  0.10000006327E+02 0.  0.
         12    1    1    2    0    0  0.26377784342E+02 -0.32479447149E+02  0.16685665462E+02  0.45045681545E+02  0.00000000000E+00 0. -1.
         11    1    3    3    0    0 -0.81795875073E+01  0.69483056615E+01 -0.38058503855E+01  0.11387234114E+02  0.51100000000E-03 0. -1.
        -11    1    3    3    0    0 -0.94578893429E+01  0.77528812495E+01 -0.28810256599E+01  0.12564201033E+02  0.51100000000E-03 0.  1.
        -12    1    3    3    0    0 -0.87403074921E+01  0.17778260238E+02 -0.99987894167E+01  0.22190883307E+02  0.00000000000E+00 0.  1.
</event>
<event>
 7    1  0.8398055E-009  0.4614232E+02  0.7816164E-02  0.1320468E+00
        -11   -1    0    0    0    0  0.00000000000E+00  0.00000000000E+00  0.45593999997E+02  0.45594000000E+02  0.51100000000E-03 0. -1.
         11   -1    0    0    0    0 -0.00000000000E+00 -0.00000000000E+00 -0.45593999997E+02  0.45594000000E+02  0.51100000000E-03 0.  1.
    9900012    2    1    2    0    0 -0.28039292325E+02 -0.12474540595E+02 -0.32974193635E+02  0.46142317377E+02  0.99999964961E+01 0.  0.
         12    1    1    2    0    0  0.28039292325E+02  0.12474540595E+02  0.32974193635E+02  0.45045682623E+02  0.00000000000E+00 0. -1.
         11    1    3    3    0    0 -0.29366773795E+01  0.40083017283E+00 -0.33496753522E+01  0.44727021010E+01  0.51100000000E-03 0. -1.
        -11    1    3    3    0    0 -0.18352939955E+02 -0.74472015762E+01 -0.15713813353E+02  0.25282704497E+02  0.51100000000E-03 0.  1.
        -12    1    3    3    0    0 -0.67496749897E+01 -0.54281691914E+01 -0.13910704929E+02  0.16386910779E+02  0.00000000000E+00 0.  1.
</event>
<event>
 7    1  0.8398055E-009  0.4614232E+02  0.7816164E-02  0.1320468E+00
        -11   -1    0    0    0    0  0.00000000000E+00  0.00000000000E+00  0.45593999997E+02  0.45594000000E+02  0.51100000000E-03 0. -1.
         11   -1    0    0    0    0 -0.00000000000E+00 -0.00000000000E+00 -0.45593999997E+02  0.45594000000E+02  0.51100000000E-03 0.  1.
    9900012    2    1    2    0    0  0.30366650417E+02 -0.67097959781E+01  0.32587706079E+02  0.46142318663E+02  0.10000008226E+02 0.  0.
        -12    1    1    2    0    0 -0.30366650417E+02  0.67097959781E+01 -0.32587706079E+02  0.45045681337E+02  0.00000000000E+00 0.  1.
         11    1    3    3    0    0  0.52257407547E+01 -0.16895601995E+01  0.91714544125E+01  0.10690114892E+02  0.51100000000E-03 0. -1.
        -11    1    3    3    0    0  0.10234084024E+02 -0.39621126154E+01  0.14000391114E+02  0.17788922502E+02  0.51100000000E-03 0.  1.
         12    1    3    3    0    0  0.14906825639E+02 -0.10581231632E+01  0.94158605525E+01  0.17663281269E+02  0.00000000000E+00 0. -1.
</event>
<event>
 7    1  0.8398055E-009  0.4614232E+02  0.7816164E-02  0.1320468E+00
        -11   -1    0    0    0    0  0.00000000000E+00  0.00000000000E+00  0.45593999997E+02  0.45594000000E+02  0.51100000000E-03 0. -1.
         11   -1    0    0    0    0 -0.00000000000E+00 -0.00000000000E+00 -0.45593999997E+02  0.45594000000E+02  0.51100000000E-03 0.  1.
    9900012    2    1    2    0    0  0.24757856765E+02 -0.31139318081E+02 -0.21130664122E+02  0.46142316873E+02  0.99999919035E+01 0.  0.
         12    1    1    2    0    0 -0.24757856765E+02  0.31139318081E+02  0.21130664122E+02  0.45045683127E+02  0.00000000000E+00 0. -1.
         11    1    3    3    0    0  0.24039764521E+01 -0.35296886815E+01 -0.49257377208E+01  0.65192558874E+01  0.51100000000E-03 0. -1.
        -11    1    3    3    0    0  0.50333170288E+01 -0.74751267407E+01 -0.73418478319E+01  0.11623877578E+02  0.51100000000E-03 0.  1.
        -12    1    3    3    0    0  0.17320563284E+02 -0.20134502658E+02 -0.88630785698E+01  0.27999183408E+02  0.00000000000E+00 0.  1.
</event>
<event>
 7    1  0.8398055E-009  0.4614231E+02  0.7816164E-02  0.1320468E+00
        -11   -1    0    0    0    0  0.00000000000E+00  0.00000000000E+00  0.45593999997E+02  0.45594000000E+02  0.51100000000E-03 0. -1.
         11   -1    0    0    0    0 -0.00000000000E+00 -0.00000000000E+00 -0.45593999997E+02  0.45594000000E+02  0.51100000000E-03 0.  1.
    9900012    2    1    2    0    0 -0.33505756842E+02 -0.22473619310E+02 -0.20035330019E+02  0.46142314797E+02  0.99999729739E+01 0.  0.
         12    1    1    2    0    0  0.33505756842E+02  0.22473619310E+02  0.20035330019E+02  0.45045685203E+02  0.00000000000E+00 0. -1.
         11    1    3    3    0    0 -0.19601606225E+01 -0.98600856340E+00 -0.30754093070E+01  0.37779075187E+01  0.51100000000E-03 0. -1.
        -11    1    3    3    0    0 -0.43507612978E+01 -0.13441060444E+01 -0.10020435850E+00  0.45547542309E+01  0.51100000000E-03 0.  1.
        -12    1    3    3    0    0 -0.27194834922E+02 -0.20143504702E+02 -0.16859716353E+02  0.37809653048E+02  0.00000000000E+00 0.  1.
</event>
<event>
 7    1  0.8398055E-009  0.4614232E+02  0.7816164E-02  0.1320468E+00
        -11   -1    0    0    0    0  0.00000000000E+00  0.00000000000E+00  0.45593999997E+02  0.45594000000E+02  0.51100000000E-03 0.  1.
         11   -1    0    0    0    0 -0.00000000000E+00 -0.00000000000E+00 -0.45593999997E+02  0.45594000000E+02  0.51100000000E-03 0. -1.
    9900012    2    1    2    0    0 -0.43895118666E+02  0.54336608396E+01 -0.85327145513E+01  0.46142319514E+02  0.10000015984E+02 0.  0.
         12    1    1    2    0    0  0.43895118666E+02 -0.54336608396E+01  0.85327145513E+01  0.45045680486E+02  0.00000000000E+00 0. -1.
         11    1    3    3    0    0 -0.53066954495E+01  0.88880107784E+00 -0.44842567514E+01  0.70042517675E+01  0.51100000000E-03 0. -1.
        -11    1    3    3    0    0 -0.17084553965E+02  0.85294334300E+00 -0.15080642290E+01  0.17172179667E+02  0.51100000000E-03 0.  1.
        -12    1    3    3    0    0 -0.21503869251E+02  0.36919164187E+01 -0.25403935709E+01  0.21965888080E+02  0.00000000000E+00 0.  1.
</event>
<event>
 7    1  0.8398055E-009  0.4614232E+02  0.7816164E-02  0.1320468E+00
        -11   -1    0    0    0    0  0.00000000000E+00  0.00000000000E+00  0.45593999997E+02  0.45594000000E+02  0.51100000000E-03 0. -1.
         11   -1    0    0    0    0 -0.00000000000E+00 -0.00000000000E+00 -0.45593999997E+02  0.45594000000E+02  0.51100000000E-03 0.  1.
    9900012    2    1    2    0    0 -0.98991216476E+01  0.28208041779E+01 -0.43853892778E+02  0.46142318105E+02  0.10000003139E+02 0.  0.
         12    1    1    2    0    0  0.98991216476E+01 -0.28208041779E+01  0.43853892778E+02  0.45045681895E+02  0.00000000000E+00 0. -1.
         11    1    3    3    0    0 -0.18957933257E+01  0.25621601010E+01 -0.41208534639E+01  0.52096190119E+01  0.51100000000E-03 0. -1.
        -11    1    3    3    0    0 -0.20592803703E+01  0.26808797444E+01 -0.12042857751E+02  0.12508324225E+02  0.51100000000E-03 0.  1.
         12    1    3    3    0    0 -0.59440479516E+01 -0.24222356675E+01 -0.27690181563E+02  0.28424374869E+02  0.00000000000E+00 0. -1.
</event>
<event>
 7    1  0.8398055E-009  0.4614231E+02  0.7816164E-02  0.1320468E+00
        -11   -1    0    0    0    0  0.00000000000E+00  0.00000000000E+00  0.45593999997E+02  0.45594000000E+02  0.51100000000E-03 0. -1.
         11   -1    0    0    0    0 -0.00000000000E+00 -0.00000000000E+00 -0.45593999997E+02  0.45594000000E+02  0.51100000000E-03 0.  1.
    9900012    2    1    2    0    0 -0.13312108621E+02  0.92857092247E+01  0.42019963285E+02  0.46142312679E+02  0.99999536549E+01 0.  0.
        -12    1    1    2    0    0  0.13312108621E+02 -0.92857092247E+01 -0.42019963285E+02  0.45045687321E+02  0.00000000000E+00 0.  1.
         11    1    3    3    0    0  0.67740313550E+00  0.20894349119E-01  0.48884848606E+01  0.49352402247E+01  0.51100000000E-03 0. -1.
        -11    1    3    3    0    0 -0.11208790504E+02  0.48119141909E+01  0.21521641806E+02  0.24738079332E+02  0.51100000000E-03 0.  1.
        -12    1    3    3    0    0 -0.27807212520E+01  0.44529006847E+01  0.15609836619E+02  0.16468993122E+02  0.00000000000E+00 0.  1.
</event>
<event>
 7    1  0.8398055E-009  0.4614232E+02  0.7816164E-02  0.1320468E+00
        -11   -1    0    0    0    0  0.00000000000E+00  0.00000000000E+00  0.45593999997E+02  0.45594000000E+02  0.51100000000E-03 0. -1.
         11   -1    0    0    0    0 -0.00000000000E+00 -0.00000000000E+00 -0.45593999997E+02  0.45594000000E+02  0.51100000000E-03 0.  1.
    9900012    2    1    2    0    0 -0.35868432697E+02  0.27141514573E+02 -0.24304700758E+01  0.46142318051E+02  0.10000002642E+02 0.  0.
        -12    1    1    2    0    0  0.35868432697E+02 -0.27141514573E+02  0.24304700758E+01  0.45045681949E+02  0.00000000000E+00 0.  1.
         11    1    3    3    0    0 -0.10572145043E+01  0.12060683237E+01 -0.17741784530E+01  0.23916548149E+01  0.51100000000E-03 0. -1.
        -11    1    3    3    0    0 -0.21989581679E+01  0.22621410648E+00  0.14768804694E+00  0.22154913375E+01  0.51100000000E-03 0.  1.
         12    1    3    3    0    0 -0.32612260025E+02  0.25709232143E+02 -0.80397966979E+00  0.41535171898E+02  0.00000000000E+00 0. -1.
</event>
<event>
 7    1  0.8398055E-009  0.4614232E+02  0.7816164E-02  0.1320468E+00
        -11   -1    0    0    0    0  0.00000000000E+00  0.00000000000E+00  0.45593999997E+02  0.45594000000E+02  0.51100000000E-03 0. -1.
         11   -1    0    0    0    0 -0.00000000000E+00 -0.00000000000E+00 -0.45593999997E+02  0.45594000000E+02  0.51100000000E-03 0.  1.
    9900012    2    1    2    0    0 -0.42009387685E+01  0.40904874510E+02  0.18391758976E+02  0.46142318260E+02  0.10000004545E+02 0.  0.
        -12    1    1    2    0    0  0.42009387685E+01 -0.40904874510E+02 -0.18391758976E+02  0.45045681740E+02  0.00000000000E+00 0.  1.
         11    1    3    3    0    0 -0.24412822295E+01  0.65265194101E+01  0.55220208774E+01  0.88908958697E+01  0.51100000000E-03 0. -1.
        -11    1    3    3    0    0 -0.18671274465E+00  0.67858577481E+01  0.57268757814E-01  0.67886675422E+01  0.51100000000E-03 0.  1.
         12    1    3    3    0    0 -0.15729437944E+01  0.27592497352E+02  0.12812469341E+02  0.30462754848E+02  0.00000000000E+00 0. -1.
</event>
<event>
 7    1  0.8398055E-009  0.4614232E+02  0.7816164E-02  0.1320468E+00
        -11   -1    0    0    0    0  0.00000000000E+00  0.00000000000E+00  0.45593999997E+02  0.45594000000E+02  0.51100000000E-03 0. -1.
         11   -1    0    0    0    0 -0.00000000000E+00 -0.00000000000E+00 -0.45593999997E+02  0.45594000000E+02  0.51100000000E-03 0.  1.
    9900012    2    1    2    0    0  0.28732450219E+02  0.34283935163E+02  0.53076889419E+01  0.46142317990E+02  0.10000002084E+02 0.  0.
        -12    1    1    2    0    0 -0.28732450219E+02 -0.34283935163E+02 -0.53076889419E+01  0.45045682010E+02  0.00000000000E+00 0.  1.
         11    1    3    3    0    0  0.18939608116E+02  0.19331380603E+02  0.55043053949E+01  0.27617175991E+02  0.51100000000E-03 0. -1.
        -11    1    3    3    0    0  0.71431031988E+01  0.74983144400E+01 -0.16346967486E+01  0.10484315737E+02  0.51100000000E-03 0.  1.
         12    1    3    3    0    0  0.26497389052E+01  0.74542401197E+01  0.14380802956E+01  0.80408262613E+01  0.00000000000E+00 0. -1.
</event>
<event>
 7    1  0.8398055E-009  0.4614232E+02  0.7816164E-02  0.1320468E+00
        -11   -1    0    0    0    0  0.00000000000E+00  0.00000000000E+00  0.45593999997E+02  0.45594000000E+02  0.51100000000E-03 0. -1.
         11   -1    0    0    0    0 -0.00000000000E+00 -0.00000000000E+00 -0.45593999997E+02  0.45594000000E+02  0.51100000000E-03 0.  1.
    9900012    2    1    2    0    0 -0.11474470038E+02  0.17342369986E+02 -0.39958632233E+02  0.46142317085E+02  0.99999938339E+01 0.  0.
         12    1    1    2    0    0  0.11474470038E+02 -0.17342369986E+02  0.39958632233E+02  0.45045682915E+02  0.00000000000E+00 0. -1.
         11    1    3    3    0    0 -0.93643804966E+01  0.10298286850E+02 -0.26993061026E+02  0.30370572565E+02  0.51100000000E-03 0. -1.
        -11    1    3    3    0    0 -0.20419078908E+01  0.66920103855E+01 -0.13454759976E+02  0.15165188990E+02  0.51100000000E-03 0.  1.
         12    1    3    3    0    0 -0.68181650364E-01  0.35207274960E+00  0.48918876903E+00  0.60655552936E+00  0.00000000000E+00 0. -1.
</event>
<event>
 7    1  0.8398055E-009  0.4614232E+02  0.7816164E-02  0.1320468E+00
        -11   -1    0    0    0    0  0.00000000000E+00  0.00000000000E+00  0.45593999997E+02  0.45594000000E+02  0.51100000000E-03 0.  1.
         11   -1    0    0    0    0 -0.00000000000E+00 -0.00000000000E+00 -0.45593999997E+02  0.45594000000E+02  0.51100000000E-03 0. -1.
    9900012    2    1    2    0    0  0.44683268129E+02 -0.38978941839E+01 -0.41623961603E+01  0.46142316837E+02  0.99999915765E+01 0.  0.
         12    1    1    2    0    0 -0.44683268129E+02  0.38978941839E+01  0.41623961603E+01  0.45045683163E+02  0.00000000000E+00 0. -1.
         11    1    3    3    0    0  0.33582549621E+02 -0.51233838333E+01 -0.52204203297E+01  0.34369892197E+02  0.51100000000E-03 0. -1.
        -11    1    3    3    0    0  0.48326939344E+01  0.16516261923E+01 -0.91279010699E+00  0.51880618523E+01  0.51100000000E-03 0.  1.
        -12    1    3    3    0    0  0.62680245738E+01 -0.42613654292E+00  0.19708142764E+01  0.65843627879E+01  0.00000000000E+00 0.  1.
</event>
<event>
 7    1  0.8398055E-009  0.4614232E+02  0.7816164E-02  0.1320468E+00
        -11   -1    0    0    0    0  0.00000000000E+00  0.00000000000E+00  0.45593999997E+02  0.45594000000E+02  0.51100000000E-03 0. -1.
         11   -1    0    0    0    0 -0.00000000000E+00 -0.00000000000E+00 -0.45593999997E+02  0.45594000000E+02  0.51100000000E-03 0.  1.
    9900012    2    1    2    0    0  0.14533988801E+02  0.20578484546E+02  0.37341700190E+02  0.46142318412E+02  0.10000005934E+02 0.  0.
        -12    1    1    2    0    0 -0.14533988801E+02 -0.20578484546E+02 -0.37341700190E+02  0.45045681588E+02  0.00000000000E+00 0.  1.
         11    1    3    3    0    0  0.10971920656E+01  0.47488788130E+01  0.62698252785E+01  0.79414349896E+01  0.51100000000E-03 0. -1.
        -11    1    3    3    0    0  0.54237695255E+01  0.98236137896E+01  0.10721183700E+02  0.15519808116E+02  0.51100000000E-03 0.  1.
        -12    1    3    3    0    0  0.80130272102E+01  0.60059919429E+01  0.20350691211E+02  0.22681075306E+02  0.00000000000E+00 0.  1.
</event>
<event>
 7    1  0.8398055E-009  0.4614232E+02  0.7816164E-02  0.1320468E+00
        -11   -1    0    0    0    0  0.00000000000E+00  0.00000000000E+00  0.45593999997E+02  0.45594000000E+02  0.51100000000E-03 0. -1.
         11   -1    0    0    0    0 -0.00000000000E+00 -0.00000000000E+00 -0.45593999997E+02  0.45594000000E+02  0.51100000000E-03 0.  1.
    9900012    2    1    2    0    0  0.31114748553E+02 -0.14241003116E+02  0.29294698324E+02  0.46142322103E+02  0.10000039595E+02 0.  0.
        -12    1    1    2    0    0 -0.31114748553E+02  0.14241003116E+02 -0.29294698324E+02  0.45045677897E+02  0.00000000000E+00 0.  1.
         11    1    3    3    0    0  0.41218291305E+01 -0.28705051052E+01  0.64970578982E+01  0.82122491762E+01  0.51100000000E-03 0.  1.
        -11    1    3    3    0    0  0.77079087719E+01 -0.14329546880E+01  0.25223763320E+01  0.82357512952E+01  0.51100000000E-03 0. -1.
         12    1    3    3    0    0  0.19285010651E+02 -0.99375433228E+01  0.20275264094E+02  0.29694321632E+02  0.00000000000E+00 0. -1.
</event>
<event>
 7    1  0.8398055E-009  0.4614232E+02  0.7816164E-02  0.1320468E+00
        -11   -1    0    0    0    0  0.00000000000E+00  0.00000000000E+00  0.45593999997E+02  0.45594000000E+02  0.51100000000E-03 0. -1.
         11   -1    0    0    0    0 -0.00000000000E+00 -0.00000000000E+00 -0.45593999997E+02  0.45594000000E+02  0.51100000000E-03 0.  1.
    9900012    2    1    2    0    0 -0.31007437188E+02 -0.23563547366E+01 -0.32589873016E+02  0.46142318833E+02  0.10000009772E+02 0.  0.
         12    1    1    2    0    0  0.31007437188E+02  0.23563547366E+01  0.32589873016E+02  0.45045681167E+02  0.00000000000E+00 0. -1.
         11    1    3    3    0    0 -0.27206126143E+02 -0.11444503644E+01 -0.31792071076E+02  0.41859513254E+02  0.51100000000E-03 0.  1.
        -11    1    3    3    0    0  0.50555990229E-02 -0.21755915566E+00  0.11218418636E+00  0.24483279617E+00  0.51100000000E-03 0. -1.
        -12    1    3    3    0    0 -0.38063666443E+01 -0.99434521655E+00 -0.90998612658E+00  0.40379727824E+01  0.00000000000E+00 0.  1.
</event>
<event>
 7    1  0.8398055E-009  0.4614232E+02  0.7816164E-02  0.1320468E+00
        -11   -1    0    0    0    0  0.00000000000E+00  0.00000000000E+00  0.45593999997E+02  0.45594000000E+02  0.51100000000E-03 0. -1.
         11   -1    0    0    0    0 -0.00000000000E+00 -0.00000000000E+00 -0.45593999997E+02  0.45594000000E+02  0.51100000000E-03 0.  1.
    9900012    2    1    2    0    0 -0.10264253110E+02 -0.10014379115E+02 -0.42702117360E+02  0.46142317543E+02  0.99999980127E+01 0.  0.
         12    1    1    2    0    0  0.10264253110E+02  0.10014379115E+02  0.42702117360E+02  0.45045682457E+02  0.00000000000E+00 0. -1.
         11    1    3    3    0    0  0.10492225869E+01  0.30799027544E+00 -0.61969492483E+01  0.62926867310E+01  0.51100000000E-03 0. -1.
        -11    1    3    3    0    0 -0.43703397943E+01 -0.39245854339E+01 -0.19891765556E+02  0.20740891445E+02  0.51100000000E-03 0.  1.
         12    1    3    3    0    0 -0.69431359028E+01 -0.63977839566E+01 -0.16613402556E+02  0.19108739367E+02  0.00000000000E+00 0. -1.
</event>
<event>
 7    1  0.8398055E-009  0.4614232E+02  0.7816164E-02  0.1320468E+00
        -11   -1    0    0    0    0  0.00000000000E+00  0.00000000000E+00  0.45593999997E+02  0.45594000000E+02  0.51100000000E-03 0. -1.
         11   -1    0    0    0    0 -0.00000000000E+00 -0.00000000000E+00 -0.45593999997E+02  0.45594000000E+02  0.51100000000E-03 0.  1.
    9900012    2    1    2    0    0  0.38202574842E+02 -0.85387677341E+01 -0.22288251013E+02  0.46142318607E+02  0.10000007710E+02 0.  0.
         12    1    1    2    0    0 -0.38202574842E+02  0.85387677341E+01  0.22288251013E+02  0.45045681393E+02  0.00000000000E+00 0. -1.
         11    1    3    3    0    0  0.23704843175E+01  0.56658655544E+00 -0.23158463798E+01  0.33620471353E+01  0.51100000000E-03 0. -1.
        -11    1    3    3    0    0  0.16670995510E+02 -0.83730678683E+01 -0.96736844546E+01  0.21014531353E+02  0.51100000000E-03 0.  1.
        -12    1    3    3    0    0  0.19161095015E+02 -0.73228642127E+00 -0.10298720179E+02  0.21765740118E+02  0.00000000000E+00 0.  1.
</event>
<event>
 7    1  0.8398055E-009  0.4614232E+02  0.7816164E-02  0.1320468E+00
        -11   -1    0    0    0    0  0.00000000000E+00  0.00000000000E+00  0.45593999997E+02  0.45594000000E+02  0.51100000000E-03 0. -1.
         11   -1    0    0    0    0 -0.00000000000E+00 -0.00000000000E+00 -0.45593999997E+02  0.45594000000E+02  0.51100000000E-03 0.  1.
    9900012    2    1    2    0    0  0.10898668481E+02  0.16328616361E+02  0.40542678237E+02  0.46142318236E+02  0.10000004332E+02 0.  0.
        -12    1    1    2    0    0 -0.10898668481E+02 -0.16328616361E+02 -0.40542678237E+02  0.45045681764E+02  0.00000000000E+00 0.  1.
         11    1    3    3    0    0  0.19765857032E+01  0.90764618968E+00  0.10332183867E+02  0.10558633262E+02  0.51100000000E-03 0.  1.
        -11    1    3    3    0    0  0.95414275618E+01  0.15182374129E+02  0.29866657296E+02  0.34836195865E+02  0.51100000000E-03 0. -1.
        -12    1    3    3    0    0 -0.61934478401E+00  0.23859604277E+00  0.34383707447E+00  0.74748910821E+00  0.00000000000E+00 0.  1.
</event>
<event>
 7    1  0.8398055E-009  0.4614232E+02  0.7816164E-02  0.1320468E+00
        -11   -1    0    0    0    0  0.00000000000E+00  0.00000000000E+00  0.45593999997E+02  0.45594000000E+02  0.51100000000E-03 0. -1.
         11   -1    0    0    0    0 -0.00000000000E+00 -0.00000000000E+00 -0.45593999997E+02  0.45594000000E+02  0.51100000000E-03 0.  1.
    9900012    2    1    2    0    0  0.73164251302E+01 -0.40492717762E+02  0.18328210078E+02  0.46142317042E+02  0.99999934437E+01 0.  0.
        -12    1    1    2    0    0 -0.73164251302E+01  0.40492717762E+02 -0.18328210078E+02  0.45045682958E+02  0.00000000000E+00 0.  1.
         11    1    3    3    0    0  0.41156433360E+01 -0.14203390143E+02  0.79826114016E+01  0.16804668895E+02  0.51100000000E-03 0. -1.
        -11    1    3    3    0    0 -0.20125786907E+01 -0.35368962116E+01  0.21210352327E+01  0.45889975503E+01  0.51100000000E-03 0.  1.
         12    1    3    3    0    0  0.52133604848E+01 -0.22752431408E+02  0.82245634441E+01  0.24748650597E+02  0.00000000000E+00 0. -1.
</event>
<event>
 7    1  0.8654013E-009  0.4614232E+02  0.7816164E-02  0.1320468E+00
        -11   -1    0    0    0    0  0.00000000000E+00  0.00000000000E+00  0.45593999997E+02  0.45594000000E+02  0.51100000000E-03 0. -1.
         11   -1    0    0    0    0 -0.00000000000E+00 -0.00000000000E+00 -0.45593999997E+02  0.45594000000E+02  0.51100000000E-03 0.  1.
    9900012    2    1    2    0    0 -0.34499735587E+01 -0.47720235973E+01  0.44659141130E+02  0.46142318595E+02  0.10000007608E+02 0.  0.
        -12    1    1    2    0    0  0.34499735587E+01  0.47720235973E+01 -0.44659141130E+02  0.45045681405E+02  0.00000000000E+00 0.  1.
         11    1    3    3    0    0 -0.27464127743E+00 -0.37467396308E+00 -0.29945911904E+00  0.55270646367E+00  0.51100000000E-03 0. -1.
        -11    1    3    3    0    0  0.64140389934E+00 -0.43014290838E-01  0.68662636613E+00  0.94058769877E+00  0.51100000000E-03 0.  1.
         12    1    3    3    0    0 -0.38167361806E+01 -0.43543353434E+01  0.44271973883E+02  0.44649024433E+02  0.00000000000E+00 0. -1.
</event>
<event>
 7    1  0.8398055E-009  0.4614232E+02  0.7816164E-02  0.1320468E+00
        -11   -1    0    0    0    0  0.00000000000E+00  0.00000000000E+00  0.45593999997E+02  0.45594000000E+02  0.51100000000E-03 0. -1.
         11   -1    0    0    0    0 -0.00000000000E+00 -0.00000000000E+00 -0.45593999997E+02  0.45594000000E+02  0.51100000000E-03 0.  1.
    9900012    2    1    2    0    0  0.34197315326E+02 -0.75768659014E+01  0.28323986019E+02  0.46142318116E+02  0.10000003238E+02 0.  0.
        -12    1    1    2    0    0 -0.34197315326E+02  0.75768659014E+01 -0.28323986019E+02  0.45045681884E+02  0.00000000000E+00 0.  1.
         11    1    3    3    0    0  0.19624152099E+02 -0.31347982030E+01  0.20074233334E+02  0.28247285703E+02  0.51100000000E-03 0. -1.
        -11    1    3    3    0    0  0.79235073136E+01 -0.19473693223E+01  0.19215041268E+01  0.83825052219E+01  0.51100000000E-03 0.  1.
        -12    1    3    3    0    0  0.66496559131E+01 -0.24946983761E+01  0.63282485585E+01  0.95125271915E+01  0.00000000000E+00 0.  1.
</event>
<event>
 7    1  0.8398055E-009  0.4614231E+02  0.7816164E-02  0.1320468E+00
        -11   -1    0    0    0    0  0.00000000000E+00  0.00000000000E+00  0.45593999997E+02  0.45594000000E+02  0.51100000000E-03 0. -1.
         11   -1    0    0    0    0 -0.00000000000E+00 -0.00000000000E+00 -0.45593999997E+02  0.45594000000E+02  0.51100000000E-03 0.  1.
    9900012    2    1    2    0    0 -0.87155630903E+01  0.14625244248E+02  0.41704378183E+02  0.46142312427E+02  0.99999513600E+01 0.  0.
        -12    1    1    2    0    0  0.87155630903E+01 -0.14625244248E+02 -0.41704378183E+02  0.45045687573E+02  0.00000000000E+00 0.  1.
         11    1    3    3    0    0 -0.71437632948E+01  0.63145478086E+01  0.24679447609E+02  0.26457172989E+02  0.51100000000E-03 0. -1.
        -11    1    3    3    0    0 -0.15651502699E+01  0.22253741654E+01  0.17300468203E+01  0.32241352027E+01  0.51100000000E-03 0.  1.
        -12    1    3    3    0    0 -0.66495255973E-02  0.60853222736E+01  0.15294883754E+02  0.16461004235E+02  0.00000000000E+00 0.  1.
</event>
<event>
 7    1  0.8398055E-009  0.4614232E+02  0.7816164E-02  0.1320468E+00
        -11   -1    0    0    0    0  0.00000000000E+00  0.00000000000E+00  0.45593999997E+02  0.45594000000E+02  0.51100000000E-03 0. -1.
         11   -1    0    0    0    0 -0.00000000000E+00 -0.00000000000E+00 -0.45593999997E+02  0.45594000000E+02  0.51100000000E-03 0.  1.
    9900012    2    1    2    0    0 -0.29499897833E+02  0.30411189410E+01 -0.33906062706E+02  0.46142318023E+02  0.10000002386E+02 0.  0.
         12    1    1    2    0    0  0.29499897833E+02 -0.30411189410E+01  0.33906062706E+02  0.45045681977E+02  0.00000000000E+00 0. -1.
         11    1    3    3    0    0 -0.36280985901E+01  0.14495394094E+01 -0.80238259810E+01  0.89244634300E+01  0.51100000000E-03 0. -1.
        -11    1    3    3    0    0 -0.17494581812E+02  0.23985631434E+01 -0.21186612487E+02  0.27580537465E+02  0.51100000000E-03 0.  1.
        -12    1    3    3    0    0 -0.83772174309E+01 -0.80698361182E+00 -0.46956242377E+01  0.96373171275E+01  0.00000000000E+00 0.  1.
</event>
<event>
 7    1  0.8398055E-009  0.4614232E+02  0.7816164E-02  0.1320468E+00
        -11   -1    0    0    0    0  0.00000000000E+00  0.00000000000E+00  0.45593999997E+02  0.45594000000E+02  0.51100000000E-03 0. -1.
         11   -1    0    0    0    0 -0.00000000000E+00 -0.00000000000E+00 -0.45593999997E+02  0.45594000000E+02  0.51100000000E-03 0.  1.
    9900012    2    1    2    0    0  0.39900784690E+02 -0.79879288764E+01  0.19319261230E+02  0.46142317842E+02  0.10000000740E+02 0.  0.
        -12    1    1    2    0    0 -0.39900784690E+02  0.79879288764E+01 -0.19319261230E+02  0.45045682158E+02  0.00000000000E+00 0.  1.
         11    1    3    3    0    0  0.44061550131E+01  0.74537655329E+00  0.10352653017E+01  0.45871083170E+01  0.51100000000E-03 0. -1.
        -11    1    3    3    0    0  0.37666431051E+01 -0.18867601493E+01 -0.17278267479E+00  0.42163157206E+01  0.51100000000E-03 0.  1.
         12    1    3    3    0    0  0.31727986572E+02 -0.68465452803E+01  0.18456778603E+02  0.37338893805E+02  0.00000000000E+00 0. -1.
</event>
<event>
 7    1  0.8398055E-009  0.4614232E+02  0.7816164E-02  0.1320468E+00
        -11   -1    0    0    0    0  0.00000000000E+00  0.00000000000E+00  0.45593999997E+02  0.45594000000E+02  0.51100000000E-03 0. -1.
         11   -1    0    0    0    0 -0.00000000000E+00 -0.00000000000E+00 -0.45593999997E+02  0.45594000000E+02  0.51100000000E-03 0.  1.
    9900012    2    1    2    0    0  0.20850281115E+02 -0.13614858829E+02  0.37536846844E+02  0.46142317915E+02  0.10000001403E+02 0.  0.
        -12    1    1    2    0    0 -0.20850281115E+02  0.13614858829E+02 -0.37536846844E+02  0.45045682085E+02  0.00000000000E+00 0.  1.
         11    1    3    3    0    0  0.61497456590E+01 -0.29469043582E+01  0.76297455096E+01  0.10233114568E+02  0.51100000000E-03 0. -1.
        -11    1    3    3    0    0  0.14272187130E+02 -0.70552199079E+01  0.26557163789E+02  0.30963759497E+02  0.51100000000E-03 0.  1.
        -12    1    3    3    0    0  0.42834832635E+00 -0.36127345630E+01  0.33499375457E+01  0.49454438498E+01  0.00000000000E+00 0.  1.
</event>
<event>
 7    1  0.8398055E-009  0.4614232E+02  0.7816164E-02  0.1320468E+00
        -11   -1    0    0    0    0  0.00000000000E+00  0.00000000000E+00  0.45593999997E+02  0.45594000000E+02  0.51100000000E-03 0.  1.
         11   -1    0    0    0    0 -0.00000000000E+00 -0.00000000000E+00 -0.45593999997E+02  0.45594000000E+02  0.51100000000E-03 0. -1.
    9900012    2    1    2    0    0 -0.27081102271E+02 -0.26166767734E+02  0.24718973068E+02  0.46142318039E+02  0.10000002530E+02 0.  0.
        -12    1    1    2    0    0  0.27081102271E+02  0.26166767734E+02 -0.24718973068E+02  0.45045681961E+02  0.00000000000E+00 0.  1.
         11    1    3    3    0    0 -0.63210872373E+01 -0.11595945387E+02  0.75736092356E+01  0.15224376848E+02  0.51100000000E-03 0. -1.
        -11    1    3    3    0    0 -0.68766023292E+01 -0.45179772301E+01  0.80607384181E+01  0.11518475678E+02  0.51100000000E-03 0.  1.
         12    1    3    3    0    0 -0.13883412704E+02 -0.10052845117E+02  0.90846254139E+01  0.19399465512E+02  0.00000000000E+00 0. -1.
</event>
<event>
 7    1  0.8398055E-009  0.4614232E+02  0.7816164E-02  0.1320468E+00
        -11   -1    0    0    0    0  0.00000000000E+00  0.00000000000E+00  0.45593999997E+02  0.45594000000E+02  0.51100000000E-03 0.  1.
         11   -1    0    0    0    0 -0.00000000000E+00 -0.00000000000E+00 -0.45593999997E+02  0.45594000000E+02  0.51100000000E-03 0. -1.
    9900012    2    1    2    0    0  0.40938299270E+02 -0.16682330088E+02  0.86526850403E+01  0.46142318268E+02  0.10000004623E+02 0.  0.
        -12    1    1    2    0    0 -0.40938299270E+02  0.16682330088E+02 -0.86526850403E+01  0.45045681732E+02  0.00000000000E+00 0.  1.
         11    1    3    3    0    0  0.32049158365E+02 -0.11215959913E+02  0.59957328971E+01  0.34480358494E+02  0.51100000000E-03 0. -1.
        -11    1    3    3    0    0  0.24310137411E+01 -0.25879530922E+00  0.23023655362E+01  0.33582272325E+01  0.51100000000E-03 0.  1.
         12    1    3    3    0    0  0.64581271641E+01 -0.52075748667E+01  0.35458660701E+00  0.83037325416E+01  0.00000000000E+00 0. -1.
</event>
<event>
 7    1  0.8398055E-009  0.4614232E+02  0.7816164E-02  0.1320468E+00
        -11   -1    0    0    0    0  0.00000000000E+00  0.00000000000E+00  0.45593999997E+02  0.45594000000E+02  0.51100000000E-03 0. -1.
         11   -1    0    0    0    0 -0.00000000000E+00 -0.00000000000E+00 -0.45593999997E+02  0.45594000000E+02  0.51100000000E-03 0.  1.
    9900012    2    1    2    0    0 -0.12937585858E+02  0.19489828380E+02 -0.38495181249E+02  0.46142317437E+02  0.99999970477E+01 0.  0.
         12    1    1    2    0    0  0.12937585858E+02 -0.19489828380E+02  0.38495181249E+02  0.45045682563E+02  0.00000000000E+00 0. -1.
         11    1    3    3    0    0  0.78967917856E+00  0.71370325306E+00 -0.58917826291E+01  0.59871586206E+01  0.51100000000E-03 0. -1.
        -11    1    3    3    0    0 -0.63140935489E+01  0.74325750621E+01 -0.11537167694E+02  0.15106858974E+02  0.51100000000E-03 0.  1.
         12    1    3    3    0    0 -0.74131714879E+01  0.11343550065E+02 -0.21066230926E+02  0.25048299842E+02  0.00000000000E+00 0. -1.
</event>
<event>
 7    1  0.8398055E-009  0.4614232E+02  0.7816164E-02  0.1320468E+00
        -11   -1    0    0    0    0  0.00000000000E+00  0.00000000000E+00  0.45593999997E+02  0.45594000000E+02  0.51100000000E-03 0. -1.
         11   -1    0    0    0    0 -0.00000000000E+00 -0.00000000000E+00 -0.45593999997E+02  0.45594000000E+02  0.51100000000E-03 0.  1.
    9900012    2    1    2    0    0  0.28112237381E+02  0.11527733462E+02  0.33255480042E+02  0.46142317830E+02  0.10000000630E+02 0.  0.
        -12    1    1    2    0    0 -0.28112237381E+02 -0.11527733462E+02 -0.33255480042E+02  0.45045682170E+02  0.00000000000E+00 0.  1.
         11    1    3    3    0    0  0.76586878988E+01  0.38949619709E+01  0.68505166427E+01  0.10988894741E+02  0.51100000000E-03 0. -1.
        -11    1    3    3    0    0  0.19502963040E+02  0.50488106282E+01  0.21078734985E+02  0.29157659798E+02  0.51100000000E-03 0.  1.
         12    1    3    3    0    0  0.95058644251E+00  0.25839608634E+01  0.53262284137E+01  0.59957632911E+01  0.00000000000E+00 0. -1.
</event>
<event>
 7    1  0.8787191E-009  0.4614232E+02  0.7816164E-02  0.1320468E+00
        -11   -1    0    0    0    0  0.00000000000E+00  0.00000000000E+00  0.45593999997E+02  0.45594000000E+02  0.51100000000E-03 0. -1.
         11   -1    0    0    0    0 -0.00000000000E+00 -0.00000000000E+00 -0.45593999997E+02  0.45594000000E+02  0.51100000000E-03 0.  1.
    9900012    2    1    2    0    0 -0.29056237143E+02  0.10933048296E+02 -0.32639193693E+02  0.46142318444E+02  0.10000006226E+02 0.  0.
         12    1    1    2    0    0  0.29056237143E+02 -0.10933048296E+02  0.32639193693E+02  0.45045681556E+02  0.00000000000E+00 0. -1.
         11    1    3    3    0    0 -0.69222639828E+00 -0.15034891471E+00  0.15157518311E+00  0.72440146319E+00  0.51100000000E-03 0. -1.
        -11    1    3    3    0    0 -0.18294979562E+02  0.63293878195E+01 -0.15261929120E+02  0.24651448397E+02  0.51100000000E-03 0.  1.
        -12    1    3    3    0    0 -0.10069031182E+02  0.47540093917E+01 -0.17528839756E+02  0.20766468583E+02  0.00000000000E+00 0.  1.
</event>
<event>
 7    1  0.8398055E-009  0.4614232E+02  0.7816164E-02  0.1320468E+00
        -11   -1    0    0    0    0  0.00000000000E+00  0.00000000000E+00  0.45593999997E+02  0.45594000000E+02  0.51100000000E-03 0. -1.
         11   -1    0    0    0    0 -0.00000000000E+00 -0.00000000000E+00 -0.45593999997E+02  0.45594000000E+02  0.51100000000E-03 0.  1.
    9900012    2    1    2    0    0 -0.72929978361E+01  0.15869282794E+01 -0.44423049237E+02  0.46142318051E+02  0.10000002641E+02 0.  0.
         12    1    1    2    0    0  0.72929978361E+01 -0.15869282794E+01  0.44423049237E+02  0.45045681949E+02  0.00000000000E+00 0. -1.
         11    1    3    3    0    0 -0.16342649490E+01  0.24407143470E+00 -0.18901434226E+01  0.25105846347E+01  0.51100000000E-03 0. -1.
        -11    1    3    3    0    0 -0.12181823999E+01 -0.25784195985E+01 -0.24151529716E+02  0.24319305168E+02  0.51100000000E-03 0.  1.
        -12    1    3    3    0    0 -0.44405504872E+01  0.39212764432E+01 -0.18381376098E+02  0.19312428248E+02  0.00000000000E+00 0.  1.
</event>
<event>
 7    1  0.8398055E-009  0.4614232E+02  0.7816164E-02  0.1320468E+00
        -11   -1    0    0    0    0  0.00000000000E+00  0.00000000000E+00  0.45593999997E+02  0.45594000000E+02  0.51100000000E-03 0.  1.
         11   -1    0    0    0    0 -0.00000000000E+00 -0.00000000000E+00 -0.45593999997E+02  0.45594000000E+02  0.51100000000E-03 0. -1.
    9900012    2    1    2    0    0  0.73520333575E+01 -0.38860546976E+02  0.21561978532E+02  0.46142318476E+02  0.10000006516E+02 0.  0.
         12    1    1    2    0    0 -0.73520333575E+01  0.38860546976E+02 -0.21561978532E+02  0.45045681524E+02  0.00000000000E+00 0. -1.
         11    1    3    3    0    0  0.31018861694E+01 -0.54107507435E+01  0.38608771350E+01  0.73351410299E+01  0.51100000000E-03 0. -1.
        -11    1    3    3    0    0 -0.17585061287E+01 -0.10092006493E+02  0.70874934943E+01  0.12456865703E+02  0.51100000000E-03 0.  1.
         12    1    3    3    0    0  0.60086533169E+01 -0.23357789740E+02  0.10613607902E+02  0.26350311742E+02  0.00000000000E+00 0. -1.
</event>
<event>
 7    1  0.8398055E-009  0.4614232E+02  0.7816164E-02  0.1320468E+00
        -11   -1    0    0    0    0  0.00000000000E+00  0.00000000000E+00  0.45593999997E+02  0.45594000000E+02  0.51100000000E-03 0. -1.
         11   -1    0    0    0    0 -0.00000000000E+00 -0.00000000000E+00 -0.45593999997E+02  0.45594000000E+02  0.51100000000E-03 0.  1.
    9900012    2    1    2    0    0  0.22519709438E+02 -0.61519755372E+01  0.38524397030E+02  0.46142320044E+02  0.10000020819E+02 0.  0.
        -12    1    1    2    0    0 -0.22519709438E+02  0.61519755372E+01 -0.38524397030E+02  0.45045679956E+02  0.00000000000E+00 0.  1.
         11    1    3    3    0    0  0.24278356804E+00 -0.38681803071E+00  0.58459785896E+01  0.58637904107E+01  0.51100000000E-03 0. -1.
        -11    1    3    3    0    0  0.55652590567E+01 -0.31241755655E+01  0.65069175902E+01  0.91144148533E+01  0.51100000000E-03 0.  1.
        -12    1    3    3    0    0  0.16711666813E+02 -0.26409819410E+01  0.26171500850E+02  0.31164114780E+02  0.00000000000E+00 0.  1.
</event>
<event>
 7    1  0.1450239E-008  0.4614231E+02  0.7816164E-02  0.1320468E+00
        -11   -1    0    0    0    0  0.00000000000E+00  0.00000000000E+00  0.45593999997E+02  0.45594000000E+02  0.51100000000E-03 0. -1.
         11   -1    0    0    0    0 -0.00000000000E+00 -0.00000000000E+00 -0.45593999997E+02  0.45594000000E+02  0.51100000000E-03 0.  1.
    9900012    2    1    2    0    0  0.30136746390E+02  0.18905686552E+02 -0.27630876101E+02  0.46142314512E+02  0.99999703751E+01 0.  0.
         12    1    1    2    0    0 -0.30136746390E+02 -0.18905686552E+02  0.27630876101E+02  0.45045685488E+02  0.00000000000E+00 0. -1.
         11    1    3    3    0    0  0.29854075406E+01  0.36445921689E+01 -0.13445739540E+01  0.48993458380E+01  0.51100000000E-03 0. -1.
        -11    1    3    3    0    0  0.71928879808E+00  0.39651245916E-01  0.30054923663E+00  0.78056306671E+00  0.51100000000E-03 0.  1.
        -12    1    3    3    0    0  0.26432050051E+02  0.15221443137E+02 -0.26586851384E+02  0.40462405608E+02  0.00000000000E+00 0.  1.
</event>
<event>
 7    1  0.8398055E-009  0.4614232E+02  0.7816164E-02  0.1320468E+00
        -11   -1    0    0    0    0  0.00000000000E+00  0.00000000000E+00  0.45593999997E+02  0.45594000000E+02  0.51100000000E-03 0. -1.
         11   -1    0    0    0    0 -0.00000000000E+00 -0.00000000000E+00 -0.45593999997E+02  0.45594000000E+02  0.51100000000E-03 0.  1.
    9900012    2    1    2    0    0  0.34772488300E+02  0.15220815113E+02 -0.24255193745E+02  0.46142316756E+02  0.99999908371E+01 0.  0.
         12    1    1    2    0    0 -0.34772488300E+02 -0.15220815113E+02  0.24255193745E+02  0.45045683244E+02  0.00000000000E+00 0. -1.
         11    1    3    3    0    0  0.13604845108E+02  0.55211339508E+01 -0.66030904386E+01  0.16098929596E+02  0.51100000000E-03 0. -1.
        -11    1    3    3    0    0  0.10592371856E+02  0.60848363033E+01 -0.51019483350E+01  0.13238332654E+02  0.51100000000E-03 0.  1.
        -12    1    3    3    0    0  0.10575271336E+02  0.36148448593E+01 -0.12550154971E+02  0.16805054507E+02  0.00000000000E+00 0.  1.
</event>
<event>
 7    1  0.8398055E-009  0.4614232E+02  0.7816164E-02  0.1320468E+00
        -11   -1    0    0    0    0  0.00000000000E+00  0.00000000000E+00  0.45593999997E+02  0.45594000000E+02  0.51100000000E-03 0. -1.
         11   -1    0    0    0    0 -0.00000000000E+00 -0.00000000000E+00 -0.45593999997E+02  0.45594000000E+02  0.51100000000E-03 0.  1.
    9900012    2    1    2    0    0 -0.21760083427E+01  0.11014783307E+02 -0.43623996172E+02  0.46142317569E+02  0.99999982508E+01 0.  0.
         12    1    1    2    0    0  0.21760083427E+01 -0.11014783307E+02  0.43623996172E+02  0.45045682431E+02  0.00000000000E+00 0. -1.
         11    1    3    3    0    0 -0.27877737810E+01  0.13544246939E+00 -0.38011444674E+01  0.47157954620E+01  0.51100000000E-03 0. -1.
        -11    1    3    3    0    0  0.18414737113E+01  0.37342175083E+01 -0.14260003960E+02  0.14855407064E+02  0.51100000000E-03 0.  1.
        -12    1    3    3    0    0 -0.12297082729E+01  0.71451233295E+01 -0.25562847745E+02  0.26571115043E+02  0.00000000000E+00 0.  1.
</event>
<event>
 7    1  0.8398055E-009  0.4614232E+02  0.7816164E-02  0.1320468E+00
        -11   -1    0    0    0    0  0.00000000000E+00  0.00000000000E+00  0.45593999997E+02  0.45594000000E+02  0.51100000000E-03 0. -1.
         11   -1    0    0    0    0 -0.00000000000E+00 -0.00000000000E+00 -0.45593999997E+02  0.45594000000E+02  0.51100000000E-03 0.  1.
    9900012    2    1    2    0    0  0.26344451167E+01  0.31981387834E+02  0.31612720380E+02  0.46142316981E+02  0.99999928866E+01 0.  0.
        -12    1    1    2    0    0 -0.26344451167E+01 -0.31981387834E+02 -0.31612720380E+02  0.45045683019E+02  0.00000000000E+00 0.  1.
         11    1    3    3    0    0  0.79748053297E+00  0.25989862207E+01  0.46648161665E+01  0.53991864854E+01  0.51100000000E-03 0. -1.
        -11    1    3    3    0    0  0.20799043277E+01  0.25676358183E+01  0.54514100227E+01  0.63746864397E+01  0.51100000000E-03 0.  1.
        -12    1    3    3    0    0 -0.24293974400E+00  0.26814765795E+02  0.21496494191E+02  0.34368444056E+02  0.00000000000E+00 0.  1.
</event>
<event>
 7    1  0.8398055E-009  0.4614232E+02  0.7816164E-02  0.1320468E+00
        -11   -1    0    0    0    0  0.00000000000E+00  0.00000000000E+00  0.45593999997E+02  0.45594000000E+02  0.51100000000E-03 0. -1.
         11   -1    0    0    0    0 -0.00000000000E+00 -0.00000000000E+00 -0.45593999997E+02  0.45594000000E+02  0.51100000000E-03 0.  1.
    9900012    2    1    2    0    0  0.11536896808E+02  0.40788640065E+01 -0.43351774392E+02  0.46142318048E+02  0.10000002618E+02 0.  0.
         12    1    1    2    0    0 -0.11536896808E+02 -0.40788640065E+01  0.43351774392E+02  0.45045681952E+02  0.00000000000E+00 0. -1.
         11    1    3    3    0    0  0.28771558369E+01  0.35582536306E+01 -0.15141701149E+02  0.15818037443E+02  0.51100000000E-03 0. -1.
        -11    1    3    3    0    0  0.72054811481E+01  0.31397236216E+01 -0.23103125765E+02  0.24403508833E+02  0.51100000000E-03 0.  1.
         12    1    3    3    0    0  0.14542598229E+01 -0.26191132457E+01 -0.51069474779E+01  0.59207717713E+01  0.00000000000E+00 0. -1.
</event>
<event>
 7    1  0.8398055E-009  0.4614232E+02  0.7816164E-02  0.1320468E+00
        -11   -1    0    0    0    0  0.00000000000E+00  0.00000000000E+00  0.45593999997E+02  0.45594000000E+02  0.51100000000E-03 0. -1.
         11   -1    0    0    0    0 -0.00000000000E+00 -0.00000000000E+00 -0.45593999997E+02  0.45594000000E+02  0.51100000000E-03 0.  1.
    9900012    2    1    2    0    0 -0.14511913839E+02  0.10741886968E+01  0.42630551714E+02  0.46142318031E+02  0.10000002457E+02 0.  0.
        -12    1    1    2    0    0  0.14511913839E+02 -0.10741886968E+01 -0.42630551714E+02  0.45045681969E+02  0.00000000000E+00 0.  1.
         11    1    3    3    0    0 -0.48354566919E+01 -0.36991311541E+01  0.20405557543E+02  0.21294412216E+02  0.51100000000E-03 0. -1.
        -11    1    3    3    0    0 -0.58410695862E+01  0.24010840822E+01  0.10105571061E+02  0.11916621392E+02  0.51100000000E-03 0.  1.
        -12    1    3    3    0    0 -0.38353875611E+01  0.23722357687E+01  0.12119423110E+02  0.12931284422E+02  0.00000000000E+00 0.  1.
</event>
<event>
 7    1  0.8398055E-009  0.4614232E+02  0.7816164E-02  0.1320468E+00
        -11   -1    0    0    0    0  0.00000000000E+00  0.00000000000E+00  0.45593999997E+02  0.45594000000E+02  0.51100000000E-03 0. -1.
         11   -1    0    0    0    0 -0.00000000000E+00 -0.00000000000E+00 -0.45593999997E+02  0.45594000000E+02  0.51100000000E-03 0.  1.
    9900012    2    1    2    0    0 -0.15068341660E+02 -0.28071321444E+02  0.31844300747E+02  0.46142317653E+02  0.99999990141E+01 0.  0.
        -12    1    1    2    0    0  0.15068341660E+02  0.28071321444E+02 -0.31844300747E+02  0.45045682347E+02  0.00000000000E+00 0.  1.
         11    1    3    3    0    0 -0.11469132798E+02 -0.18958425962E+02  0.19276795082E+02  0.29369333513E+02  0.51100000000E-03 0. -1.
        -11    1    3    3    0    0 -0.33968861114E+01 -0.38817633923E+01  0.32831095491E+01  0.61143872024E+01  0.51100000000E-03 0.  1.
         12    1    3    3    0    0 -0.20232275072E+00 -0.52311320904E+01  0.92843961163E+01  0.10658596938E+02  0.00000000000E+00 0. -1.
</event>
<event>
 7    1  0.8398055E-009  0.4614232E+02  0.7816164E-02  0.1320468E+00
        -11   -1    0    0    0    0  0.00000000000E+00  0.00000000000E+00  0.45593999997E+02  0.45594000000E+02  0.51100000000E-03 0. -1.
         11   -1    0    0    0    0 -0.00000000000E+00 -0.00000000000E+00 -0.45593999997E+02  0.45594000000E+02  0.51100000000E-03 0.  1.
    9900012    2    1    2    0    0 -0.10368695193E+02 -0.42147545308E+02  0.12049401161E+02  0.46142317812E+02  0.10000000460E+02 0.  0.
        -12    1    1    2    0    0  0.10368695193E+02  0.42147545308E+02 -0.12049401161E+02  0.45045682188E+02  0.00000000000E+00 0.  1.
         11    1    3    3    0    0 -0.32988923120E+01 -0.18129139841E+02  0.48167168959E+01  0.19045975002E+02  0.51100000000E-03 0. -1.
        -11    1    3    3    0    0  0.74577335386E+00 -0.10237028597E+02  0.31222598143E+01  0.10728533870E+02  0.51100000000E-03 0.  1.
        -12    1    3    3    0    0 -0.78155762349E+01 -0.13781376869E+02  0.41104244512E+01  0.16367808939E+02  0.00000000000E+00 0.  1.
</event>
<event>
 7    1  0.8398055E-009  0.4614232E+02  0.7816164E-02  0.1320468E+00
        -11   -1    0    0    0    0  0.00000000000E+00  0.00000000000E+00  0.45593999997E+02  0.45594000000E+02  0.51100000000E-03 0. -1.
         11   -1    0    0    0    0 -0.00000000000E+00 -0.00000000000E+00 -0.45593999997E+02  0.45594000000E+02  0.51100000000E-03 0.  1.
    9900012    2    1    2    0    0  0.17813615129E+01  0.30494553890E+02 -0.33106229639E+02  0.46142317558E+02  0.99999981498E+01 0.  0.
         12    1    1    2    0    0 -0.17813615129E+01 -0.30494553890E+02  0.33106229639E+02  0.45045682442E+02  0.00000000000E+00 0. -1.
         11    1    3    3    0    0 -0.48448076725E+00  0.63771424526E+00  0.49204881070E+00  0.93995391678E+00  0.51100000000E-03 0. -1.
        -11    1    3    3    0    0  0.11943291076E+01  0.15343703434E+02 -0.14104082844E+02  0.20875363715E+02  0.51100000000E-03 0.  1.
        -12    1    3    3    0    0  0.10715131725E+01  0.14513136210E+02 -0.19494195605E+02  0.24326999926E+02  0.00000000000E+00 0.  1.
</event>
<event>
 7    1  0.8398055E-009  0.4614232E+02  0.7816164E-02  0.1320468E+00
        -11   -1    0    0    0    0  0.00000000000E+00  0.00000000000E+00  0.45593999997E+02  0.45594000000E+02  0.51100000000E-03 0. -1.
         11   -1    0    0    0    0 -0.00000000000E+00 -0.00000000000E+00 -0.45593999997E+02  0.45594000000E+02  0.51100000000E-03 0.  1.
    9900012    2    1    2    0    0  0.29925557520E+02  0.49569276360E+01 -0.33301701873E+02  0.46142317942E+02  0.10000001645E+02 0.  0.
         12    1    1    2    0    0 -0.29925557520E+02 -0.49569276360E+01  0.33301701873E+02  0.45045682058E+02  0.00000000000E+00 0. -1.
         11    1    3    3    0    0  0.13375116763E+02  0.63142597293E+00 -0.94500675978E+01  0.16388905548E+02  0.51100000000E-03 0. -1.
        -11    1    3    3    0    0  0.97357305082E+01  0.48860555937E+01 -0.13488789986E+02  0.17337976910E+02  0.51100000000E-03 0.  1.
        -12    1    3    3    0    0  0.68147102484E+01 -0.56055393055E+00 -0.10362844290E+02  0.12415435484E+02  0.00000000000E+00 0.  1.
</event>
<event>
 7    1  0.8398055E-009  0.4614232E+02  0.7816164E-02  0.1320468E+00
        -11   -1    0    0    0    0  0.00000000000E+00  0.00000000000E+00  0.45593999997E+02  0.45594000000E+02  0.51100000000E-03 0. -1.
         11   -1    0    0    0    0 -0.00000000000E+00 -0.00000000000E+00 -0.45593999997E+02  0.45594000000E+02  0.51100000000E-03 0.  1.
    9900012    2    1    2    0    0  0.48736606359E+01 -0.35395077965E+02  0.27432635085E+02  0.46142316746E+02  0.99999907438E+01 0.  0.
        -12    1    1    2    0    0 -0.48736606359E+01  0.35395077965E+02 -0.27432635085E+02  0.45045683254E+02  0.00000000000E+00 0.  1.
         11    1    3    3    0    0 -0.49207488729E+00 -0.34028402662E+01  0.38850167425E+01  0.51879490093E+01  0.51100000000E-03 0. -1.
        -11    1    3    3    0    0  0.66098398203E+01 -0.31332107273E+02  0.21939237644E+02  0.38816505218E+02  0.51100000000E-03 0.  1.
        -12    1    3    3    0    0 -0.12441042971E+01 -0.66013042491E+00  0.16083806984E+01  0.21378625192E+01  0.00000000000E+00 0.  1.
</event>
<event>
 7    1  0.8398055E-009  0.4614232E+02  0.7816164E-02  0.1320468E+00
        -11   -1    0    0    0    0  0.00000000000E+00  0.00000000000E+00  0.45593999997E+02  0.45594000000E+02  0.51100000000E-03 0. -1.
         11   -1    0    0    0    0 -0.00000000000E+00 -0.00000000000E+00 -0.45593999997E+02  0.45594000000E+02  0.51100000000E-03 0.  1.
    9900012    2    1    2    0    0  0.24065017457E+02 -0.14745115077E+02 -0.35107975987E+02  0.46142318057E+02  0.10000002699E+02 0.  0.
         12    1    1    2    0    0 -0.24065017457E+02  0.14745115077E+02  0.35107975987E+02  0.45045681943E+02  0.00000000000E+00 0. -1.
         11    1    3    3    0    0  0.92086443342E+00 -0.15253680451E+01 -0.72151804224E+01  0.74319289398E+01  0.51100000000E-03 0. -1.
        -11    1    3    3    0    0  0.17547345123E+02 -0.10564985296E+02 -0.23138240578E+02  0.30901560033E+02  0.51100000000E-03 0.  1.
         12    1    3    3    0    0  0.55968079009E+01 -0.26547617350E+01 -0.47545549862E+01  0.78088290841E+01  0.00000000000E+00 0. -1.
</event>
<event>
 7    1  0.8398055E-009  0.4614232E+02  0.7816164E-02  0.1320468E+00
        -11   -1    0    0    0    0  0.00000000000E+00  0.00000000000E+00  0.45593999997E+02  0.45594000000E+02  0.51100000000E-03 0. -1.
         11   -1    0    0    0    0 -0.00000000000E+00 -0.00000000000E+00 -0.45593999997E+02  0.45594000000E+02  0.51100000000E-03 0.  1.
    9900012    2    1    2    0    0  0.23170901341E+02  0.23665161772E+01 -0.38556742369E+02  0.46142318188E+02  0.10000003895E+02 0.  0.
         12    1    1    2    0    0 -0.23170901341E+02 -0.23665161772E+01  0.38556742369E+02  0.45045681812E+02  0.00000000000E+00 0. -1.
         11    1    3    3    0    0  0.46039105957E+01 -0.21692226831E+01 -0.63954483310E+01  0.81733273174E+01  0.51100000000E-03 0. -1.
        -11    1    3    3    0    0  0.15158050416E+02  0.88272295751E+00 -0.24011848081E+02  0.28409761364E+02  0.51100000000E-03 0.  1.
        -12    1    3    3    0    0  0.34089403293E+01  0.36530159028E+01 -0.81494459569E+01  0.95592295066E+01  0.00000000000E+00 0.  1.
</event>
<event>
 7    1  0.8398055E-009  0.4614232E+02  0.7816164E-02  0.1320468E+00
        -11   -1    0    0    0    0  0.00000000000E+00  0.00000000000E+00  0.45593999997E+02  0.45594000000E+02  0.51100000000E-03 0. -1.
         11   -1    0    0    0    0 -0.00000000000E+00 -0.00000000000E+00 -0.45593999997E+02  0.45594000000E+02  0.51100000000E-03 0.  1.
    9900012    2    1    2    0    0 -0.15994087386E+02 -0.36529410483E+02 -0.20950054667E+02  0.46142318164E+02  0.10000003671E+02 0.  0.
         12    1    1    2    0    0  0.15994087386E+02  0.36529410483E+02  0.20950054667E+02  0.45045681836E+02  0.00000000000E+00 0. -1.
         11    1    3    3    0    0 -0.82479049421E+00 -0.53497352140E+01 -0.63899055687E+01  0.83744157800E+01  0.51100000000E-03 0. -1.
        -11    1    3    3    0    0 -0.97094403510E+00 -0.45720894604E+01 -0.23434830817E+01  0.52286372573E+01  0.51100000000E-03 0.  1.
        -12    1    3    3    0    0 -0.14198352857E+02 -0.26607585808E+02 -0.12216666017E+02  0.32539265126E+02  0.00000000000E+00 0.  1.
</event>
<event>
 7    1  0.8398055E-009  0.4614232E+02  0.7816164E-02  0.1320468E+00
        -11   -1    0    0    0    0  0.00000000000E+00  0.00000000000E+00  0.45593999997E+02  0.45594000000E+02  0.51100000000E-03 0. -1.
         11   -1    0    0    0    0 -0.00000000000E+00 -0.00000000000E+00 -0.45593999997E+02  0.45594000000E+02  0.51100000000E-03 0.  1.
    9900012    2    1    2    0    0  0.62219059384E+01 -0.43048211863E+01 -0.44405741702E+02  0.46142317687E+02  0.99999993202E+01 0.  0.
         12    1    1    2    0    0 -0.62219059384E+01  0.43048211863E+01  0.44405741702E+02  0.45045682313E+02  0.00000000000E+00 0. -1.
         11    1    3    3    0    0  0.23133496866E+01 -0.31685474851E+01 -0.61285162380E+01  0.72766744793E+01  0.51100000000E-03 0. -1.
        -11    1    3    3    0    0  0.38899603532E+00 -0.24955022801E+01 -0.22605753386E+02  0.22746404902E+02  0.51100000000E-03 0.  1.
        -12    1    3    3    0    0  0.35195602165E+01  0.13592285788E+01 -0.15671472078E+02  0.16119238305E+02  0.00000000000E+00 0.  1.
</event>
<event>
 7    1  0.8398055E-009  0.4614232E+02  0.7816164E-02  0.1320468E+00
        -11   -1    0    0    0    0  0.00000000000E+00  0.00000000000E+00  0.45593999997E+02  0.45594000000E+02  0.51100000000E-03 0.  1.
         11   -1    0    0    0    0 -0.00000000000E+00 -0.00000000000E+00 -0.45593999997E+02  0.45594000000E+02  0.51100000000E-03 0. -1.
    9900012    2    1    2    0    0  0.24231066235E+02  0.35766006949E+02 -0.12757806437E+02  0.46142318198E+02  0.10000003982E+02 0.  0.
         12    1    1    2    0    0 -0.24231066235E+02 -0.35766006949E+02  0.12757806437E+02  0.45045681802E+02  0.00000000000E+00 0. -1.
         11    1    3    3    0    0  0.35183687571E+01  0.77671081499E+01 -0.53618519445E+01  0.10072554009E+02  0.51100000000E-03 0. -1.
        -11    1    3    3    0    0  0.86271173335E+01  0.11826220049E+02 -0.60371251235E+01  0.15834567066E+02  0.51100000000E-03 0.  1.
         12    1    3    3    0    0  0.12085580144E+02  0.16172678750E+02 -0.13588293686E+01  0.20235197123E+02  0.00000000000E+00 0. -1.
</event>
<event>
 7    1  0.8398055E-009  0.4614232E+02  0.7816164E-02  0.1320468E+00
        -11   -1    0    0    0    0  0.00000000000E+00  0.00000000000E+00  0.45593999997E+02  0.45594000000E+02  0.51100000000E-03 0. -1.
         11   -1    0    0    0    0 -0.00000000000E+00 -0.00000000000E+00 -0.45593999997E+02  0.45594000000E+02  0.51100000000E-03 0.  1.
    9900012    2    1    2    0    0 -0.59699456156E+01  0.49442977011E+01  0.44373721558E+02  0.46142317684E+02  0.99999992994E+01 0.  0.
        -12    1    1    2    0    0  0.59699456156E+01 -0.49442977011E+01 -0.44373721558E+02  0.45045682316E+02  0.00000000000E+00 0.  1.
         11    1    3    3    0    0 -0.99833470138E+00  0.11597649490E+00  0.19896395096E+02  0.19921763496E+02  0.51100000000E-03 0. -1.
        -11    1    3    3    0    0 -0.15579434988E+00  0.45698821656E+01  0.11457951685E+02  0.12336642654E+02  0.51100000000E-03 0.  1.
        -12    1    3    3    0    0 -0.48158165643E+01  0.25843904060E+00  0.13019374776E+02  0.13883911534E+02  0.00000000000E+00 0.  1.
</event>
<event>
 7    1  0.8398055E-009  0.4614232E+02  0.7816164E-02  0.1320468E+00
        -11   -1    0    0    0    0  0.00000000000E+00  0.00000000000E+00  0.45593999997E+02  0.45594000000E+02  0.51100000000E-03 0. -1.
         11   -1    0    0    0    0 -0.00000000000E+00 -0.00000000000E+00 -0.45593999997E+02  0.45594000000E+02  0.51100000000E-03 0.  1.
    9900012    2    1    2    0    0 -0.43144296360E+02 -0.58369615016E+01 -0.11559107632E+02  0.46142318773E+02  0.10000009229E+02 0.  0.
         12    1    1    2    0    0  0.43144296360E+02  0.58369615016E+01  0.11559107632E+02  0.45045681227E+02  0.00000000000E+00 0. -1.
         11    1    3    3    0    0 -0.15794899781E+02 -0.49663578437E+00 -0.52579580337E+01  0.16654477750E+02  0.51100000000E-03 0. -1.
        -11    1    3    3    0    0 -0.26194132238E+02 -0.39167909001E+01 -0.71992319349E+01  0.27446361423E+02  0.51100000000E-03 0.  1.
         12    1    3    3    0    0 -0.11552643411E+01 -0.14235348171E+01  0.89808233686E+00  0.20414796000E+01  0.00000000000E+00 0. -1.
</event>
<event>
 7    1  0.8398055E-009  0.4614232E+02  0.7816164E-02  0.1320468E+00
        -11   -1    0    0    0    0  0.00000000000E+00  0.00000000000E+00  0.45593999997E+02  0.45594000000E+02  0.51100000000E-03 0. -1.
         11   -1    0    0    0    0 -0.00000000000E+00 -0.00000000000E+00 -0.45593999997E+02  0.45594000000E+02  0.51100000000E-03 0.  1.
    9900012    2    1    2    0    0 -0.39051411000E+01 -0.30475669974E+01  0.44772488856E+02  0.46142317077E+02  0.99999937651E+01 0.  0.
        -12    1    1    2    0    0  0.39051411000E+01  0.30475669974E+01 -0.44772488856E+02  0.45045682923E+02  0.00000000000E+00 0.  1.
         11    1    3    3    0    0 -0.22504908536E+01 -0.16297589578E+00  0.28004723251E+02  0.28095476413E+02  0.51100000000E-03 0. -1.
        -11    1    3    3    0    0 -0.32687283116E+01 -0.22944091929E+01  0.15215949908E+02  0.15731307326E+02  0.51100000000E-03 0.  1.
         12    1    3    3    0    0  0.16140780652E+01 -0.59018190867E+00  0.15518156969E+01  0.23155333388E+01  0.00000000000E+00 0. -1.
</event>
<event>
 7    1  0.8398055E-009  0.4614232E+02  0.7816164E-02  0.1320468E+00
        -11   -1    0    0    0    0  0.00000000000E+00  0.00000000000E+00  0.45593999997E+02  0.45594000000E+02  0.51100000000E-03 0. -1.
         11   -1    0    0    0    0 -0.00000000000E+00 -0.00000000000E+00 -0.45593999997E+02  0.45594000000E+02  0.51100000000E-03 0.  1.
    9900012    2    1    2    0    0 -0.90117172189E+01 -0.31944348407E+02 -0.30454246544E+02  0.46142316800E+02  0.99999912393E+01 0.  0.
         12    1    1    2    0    0  0.90117172189E+01  0.31944348407E+02  0.30454246544E+02  0.45045683200E+02  0.00000000000E+00 0. -1.
         11    1    3    3    0    0 -0.82656089993E+00 -0.98620441686E+01 -0.51779829738E+01  0.11169361040E+02  0.51100000000E-03 0. -1.
        -11    1    3    3    0    0 -0.84494467954E+01 -0.21696192422E+02 -0.23290228241E+02  0.32932546949E+02  0.51100000000E-03 0.  1.
        -12    1    3    3    0    0  0.26429047639E+00 -0.38611181642E+00 -0.19860353288E+01  0.20404088114E+01  0.00000000000E+00 0.  1.
</event>
<event>
 7    1  0.8398055E-009  0.4614232E+02  0.7816164E-02  0.1320468E+00
        -11   -1    0    0    0    0  0.00000000000E+00  0.00000000000E+00  0.45593999997E+02  0.45594000000E+02  0.51100000000E-03 0. -1.
         11   -1    0    0    0    0 -0.00000000000E+00 -0.00000000000E+00 -0.45593999997E+02  0.45594000000E+02  0.51100000000E-03 0.  1.
    9900012    2    1    2    0    0 -0.41228357276E+02 -0.52646508330E+01 -0.17367198236E+02  0.46142316892E+02  0.99999920762E+01 0.  0.
         12    1    1    2    0    0  0.41228357276E+02  0.52646508330E+01  0.17367198236E+02  0.45045683108E+02  0.00000000000E+00 0. -1.
         11    1    3    3    0    0 -0.80135542514E+01  0.16059543740E+01 -0.46341215835E+01  0.93952767018E+01  0.51100000000E-03 0. -1.
        -11    1    3    3    0    0 -0.18059687224E+02 -0.47659364075E+01 -0.10059604313E+02  0.21214666900E+02  0.51100000000E-03 0.  1.
         12    1    3    3    0    0 -0.15155115801E+02 -0.21046687995E+01 -0.26734723395E+01  0.15532373291E+02  0.00000000000E+00 0. -1.
</event>
<event>
 7    1  0.8398055E-009  0.4614232E+02  0.7816164E-02  0.1320468E+00
        -11   -1    0    0    0    0  0.00000000000E+00  0.00000000000E+00  0.45593999997E+02  0.45594000000E+02  0.51100000000E-03 0. -1.
         11   -1    0    0    0    0 -0.00000000000E+00 -0.00000000000E+00 -0.45593999997E+02  0.45594000000E+02  0.51100000000E-03 0.  1.
    9900012    2    1    2    0    0  0.77990171227E+01 -0.79161587015E+01  0.43653445015E+02  0.46142317650E+02  0.99999989897E+01 0.  0.
        -12    1    1    2    0    0 -0.77990171227E+01  0.79161587015E+01 -0.43653445015E+02  0.45045682350E+02  0.00000000000E+00 0.  1.
         11    1    3    3    0    0  0.62957527093E+01 -0.10151844613E+01  0.26574019661E+02  0.27328476410E+02  0.51100000000E-03 0. -1.
        -11    1    3    3    0    0 -0.36201284051E+00 -0.39342008744E+01  0.12071146216E+02  0.12701242500E+02  0.51100000000E-03 0.  1.
         12    1    3    3    0    0  0.18652772539E+01 -0.29667733658E+01  0.50082791373E+01  0.61125987399E+01  0.00000000000E+00 0. -1.
</event>
<event>
 7    1  0.8398055E-009  0.4614232E+02  0.7816164E-02  0.1320468E+00
        -11   -1    0    0    0    0  0.00000000000E+00  0.00000000000E+00  0.45593999997E+02  0.45594000000E+02  0.51100000000E-03 0. -1.
         11   -1    0    0    0    0 -0.00000000000E+00 -0.00000000000E+00 -0.45593999997E+02  0.45594000000E+02  0.51100000000E-03 0.  1.
    9900012    2    1    2    0    0 -0.19875621898E+02 -0.13304303760E+02 -0.38171568513E+02  0.46142317775E+02  0.10000000130E+02 0.  0.
         12    1    1    2    0    0  0.19875621898E+02  0.13304303760E+02  0.38171568513E+02  0.45045682225E+02  0.00000000000E+00 0. -1.
         11    1    3    3    0    0 -0.27498253216E+01 -0.40785316400E+01 -0.36336626628E+01  0.61155101378E+01  0.51100000000E-03 0. -1.
        -11    1    3    3    0    0 -0.13786567610E+02 -0.66193014874E+01 -0.22005780344E+02  0.26798114998E+02  0.51100000000E-03 0.  1.
        -12    1    3    3    0    0 -0.33392289656E+01 -0.26064706329E+01 -0.12532125506E+02  0.13228692639E+02  0.00000000000E+00 0.  1.
</event>
<event>
 7    1  0.8398055E-009  0.4614232E+02  0.7816164E-02  0.1320468E+00
        -11   -1    0    0    0    0  0.00000000000E+00  0.00000000000E+00  0.45593999997E+02  0.45594000000E+02  0.51100000000E-03 0. -1.
         11   -1    0    0    0    0 -0.00000000000E+00 -0.00000000000E+00 -0.45593999997E+02  0.45594000000E+02  0.51100000000E-03 0.  1.
    9900012    2    1    2    0    0 -0.14164779077E+02 -0.57225958895E+01  0.42375988862E+02  0.46142317609E+02  0.99999986129E+01 0.  0.
        -12    1    1    2    0    0  0.14164779077E+02  0.57225958895E+01 -0.42375988862E+02  0.45045682391E+02  0.00000000000E+00 0.  1.
         11    1    3    3    0    0 -0.78761063171E+01  0.24873557977E+00  0.26124363680E+02  0.27286943728E+02  0.51100000000E-03 0. -1.
        -11    1    3    3    0    0 -0.56491354267E+01 -0.59055466394E+01  0.16275426819E+02  0.18212021596E+02  0.51100000000E-03 0.  1.
         12    1    3    3    0    0 -0.63953733361E+00 -0.65784829881E-01 -0.23801636902E-01  0.64335228518E+00  0.00000000000E+00 0. -1.
</event>
<event>
 7    1  0.8398055E-009  0.4614232E+02  0.7816164E-02  0.1320468E+00
        -11   -1    0    0    0    0  0.00000000000E+00  0.00000000000E+00  0.45593999997E+02  0.45594000000E+02  0.51100000000E-03 0. -1.
         11   -1    0    0    0    0 -0.00000000000E+00 -0.00000000000E+00 -0.45593999997E+02  0.45594000000E+02  0.51100000000E-03 0.  1.
    9900012    2    1    2    0    0  0.31238234621E+01  0.32388042491E+02  0.31150764096E+02  0.46142315710E+02  0.99999812935E+01 0.  0.
        -12    1    1    2    0    0 -0.31238234621E+01 -0.32388042491E+02 -0.31150764096E+02  0.45045684290E+02  0.00000000000E+00 0.  1.
         11    1    3    3    0    0 -0.46002795981E-01  0.16361827536E+01 -0.47599256019E+00  0.17046346936E+01  0.51100000000E-03 0. -1.
        -11    1    3    3    0    0  0.29480521679E+01  0.12412890120E+02  0.14893604796E+02  0.19610974397E+02  0.51100000000E-03 0.  1.
         12    1    3    3    0    0  0.22177409022E+00  0.18338969618E+02  0.16733151859E+02  0.24826706619E+02  0.00000000000E+00 0. -1.
</event>
<event>
 7    1  0.8398055E-009  0.4614232E+02  0.7816164E-02  0.1320468E+00
        -11   -1    0    0    0    0  0.00000000000E+00  0.00000000000E+00  0.45593999997E+02  0.45594000000E+02  0.51100000000E-03 0. -1.
         11   -1    0    0    0    0 -0.00000000000E+00 -0.00000000000E+00 -0.45593999997E+02  0.45594000000E+02  0.51100000000E-03 0.  1.
    9900012    2    1    2    0    0  0.40531935283E+02  0.18958551105E+02  0.51816209307E+01  0.46142316153E+02  0.99999853365E+01 0.  0.
        -12    1    1    2    0    0 -0.40531935283E+02 -0.18958551105E+02 -0.51816209307E+01  0.45045683847E+02  0.00000000000E+00 0.  1.
         11    1    3    3    0    0  0.12965394561E+02  0.92170061103E+01 -0.16130857339E+01  0.15989268388E+02  0.51100000000E-03 0. -1.
        -11    1    3    3    0    0  0.19032850594E+02  0.81114291694E+01  0.48456583912E+01  0.21249119756E+02  0.51100000000E-03 0.  1.
        -12    1    3    3    0    0  0.85336901288E+01  0.16301158250E+01  0.19490482733E+01  0.89039280089E+01  0.00000000000E+00 0.  1.
</event>
<event>
 7    1  0.8398055E-009  0.4614232E+02  0.7816164E-02  0.1320468E+00
        -11   -1    0    0    0    0  0.00000000000E+00  0.00000000000E+00  0.45593999997E+02  0.45594000000E+02  0.51100000000E-03 0.  1.
         11   -1    0    0    0    0 -0.00000000000E+00 -0.00000000000E+00 -0.45593999997E+02  0.45594000000E+02  0.51100000000E-03 0. -1.
    9900012    2    1    2    0    0  0.22658411796E+02  0.35183969071E+02  0.16667278327E+02  0.46142317948E+02  0.10000001704E+02 0.  0.
        -12    1    1    2    0    0 -0.22658411796E+02 -0.35183969071E+02 -0.16667278327E+02  0.45045682052E+02  0.00000000000E+00 0.  1.
         11    1    3    3    0    0  0.10400566928E+02  0.18097464158E+02  0.51354342053E+01  0.21495643422E+02  0.51100000000E-03 0. -1.
        -11    1    3    3    0    0  0.10506713042E+01  0.16454175636E+01 -0.59318501647E+00  0.20403866969E+01  0.51100000000E-03 0.  1.
        -12    1    3    3    0    0  0.11207173564E+02  0.15441087349E+02  0.12125029138E+02  0.22606287829E+02  0.00000000000E+00 0.  1.
</event>
<event>
 7    1  0.8398055E-009  0.4614232E+02  0.7816164E-02  0.1320468E+00
        -11   -1    0    0    0    0  0.00000000000E+00  0.00000000000E+00  0.45593999997E+02  0.45594000000E+02  0.51100000000E-03 0. -1.
         11   -1    0    0    0    0 -0.00000000000E+00 -0.00000000000E+00 -0.45593999997E+02  0.45594000000E+02  0.51100000000E-03 0.  1.
    9900012    2    1    2    0    0  0.34357334314E+02  0.16814694256E+02  0.23789770799E+02  0.46142316980E+02  0.99999928759E+01 0.  0.
        -12    1    1    2    0    0 -0.34357334314E+02 -0.16814694256E+02 -0.23789770799E+02  0.45045683020E+02  0.00000000000E+00 0.  1.
         11    1    3    3    0    0  0.27603674311E+02  0.15249075559E+02  0.16920964577E+02  0.35788492331E+02  0.51100000000E-03 0. -1.
        -11    1    3    3    0    0  0.59014278222E+01  0.11284215010E+01  0.37296899658E+01  0.70718295318E+01  0.51100000000E-03 0.  1.
        -12    1    3    3    0    0  0.85223218080E+00  0.43719719660E+00  0.31391162561E+01  0.32819951170E+01  0.00000000000E+00 0.  1.
</event>
<event>
 7    1  0.8398055E-009  0.4614232E+02  0.7816164E-02  0.1320468E+00
        -11   -1    0    0    0    0  0.00000000000E+00  0.00000000000E+00  0.45593999997E+02  0.45594000000E+02  0.51100000000E-03 0. -1.
         11   -1    0    0    0    0 -0.00000000000E+00 -0.00000000000E+00 -0.45593999997E+02  0.45594000000E+02  0.51100000000E-03 0.  1.
    9900012    2    1    2    0    0  0.30911888886E+01 -0.62136900686E+01  0.44507843267E+02  0.46142317573E+02  0.99999982875E+01 0.  0.
        -12    1    1    2    0    0 -0.30911888886E+01  0.62136900686E+01 -0.44507843267E+02  0.45045682427E+02  0.00000000000E+00 0.  1.
         11    1    3    3    0    0  0.11207709730E+01 -0.22642649347E+00  0.15857408902E+02  0.15898578990E+02  0.51100000000E-03 0. -1.
        -11    1    3    3    0    0 -0.22830242449E+01 -0.46817518839E+01  0.16608368145E+02  0.17406001640E+02  0.51100000000E-03 0.  1.
         12    1    3    3    0    0  0.42534421605E+01 -0.13055116912E+01  0.12042066220E+02  0.12837736944E+02  0.00000000000E+00 0. -1.
</event>
<event>
 7    1  0.8398055E-009  0.4614232E+02  0.7816164E-02  0.1320468E+00
        -11   -1    0    0    0    0  0.00000000000E+00  0.00000000000E+00  0.45593999997E+02  0.45594000000E+02  0.51100000000E-03 0. -1.
         11   -1    0    0    0    0 -0.00000000000E+00 -0.00000000000E+00 -0.45593999997E+02  0.45594000000E+02  0.51100000000E-03 0.  1.
    9900012    2    1    2    0    0  0.22536335153E+01  0.15403405767E+02  0.42270199047E+02  0.46142317624E+02  0.99999987513E+01 0.  0.
        -12    1    1    2    0    0 -0.22536335153E+01 -0.15403405767E+02 -0.42270199047E+02  0.45045682376E+02  0.00000000000E+00 0.  1.
         11    1    3    3    0    0 -0.13060237568E+01 -0.25501248906E+00  0.20292802842E+01  0.24266660578E+01  0.51100000000E-03 0.  1.
        -11    1    3    3    0    0  0.10271878018E+01  0.10427839825E+02  0.31685575299E+02  0.33373202431E+02  0.51100000000E-03 0. -1.
         12    1    3    3    0    0  0.25324694703E+01  0.52305784309E+01  0.85553434631E+01  0.10342449135E+02  0.00000000000E+00 0. -1.
</event>
<event>
 7    1  0.8398055E-009  0.4614232E+02  0.7816164E-02  0.1320468E+00
        -11   -1    0    0    0    0  0.00000000000E+00  0.00000000000E+00  0.45593999997E+02  0.45594000000E+02  0.51100000000E-03 0. -1.
         11   -1    0    0    0    0 -0.00000000000E+00 -0.00000000000E+00 -0.45593999997E+02  0.45594000000E+02  0.51100000000E-03 0.  1.
    9900012    2    1    2    0    0 -0.27103329360E+02 -0.82040865982E+01  0.35031642961E+02  0.46142317545E+02  0.99999980292E+01 0.  0.
        -12    1    1    2    0    0  0.27103329360E+02  0.82040865982E+01 -0.35031642961E+02  0.45045682455E+02  0.00000000000E+00 0.  1.
         11    1    3    3    0    0 -0.10876486244E+02 -0.45767531388E+01  0.12251301923E+02  0.17009968295E+02  0.51100000000E-03 0. -1.
        -11    1    3    3    0    0 -0.73298301387E+01 -0.49386440482E+01  0.85409065462E+01  0.12290797362E+02  0.51100000000E-03 0.  1.
        -12    1    3    3    0    0 -0.88970129767E+01  0.13113105888E+01  0.14239434492E+02  0.16841551889E+02  0.00000000000E+00 0.  1.
</event>
<event>
 7    1  0.8398055E-009  0.4614232E+02  0.7816164E-02  0.1320468E+00
        -11   -1    0    0    0    0  0.00000000000E+00  0.00000000000E+00  0.45593999997E+02  0.45594000000E+02  0.51100000000E-03 0. -1.
         11   -1    0    0    0    0 -0.00000000000E+00 -0.00000000000E+00 -0.45593999997E+02  0.45594000000E+02  0.51100000000E-03 0.  1.
    9900012    2    1    2    0    0  0.12998924942E+02  0.18154588629E+02 -0.39122274687E+02  0.46142317470E+02  0.99999973434E+01 0.  0.
         12    1    1    2    0    0 -0.12998924942E+02 -0.18154588629E+02  0.39122274687E+02  0.45045682530E+02  0.00000000000E+00 0. -1.
         11    1    3    3    0    0  0.30801014813E+01  0.49079655094E+01 -0.12869265527E+02  0.14113580200E+02  0.51100000000E-03 0. -1.
        -11    1    3    3    0    0  0.98706842566E+01  0.12328458462E+02 -0.18950874429E+02  0.24668946828E+02  0.51100000000E-03 0.  1.
         12    1    3    3    0    0  0.48139204177E-01  0.91816465765E+00 -0.73021347308E+01  0.73597904419E+01  0.00000000000E+00 0. -1.
</event>
<event>
 7    1  0.8398055E-009  0.4614232E+02  0.7816164E-02  0.1320468E+00
        -11   -1    0    0    0    0  0.00000000000E+00  0.00000000000E+00  0.45593999997E+02  0.45594000000E+02  0.51100000000E-03 0. -1.
         11   -1    0    0    0    0 -0.00000000000E+00 -0.00000000000E+00 -0.45593999997E+02  0.45594000000E+02  0.51100000000E-03 0.  1.
    9900012    2    1    2    0    0 -0.21691389981E+02  0.25083478451E+02  0.30486328838E+02  0.46142317227E+02  0.99999951300E+01 0.  0.
        -12    1    1    2    0    0  0.21691389981E+02 -0.25083478451E+02 -0.30486328838E+02  0.45045682773E+02  0.00000000000E+00 0.  1.
         11    1    3    3    0    0 -0.19717675805E+02  0.17767713675E+02  0.25684120331E+02  0.36934434148E+02  0.51100000000E-03 0. -1.
        -11    1    3    3    0    0  0.41267475223E-01  0.10860085824E+01  0.15609236541E+01  0.19019990959E+01  0.51100000000E-03 0.  1.
         12    1    3    3    0    0 -0.20149816504E+01  0.62297561931E+01  0.32412848527E+01  0.73058839831E+01  0.00000000000E+00 0. -1.
</event>
<event>
 7    1  0.8398055E-009  0.4614232E+02  0.7816164E-02  0.1320468E+00
        -11   -1    0    0    0    0  0.00000000000E+00  0.00000000000E+00  0.45593999997E+02  0.45594000000E+02  0.51100000000E-03 0.  1.
         11   -1    0    0    0    0 -0.00000000000E+00 -0.00000000000E+00 -0.45593999997E+02  0.45594000000E+02  0.51100000000E-03 0. -1.
    9900012    2    1    2    0    0 -0.17018600863E+02 -0.41619412911E+02  0.27028219971E+01  0.46142317042E+02  0.99999934453E+01 0.  0.
        -12    1    1    2    0    0  0.17018600863E+02  0.41619412911E+02 -0.27028219971E+01  0.45045682958E+02  0.00000000000E+00 0.  1.
         11    1    3    3    0    0 -0.99202906755E+01 -0.29997897630E+02  0.16594913227E+01  0.31639215240E+02  0.51100000000E-03 0. -1.
        -11    1    3    3    0    0 -0.33439839944E+00 -0.24450659813E+00 -0.10260245072E+01  0.11064955113E+01  0.51100000000E-03 0.  1.
        -12    1    3    3    0    0 -0.67639117877E+01 -0.11377008683E+02  0.20693551816E+01  0.13396606291E+02  0.00000000000E+00 0.  1.
</event>
<event>
 7    1  0.8398055E-009  0.4614232E+02  0.7816164E-02  0.1320468E+00
        -11   -1    0    0    0    0  0.00000000000E+00  0.00000000000E+00  0.45593999997E+02  0.45594000000E+02  0.51100000000E-03 0. -1.
         11   -1    0    0    0    0 -0.00000000000E+00 -0.00000000000E+00 -0.45593999997E+02  0.45594000000E+02  0.51100000000E-03 0.  1.
    9900012    2    1    2    0    0 -0.35592689242E+00  0.18024828223E+02  0.41280653728E+02  0.46142317758E+02  0.99999999725E+01 0.  0.
        -12    1    1    2    0    0  0.35592689242E+00 -0.18024828223E+02 -0.41280653728E+02  0.45045682242E+02  0.00000000000E+00 0.  1.
         11    1    3    3    0    0  0.29582620390E+01  0.41250352818E+01  0.53897968562E+01  0.74038598568E+01  0.51100000000E-03 0. -1.
        -11    1    3    3    0    0 -0.75901848392E+00  0.60420367850E+00  0.15937937918E+01  0.18658376285E+01  0.51100000000E-03 0.  1.
        -12    1    3    3    0    0 -0.25551704475E+01  0.13295589262E+02  0.34297063080E+02  0.36872620273E+02  0.00000000000E+00 0.  1.
</event>
<event>
 7    1  0.8398055E-009  0.4614232E+02  0.7816164E-02  0.1320468E+00
        -11   -1    0    0    0    0  0.00000000000E+00  0.00000000000E+00  0.45593999997E+02  0.45594000000E+02  0.51100000000E-03 0. -1.
         11   -1    0    0    0    0 -0.00000000000E+00 -0.00000000000E+00 -0.45593999997E+02  0.45594000000E+02  0.51100000000E-03 0.  1.
    9900012    2    1    2    0    0  0.22911039384E+02 -0.19784866787E+02  0.33358009634E+02  0.46142317785E+02  0.10000000221E+02 0.  0.
        -12    1    1    2    0    0 -0.22911039384E+02  0.19784866787E+02 -0.33358009634E+02  0.45045682215E+02  0.00000000000E+00 0.  1.
         11    1    3    3    0    0 -0.46118278401E+00  0.64122544407E-02  0.37726956876E+00  0.59587185360E+00  0.51100000000E-03 0. -1.
        -11    1    3    3    0    0 -0.17009990829E+00  0.20086365719E+00  0.12058947772E+01  0.12342862967E+01  0.51100000000E-03 0.  1.
         12    1    3    3    0    0  0.23542322077E+02 -0.19992142699E+02  0.31774845288E+02  0.44312159635E+02  0.00000000000E+00 0. -1.
</event>
<event>
 7    1  0.8398055E-009  0.4614232E+02  0.7816164E-02  0.1320468E+00
        -11   -1    0    0    0    0  0.00000000000E+00  0.00000000000E+00  0.45593999997E+02  0.45594000000E+02  0.51100000000E-03 0. -1.
         11   -1    0    0    0    0 -0.00000000000E+00 -0.00000000000E+00 -0.45593999997E+02  0.45594000000E+02  0.51100000000E-03 0.  1.
    9900012    2    1    2    0    0  0.19096797161E+01  0.10440747755E+02  0.43777361478E+02  0.46142317984E+02  0.10000002034E+02 0.  0.
        -12    1    1    2    0    0 -0.19096797161E+01 -0.10440747755E+02 -0.43777361478E+02  0.45045682016E+02  0.00000000000E+00 0.  1.
         11    1    3    3    0    0  0.17944640897E+01  0.49757802851E+01  0.87734585090E+01  0.10244611524E+02  0.51100000000E-03 0. -1.
        -11    1    3    3    0    0  0.11791762844E+00  0.19117946420E+01  0.22640111841E+01  0.29655708090E+01  0.51100000000E-03 0.  1.
         12    1    3    3    0    0 -0.27020020100E-02  0.35531728277E+01  0.32739891785E+02  0.32932135651E+02  0.00000000000E+00 0. -1.
</event>
<event>
 7    1  0.8398055E-009  0.4614232E+02  0.7816164E-02  0.1320468E+00
        -11   -1    0    0    0    0  0.00000000000E+00  0.00000000000E+00  0.45593999997E+02  0.45594000000E+02  0.51100000000E-03 0.  1.
         11   -1    0    0    0    0 -0.00000000000E+00 -0.00000000000E+00 -0.45593999997E+02  0.45594000000E+02  0.51100000000E-03 0. -1.
    9900012    2    1    2    0    0 -0.43508280328E+02 -0.55909162530E+01  0.10241313608E+02  0.46142319785E+02  0.10000018452E+02 0.  0.
        -12    1    1    2    0    0  0.43508280328E+02  0.55909162530E+01 -0.10241313608E+02  0.45045680215E+02  0.00000000000E+00 0.  1.
         11    1    3    3    0    0 -0.24643313682E+02 -0.31899466804E+01  0.41774104173E+01  0.25197607567E+02  0.51100000000E-03 0. -1.
        -11    1    3    3    0    0 -0.18861679200E+01  0.41879462834E+00 -0.11878346717E+01  0.22680321496E+01  0.51100000000E-03 0.  1.
         12    1    3    3    0    0 -0.16978798726E+02 -0.28197642009E+01  0.72517378626E+01  0.18676680068E+02  0.00000000000E+00 0. -1.
</event>
<event>
 7    1  0.8398055E-009  0.4614232E+02  0.7816164E-02  0.1320468E+00
        -11   -1    0    0    0    0  0.00000000000E+00  0.00000000000E+00  0.45593999997E+02  0.45594000000E+02  0.51100000000E-03 0. -1.
         11   -1    0    0    0    0 -0.00000000000E+00 -0.00000000000E+00 -0.45593999997E+02  0.45594000000E+02  0.51100000000E-03 0.  1.
    9900012    2    1    2    0    0 -0.30752466905E+02  0.11394642435E+00  0.32914833595E+02  0.46142317909E+02  0.10000001344E+02 0.  0.
        -12    1    1    2    0    0  0.30752466905E+02 -0.11394642435E+00 -0.32914833595E+02  0.45045682091E+02  0.00000000000E+00 0.  1.
         11    1    3    3    0    0 -0.14063865986E+02 -0.17200519156E+01  0.14650143061E+02  0.20380814435E+02  0.51100000000E-03 0. -1.
        -11    1    3    3    0    0  0.32013881136E+00 -0.15081388531E+00  0.23738813984E+01  0.24001139226E+01  0.51100000000E-03 0.  1.
        -12    1    3    3    0    0 -0.17008739731E+02  0.19848122253E+01  0.15890809135E+02  0.23361389551E+02  0.00000000000E+00 0.  1.
</event>
<event>
 7    1  0.8398055E-009  0.4614232E+02  0.7816164E-02  0.1320468E+00
        -11   -1    0    0    0    0  0.00000000000E+00  0.00000000000E+00  0.45593999997E+02  0.45594000000E+02  0.51100000000E-03 0. -1.
         11   -1    0    0    0    0 -0.00000000000E+00 -0.00000000000E+00 -0.45593999997E+02  0.45594000000E+02  0.51100000000E-03 0.  1.
    9900012    2    1    2    0    0 -0.23598995633E+02  0.14253821950E+02 -0.35623439856E+02  0.46142317607E+02  0.99999985952E+01 0.  0.
         12    1    1    2    0    0  0.23598995633E+02 -0.14253821950E+02  0.35623439856E+02  0.45045682393E+02  0.00000000000E+00 0. -1.
         11    1    3    3    0    0 -0.84535829859E+01  0.57784237183E+01 -0.75521036315E+01  0.12723502485E+02  0.51100000000E-03 0. -1.
        -11    1    3    3    0    0 -0.28720108343E+01  0.59500754501E+00 -0.20166061335E+01  0.35593792675E+01  0.51100000000E-03 0.  1.
        -12    1    3    3    0    0 -0.12273401813E+02  0.78803906872E+01 -0.26054730091E+02  0.29859435854E+02  0.00000000000E+00 0.  1.
</event>
<event>
 7    1  0.8398055E-009  0.4614232E+02  0.7816164E-02  0.1320468E+00
        -11   -1    0    0    0    0  0.00000000000E+00  0.00000000000E+00  0.45593999997E+02  0.45594000000E+02  0.51100000000E-03 0. -1.
         11   -1    0    0    0    0 -0.00000000000E+00 -0.00000000000E+00 -0.45593999997E+02  0.45594000000E+02  0.51100000000E-03 0.  1.
    9900012    2    1    2    0    0  0.86628266898E+01  0.61523403250E+01  0.43774624339E+02  0.46142316592E+02  0.99999893373E+01 0.  0.
        -12    1    1    2    0    0 -0.86628266898E+01 -0.61523403250E+01 -0.43774624339E+02  0.45045683408E+02  0.00000000000E+00 0.  1.
         11    1    3    3    0    0  0.89048011463E+01  0.18107691274E+01  0.21048507035E+02  0.22926273507E+02  0.51100000000E-03 0. -1.
        -11    1    3    3    0    0 -0.88081205129E+00  0.12425637937E+01  0.91634267021E+01  0.92891433317E+01  0.51100000000E-03 0.  1.
        -12    1    3    3    0    0  0.63883759485E+00  0.30990074040E+01  0.13562690602E+02  0.13926899753E+02  0.00000000000E+00 0.  1.
</event>
<event>
 7    1  0.8398055E-009  0.4614232E+02  0.7816164E-02  0.1320468E+00
        -11   -1    0    0    0    0  0.00000000000E+00  0.00000000000E+00  0.45593999997E+02  0.45594000000E+02  0.51100000000E-03 0. -1.
         11   -1    0    0    0    0 -0.00000000000E+00 -0.00000000000E+00 -0.45593999997E+02  0.45594000000E+02  0.51100000000E-03 0.  1.
    9900012    2    1    2    0    0 -0.31779183496E+02 -0.20356342987E+02 -0.24593013369E+02  0.46142317521E+02  0.99999978090E+01 0.  0.
         12    1    1    2    0    0  0.31779183496E+02  0.20356342987E+02  0.24593013369E+02  0.45045682479E+02  0.00000000000E+00 0. -1.
         11    1    3    3    0    0 -0.23847469683E+02 -0.19746581644E+02 -0.20825605335E+02  0.37314007218E+02  0.51100000000E-03 0.  1.
        -11    1    3    3    0    0 -0.51143204818E+01 -0.12933809404E+00 -0.26283653842E+01  0.57516351751E+01  0.51100000000E-03 0. -1.
        -12    1    3    3    0    0 -0.28173933312E+01 -0.48042324940E+00 -0.11390426498E+01  0.30766751274E+01  0.00000000000E+00 0.  1.
</event>
<event>
 7    1  0.8398055E-009  0.4614232E+02  0.7816164E-02  0.1320468E+00
        -11   -1    0    0    0    0  0.00000000000E+00  0.00000000000E+00  0.45593999997E+02  0.45594000000E+02  0.51100000000E-03 0. -1.
         11   -1    0    0    0    0 -0.00000000000E+00 -0.00000000000E+00 -0.45593999997E+02  0.45594000000E+02  0.51100000000E-03 0.  1.
    9900012    2    1    2    0    0 -0.28232234976E+02  0.33885807996E+02 -0.91545825316E+01  0.46142318114E+02  0.10000003217E+02 0.  0.
         12    1    1    2    0    0  0.28232234976E+02 -0.33885807996E+02  0.91545825316E+01  0.45045681886E+02  0.00000000000E+00 0. -1.
         11    1    3    3    0    0 -0.41912899852E+01  0.99663366168E+00 -0.26981884886E+00  0.43165950548E+01  0.51100000000E-03 0. -1.
        -11    1    3    3    0    0 -0.12882018100E+02  0.16454732642E+02 -0.60789523387E+01  0.21763691746E+02  0.51100000000E-03 0.  1.
         12    1    3    3    0    0 -0.11158926891E+02  0.16434441692E+02 -0.28058113441E+01  0.20062031313E+02  0.00000000000E+00 0. -1.
</event>
<event>
 7    1  0.8398055E-009  0.4614232E+02  0.7816164E-02  0.1320468E+00
        -11   -1    0    0    0    0  0.00000000000E+00  0.00000000000E+00  0.45593999997E+02  0.45594000000E+02  0.51100000000E-03 0. -1.
         11   -1    0    0    0    0 -0.00000000000E+00 -0.00000000000E+00 -0.45593999997E+02  0.45594000000E+02  0.51100000000E-03 0.  1.
    9900012    2    1    2    0    0  0.31381855894E+02  0.19991605038E+02  0.25389529432E+02  0.46142319229E+02  0.10000013384E+02 0.  0.
        -12    1    1    2    0    0 -0.31381855894E+02 -0.19991605038E+02 -0.25389529432E+02  0.45045680771E+02  0.00000000000E+00 0.  1.
         11    1    3    3    0    0  0.16527537569E+02  0.78911004132E+01  0.92786695278E+01  0.20531017322E+02  0.51100000000E-03 0. -1.
        -11    1    3    3    0    0  0.59507925015E+01  0.38485331162E+01  0.92975481844E+01  0.11690489342E+02  0.51100000000E-03 0.  1.
         12    1    3    3    0    0  0.89035258239E+01  0.82519715088E+01  0.68133117196E+01  0.13920812565E+02  0.00000000000E+00 0. -1.
</event>
<event>
 7    1  0.8398055E-009  0.4614232E+02  0.7816164E-02  0.1320468E+00
        -11   -1    0    0    0    0  0.00000000000E+00  0.00000000000E+00  0.45593999997E+02  0.45594000000E+02  0.51100000000E-03 0. -1.
         11   -1    0    0    0    0 -0.00000000000E+00 -0.00000000000E+00 -0.45593999997E+02  0.45594000000E+02  0.51100000000E-03 0.  1.
    9900012    2    1    2    0    0  0.14673374824E+02  0.12522307948E+02  0.40706232480E+02  0.46142317768E+02  0.10000000059E+02 0.  0.
        -12    1    1    2    0    0 -0.14673374824E+02 -0.12522307948E+02 -0.40706232480E+02  0.45045682232E+02  0.00000000000E+00 0.  1.
         11    1    3    3    0    0  0.33454431621E+01 -0.45956065001E+00  0.49962212841E+01  0.60303742274E+01  0.51100000000E-03 0. -1.
        -11    1    3    3    0    0  0.70246705448E+01  0.36602599599E+01  0.17445076459E+02  0.19159180362E+02  0.51100000000E-03 0.  1.
        -12    1    3    3    0    0  0.43032611170E+01  0.93216086377E+01  0.18264934737E+02  0.20952763178E+02  0.00000000000E+00 0.  1.
</event>
<event>
 7    1  0.8398055E-009  0.4614232E+02  0.7816164E-02  0.1320468E+00
        -11   -1    0    0    0    0  0.00000000000E+00  0.00000000000E+00  0.45593999997E+02  0.45594000000E+02  0.51100000000E-03 0. -1.
         11   -1    0    0    0    0 -0.00000000000E+00 -0.00000000000E+00 -0.45593999997E+02  0.45594000000E+02  0.51100000000E-03 0.  1.
    9900012    2    1    2    0    0  0.22476408285E+02 -0.31362049623E+02  0.23245352903E+02  0.46142317437E+02  0.99999970489E+01 0.  0.
        -12    1    1    2    0    0 -0.22476408285E+02  0.31362049623E+02 -0.23245352903E+02  0.45045682563E+02  0.00000000000E+00 0.  1.
         11    1    3    3    0    0  0.37466947892E+01 -0.26179723423E+01  0.17109058149E+01  0.48804405535E+01  0.51100000000E-03 0. -1.
        -11    1    3    3    0    0  0.77227642807E+01 -0.55253182473E+01  0.54932812191E+01  0.10970249253E+02  0.51100000000E-03 0.  1.
         12    1    3    3    0    0  0.11006949215E+02 -0.23218759033E+02  0.16041165869E+02  0.30291627630E+02  0.00000000000E+00 0. -1.
</event>
<event>
 7    1  0.8398055E-009  0.4614232E+02  0.7816164E-02  0.1320468E+00
        -11   -1    0    0    0    0  0.00000000000E+00  0.00000000000E+00  0.45593999997E+02  0.45594000000E+02  0.51100000000E-03 0. -1.
         11   -1    0    0    0    0 -0.00000000000E+00 -0.00000000000E+00 -0.45593999997E+02  0.45594000000E+02  0.51100000000E-03 0.  1.
    9900012    2    1    2    0    0  0.13070147501E+02  0.32542220152E+02  0.28271693361E+02  0.46142317703E+02  0.99999994679E+01 0.  0.
        -12    1    1    2    0    0 -0.13070147501E+02 -0.32542220152E+02 -0.28271693361E+02  0.45045682297E+02  0.00000000000E+00 0.  1.
         11    1    3    3    0    0  0.87064917686E+01  0.22300327312E+02  0.21487939236E+02  0.32168915586E+02  0.51100000000E-03 0. -1.
        -11    1    3    3    0    0  0.74294712763E+00  0.78011577413E+01  0.46661170990E+01  0.91204540227E+01  0.51100000000E-03 0.  1.
         12    1    3    3    0    0  0.36207086051E+01  0.24407350984E+01  0.21176370265E+01  0.48529480936E+01  0.00000000000E+00 0. -1.
</event>
<event>
 7    1  0.8398055E-009  0.4614232E+02  0.7816164E-02  0.1320468E+00
        -11   -1    0    0    0    0  0.00000000000E+00  0.00000000000E+00  0.45593999997E+02  0.45594000000E+02  0.51100000000E-03 0. -1.
         11   -1    0    0    0    0 -0.00000000000E+00 -0.00000000000E+00 -0.45593999997E+02  0.45594000000E+02  0.51100000000E-03 0.  1.
    9900012    2    1    2    0    0  0.32520879334E+02  0.40466231993E+01  0.30905188444E+02  0.46142318468E+02  0.10000006443E+02 0.  0.
        -12    1    1    2    0    0 -0.32520879334E+02 -0.40466231993E+01 -0.30905188444E+02  0.45045681532E+02  0.00000000000E+00 0.  1.
         11    1    3    3    0    0  0.13150229040E+02  0.44838965920E+01  0.11603623339E+02  0.18101876347E+02  0.51100000000E-03 0. -1.
        -11    1    3    3    0    0  0.17001325183E+02  0.50054387017E+00  0.18957332576E+02  0.25469119749E+02  0.51100000000E-03 0.  1.
        -12    1    3    3    0    0  0.23693251115E+01 -0.93781726289E+00  0.34423252887E+00  0.25713223712E+01  0.00000000000E+00 0.  1.
</event>
<event>
 7    1  0.8398055E-009  0.4614232E+02  0.7816164E-02  0.1320468E+00
        -11   -1    0    0    0    0  0.00000000000E+00  0.00000000000E+00  0.45593999997E+02  0.45594000000E+02  0.51100000000E-03 0. -1.
         11   -1    0    0    0    0 -0.00000000000E+00 -0.00000000000E+00 -0.45593999997E+02  0.45594000000E+02  0.51100000000E-03 0.  1.
    9900012    2    1    2    0    0 -0.40764175592E+02  0.16220486108E+02 -0.10212313636E+02  0.46142317287E+02  0.99999956779E+01 0.  0.
         12    1    1    2    0    0  0.40764175592E+02 -0.16220486108E+02  0.10212313636E+02  0.45045682713E+02  0.00000000000E+00 0. -1.
         11    1    3    3    0    0 -0.66633413595E+01  0.57680610141E+01 -0.20376796913E+01  0.90455947688E+01  0.51100000000E-03 0. -1.
        -11    1    3    3    0    0 -0.27003309588E+02  0.93637207967E+01 -0.87581137811E+01  0.29892516674E+02  0.51100000000E-03 0.  1.
        -12    1    3    3    0    0 -0.70975246443E+01  0.10887042973E+01  0.58347983602E+00  0.72042058440E+01  0.00000000000E+00 0.  1.
</event>
<event>
 7    1  0.8398055E-009  0.4614232E+02  0.7816164E-02  0.1320468E+00
        -11   -1    0    0    0    0  0.00000000000E+00  0.00000000000E+00  0.45593999997E+02  0.45594000000E+02  0.51100000000E-03 0.  1.
         11   -1    0    0    0    0 -0.00000000000E+00 -0.00000000000E+00 -0.45593999997E+02  0.45594000000E+02  0.51100000000E-03 0. -1.
    9900012    2    1    2    0    0  0.16240918982E+02 -0.25136644958E+02 -0.33667420086E+02  0.46142317139E+02  0.99999943270E+01 0.  0.
         12    1    1    2    0    0 -0.16240918982E+02  0.25136644958E+02  0.33667420086E+02  0.45045682861E+02  0.00000000000E+00 0. -1.
         11    1    3    3    0    0 -0.31282384018E+00  0.57079806054E+00 -0.77279998263E+00  0.10103906448E+01  0.51100000000E-03 0. -1.
        -11    1    3    3    0    0  0.42040226476E+01 -0.97824175147E+01 -0.96749075786E+01  0.14386567894E+02  0.51100000000E-03 0.  1.
        -12    1    3    3    0    0  0.12349720175E+02 -0.15925025504E+02 -0.23219712525E+02  0.30745358600E+02  0.00000000000E+00 0.  1.
</event>
<event>
 7    1  0.8398055E-009  0.4614232E+02  0.7816164E-02  0.1320468E+00
        -11   -1    0    0    0    0  0.00000000000E+00  0.00000000000E+00  0.45593999997E+02  0.45594000000E+02  0.51100000000E-03 0. -1.
         11   -1    0    0    0    0 -0.00000000000E+00 -0.00000000000E+00 -0.45593999997E+02  0.45594000000E+02  0.51100000000E-03 0.  1.
    9900012    2    1    2    0    0  0.27784856832E+02  0.98510298053E+01 -0.34059835705E+02  0.46142318013E+02  0.10000002299E+02 0.  0.
         12    1    1    2    0    0 -0.27784856832E+02 -0.98510298053E+01  0.34059835705E+02  0.45045681987E+02  0.00000000000E+00 0. -1.
         11    1    3    3    0    0  0.11510264474E+02  0.44985422598E+01 -0.88707770273E+01  0.15212289639E+02  0.51100000000E-03 0. -1.
        -11    1    3    3    0    0  0.59747045623E+01  0.47296426012E+01 -0.10180017201E+02  0.12716106488E+02  0.51100000000E-03 0.  1.
        -12    1    3    3    0    0  0.10299887796E+02  0.62284494420E+00 -0.15009041477E+02  0.18213921887E+02  0.00000000000E+00 0.  1.
</event>
<event>
 7    1  0.8398055E-009  0.4614232E+02  0.7816164E-02  0.1320468E+00
        -11   -1    0    0    0    0  0.00000000000E+00  0.00000000000E+00  0.45593999997E+02  0.45594000000E+02  0.51100000000E-03 0. -1.
         11   -1    0    0    0    0 -0.00000000000E+00 -0.00000000000E+00 -0.45593999997E+02  0.45594000000E+02  0.51100000000E-03 0.  1.
    9900012    2    1    2    0    0 -0.20833509580E+02  0.14903726220E+02 -0.37053441378E+02  0.46142315471E+02  0.99999791200E+01 0.  0.
         12    1    1    2    0    0  0.20833509580E+02 -0.14903726220E+02  0.37053441378E+02  0.45045684529E+02  0.00000000000E+00 0. -1.
         11    1    3    3    0    0 -0.10377543646E+02  0.69726540576E+01 -0.15084106385E+02  0.19591875419E+02  0.51100000000E-03 0.  1.
        -11    1    3    3    0    0 -0.50171240686E+01  0.62162632453E+01 -0.73383532255E+01  0.10847344881E+02  0.51100000000E-03 0. -1.
         12    1    3    3    0    0 -0.54388418657E+01  0.17148089175E+01 -0.14630981768E+02  0.15703095171E+02  0.00000000000E+00 0. -1.
</event>
<event>
 7    1  0.8398055E-009  0.4614231E+02  0.7816164E-02  0.1320468E+00
        -11   -1    0    0    0    0  0.00000000000E+00  0.00000000000E+00  0.45593999997E+02  0.45594000000E+02  0.51100000000E-03 0. -1.
         11   -1    0    0    0    0 -0.00000000000E+00 -0.00000000000E+00 -0.45593999997E+02  0.45594000000E+02  0.51100000000E-03 0.  1.
    9900012    2    1    2    0    0 -0.85327701561E+01 -0.22067945816E+02  0.38331599712E+02  0.46142312797E+02  0.99999547335E+01 0.  0.
        -12    1    1    2    0    0  0.85327701561E+01  0.22067945816E+02 -0.38331599712E+02  0.45045687203E+02  0.00000000000E+00 0.  1.
         11    1    3    3    0    0 -0.43507406172E+01 -0.61707333958E+01  0.12384932725E+02  0.14504945826E+02  0.51100000000E-03 0. -1.
        -11    1    3    3    0    0 -0.42560958656E+01 -0.16730956280E+02  0.24660369851E+02  0.30102709039E+02  0.51100000000E-03 0.  1.
         12    1    3    3    0    0  0.74066326737E-01  0.83374385937E+00  0.12862971365E+01  0.15346579317E+01  0.00000000000E+00 0. -1.
</event>
<event>
 7    1  0.8398055E-009  0.4614232E+02  0.7816164E-02  0.1320468E+00
        -11   -1    0    0    0    0  0.00000000000E+00  0.00000000000E+00  0.45593999997E+02  0.45594000000E+02  0.51100000000E-03 0. -1.
         11   -1    0    0    0    0 -0.00000000000E+00 -0.00000000000E+00 -0.45593999997E+02  0.45594000000E+02  0.51100000000E-03 0.  1.
    9900012    2    1    2    0    0  0.53775459481E+01 -0.44695052104E+02  0.15961358083E+01  0.46142319491E+02  0.10000015776E+02 0.  0.
         12    1    1    2    0    0 -0.53775459481E+01  0.44695052104E+02 -0.15961358083E+01  0.45045680509E+02  0.00000000000E+00 0. -1.
         11    1    3    3    0    0  0.22806538716E+01 -0.57609956049E+01  0.13994310372E+01  0.63520752460E+01  0.51100000000E-03 0. -1.
        -11    1    3    3    0    0 -0.22536449896E+01 -0.57813159800E+01 -0.14628334681E+00  0.62067647997E+01  0.51100000000E-03 0.  1.
        -12    1    3    3    0    0  0.53505370661E+01 -0.33152740519E+02  0.34298811787E+00  0.33583479445E+02  0.00000000000E+00 0.  1.
</event>
<event>
 7    1  0.8398055E-009  0.4614232E+02  0.7816164E-02  0.1320468E+00
        -11   -1    0    0    0    0  0.00000000000E+00  0.00000000000E+00  0.45593999997E+02  0.45594000000E+02  0.51100000000E-03 0. -1.
         11   -1    0    0    0    0 -0.00000000000E+00 -0.00000000000E+00 -0.45593999997E+02  0.45594000000E+02  0.51100000000E-03 0.  1.
    9900012    2    1    2    0    0 -0.28688758851E+02  0.12629708733E+01 -0.34705527153E+02  0.46142316579E+02  0.99999892245E+01 0.  0.
         12    1    1    2    0    0  0.28688758851E+02 -0.12629708733E+01  0.34705527153E+02  0.45045683421E+02  0.00000000000E+00 0. -1.
         11    1    3    3    0    0 -0.17173108782E+02  0.15714760614E+01 -0.20949000886E+02  0.27133850457E+02  0.51100000000E-03 0.  1.
        -11    1    3    3    0    0 -0.27626805686E+01  0.17974918765E+01 -0.70495924926E+01  0.77820392921E+01  0.51100000000E-03 0. -1.
        -12    1    3    3    0    0 -0.87529695009E+01 -0.21059970647E+01 -0.67069337741E+01  0.11226426830E+02  0.00000000000E+00 0.  1.
</event>
<event>
 7    1  0.8398055E-009  0.4614232E+02  0.7816164E-02  0.1320468E+00
        -11   -1    0    0    0    0  0.00000000000E+00  0.00000000000E+00  0.45593999997E+02  0.45594000000E+02  0.51100000000E-03 0. -1.
         11   -1    0    0    0    0 -0.00000000000E+00 -0.00000000000E+00 -0.45593999997E+02  0.45594000000E+02  0.51100000000E-03 0.  1.
    9900012    2    1    2    0    0 -0.13204947514E+02 -0.18212132350E+02  0.39026412968E+02  0.46142319711E+02  0.10000017777E+02 0.  0.
        -12    1    1    2    0    0  0.13204947514E+02  0.18212132350E+02 -0.39026412968E+02  0.45045680289E+02  0.00000000000E+00 0.  1.
         11    1    3    3    0    0 -0.12285653749E+01 -0.19610383856E+01  0.40860111720E+01  0.46957993983E+01  0.51100000000E-03 0. -1.
        -11    1    3    3    0    0 -0.21994142374E+01  0.48056217287E+00  0.76583158925E+01  0.79823659125E+01  0.51100000000E-03 0.  1.
         12    1    3    3    0    0 -0.97769679020E+01 -0.16731656137E+02  0.27282085904E+02  0.33464154400E+02  0.00000000000E+00 0. -1.
</event>
<event>
 7    1  0.8398055E-009  0.4614232E+02  0.7816164E-02  0.1320468E+00
        -11   -1    0    0    0    0  0.00000000000E+00  0.00000000000E+00  0.45593999997E+02  0.45594000000E+02  0.51100000000E-03 0. -1.
         11   -1    0    0    0    0 -0.00000000000E+00 -0.00000000000E+00 -0.45593999997E+02  0.45594000000E+02  0.51100000000E-03 0.  1.
    9900012    2    1    2    0    0  0.16356671966E+02 -0.27311442965E+02  0.31869386863E+02  0.46142318146E+02  0.10000003513E+02 0.  0.
        -12    1    1    2    0    0 -0.16356671966E+02  0.27311442965E+02 -0.31869386863E+02  0.45045681854E+02  0.00000000000E+00 0.  1.
         11    1    3    3    0    0  0.46251284426E+01 -0.26569871177E+01  0.53829713244E+01  0.75781115190E+01  0.51100000000E-03 0. -1.
        -11    1    3    3    0    0 -0.42189221291E-01 -0.10559831442E+01  0.32426606579E+01  0.34105320310E+01  0.51100000000E-03 0.  1.
         12    1    3    3    0    0  0.11773732745E+02 -0.23598472704E+02  0.23243754880E+02  0.35153674596E+02  0.00000000000E+00 0. -1.
</event>
<event>
 7    1  0.8398055E-009  0.4614232E+02  0.7816164E-02  0.1320468E+00
        -11   -1    0    0    0    0  0.00000000000E+00  0.00000000000E+00  0.45593999997E+02  0.45594000000E+02  0.51100000000E-03 0.  1.
         11   -1    0    0    0    0 -0.00000000000E+00 -0.00000000000E+00 -0.45593999997E+02  0.45594000000E+02  0.51100000000E-03 0. -1.
    9900012    2    1    2    0    0 -0.34412561085E+02  0.27142879833E+02  0.10399674357E+02  0.46142317490E+02  0.99999975306E+01 0.  0.
         12    1    1    2    0    0  0.34412561085E+02 -0.27142879833E+02 -0.10399674357E+02  0.45045682510E+02  0.00000000000E+00 0. -1.
         11    1    3    3    0    0 -0.42281593378E+01  0.52533571841E+01  0.56552033066E+00  0.67671934061E+01  0.51100000000E-03 0. -1.
        -11    1    3    3    0    0 -0.25900439954E+02  0.19195236767E+02  0.54829479607E+01  0.32700957524E+02  0.51100000000E-03 0.  1.
         12    1    3    3    0    0 -0.42839617924E+01  0.26942858817E+01  0.43512060652E+01  0.66741665602E+01  0.00000000000E+00 0. -1.
</event>
<event>
 7    1  0.8398055E-009  0.4614232E+02  0.7816164E-02  0.1320468E+00
        -11   -1    0    0    0    0  0.00000000000E+00  0.00000000000E+00  0.45593999997E+02  0.45594000000E+02  0.51100000000E-03 0. -1.
         11   -1    0    0    0    0 -0.00000000000E+00 -0.00000000000E+00 -0.45593999997E+02  0.45594000000E+02  0.51100000000E-03 0.  1.
    9900012    2    1    2    0    0 -0.47366120172E+01  0.40030117143E+02 -0.20106410308E+02  0.46142317550E+02  0.99999980752E+01 0.  0.
         12    1    1    2    0    0  0.47366120172E+01 -0.40030117143E+02  0.20106410308E+02  0.45045682450E+02  0.00000000000E+00 0. -1.
         11    1    3    3    0    0 -0.46014361634E+01  0.12269042038E+02 -0.29358970996E+01  0.13428406433E+02  0.51100000000E-03 0. -1.
        -11    1    3    3    0    0  0.77789589131E+00  0.15839182194E+02 -0.10544014129E+02  0.19043661644E+02  0.51100000000E-03 0.  1.
         12    1    3    3    0    0 -0.91307174508E+00  0.11921892911E+02 -0.66264990794E+01  0.13670249473E+02  0.00000000000E+00 0. -1.
</event>
<event>
 7    1  0.8398055E-009  0.4614232E+02  0.7816164E-02  0.1320468E+00
        -11   -1    0    0    0    0  0.00000000000E+00  0.00000000000E+00  0.45593999997E+02  0.45594000000E+02  0.51100000000E-03 0. -1.
         11   -1    0    0    0    0 -0.00000000000E+00 -0.00000000000E+00 -0.45593999997E+02  0.45594000000E+02  0.51100000000E-03 0.  1.
    9900012    2    1    2    0    0 -0.52567479354E+01 -0.58636645526E+01 -0.44351975915E+02  0.46142315097E+02  0.99999757039E+01 0.  0.
         12    1    1    2    0    0  0.52567479354E+01  0.58636645526E+01  0.44351975915E+02  0.45045684903E+02  0.00000000000E+00 0. -1.
         11    1    3    3    0    0  0.20398223452E+01 -0.35484657887E+01 -0.12257713928E+02  0.12923004127E+02  0.51100000000E-03 0. -1.
        -11    1    3    3    0    0 -0.24103114278E+01 -0.27611786541E+01 -0.13578669849E+02  0.14064635930E+02  0.51100000000E-03 0.  1.
         12    1    3    3    0    0 -0.48862588528E+01  0.44597989019E+00 -0.18515592138E+02  0.19154675040E+02  0.00000000000E+00 0. -1.
</event>
<event>
 7    1  0.8398055E-009  0.4614232E+02  0.7816164E-02  0.1320468E+00
        -11   -1    0    0    0    0  0.00000000000E+00  0.00000000000E+00  0.45593999997E+02  0.45594000000E+02  0.51100000000E-03 0. -1.
         11   -1    0    0    0    0 -0.00000000000E+00 -0.00000000000E+00 -0.45593999997E+02  0.45594000000E+02  0.51100000000E-03 0.  1.
    9900012    2    1    2    0    0 -0.16641473790E+02  0.17997970176E+02 -0.37792167476E+02  0.46142317600E+02  0.99999985344E+01 0.  0.
         12    1    1    2    0    0  0.16641473790E+02 -0.17997970176E+02  0.37792167476E+02  0.45045682400E+02  0.00000000000E+00 0. -1.
         11    1    3    3    0    0 -0.46122283654E+00  0.23703414339E+01 -0.10936102095E+01  0.26508920328E+01  0.51100000000E-03 0. -1.
        -11    1    3    3    0    0 -0.66067311381E+01  0.33764466331E+01 -0.15683370006E+02  0.17349852541E+02  0.51100000000E-03 0.  1.
         12    1    3    3    0    0 -0.95735198150E+01  0.12251182109E+02 -0.21015187260E+02  0.26141573026E+02  0.00000000000E+00 0. -1.
</event>
<event>
 7    1  0.8398055E-009  0.4614232E+02  0.7816164E-02  0.1320468E+00
        -11   -1    0    0    0    0  0.00000000000E+00  0.00000000000E+00  0.45593999997E+02  0.45594000000E+02  0.51100000000E-03 0. -1.
         11   -1    0    0    0    0 -0.00000000000E+00 -0.00000000000E+00 -0.45593999997E+02  0.45594000000E+02  0.51100000000E-03 0.  1.
    9900012    2    1    2    0    0  0.34729967034E+02  0.20913897222E+02 -0.19635471914E+02  0.46142318026E+02  0.10000002420E+02 0.  0.
         12    1    1    2    0    0 -0.34729967034E+02 -0.20913897222E+02  0.19635471914E+02  0.45045681974E+02  0.00000000000E+00 0. -1.
         11    1    3    3    0    0  0.52160845816E+01  0.18657064584E+00 -0.21859583015E+01  0.56586889758E+01  0.51100000000E-03 0. -1.
        -11    1    3    3    0    0  0.29131119044E+02  0.19449439384E+02 -0.17485809954E+02  0.39149155025E+02  0.51100000000E-03 0.  1.
        -12    1    3    3    0    0  0.38276340799E+00  0.12778871920E+01  0.36296341524E-01  0.13344740261E+01  0.00000000000E+00 0.  1.
</event>
<event>
 7    1  0.8398055E-009  0.4614232E+02  0.7816164E-02  0.1320468E+00
        -11   -1    0    0    0    0  0.00000000000E+00  0.00000000000E+00  0.45593999997E+02  0.45594000000E+02  0.51100000000E-03 0. -1.
         11   -1    0    0    0    0 -0.00000000000E+00 -0.00000000000E+00 -0.45593999997E+02  0.45594000000E+02  0.51100000000E-03 0.  1.
    9900012    2    1    2    0    0 -0.16573089982E+01  0.33541513391E+02  0.30022219285E+02  0.46142318249E+02  0.10000004447E+02 0.  0.
        -12    1    1    2    0    0  0.16573089982E+01 -0.33541513391E+02 -0.30022219285E+02  0.45045681751E+02  0.00000000000E+00 0.  1.
         11    1    3    3    0    0 -0.14000360311E+01  0.12697447294E+02  0.12267039475E+02  0.17710604914E+02  0.51100000000E-03 0. -1.
        -11    1    3    3    0    0  0.61291318735E+00  0.18265473470E+01 -0.56834107885E+00  0.20087184047E+01  0.51100000000E-03 0.  1.
        -12    1    3    3    0    0 -0.87018615442E+00  0.19017518750E+02  0.18323520889E+02  0.26422994931E+02  0.00000000000E+00 0.  1.
</event>
<event>
 7    1  0.8398055E-009  0.4614232E+02  0.7816164E-02  0.1320468E+00
        -11   -1    0    0    0    0  0.00000000000E+00  0.00000000000E+00  0.45593999997E+02  0.45594000000E+02  0.51100000000E-03 0. -1.
         11   -1    0    0    0    0 -0.00000000000E+00 -0.00000000000E+00 -0.45593999997E+02  0.45594000000E+02  0.51100000000E-03 0.  1.
    9900012    2    1    2    0    0 -0.73306543572E+01 -0.27117539131E+02 -0.35213833458E+02  0.46142317758E+02  0.99999999721E+01 0.  0.
         12    1    1    2    0    0  0.73306543572E+01  0.27117539131E+02  0.35213833458E+02  0.45045682242E+02  0.00000000000E+00 0. -1.
         11    1    3    3    0    0  0.12341559546E+01 -0.15243802053E+01 -0.51525066838E+00  0.20278953235E+01  0.51100000000E-03 0. -1.
        -11    1    3    3    0    0 -0.18561904820E+01 -0.11106159149E+02 -0.13605311227E+02  0.17660597611E+02  0.51100000000E-03 0.  1.
         12    1    3    3    0    0 -0.67086198299E+01 -0.14486999776E+02 -0.21093271563E+02  0.26453824823E+02  0.00000000000E+00 0. -1.
</event>
<event>
 7    1  0.8398055E-009  0.4614230E+02  0.7816164E-02  0.1320468E+00
        -11   -1    0    0    0    0  0.00000000000E+00  0.00000000000E+00  0.45593999997E+02  0.45594000000E+02  0.51100000000E-03 0. -1.
         11   -1    0    0    0    0 -0.00000000000E+00 -0.00000000000E+00 -0.45593999997E+02  0.45594000000E+02  0.51100000000E-03 0.  1.
    9900012    2    1    2    0    0  0.41654961618E+02  0.17111211925E+02 -0.10887012691E+01  0.46142304630E+02  0.99998802593E+01 0.  0.
        -12    1    1    2    0    0 -0.41654961618E+02 -0.17111211925E+02  0.10887012691E+01  0.45045695370E+02  0.00000000000E+00 0.  1.
         11    1    3    3    0    0  0.17932151595E+02  0.84445455738E+01  0.40782803429E+01  0.20236224490E+02  0.51100000000E-03 0. -1.
        -11    1    3    3    0    0  0.69806659604E+01  0.26616035470E+01 -0.27268746441E+01  0.79529665080E+01  0.51100000000E-03 0.  1.
        -12    1    3    3    0    0  0.16742144062E+02  0.60050628043E+01 -0.24401069679E+01  0.17953113632E+02  0.00000000000E+00 0.  1.
</event>
<event>
 7    1  0.8398055E-009  0.4614232E+02  0.7816164E-02  0.1320468E+00
        -11   -1    0    0    0    0  0.00000000000E+00  0.00000000000E+00  0.45593999997E+02  0.45594000000E+02  0.51100000000E-03 0. -1.
         11   -1    0    0    0    0 -0.00000000000E+00 -0.00000000000E+00 -0.45593999997E+02  0.45594000000E+02  0.51100000000E-03 0.  1.
    9900012    2    1    2    0    0 -0.39677047018E+02  0.20913121615E+02 -0.41817242729E+01  0.46142317258E+02  0.99999954158E+01 0.  0.
         12    1    1    2    0    0  0.39677047018E+02 -0.20913121615E+02  0.41817242729E+01  0.45045682742E+02  0.00000000000E+00 0. -1.
         11    1    3    3    0    0 -0.12065201749E+02  0.22932751932E+01  0.77635358317E-01  0.12281458865E+02  0.51100000000E-03 0. -1.
        -11    1    3    3    0    0 -0.10069002942E+02  0.90116955647E+01 -0.59214688008E+00  0.13525757479E+02  0.51100000000E-03 0.  1.
        -12    1    3    3    0    0 -0.17542842328E+02  0.96081508571E+01 -0.36672127512E+01  0.20335100914E+02  0.00000000000E+00 0.  1.
</event>
<event>
 7    1  0.8398055E-009  0.4614232E+02  0.7816164E-02  0.1320468E+00
        -11   -1    0    0    0    0  0.00000000000E+00  0.00000000000E+00  0.45593999997E+02  0.45594000000E+02  0.51100000000E-03 0.  1.
         11   -1    0    0    0    0 -0.00000000000E+00 -0.00000000000E+00 -0.45593999997E+02  0.45594000000E+02  0.51100000000E-03 0. -1.
    9900012    2    1    2    0    0  0.17697627899E+01  0.43722645370E+02 -0.10691663462E+02  0.46142318231E+02  0.10000004281E+02 0.  0.
         12    1    1    2    0    0 -0.17697627899E+01 -0.43722645370E+02  0.10691663462E+02  0.45045681769E+02  0.00000000000E+00 0. -1.
         11    1    3    3    0    0 -0.20139150030E+01  0.49406366495E+01 -0.14455641963E+01  0.55276939358E+01  0.51100000000E-03 0. -1.
        -11    1    3    3    0    0  0.54859004471E+01  0.28274969312E+02 -0.54460604276E+01  0.29312600836E+02  0.51100000000E-03 0.  1.
        -12    1    3    3    0    0 -0.17022226542E+01  0.10507039408E+02 -0.38000388380E+01  0.11302023459E+02  0.00000000000E+00 0.  1.
</event>
<event>
 7    1  0.8398055E-009  0.4614232E+02  0.7816164E-02  0.1320468E+00
        -11   -1    0    0    0    0  0.00000000000E+00  0.00000000000E+00  0.45593999997E+02  0.45594000000E+02  0.51100000000E-03 0. -1.
         11   -1    0    0    0    0 -0.00000000000E+00 -0.00000000000E+00 -0.45593999997E+02  0.45594000000E+02  0.51100000000E-03 0.  1.
    9900012    2    1    2    0    0  0.15229084658E+02 -0.13393853770E+02 -0.40221798587E+02  0.46142318521E+02  0.10000006929E+02 0.  0.
         12    1    1    2    0    0 -0.15229084658E+02  0.13393853770E+02  0.40221798587E+02  0.45045681479E+02  0.00000000000E+00 0. -1.
         11    1    3    3    0    0  0.61974709704E+01 -0.41209355394E+01 -0.76884504140E+01  0.10700608683E+02  0.51100000000E-03 0. -1.
        -11    1    3    3    0    0  0.77209413464E+00  0.49078716830E+00 -0.50033739489E+01  0.50863299668E+01  0.51100000000E-03 0.  1.
        -12    1    3    3    0    0  0.82595195529E+01 -0.97637053989E+01 -0.27529974224E+02  0.30355379872E+02  0.00000000000E+00 0.  1.
</event>
<event>
 7    1  0.8398055E-009  0.4614232E+02  0.7816164E-02  0.1320468E+00
        -11   -1    0    0    0    0  0.00000000000E+00  0.00000000000E+00  0.45593999997E+02  0.45594000000E+02  0.51100000000E-03 0. -1.
         11   -1    0    0    0    0 -0.00000000000E+00 -0.00000000000E+00 -0.45593999997E+02  0.45594000000E+02  0.51100000000E-03 0.  1.
    9900012    2    1    2    0    0 -0.38357952932E+02  0.15619901045E+02  0.17714392432E+02  0.46142316954E+02  0.99999926443E+01 0.  0.
        -12    1    1    2    0    0  0.38357952932E+02 -0.15619901045E+02 -0.17714392432E+02  0.45045683046E+02  0.00000000000E+00 0.  1.
         11    1    3    3    0    0 -0.63650758353E+01  0.14198707335E+01  0.26882342806E+01  0.70538519333E+01  0.51100000000E-03 0. -1.
        -11    1    3    3    0    0 -0.12653781865E+02  0.29894665631E+01  0.18293776307E+01  0.13130183875E+02  0.51100000000E-03 0.  1.
        -12    1    3    3    0    0 -0.19339095232E+02  0.11210563748E+02  0.13196780521E+02  0.25958281146E+02  0.00000000000E+00 0.  1.
</event>
<event>
 7    1  0.8398055E-009  0.4614232E+02  0.7816164E-02  0.1320468E+00
        -11   -1    0    0    0    0  0.00000000000E+00  0.00000000000E+00  0.45593999997E+02  0.45594000000E+02  0.51100000000E-03 0. -1.
         11   -1    0    0    0    0 -0.00000000000E+00 -0.00000000000E+00 -0.45593999997E+02  0.45594000000E+02  0.51100000000E-03 0.  1.
    9900012    2    1    2    0    0  0.18143971377E+02  0.31420259651E+01 -0.41110065441E+02  0.46142317576E+02  0.99999983126E+01 0.  0.
         12    1    1    2    0    0 -0.18143971377E+02 -0.31420259651E+01  0.41110065441E+02  0.45045682424E+02  0.00000000000E+00 0. -1.
         11    1    3    3    0    0  0.26292325175E+01  0.31789571279E+01 -0.68149982772E+01  0.79663563711E+01  0.51100000000E-03 0. -1.
        -11    1    3    3    0    0  0.46483102495E+01 -0.29666057865E+01 -0.11545036091E+02  0.12794350185E+02  0.51100000000E-03 0.  1.
        -12    1    3    3    0    0  0.10866428610E+02  0.29296746237E+01 -0.22750031073E+02  0.25381611019E+02  0.00000000000E+00 0.  1.
</event>
<event>
 7    1  0.8398055E-009  0.4614232E+02  0.7816164E-02  0.1320468E+00
        -11   -1    0    0    0    0  0.00000000000E+00  0.00000000000E+00  0.45593999997E+02  0.45594000000E+02  0.51100000000E-03 0. -1.
         11   -1    0    0    0    0 -0.00000000000E+00 -0.00000000000E+00 -0.45593999997E+02  0.45594000000E+02  0.51100000000E-03 0.  1.
    9900012    2    1    2    0    0  0.23863506809E+02  0.34965571507E+02 -0.15396602114E+02  0.46142317580E+02  0.99999983478E+01 0.  0.
         12    1    1    2    0    0 -0.23863506809E+02 -0.34965571507E+02  0.15396602114E+02  0.45045682420E+02  0.00000000000E+00 0. -1.
         11    1    3    3    0    0  0.57879237079E+01  0.61568906509E+01 -0.88753241561E+00  0.84967686437E+01  0.51100000000E-03 0. -1.
        -11    1    3    3    0    0  0.93817980176E+01  0.90398672365E+01 -0.40017534874E+01  0.13629063245E+02  0.51100000000E-03 0.  1.
         12    1    3    3    0    0  0.86937850834E+01  0.19768813620E+02 -0.10507316211E+02  0.24016485691E+02  0.00000000000E+00 0. -1.
</event>
<event>
 7    1  0.8398055E-009  0.4614232E+02  0.7816164E-02  0.1320468E+00
        -11   -1    0    0    0    0  0.00000000000E+00  0.00000000000E+00  0.45593999997E+02  0.45594000000E+02  0.51100000000E-03 0. -1.
         11   -1    0    0    0    0 -0.00000000000E+00 -0.00000000000E+00 -0.45593999997E+02  0.45594000000E+02  0.51100000000E-03 0.  1.
    9900012    2    1    2    0    0 -0.85513558844E+01  0.29175238856E+02 -0.33238430093E+02  0.46142317800E+02  0.10000000356E+02 0.  0.
         12    1    1    2    0    0  0.85513558844E+01 -0.29175238856E+02  0.33238430093E+02  0.45045682200E+02  0.00000000000E+00 0. -1.
         11    1    3    3    0    0 -0.16438170938E+01  0.32168231044E+01 -0.68904801928E+01  0.77800259043E+01  0.51100000000E-03 0. -1.
        -11    1    3    3    0    0 -0.38762838186E+01  0.73922174125E+01 -0.12382695495E+02  0.14933238178E+02  0.51100000000E-03 0.  1.
        -12    1    3    3    0    0 -0.30312549720E+01  0.18566198339E+02 -0.13965254406E+02  0.23429053717E+02  0.00000000000E+00 0.  1.
</event>
<event>
 7    1  0.8398055E-009  0.4614232E+02  0.7816164E-02  0.1320468E+00
        -11   -1    0    0    0    0  0.00000000000E+00  0.00000000000E+00  0.45593999997E+02  0.45594000000E+02  0.51100000000E-03 0. -1.
         11   -1    0    0    0    0 -0.00000000000E+00 -0.00000000000E+00 -0.45593999997E+02  0.45594000000E+02  0.51100000000E-03 0.  1.
    9900012    2    1    2    0    0  0.84671828712E+00 -0.33175747764E+02  0.30459259632E+02  0.46142315757E+02  0.99999817294E+01 0.  0.
        -12    1    1    2    0    0 -0.84671828712E+00  0.33175747764E+02 -0.30459259632E+02  0.45045684243E+02  0.00000000000E+00 0.  1.
         11    1    3    3    0    0 -0.26804463012E+01 -0.79442307139E+01  0.50749033328E+01  0.98005223385E+01  0.51100000000E-03 0. -1.
        -11    1    3    3    0    0  0.42007855355E+01 -0.21034699378E+02  0.23072991717E+02  0.31503462097E+02  0.51100000000E-03 0.  1.
        -12    1    3    3    0    0 -0.67362094723E+00 -0.41968176722E+01  0.23113645817E+01  0.48383313222E+01  0.00000000000E+00 0.  1.
</event>
<event>
 7    1  0.8398055E-009  0.4614232E+02  0.7816164E-02  0.1320468E+00
        -11   -1    0    0    0    0  0.00000000000E+00  0.00000000000E+00  0.45593999997E+02  0.45594000000E+02  0.51100000000E-03 0. -1.
         11   -1    0    0    0    0 -0.00000000000E+00 -0.00000000000E+00 -0.45593999997E+02  0.45594000000E+02  0.51100000000E-03 0.  1.
    9900012    2    1    2    0    0  0.11801840126E+01  0.12356787590E+02  0.43301619426E+02  0.46142320088E+02  0.10000021218E+02 0.  0.
        -12    1    1    2    0    0 -0.11801840126E+01 -0.12356787590E+02 -0.43301619426E+02  0.45045679912E+02  0.00000000000E+00 0.  1.
         11    1    3    3    0    0  0.36799949972E+01  0.42636616804E+01  0.14502087273E+02  0.15557368339E+02  0.51100000000E-03 0. -1.
        -11    1    3    3    0    0 -0.10784238515E+01 -0.42136263289E+00  0.12023466867E+01  0.16691861154E+01  0.51100000000E-03 0.  1.
         12    1    3    3    0    0 -0.14213871332E+01  0.85144885429E+01  0.27597185466E+02  0.28915765633E+02  0.00000000000E+00 0. -1.
</event>
<event>
 7    1  0.8398055E-009  0.4614232E+02  0.7816164E-02  0.1320468E+00
        -11   -1    0    0    0    0  0.00000000000E+00  0.00000000000E+00  0.45593999997E+02  0.45594000000E+02  0.51100000000E-03 0. -1.
         11   -1    0    0    0    0 -0.00000000000E+00 -0.00000000000E+00 -0.45593999997E+02  0.45594000000E+02  0.51100000000E-03 0.  1.
    9900012    2    1    2    0    0  0.22554243926E+02  0.24452006552E+02 -0.30372997359E+02  0.46142317498E+02  0.99999975984E+01 0.  0.
         12    1    1    2    0    0 -0.22554243926E+02 -0.24452006552E+02  0.30372997359E+02  0.45045682502E+02  0.00000000000E+00 0. -1.
         11    1    3    3    0    0  0.88730796609E+01  0.66359849339E+01 -0.82665061922E+01  0.13823999551E+02  0.51100000000E-03 0. -1.
        -11    1    3    3    0    0  0.26025865127E+01  0.12543170694E+01 -0.50940363906E+00  0.29336428200E+01  0.51100000000E-03 0.  1.
        -12    1    3    3    0    0  0.11078577752E+02  0.16561704549E+02 -0.21597087528E+02  0.29384675126E+02  0.00000000000E+00 0.  1.
</event>
<event>
 7    1  0.8398055E-009  0.4614232E+02  0.7816164E-02  0.1320468E+00
        -11   -1    0    0    0    0  0.00000000000E+00  0.00000000000E+00  0.45593999997E+02  0.45594000000E+02  0.51100000000E-03 0.  1.
         11   -1    0    0    0    0 -0.00000000000E+00 -0.00000000000E+00 -0.45593999997E+02  0.45594000000E+02  0.51100000000E-03 0. -1.
    9900012    2    1    2    0    0 -0.39307213443E+02 -0.10307485289E+02 -0.19437392054E+02  0.46142317726E+02  0.99999996823E+01 0.  0.
         12    1    1    2    0    0  0.39307213443E+02  0.10307485289E+02  0.19437392054E+02  0.45045682274E+02  0.00000000000E+00 0. -1.
         11    1    3    3    0    0 -0.21944374926E+02 -0.36671536419E+01 -0.84865469389E+01  0.23812288549E+02  0.51100000000E-03 0. -1.
        -11    1    3    3    0    0 -0.68330270336E+01 -0.18463592155E+01 -0.11579138786E+01  0.71721730045E+01  0.51100000000E-03 0.  1.
        -12    1    3    3    0    0 -0.10529811483E+02 -0.47939724312E+01 -0.97929312368E+01  0.15157856173E+02  0.00000000000E+00 0.  1.
</event>
<event>
 7    1  0.8398055E-009  0.4614232E+02  0.7816164E-02  0.1320468E+00
        -11   -1    0    0    0    0  0.00000000000E+00  0.00000000000E+00  0.45593999997E+02  0.45594000000E+02  0.51100000000E-03 0. -1.
         11   -1    0    0    0    0 -0.00000000000E+00 -0.00000000000E+00 -0.45593999997E+02  0.45594000000E+02  0.51100000000E-03 0.  1.
    9900012    2    1    2    0    0 -0.14009500605E+02 -0.35266581986E+02  0.24271702609E+02  0.46142318079E+02  0.10000002902E+02 0.  0.
        -12    1    1    2    0    0  0.14009500605E+02  0.35266581986E+02 -0.24271702609E+02  0.45045681921E+02  0.00000000000E+00 0.  1.
         11    1    3    3    0    0 -0.74451377516E+01 -0.16342440950E+02  0.16161287890E+02  0.24159732591E+02  0.51100000000E-03 0. -1.
        -11    1    3    3    0    0 -0.27207140345E+00 -0.36229152977E+00  0.10615565047E+01  0.11542012281E+01  0.51100000000E-03 0.  1.
         12    1    3    3    0    0 -0.62922914498E+01 -0.18561849506E+02  0.70488582146E+01  0.20828384260E+02  0.00000000000E+00 0. -1.
</event>
<event>
 7    1  0.8398055E-009  0.4614232E+02  0.7816164E-02  0.1320468E+00
        -11   -1    0    0    0    0  0.00000000000E+00  0.00000000000E+00  0.45593999997E+02  0.45594000000E+02  0.51100000000E-03 0. -1.
         11   -1    0    0    0    0 -0.00000000000E+00 -0.00000000000E+00 -0.45593999997E+02  0.45594000000E+02  0.51100000000E-03 0.  1.
    9900012    2    1    2    0    0 -0.38609598785E+02 -0.67378639713E+01  0.22203907924E+02  0.46142318117E+02  0.10000003244E+02 0.  0.
        -12    1    1    2    0    0  0.38609598785E+02  0.67378639713E+01 -0.22203907924E+02  0.45045681883E+02  0.00000000000E+00 0.  1.
         11    1    3    3    0    0 -0.15047604382E+02 -0.23963554395E-01  0.70646331615E+01  0.16623477791E+02  0.51100000000E-03 0. -1.
        -11    1    3    3    0    0 -0.51390419472E+01 -0.16924352172E+01  0.67799671410E+01  0.86742171863E+01  0.51100000000E-03 0.  1.
        -12    1    3    3    0    0 -0.18422952455E+02 -0.50214651997E+01  0.83593076218E+01  0.20844623140E+02  0.00000000000E+00 0.  1.
</event>
<event>
 7    1  0.8398055E-009  0.4614232E+02  0.7816164E-02  0.1320468E+00
        -11   -1    0    0    0    0  0.00000000000E+00  0.00000000000E+00  0.45593999997E+02  0.45594000000E+02  0.51100000000E-03 0. -1.
         11   -1    0    0    0    0 -0.00000000000E+00 -0.00000000000E+00 -0.45593999997E+02  0.45594000000E+02  0.51100000000E-03 0.  1.
    9900012    2    1    2    0    0 -0.92296561361E+01 -0.15437216156E+02 -0.41299143743E+02  0.46142317977E+02  0.10000001965E+02 0.  0.
         12    1    1    2    0    0  0.92296561361E+01  0.15437216156E+02  0.41299143743E+02  0.45045682023E+02  0.00000000000E+00 0. -1.
         11    1    3    3    0    0 -0.33047895695E+01 -0.64550521998E-01 -0.10720047051E+02  0.11218075143E+02  0.51100000000E-03 0. -1.
        -11    1    3    3    0    0 -0.13733001618E+01 -0.23158513438E+01 -0.27463944321E+01  0.38460113649E+01  0.51100000000E-03 0.  1.
        -12    1    3    3    0    0 -0.45515664048E+01 -0.13056814290E+02 -0.27832702260E+02  0.31078231469E+02  0.00000000000E+00 0.  1.
</event>
<event>
 7    1  0.8398055E-009  0.4614232E+02  0.7816164E-02  0.1320468E+00
        -11   -1    0    0    0    0  0.00000000000E+00  0.00000000000E+00  0.45593999997E+02  0.45594000000E+02  0.51100000000E-03 0. -1.
         11   -1    0    0    0    0 -0.00000000000E+00 -0.00000000000E+00 -0.45593999997E+02  0.45594000000E+02  0.51100000000E-03 0.  1.
    9900012    2    1    2    0    0 -0.24010077717E+02 -0.16231237450E+02  0.34484440825E+02  0.46142316965E+02  0.99999927384E+01 0.  0.
        -12    1    1    2    0    0  0.24010077717E+02  0.16231237450E+02 -0.34484440825E+02  0.45045683035E+02  0.00000000000E+00 0.  1.
         11    1    3    3    0    0 -0.50185914520E+01  0.18469285500E-01  0.58422112794E+01  0.77018201856E+01  0.51100000000E-03 0. -1.
        -11    1    3    3    0    0 -0.83619312586E+01 -0.10663150705E+02  0.13677780858E+02  0.19253736437E+02  0.51100000000E-03 0.  1.
         12    1    3    3    0    0 -0.10629555006E+02 -0.55865560306E+01  0.14964448688E+02  0.19186760343E+02  0.00000000000E+00 0. -1.
</event>
<event>
 7    1  0.8398055E-009  0.4614232E+02  0.7816164E-02  0.1320468E+00
        -11   -1    0    0    0    0  0.00000000000E+00  0.00000000000E+00  0.45593999997E+02  0.45594000000E+02  0.51100000000E-03 0. -1.
         11   -1    0    0    0    0 -0.00000000000E+00 -0.00000000000E+00 -0.45593999997E+02  0.45594000000E+02  0.51100000000E-03 0.  1.
    9900012    2    1    2    0    0 -0.31584793144E+02  0.27795485148E+02 -0.16091159839E+02  0.46142316772E+02  0.99999909798E+01 0.  0.
         12    1    1    2    0    0  0.31584793144E+02 -0.27795485148E+02  0.16091159839E+02  0.45045683228E+02  0.00000000000E+00 0. -1.
         11    1    3    3    0    0 -0.13782875344E+02  0.74127032778E+01 -0.65220363057E+01  0.16954432473E+02  0.51100000000E-03 0. -1.
        -11    1    3    3    0    0 -0.53097573486E+01  0.52660758599E+01 -0.51661979803E+01  0.90892617905E+01  0.51100000000E-03 0.  1.
         12    1    3    3    0    0 -0.12492160451E+02  0.15116706010E+02 -0.44029255526E+01  0.20098622509E+02  0.00000000000E+00 0. -1.
</event>
<event>
 7    1  0.8398055E-009  0.4614232E+02  0.7816164E-02  0.1320468E+00
        -11   -1    0    0    0    0  0.00000000000E+00  0.00000000000E+00  0.45593999997E+02  0.45594000000E+02  0.51100000000E-03 0. -1.
         11   -1    0    0    0    0 -0.00000000000E+00 -0.00000000000E+00 -0.45593999997E+02  0.45594000000E+02  0.51100000000E-03 0.  1.
    9900012    2    1    2    0    0  0.31518592954E+02  0.24165245707E+02 -0.21254006641E+02  0.46142316520E+02  0.99999886834E+01 0.  0.
         12    1    1    2    0    0 -0.31518592954E+02 -0.24165245707E+02  0.21254006641E+02  0.45045683480E+02  0.00000000000E+00 0. -1.
         11    1    3    3    0    0  0.11102010384E+02  0.52219963626E+01 -0.44972793466E+01  0.13067111477E+02  0.51100000000E-03 0. -1.
        -11    1    3    3    0    0  0.30131031147E+01  0.46681921930E+00 -0.26296614104E+01  0.40263916797E+01  0.51100000000E-03 0.  1.
         12    1    3    3    0    0  0.17403479455E+02  0.18476430125E+02 -0.14127065884E+02  0.29048813363E+02  0.00000000000E+00 0. -1.
</event>
<event>
 7    1  0.8398055E-009  0.4614232E+02  0.7816164E-02  0.1320468E+00
        -11   -1    0    0    0    0  0.00000000000E+00  0.00000000000E+00  0.45593999997E+02  0.45594000000E+02  0.51100000000E-03 0.  1.
         11   -1    0    0    0    0 -0.00000000000E+00 -0.00000000000E+00 -0.45593999997E+02  0.45594000000E+02  0.51100000000E-03 0. -1.
    9900012    2    1    2    0    0 -0.23742544833E+02 -0.36913521185E+02 -0.10138889116E+02  0.46142317034E+02  0.99999933652E+01 0.  0.
         12    1    1    2    0    0  0.23742544833E+02  0.36913521185E+02  0.10138889116E+02  0.45045682966E+02  0.00000000000E+00 0. -1.
         11    1    3    3    0    0 -0.13523512668E+01 -0.57780414951E+01  0.88324710208E+00  0.59995619151E+01  0.51100000000E-03 0. -1.
        -11    1    3    3    0    0 -0.14576583877E+02 -0.17158142020E+02 -0.76526492210E+01  0.23779017546E+02  0.51100000000E-03 0.  1.
        -12    1    3    3    0    0 -0.78136096894E+01 -0.13977337670E+02 -0.33694869975E+01  0.16363737573E+02  0.00000000000E+00 0.  1.
</event>
<event>
 7    1  0.8398055E-009  0.4614232E+02  0.7816164E-02  0.1320468E+00
        -11   -1    0    0    0    0  0.00000000000E+00  0.00000000000E+00  0.45593999997E+02  0.45594000000E+02  0.51100000000E-03 0. -1.
         11   -1    0    0    0    0 -0.00000000000E+00 -0.00000000000E+00 -0.45593999997E+02  0.45594000000E+02  0.51100000000E-03 0.  1.
    9900012    2    1    2    0    0  0.96704017332E+01  0.27821854558E+01  0.43907360212E+02  0.46142317561E+02  0.99999981760E+01 0.  0.
        -12    1    1    2    0    0 -0.96704017332E+01 -0.27821854558E+01 -0.43907360212E+02  0.45045682439E+02  0.00000000000E+00 0.  1.
         11    1    3    3    0    0  0.15055243676E+00  0.64146570108E+00  0.25081856057E+01  0.25932874070E+01  0.51100000000E-03 0. -1.
        -11    1    3    3    0    0  0.59615481299E+01  0.44633968192E+01  0.35535871100E+02  0.36307851801E+02  0.51100000000E-03 0.  1.
         12    1    3    3    0    0  0.35583011666E+01 -0.23226770645E+01  0.58633035060E+01  0.72411783531E+01  0.00000000000E+00 0. -1.
</event>
<event>
 7    1  0.8398055E-009  0.4614232E+02  0.7816164E-02  0.1320468E+00
        -11   -1    0    0    0    0  0.00000000000E+00  0.00000000000E+00  0.45593999997E+02  0.45594000000E+02  0.51100000000E-03 0.  1.
         11   -1    0    0    0    0 -0.00000000000E+00 -0.00000000000E+00 -0.45593999997E+02  0.45594000000E+02  0.51100000000E-03 0. -1.
    9900012    2    1    2    0    0  0.28774416761E+02  0.32584986643E+02  0.11805292110E+02  0.46142319450E+02  0.10000015396E+02 0.  0.
        -12    1    1    2    0    0 -0.28774416761E+02 -0.32584986643E+02 -0.11805292110E+02  0.45045680550E+02  0.00000000000E+00 0.  1.
         11    1    3    3    0    0  0.12182189983E+02  0.17629587955E+02  0.45947303886E+01  0.21916196565E+02  0.51100000000E-03 0. -1.
        -11    1    3    3    0    0  0.16415935791E+02  0.14182367444E+02  0.55600018692E+01  0.22395002015E+02  0.51100000000E-03 0.  1.
        -12    1    3    3    0    0  0.17629098762E+00  0.77303124311E+00  0.16505598518E+01  0.18311208698E+01  0.00000000000E+00 0.  1.
</event>
<event>
 7    1  0.8398055E-009  0.4614232E+02  0.7816164E-02  0.1320468E+00
        -11   -1    0    0    0    0  0.00000000000E+00  0.00000000000E+00  0.45593999997E+02  0.45594000000E+02  0.51100000000E-03 0. -1.
         11   -1    0    0    0    0 -0.00000000000E+00 -0.00000000000E+00 -0.45593999997E+02  0.45594000000E+02  0.51100000000E-03 0.  1.
    9900012    2    1    2    0    0 -0.29854617266E+02 -0.19261774247E+01  0.33676475019E+02  0.46142319838E+02  0.10000018938E+02 0.  0.
        -12    1    1    2    0    0  0.29854617266E+02  0.19261774247E+01 -0.33676475019E+02  0.45045680162E+02  0.00000000000E+00 0.  1.
         11    1    3    3    0    0 -0.18153483053E+02 -0.18007956218E+01  0.16038467649E+02  0.24290414912E+02  0.51100000000E-03 0. -1.
        -11    1    3    3    0    0 -0.36672849639E+01  0.23899936220E+01  0.47630422211E+01  0.64689736420E+01  0.51100000000E-03 0.  1.
         12    1    3    3    0    0 -0.80338492488E+01 -0.25153754249E+01  0.12874965149E+02  0.15382931284E+02  0.00000000000E+00 0. -1.
</event>
<event>
 7    1  0.8398055E-009  0.4614232E+02  0.7816164E-02  0.1320468E+00
        -11   -1    0    0    0    0  0.00000000000E+00  0.00000000000E+00  0.45593999997E+02  0.45594000000E+02  0.51100000000E-03 0. -1.
         11   -1    0    0    0    0 -0.00000000000E+00 -0.00000000000E+00 -0.45593999997E+02  0.45594000000E+02  0.51100000000E-03 0.  1.
    9900012    2    1    2    0    0 -0.27377853070E+01 -0.27300149312E+02 -0.35725619157E+02  0.46142317798E+02  0.10000000339E+02 0.  0.
         12    1    1    2    0    0  0.27377853070E+01  0.27300149312E+02  0.35725619157E+02  0.45045682202E+02  0.00000000000E+00 0. -1.
         11    1    3    3    0    0  0.24624232577E+01 -0.74723821351E+01 -0.11275507011E+02  0.13749075667E+02  0.51100000000E-03 0. -1.
        -11    1    3    3    0    0 -0.22552912658E+00 -0.27818168763E+01 -0.68273492023E+01  0.73757756142E+01  0.51100000000E-03 0.  1.
        -12    1    3    3    0    0 -0.49746794381E+01 -0.17045950301E+02 -0.17622762944E+02  0.25017466517E+02  0.00000000000E+00 0.  1.
</event>
<event>
 7    1  0.8683024E-009  0.4614232E+02  0.7816164E-02  0.1320468E+00
        -11   -1    0    0    0    0  0.00000000000E+00  0.00000000000E+00  0.45593999997E+02  0.45594000000E+02  0.51100000000E-03 0. -1.
         11   -1    0    0    0    0 -0.00000000000E+00 -0.00000000000E+00 -0.45593999997E+02  0.45594000000E+02  0.51100000000E-03 0.  1.
    9900012    2    1    2    0    0  0.38215958272E+02  0.65367453334E+00 -0.23837511227E+02  0.46142315428E+02  0.99999787233E+01 0.  0.
         12    1    1    2    0    0 -0.38215958272E+02 -0.65367453334E+00  0.23837511227E+02  0.45045684572E+02  0.00000000000E+00 0. -1.
         11    1    3    3    0    0  0.13169133209E+01  0.14885889750E+01 -0.62926129576E+00  0.20847368829E+01  0.51100000000E-03 0. -1.
        -11    1    3    3    0    0  0.98401484404E+01  0.23165548678E+01 -0.48908577762E+01  0.11230112993E+02  0.51100000000E-03 0.  1.
        -12    1    3    3    0    0  0.27058896511E+02 -0.31514693095E+01 -0.18317392155E+02  0.32827465552E+02  0.00000000000E+00 0.  1.
</event>
<event>
 7    1  0.8398055E-009  0.4614232E+02  0.7816164E-02  0.1320468E+00
        -11   -1    0    0    0    0  0.00000000000E+00  0.00000000000E+00  0.45593999997E+02  0.45594000000E+02  0.51100000000E-03 0. -1.
         11   -1    0    0    0    0 -0.00000000000E+00 -0.00000000000E+00 -0.45593999997E+02  0.45594000000E+02  0.51100000000E-03 0.  1.
    9900012    2    1    2    0    0  0.22451572282E+02  0.56270970284E+01 -0.38644225071E+02  0.46142318184E+02  0.10000003856E+02 0.  0.
         12    1    1    2    0    0 -0.22451572282E+02 -0.56270970284E+01  0.38644225071E+02  0.45045681816E+02  0.00000000000E+00 0. -1.
         11    1    3    3    0    0  0.66666756721E+00 -0.12643451226E+00 -0.28664829163E-01  0.67915628879E+00  0.51100000000E-03 0. -1.
        -11    1    3    3    0    0  0.69833739407E+01  0.42709213491E+01 -0.20162586601E+02  0.21760932413E+02  0.51100000000E-03 0.  1.
         12    1    3    3    0    0  0.14801530774E+02  0.14826101915E+01 -0.18452973641E+02  0.23702229482E+02  0.00000000000E+00 0. -1.
</event>
<event>
 7    1  0.8398055E-009  0.4614232E+02  0.7816164E-02  0.1320468E+00
        -11   -1    0    0    0    0  0.00000000000E+00  0.00000000000E+00  0.45593999997E+02  0.45594000000E+02  0.51100000000E-03 0. -1.
         11   -1    0    0    0    0 -0.00000000000E+00 -0.00000000000E+00 -0.45593999997E+02  0.45594000000E+02  0.51100000000E-03 0.  1.
    9900012    2    1    2    0    0  0.33964727297E+02 -0.11496924540E+02  0.27264105934E+02  0.46142318224E+02  0.10000004223E+02 0.  0.
        -12    1    1    2    0    0 -0.33964727297E+02  0.11496924540E+02 -0.27264105934E+02  0.45045681776E+02  0.00000000000E+00 0.  1.
         11    1    3    3    0    0  0.63993935641E+01  0.30342465279E+00  0.41250524338E+01  0.76197350578E+01  0.51100000000E-03 0. -1.
        -11    1    3    3    0    0  0.45076101125E+01 -0.49712157984E+01  0.58824730439E+01  0.89238458533E+01  0.51100000000E-03 0.  1.
        -12    1    3    3    0    0  0.23057723621E+02 -0.68291333942E+01  0.17256580456E+02  0.29598737313E+02  0.00000000000E+00 0.  1.
</event>
<event>
 7    1  0.8398055E-009  0.4614232E+02  0.7816164E-02  0.1320468E+00
        -11   -1    0    0    0    0  0.00000000000E+00  0.00000000000E+00  0.45593999997E+02  0.45594000000E+02  0.51100000000E-03 0. -1.
         11   -1    0    0    0    0 -0.00000000000E+00 -0.00000000000E+00 -0.45593999997E+02  0.45594000000E+02  0.51100000000E-03 0.  1.
    9900012    2    1    2    0    0 -0.33395104087E+02 -0.14990445607E+02  0.26251990411E+02  0.46142318331E+02  0.10000005199E+02 0.  0.
        -12    1    1    2    0    0  0.33395104087E+02  0.14990445607E+02 -0.26251990411E+02  0.45045681669E+02  0.00000000000E+00 0.  1.
         11    1    3    3    0    0 -0.17460950940E+02 -0.41003423506E+01  0.99895914523E+01  0.20530210733E+02  0.51100000000E-03 0. -1.
        -11    1    3    3    0    0 -0.14888553367E+02 -0.11270989250E+02  0.15315792416E+02  0.24151143195E+02  0.51100000000E-03 0.  1.
        -12    1    3    3    0    0 -0.10455997804E+01  0.38088599315E+00  0.94660654265E+00  0.14609644031E+01  0.00000000000E+00 0.  1.
</event>
<event>
 7    1  0.8398055E-009  0.4614232E+02  0.7816164E-02  0.1320468E+00
        -11   -1    0    0    0    0  0.00000000000E+00  0.00000000000E+00  0.45593999997E+02  0.45594000000E+02  0.51100000000E-03 0. -1.
         11   -1    0    0    0    0 -0.00000000000E+00 -0.00000000000E+00 -0.45593999997E+02  0.45594000000E+02  0.51100000000E-03 0.  1.
    9900012    2    1    2    0    0 -0.11672218271E+02  0.12348425017E+02 -0.41717972532E+02  0.46142317500E+02  0.99999976148E+01 0.  0.
         12    1    1    2    0    0  0.11672218271E+02 -0.12348425017E+02  0.41717972532E+02  0.45045682500E+02  0.00000000000E+00 0. -1.
         11    1    3    3    0    0 -0.47137698551E+01  0.66662217085E+01 -0.91945360378E+01  0.12296244603E+02  0.51100000000E-03 0. -1.
        -11    1    3    3    0    0 -0.34214907335E+01  0.11505100075E+01 -0.13348443674E+02  0.13827914553E+02  0.51100000000E-03 0.  1.
        -12    1    3    3    0    0 -0.35369576822E+01  0.45316933008E+01 -0.19174992820E+02  0.20018158344E+02  0.00000000000E+00 0.  1.
</event>
<event>
 7    1  0.8398055E-009  0.4614232E+02  0.7816164E-02  0.1320468E+00
        -11   -1    0    0    0    0  0.00000000000E+00  0.00000000000E+00  0.45593999997E+02  0.45594000000E+02  0.51100000000E-03 0. -1.
         11   -1    0    0    0    0 -0.00000000000E+00 -0.00000000000E+00 -0.45593999997E+02  0.45594000000E+02  0.51100000000E-03 0.  1.
    9900012    2    1    2    0    0  0.57523527658E+01  0.25253856377E+01  0.44605452090E+02  0.46142317730E+02  0.99999997184E+01 0.  0.
        -12    1    1    2    0    0 -0.57523527658E+01 -0.25253856377E+01 -0.44605452090E+02  0.45045682270E+02  0.00000000000E+00 0.  1.
         11    1    3    3    0    0  0.12809098855E+00  0.31875947485E+01  0.22347007827E+02  0.22573566990E+02  0.51100000000E-03 0. -1.
        -11    1    3    3    0    0  0.33556627657E+01  0.19153785795E+01  0.15668527976E+02  0.16137903113E+02  0.51100000000E-03 0.  1.
        -12    1    3    3    0    0  0.22685990116E+01 -0.25775876902E+01  0.65899162877E+01  0.74308476270E+01  0.00000000000E+00 0.  1.
</event>
<event>
 7    1  0.8398055E-009  0.4614232E+02  0.7816164E-02  0.1320468E+00
        -11   -1    0    0    0    0  0.00000000000E+00  0.00000000000E+00  0.45593999997E+02  0.45594000000E+02  0.51100000000E-03 0. -1.
         11   -1    0    0    0    0 -0.00000000000E+00 -0.00000000000E+00 -0.45593999997E+02  0.45594000000E+02  0.51100000000E-03 0.  1.
    9900012    2    1    2    0    0 -0.28516843263E+02  0.54103897780E+01 -0.34447507209E+02  0.46142318518E+02  0.10000006902E+02 0.  0.
         12    1    1    2    0    0  0.28516843263E+02 -0.54103897780E+01  0.34447507209E+02  0.45045681482E+02  0.00000000000E+00 0. -1.
         11    1    3    3    0    0 -0.16873145871E+01  0.11519102657E+01 -0.17198049363E+00  0.20502451872E+01  0.51100000000E-03 0. -1.
        -11    1    3    3    0    0 -0.21762967629E+02  0.51143027311E+01 -0.25404678676E+02  0.33840516416E+02  0.51100000000E-03 0.  1.
         12    1    3    3    0    0 -0.50665610468E+01 -0.85582321886E+00 -0.88708480400E+01  0.10251556915E+02  0.00000000000E+00 0. -1.
</event>
<event>
 7    1  0.8398055E-009  0.4614232E+02  0.7816164E-02  0.1320468E+00
        -11   -1    0    0    0    0  0.00000000000E+00  0.00000000000E+00  0.45593999997E+02  0.45594000000E+02  0.51100000000E-03 0. -1.
         11   -1    0    0    0    0 -0.00000000000E+00 -0.00000000000E+00 -0.45593999997E+02  0.45594000000E+02  0.51100000000E-03 0.  1.
    9900012    2    1    2    0    0  0.44852588541E+02  0.39481164297E+01 -0.13308670201E+01  0.46142317308E+02  0.99999958666E+01 0.  0.
         12    1    1    2    0    0 -0.44852588541E+02 -0.39481164297E+01  0.13308670201E+01  0.45045682692E+02  0.00000000000E+00 0. -1.
         11    1    3    3    0    0  0.70688090553E+01  0.32590210859E+01 -0.20705870690E+01  0.80546018504E+01  0.51100000000E-03 0.  1.
        -11    1    3    3    0    0  0.38174515828E+01 -0.10512088906E+01 -0.81000456316E+00  0.40415448002E+01  0.51100000000E-03 0. -1.
         12    1    3    3    0    0  0.33966327903E+02  0.17403042344E+01  0.15497246120E+01  0.34046170657E+02  0.00000000000E+00 0. -1.
</event>
<event>
 7    1  0.8398055E-009  0.4614232E+02  0.7816164E-02  0.1320468E+00
        -11   -1    0    0    0    0  0.00000000000E+00  0.00000000000E+00  0.45593999997E+02  0.45594000000E+02  0.51100000000E-03 0.  1.
         11   -1    0    0    0    0 -0.00000000000E+00 -0.00000000000E+00 -0.45593999997E+02  0.45594000000E+02  0.51100000000E-03 0. -1.
    9900012    2    1    2    0    0 -0.35624416532E+02 -0.31093468489E+01 -0.27392453969E+02  0.46142316239E+02  0.99999861213E+01 0.  0.
         12    1    1    2    0    0  0.35624416532E+02  0.31093468489E+01  0.27392453969E+02  0.45045683761E+02  0.00000000000E+00 0. -1.
         11    1    3    3    0    0 -0.60748834123E+01  0.87951611902E+00 -0.79024966660E+01  0.10006358523E+02  0.51100000000E-03 0. -1.
        -11    1    3    3    0    0 -0.27794647346E+02 -0.51989066728E+01 -0.18456261664E+02  0.33766916450E+02  0.51100000000E-03 0.  1.
        -12    1    3    3    0    0 -0.17548857738E+01  0.12100437048E+01 -0.10336956384E+01  0.23690412659E+01  0.00000000000E+00 0.  1.
</event>
<event>
 7    1  0.8398055E-009  0.4614232E+02  0.7816164E-02  0.1320468E+00
        -11   -1    0    0    0    0  0.00000000000E+00  0.00000000000E+00  0.45593999997E+02  0.45594000000E+02  0.51100000000E-03 0. -1.
         11   -1    0    0    0    0 -0.00000000000E+00 -0.00000000000E+00 -0.45593999997E+02  0.45594000000E+02  0.51100000000E-03 0.  1.
    9900012    2    1    2    0    0 -0.91901051982E+01 -0.65695521219E+01 -0.43606151321E+02  0.46142317835E+02  0.10000000674E+02 0.  0.
         12    1    1    2    0    0  0.91901051982E+01  0.65695521219E+01  0.43606151321E+02  0.45045682165E+02  0.00000000000E+00 0. -1.
         11    1    3    3    0    0 -0.28614150309E+01 -0.16136754156E+01 -0.32652660320E+01  0.46318038437E+01  0.51100000000E-03 0. -1.
        -11    1    3    3    0    0 -0.56318487256E+01 -0.60065655806E+01 -0.37637011580E+02  0.38527148753E+02  0.51100000000E-03 0.  1.
        -12    1    3    3    0    0 -0.69684144171E+00  0.10506888743E+01 -0.27038737099E+01  0.29833652382E+01  0.00000000000E+00 0.  1.
</event>
<event>
 7    1  0.8398055E-009  0.4614232E+02  0.7816164E-02  0.1320468E+00
        -11   -1    0    0    0    0  0.00000000000E+00  0.00000000000E+00  0.45593999997E+02  0.45594000000E+02  0.51100000000E-03 0. -1.
         11   -1    0    0    0    0 -0.00000000000E+00 -0.00000000000E+00 -0.45593999997E+02  0.45594000000E+02  0.51100000000E-03 0.  1.
    9900012    2    1    2    0    0 -0.38629920232E+02 -0.14497454502E+02 -0.18073919980E+02  0.46142317547E+02  0.99999980482E+01 0.  0.
         12    1    1    2    0    0  0.38629920232E+02  0.14497454502E+02  0.18073919980E+02  0.45045682453E+02  0.00000000000E+00 0. -1.
         11    1    3    3    0    0 -0.45434994810E+01 -0.11472320776E+01 -0.12049429846E+01  0.48385345747E+01  0.51100000000E-03 0. -1.
        -11    1    3    3    0    0 -0.30098157689E+02 -0.94534500666E+01 -0.11543947086E+02  0.33593593571E+02  0.51100000000E-03 0.  1.
        -12    1    3    3    0    0 -0.39882630623E+01 -0.38967723582E+01 -0.53250299096E+01  0.77101894013E+01  0.00000000000E+00 0.  1.
</event>
<event>
 7    1  0.8398055E-009  0.4614232E+02  0.7816164E-02  0.1320468E+00
        -11   -1    0    0    0    0  0.00000000000E+00  0.00000000000E+00  0.45593999997E+02  0.45594000000E+02  0.51100000000E-03 0.  1.
         11   -1    0    0    0    0 -0.00000000000E+00 -0.00000000000E+00 -0.45593999997E+02  0.45594000000E+02  0.51100000000E-03 0. -1.
    9900012    2    1    2    0    0 -0.41161602309E+02  0.85185756832E-02 -0.18298525662E+02  0.46142316315E+02  0.99999868176E+01 0.  0.
         12    1    1    2    0    0  0.41161602309E+02 -0.85185756832E-02  0.18298525662E+02  0.45045683685E+02  0.00000000000E+00 0. -1.
         11    1    3    3    0    0 -0.12016901564E+02 -0.38691352847E+01 -0.62168989154E+01  0.14072169820E+02  0.51100000000E-03 0. -1.
        -11    1    3    3    0    0 -0.19010279074E+02  0.17754365100E+01 -0.57634480502E+01  0.19943926869E+02  0.51100000000E-03 0.  1.
         12    1    3    3    0    0 -0.10134421671E+02  0.21022173504E+01 -0.63181786965E+01  0.12126219626E+02  0.00000000000E+00 0. -1.
</event>
<event>
 7    1  0.8398055E-009  0.4614232E+02  0.7816164E-02  0.1320468E+00
        -11   -1    0    0    0    0  0.00000000000E+00  0.00000000000E+00  0.45593999997E+02  0.45594000000E+02  0.51100000000E-03 0. -1.
         11   -1    0    0    0    0 -0.00000000000E+00 -0.00000000000E+00 -0.45593999997E+02  0.45594000000E+02  0.51100000000E-03 0.  1.
    9900012    2    1    2    0    0  0.25973053301E+02  0.22698157120E+02  0.28970805591E+02  0.46142318620E+02  0.10000007832E+02 0.  0.
        -12    1    1    2    0    0 -0.25973053301E+02 -0.22698157120E+02 -0.28970805591E+02  0.45045681380E+02  0.00000000000E+00 0.  1.
         11    1    3    3    0    0  0.84472398512E+01  0.10389838064E+02  0.97700744554E+01  0.16575854464E+02  0.51100000000E-03 0. -1.
        -11    1    3    3    0    0  0.45588040805E+01  0.19718315379E+01  0.84564691110E+01  0.98072771116E+01  0.51100000000E-03 0.  1.
         12    1    3    3    0    0  0.12967009369E+02  0.10336487518E+02  0.10744262025E+02  0.19759187044E+02  0.00000000000E+00 0. -1.
</event>
<event>
 7    1  0.8398055E-009  0.4614231E+02  0.7816164E-02  0.1320468E+00
        -11   -1    0    0    0    0  0.00000000000E+00  0.00000000000E+00  0.45593999997E+02  0.45594000000E+02  0.51100000000E-03 0. -1.
         11   -1    0    0    0    0 -0.00000000000E+00 -0.00000000000E+00 -0.45593999997E+02  0.45594000000E+02  0.51100000000E-03 0.  1.
    9900012    2    1    2    0    0 -0.10014220772E+02  0.11085188498E+01 -0.43904451431E+02  0.46142308894E+02  0.99999191432E+01 0.  0.
         12    1    1    2    0    0  0.10014220772E+02 -0.11085188498E+01  0.43904451431E+02  0.45045691106E+02  0.00000000000E+00 0. -1.
         11    1    3    3    0    0 -0.59299260623E+01 -0.22422832736E+01 -0.12447266621E+02  0.13968761720E+02  0.51100000000E-03 0. -1.
        -11    1    3    3    0    0 -0.34943467814E+01  0.21508984545E+00 -0.14310711849E+02  0.14732725375E+02  0.51100000000E-03 0.  1.
        -12    1    3    3    0    0 -0.58994792844E+00  0.31357122779E+01 -0.17146472961E+02  0.17440821800E+02  0.00000000000E+00 0.  1.
</event>
<event>
 7    1  0.8398055E-009  0.4614232E+02  0.7816164E-02  0.1320468E+00
        -11   -1    0    0    0    0  0.00000000000E+00  0.00000000000E+00  0.45593999997E+02  0.45594000000E+02  0.51100000000E-03 0. -1.
         11   -1    0    0    0    0 -0.00000000000E+00 -0.00000000000E+00 -0.45593999997E+02  0.45594000000E+02  0.51100000000E-03 0.  1.
    9900012    2    1    2    0    0  0.22244161809E+02 -0.32582089581E+02 -0.21742082770E+02  0.46142318084E+02  0.10000002949E+02 0.  0.
         12    1    1    2    0    0 -0.22244161809E+02  0.32582089581E+02  0.21742082770E+02  0.45045681916E+02  0.00000000000E+00 0. -1.
         11    1    3    3    0    0  0.65211009943E+01 -0.49018700087E+01 -0.31983232154E+01  0.87625543885E+01  0.51100000000E-03 0.  1.
        -11    1    3    3    0    0  0.23729040546E+01 -0.93868976529E+01 -0.70963142329E+01  0.12004257459E+02  0.51100000000E-03 0. -1.
         12    1    3    3    0    0  0.13350156760E+02 -0.18293321920E+02 -0.11447445322E+02  0.25375506237E+02  0.00000000000E+00 0. -1.
</event>
<event>
 7    1  0.8398055E-009  0.4614232E+02  0.7816164E-02  0.1320468E+00
        -11   -1    0    0    0    0  0.00000000000E+00  0.00000000000E+00  0.45593999997E+02  0.45594000000E+02  0.51100000000E-03 0. -1.
         11   -1    0    0    0    0 -0.00000000000E+00 -0.00000000000E+00 -0.45593999997E+02  0.45594000000E+02  0.51100000000E-03 0.  1.
    9900012    2    1    2    0    0  0.37350540167E+01 -0.10570423212E+01  0.44878117425E+02  0.46142318846E+02  0.10000009895E+02 0.  0.
        -12    1    1    2    0    0 -0.37350540167E+01  0.10570423212E+01 -0.44878117425E+02  0.45045681154E+02  0.00000000000E+00 0.  1.
         11    1    3    3    0    0  0.51452046040E+01 -0.75998917518E+00  0.20593033970E+02  0.21239674252E+02  0.51100000000E-03 0. -1.
        -11    1    3    3    0    0  0.13813733332E+01 -0.88009453744E-01  0.19415822964E+01  0.23844664025E+01  0.51100000000E-03 0.  1.
         12    1    3    3    0    0 -0.27915239205E+01 -0.20904369229E+00  0.22343501158E+02  0.22518178192E+02  0.00000000000E+00 0. -1.
</event>
<event>
 7    1  0.8398055E-009  0.4614232E+02  0.7816164E-02  0.1320468E+00
        -11   -1    0    0    0    0  0.00000000000E+00  0.00000000000E+00  0.45593999997E+02  0.45594000000E+02  0.51100000000E-03 0. -1.
         11   -1    0    0    0    0 -0.00000000000E+00 -0.00000000000E+00 -0.45593999997E+02  0.45594000000E+02  0.51100000000E-03 0.  1.
    9900012    2    1    2    0    0  0.11299223933E+02  0.67470730894E+01  0.43080367274E+02  0.46142317618E+02  0.99999986969E+01 0.  0.
        -12    1    1    2    0    0 -0.11299223933E+02 -0.67470730894E+01 -0.43080367274E+02  0.45045682382E+02  0.00000000000E+00 0.  1.
         11    1    3    3    0    0  0.32029026603E+01 -0.17239144984E+01  0.13792901419E+02  0.14264452197E+02  0.51100000000E-03 0. -1.
        -11    1    3    3    0    0 -0.33785413240E+00  0.17910771594E+01  0.45904720698E+01  0.49390825960E+01  0.51100000000E-03 0.  1.
        -12    1    3    3    0    0  0.84341754054E+01  0.66799104284E+01  0.24696993785E+02  0.26938782826E+02  0.00000000000E+00 0.  1.
</event>
<event>
 7    1  0.8398055E-009  0.4614232E+02  0.7816164E-02  0.1320468E+00
        -11   -1    0    0    0    0  0.00000000000E+00  0.00000000000E+00  0.45593999997E+02  0.45594000000E+02  0.51100000000E-03 0. -1.
         11   -1    0    0    0    0 -0.00000000000E+00 -0.00000000000E+00 -0.45593999997E+02  0.45594000000E+02  0.51100000000E-03 0.  1.
    9900012    2    1    2    0    0 -0.23359975474E+02 -0.33559189891E+02  0.18899887316E+02  0.46142318511E+02  0.10000006837E+02 0.  0.
        -12    1    1    2    0    0  0.23359975474E+02  0.33559189891E+02 -0.18899887316E+02  0.45045681489E+02  0.00000000000E+00 0.  1.
         11    1    3    3    0    0 -0.99811000274E+01 -0.12993537304E+02  0.10591318526E+02  0.19509751352E+02  0.51100000000E-03 0. -1.
        -11    1    3    3    0    0 -0.39962589461E+01 -0.34483557354E+01 -0.32504296668E+00  0.52883736662E+01  0.51100000000E-03 0.  1.
        -12    1    3    3    0    0 -0.93826165001E+01 -0.17117296852E+02  0.86336117564E+01  0.21344193493E+02  0.00000000000E+00 0.  1.
</event>
<event>
 7    1  0.8398055E-009  0.4614232E+02  0.7816164E-02  0.1320468E+00
        -11   -1    0    0    0    0  0.00000000000E+00  0.00000000000E+00  0.45593999997E+02  0.45594000000E+02  0.51100000000E-03 0. -1.
         11   -1    0    0    0    0 -0.00000000000E+00 -0.00000000000E+00 -0.45593999997E+02  0.45594000000E+02  0.51100000000E-03 0.  1.
    9900012    2    1    2    0    0 -0.85593192438E+01 -0.61154285683E+01 -0.43800149590E+02  0.46142317448E+02  0.99999971447E+01 0.  0.
         12    1    1    2    0    0  0.85593192438E+01  0.61154285683E+01  0.43800149590E+02  0.45045682552E+02  0.00000000000E+00 0. -1.
         11    1    3    3    0    0 -0.42667444087E+01 -0.26560974500E+01 -0.64710125370E+01  0.81935319019E+01  0.51100000000E-03 0. -1.
        -11    1    3    3    0    0 -0.46947687334E+01 -0.28196651467E+01 -0.36046464973E+02  0.36460101513E+02  0.51100000000E-03 0.  1.
         12    1    3    3    0    0  0.40219389828E+00 -0.63966597165E+00 -0.12826720796E+01  0.14886840333E+01  0.00000000000E+00 0. -1.
</event>
<event>
 7    1  0.8398055E-009  0.4614232E+02  0.7816164E-02  0.1320468E+00
        -11   -1    0    0    0    0  0.00000000000E+00  0.00000000000E+00  0.45593999997E+02  0.45594000000E+02  0.51100000000E-03 0. -1.
         11   -1    0    0    0    0 -0.00000000000E+00 -0.00000000000E+00 -0.45593999997E+02  0.45594000000E+02  0.51100000000E-03 0.  1.
    9900012    2    1    2    0    0  0.14044253496E+02 -0.23556483431E+02  0.35734641965E+02  0.46142316475E+02  0.99999882724E+01 0.  0.
        -12    1    1    2    0    0 -0.14044253496E+02  0.23556483431E+02 -0.35734641965E+02  0.45045683525E+02  0.00000000000E+00 0.  1.
         11    1    3    3    0    0  0.66146671454E+01 -0.10474359195E+02  0.13977794988E+02  0.18677386728E+02  0.51100000000E-03 0. -1.
        -11    1    3    3    0    0  0.35166868175E+01 -0.46813377749E+00  0.42820098233E+01  0.55607412990E+01  0.51100000000E-03 0.  1.
        -12    1    3    3    0    0  0.39128995326E+01 -0.12613990458E+02  0.17474837153E+02  0.21904188448E+02  0.00000000000E+00 0.  1.
</event>
<event>
 7    1  0.8398055E-009  0.4614232E+02  0.7816164E-02  0.1320468E+00
        -11   -1    0    0    0    0  0.00000000000E+00  0.00000000000E+00  0.45593999997E+02  0.45594000000E+02  0.51100000000E-03 0. -1.
         11   -1    0    0    0    0 -0.00000000000E+00 -0.00000000000E+00 -0.45593999997E+02  0.45594000000E+02  0.51100000000E-03 0.  1.
    9900012    2    1    2    0    0 -0.33256962001E+01 -0.39847420385E+02 -0.20742136292E+02  0.46142318914E+02  0.10000010514E+02 0.  0.
         12    1    1    2    0    0  0.33256962001E+01  0.39847420385E+02  0.20742136292E+02  0.45045681086E+02  0.00000000000E+00 0. -1.
         11    1    3    3    0    0 -0.37530188190E+01 -0.10961049804E+02 -0.85788642085E+01  0.14416194867E+02  0.51100000000E-03 0. -1.
        -11    1    3    3    0    0 -0.67889333385E+00 -0.15357675309E+02 -0.39919899459E+01  0.15882539817E+02  0.51100000000E-03 0.  1.
         12    1    3    3    0    0  0.11062159527E+01 -0.13528695271E+02 -0.81712821379E+01  0.15843584230E+02  0.00000000000E+00 0. -1.
</event>
<event>
 7    1  0.8398055E-009  0.4614232E+02  0.7816164E-02  0.1320468E+00
        -11   -1    0    0    0    0  0.00000000000E+00  0.00000000000E+00  0.45593999997E+02  0.45594000000E+02  0.51100000000E-03 0. -1.
         11   -1    0    0    0    0 -0.00000000000E+00 -0.00000000000E+00 -0.45593999997E+02  0.45594000000E+02  0.51100000000E-03 0.  1.
    9900012    2    1    2    0    0 -0.11206536314E+02 -0.19889825321E+02  0.38831969935E+02  0.46142317671E+02  0.99999991817E+01 0.  0.
        -12    1    1    2    0    0  0.11206536314E+02  0.19889825321E+02 -0.38831969935E+02  0.45045682329E+02  0.00000000000E+00 0.  1.
         11    1    3    3    0    0 -0.47514585564E+01 -0.61761920990E+01  0.20864534195E+02  0.22272191062E+02  0.51100000000E-03 0. -1.
        -11    1    3    3    0    0 -0.61010066753E+01 -0.10963591716E+02  0.16513543402E+02  0.20739328381E+02  0.51100000000E-03 0.  1.
        -12    1    3    3    0    0 -0.35407108233E+00 -0.27500415057E+01  0.14538923375E+01  0.31307982278E+01  0.00000000000E+00 0.  1.
</event>
<event>
 7    1  0.8398055E-009  0.4614232E+02  0.7816164E-02  0.1320468E+00
        -11   -1    0    0    0    0  0.00000000000E+00  0.00000000000E+00  0.45593999997E+02  0.45594000000E+02  0.51100000000E-03 0. -1.
         11   -1    0    0    0    0 -0.00000000000E+00 -0.00000000000E+00 -0.45593999997E+02  0.45594000000E+02  0.51100000000E-03 0.  1.
    9900012    2    1    2    0    0  0.33751720604E+02 -0.27527290616E+01  0.29704499282E+02  0.46142318314E+02  0.10000005040E+02 0.  0.
        -12    1    1    2    0    0 -0.33751720604E+02  0.27527290616E+01 -0.29704499282E+02  0.45045681686E+02  0.00000000000E+00 0.  1.
         11    1    3    3    0    0  0.17559024465E+02 -0.32754943334E+01  0.14083822332E+02  0.22746477860E+02  0.51100000000E-03 0. -1.
        -11    1    3    3    0    0  0.11919509296E+02 -0.19743230639E+01  0.87035361573E+01  0.14890406150E+02  0.51100000000E-03 0.  1.
        -12    1    3    3    0    0  0.42731868425E+01  0.24970883357E+01  0.69171407924E+01  0.85054343034E+01  0.00000000000E+00 0.  1.
</event>
<event>
 7    1  0.8398055E-009  0.4614232E+02  0.7816164E-02  0.1320468E+00
        -11   -1    0    0    0    0  0.00000000000E+00  0.00000000000E+00  0.45593999997E+02  0.45594000000E+02  0.51100000000E-03 0. -1.
         11   -1    0    0    0    0 -0.00000000000E+00 -0.00000000000E+00 -0.45593999997E+02  0.45594000000E+02  0.51100000000E-03 0.  1.
    9900012    2    1    2    0    0  0.32510508920E+02  0.18343399249E+02  0.25213092511E+02  0.46142317408E+02  0.99999967806E+01 0.  0.
        -12    1    1    2    0    0 -0.32510508920E+02 -0.18343399249E+02 -0.25213092511E+02  0.45045682592E+02  0.00000000000E+00 0.  1.
         11    1    3    3    0    0  0.82964883179E+01  0.92507082470E+01  0.10393391245E+02  0.16199688371E+02  0.51100000000E-03 0. -1.
        -11    1    3    3    0    0  0.82236997741E+01  0.31662126549E+01  0.35407891386E+01  0.94969115262E+01  0.51100000000E-03 0.  1.
         12    1    3    3    0    0  0.15990320828E+02  0.59264783466E+01  0.11278912127E+02  0.20445717511E+02  0.00000000000E+00 0. -1.
</event>
<event>
 7    1  0.8398055E-009  0.4614232E+02  0.7816164E-02  0.1320468E+00
        -11   -1    0    0    0    0  0.00000000000E+00  0.00000000000E+00  0.45593999997E+02  0.45594000000E+02  0.51100000000E-03 0. -1.
         11   -1    0    0    0    0 -0.00000000000E+00 -0.00000000000E+00 -0.45593999997E+02  0.45594000000E+02  0.51100000000E-03 0.  1.
    9900012    2    1    2    0    0  0.19803378830E+02  0.25485494447E+02  0.31423385969E+02  0.46142318452E+02  0.10000006302E+02 0.  0.
        -12    1    1    2    0    0 -0.19803378830E+02 -0.25485494447E+02 -0.31423385969E+02  0.45045681548E+02  0.00000000000E+00 0.  1.
         11    1    3    3    0    0  0.27467279485E+01  0.43895087638E+01  0.26230682459E+01  0.58045489829E+01  0.51100000000E-03 0. -1.
        -11    1    3    3    0    0  0.18447821160E+01  0.68825197494E+01  0.10051791065E+02  0.12321152667E+02  0.51100000000E-03 0.  1.
         12    1    3    3    0    0  0.15211868766E+02  0.14213465934E+02  0.18748526658E+02  0.28016616802E+02  0.00000000000E+00 0. -1.
</event>
<event>
 7    1  0.8398055E-009  0.4614232E+02  0.7816164E-02  0.1320468E+00
        -11   -1    0    0    0    0  0.00000000000E+00  0.00000000000E+00  0.45593999997E+02  0.45594000000E+02  0.51100000000E-03 0. -1.
         11   -1    0    0    0    0 -0.00000000000E+00 -0.00000000000E+00 -0.45593999997E+02  0.45594000000E+02  0.51100000000E-03 0.  1.
    9900012    2    1    2    0    0 -0.25078623093E+02  0.17573135834E+01 -0.37377639754E+02  0.46142318289E+02  0.10000004812E+02 0.  0.
         12    1    1    2    0    0  0.25078623093E+02 -0.17573135834E+01  0.37377639754E+02  0.45045681711E+02  0.00000000000E+00 0. -1.
         11    1    3    3    0    0 -0.33566156781E+01  0.98810712787E+00 -0.12567612653E+02  0.13045616603E+02  0.51100000000E-03 0.  1.
        -11    1    3    3    0    0 -0.47672949165E+01  0.13039031106E+01 -0.56237542131E+01  0.74869136400E+01  0.51100000000E-03 0. -1.
        -12    1    3    3    0    0 -0.16954712498E+02 -0.53469665501E+00 -0.19186272888E+02  0.25609788046E+02  0.00000000000E+00 0.  1.
</event>
<event>
 7    1  0.8398055E-009  0.4614232E+02  0.7816164E-02  0.1320468E+00
        -11   -1    0    0    0    0  0.00000000000E+00  0.00000000000E+00  0.45593999997E+02  0.45594000000E+02  0.51100000000E-03 0. -1.
         11   -1    0    0    0    0 -0.00000000000E+00 -0.00000000000E+00 -0.45593999997E+02  0.45594000000E+02  0.51100000000E-03 0.  1.
    9900012    2    1    2    0    0  0.30982658306E+02  0.16186369050E+02  0.28411086246E+02  0.46142317850E+02  0.10000000806E+02 0.  0.
        -12    1    1    2    0    0 -0.30982658306E+02 -0.16186369050E+02 -0.28411086246E+02  0.45045682150E+02  0.00000000000E+00 0.  1.
         11    1    3    3    0    0  0.78117901888E+01  0.56465835972E+01  0.12592434019E+02  0.15858037932E+02  0.51100000000E-03 0.  1.
        -11    1    3    3    0    0  0.62970930325E+01  0.50499813774E+01  0.53036776425E+01  0.96583999384E+01  0.51100000000E-03 0. -1.
         12    1    3    3    0    0  0.16873775085E+02  0.54898040752E+01  0.10514974584E+02  0.20625879979E+02  0.00000000000E+00 0. -1.
</event>
<event>
 7    1  0.8398055E-009  0.4614232E+02  0.7816164E-02  0.1320468E+00
        -11   -1    0    0    0    0  0.00000000000E+00  0.00000000000E+00  0.45593999997E+02  0.45594000000E+02  0.51100000000E-03 0. -1.
         11   -1    0    0    0    0 -0.00000000000E+00 -0.00000000000E+00 -0.45593999997E+02  0.45594000000E+02  0.51100000000E-03 0.  1.
    9900012    2    1    2    0    0 -0.99392162170E+01 -0.23367352672E+01  0.43873284849E+02  0.46142317919E+02  0.10000001438E+02 0.  0.
        -12    1    1    2    0    0  0.99392162170E+01  0.23367352672E+01 -0.43873284849E+02  0.45045682081E+02  0.00000000000E+00 0.  1.
         11    1    3    3    0    0 -0.34786754495E+01 -0.67993472972E+00  0.21084973270E+02  0.21380823001E+02  0.51100000000E-03 0. -1.
        -11    1    3    3    0    0 -0.60958863759E+01 -0.37316672701E+00  0.88112493819E+01  0.10720876832E+02  0.51100000000E-03 0.  1.
        -12    1    3    3    0    0 -0.36465439165E+00 -0.12836338104E+01  0.13977062197E+02  0.14040618086E+02  0.00000000000E+00 0.  1.
</event>
<event>
 7    1  0.8398055E-009  0.4614232E+02  0.7816164E-02  0.1320468E+00
        -11   -1    0    0    0    0  0.00000000000E+00  0.00000000000E+00  0.45593999997E+02  0.45594000000E+02  0.51100000000E-03 0. -1.
         11   -1    0    0    0    0 -0.00000000000E+00 -0.00000000000E+00 -0.45593999997E+02  0.45594000000E+02  0.51100000000E-03 0.  1.
    9900012    2    1    2    0    0  0.29898638589E+02  0.52409550018E+01 -0.33282387645E+02  0.46142317342E+02  0.99999961740E+01 0.  0.
         12    1    1    2    0    0 -0.29898638589E+02 -0.52409550018E+01  0.33282387645E+02  0.45045682658E+02  0.00000000000E+00 0. -1.
         11    1    3    3    0    0  0.15857242835E+01 -0.46614894430E-02 -0.34996753600E+01  0.38421701055E+01  0.51100000000E-03 0. -1.
        -11    1    3    3    0    0  0.10609166193E+02  0.32044257450E+00 -0.16527729081E+02  0.19642375609E+02  0.51100000000E-03 0.  1.
         12    1    3    3    0    0  0.17703748112E+02  0.49251739168E+01 -0.13254983205E+02  0.22657771627E+02  0.00000000000E+00 0. -1.
</event>
<event>
 7    1  0.8398055E-009  0.4614232E+02  0.7816164E-02  0.1320468E+00
        -11   -1    0    0    0    0  0.00000000000E+00  0.00000000000E+00  0.45593999997E+02  0.45594000000E+02  0.51100000000E-03 0. -1.
         11   -1    0    0    0    0 -0.00000000000E+00 -0.00000000000E+00 -0.45593999997E+02  0.45594000000E+02  0.51100000000E-03 0.  1.
    9900012    2    1    2    0    0 -0.22255087253E+00 -0.31639647917E+02 -0.32062385810E+02  0.46142318375E+02  0.10000005598E+02 0.  0.
         12    1    1    2    0    0  0.22255087253E+00  0.31639647917E+02  0.32062385810E+02  0.45045681625E+02  0.00000000000E+00 0. -1.
         11    1    3    3    0    0 -0.27140331895E+01 -0.65721725972E+01 -0.10539027397E+02  0.12713399527E+02  0.51100000000E-03 0. -1.
        -11    1    3    3    0    0  0.93204517603E+00 -0.11810585509E+02 -0.72648919800E+01  0.13897384431E+02  0.51100000000E-03 0.  1.
         12    1    3    3    0    0  0.15594371409E+01 -0.13256889811E+02 -0.14258466433E+02  0.19531534417E+02  0.00000000000E+00 0. -1.
</event>
<event>
 7    1  0.8398055E-009  0.4614232E+02  0.7816164E-02  0.1320468E+00
        -11   -1    0    0    0    0  0.00000000000E+00  0.00000000000E+00  0.45593999997E+02  0.45594000000E+02  0.51100000000E-03 0. -1.
         11   -1    0    0    0    0 -0.00000000000E+00 -0.00000000000E+00 -0.45593999997E+02  0.45594000000E+02  0.51100000000E-03 0.  1.
    9900012    2    1    2    0    0  0.29249834458E+02  0.20971003781E+02 -0.27088333475E+02  0.46142316235E+02  0.99999860832E+01 0.  0.
         12    1    1    2    0    0 -0.29249834458E+02 -0.20971003781E+02  0.27088333475E+02  0.45045683765E+02  0.00000000000E+00 0. -1.
         11    1    3    3    0    0  0.17500654284E+02  0.91440202120E+01 -0.17110922810E+02  0.26127948363E+02  0.51100000000E-03 0. -1.
        -11    1    3    3    0    0  0.93811989372E+01  0.11665262053E+02 -0.88062746671E+01  0.17367662653E+02  0.51100000000E-03 0.  1.
         12    1    3    3    0    0  0.23679812370E+01  0.16172151577E+00 -0.11711359981E+01  0.26467052185E+01  0.00000000000E+00 0. -1.
</event>
<event>
 7    1  0.8398055E-009  0.4614232E+02  0.7816164E-02  0.1320468E+00
        -11   -1    0    0    0    0  0.00000000000E+00  0.00000000000E+00  0.45593999997E+02  0.45594000000E+02  0.51100000000E-03 0. -1.
         11   -1    0    0    0    0 -0.00000000000E+00 -0.00000000000E+00 -0.45593999997E+02  0.45594000000E+02  0.51100000000E-03 0.  1.
    9900012    2    1    2    0    0  0.26256722263E+02 -0.13142840755E+02 -0.34160851771E+02  0.46142317401E+02  0.99999967130E+01 0.  0.
         12    1    1    2    0    0 -0.26256722263E+02  0.13142840755E+02  0.34160851771E+02  0.45045682599E+02  0.00000000000E+00 0. -1.
         11    1    3    3    0    0  0.17721068893E+01 -0.81289710659E+00 -0.93003984781E+00  0.21601247447E+01  0.51100000000E-03 0. -1.
        -11    1    3    3    0    0  0.24517532769E+02 -0.10100747826E+02 -0.31390362112E+02  0.41091232076E+02  0.51100000000E-03 0.  1.
        -12    1    3    3    0    0 -0.32917394904E-01 -0.22291958221E+01 -0.18404498109E+01  0.28909605799E+01  0.00000000000E+00 0.  1.
</event>
<event>
 7    1  0.8398055E-009  0.4614232E+02  0.7816164E-02  0.1320468E+00
        -11   -1    0    0    0    0  0.00000000000E+00  0.00000000000E+00  0.45593999997E+02  0.45594000000E+02  0.51100000000E-03 0. -1.
         11   -1    0    0    0    0 -0.00000000000E+00 -0.00000000000E+00 -0.45593999997E+02  0.45594000000E+02  0.51100000000E-03 0.  1.
    9900012    2    1    2    0    0 -0.34967823047E+02 -0.17713214651E+02 -0.22194752424E+02  0.46142315889E+02  0.99999829250E+01 0.  0.
         12    1    1    2    0    0  0.34967823047E+02  0.17713214651E+02  0.22194752424E+02  0.45045684111E+02  0.00000000000E+00 0. -1.
         11    1    3    3    0    0 -0.53410295197E+01 -0.39688874872E+01 -0.75922223533E+01  0.10095568569E+02  0.51100000000E-03 0. -1.
        -11    1    3    3    0    0 -0.10688194952E+02 -0.66970971095E+01 -0.72188473976E+01  0.14532734741E+02  0.51100000000E-03 0.  1.
         12    1    3    3    0    0 -0.18938598574E+02 -0.70472300546E+01 -0.73836826731E+01  0.21514012578E+02  0.00000000000E+00 0. -1.
</event>
<event>
 7    1  0.8398055E-009  0.4614232E+02  0.7816164E-02  0.1320468E+00
        -11   -1    0    0    0    0  0.00000000000E+00  0.00000000000E+00  0.45593999997E+02  0.45594000000E+02  0.51100000000E-03 0. -1.
         11   -1    0    0    0    0 -0.00000000000E+00 -0.00000000000E+00 -0.45593999997E+02  0.45594000000E+02  0.51100000000E-03 0.  1.
    9900012    2    1    2    0    0  0.48706145540E+01 -0.28232416815E+02 -0.34760916064E+02  0.46142317288E+02  0.99999956872E+01 0.  0.
         12    1    1    2    0    0 -0.48706145540E+01  0.28232416815E+02  0.34760916064E+02  0.45045682712E+02  0.00000000000E+00 0. -1.
         11    1    3    3    0    0  0.14174718907E+00 -0.75484135635E+01 -0.74127895835E+01  0.10580552408E+02  0.51100000000E-03 0. -1.
        -11    1    3    3    0    0  0.57400952956E+01 -0.17718755743E+02 -0.26360978394E+02  0.32276991515E+02  0.51100000000E-03 0.  1.
         12    1    3    3    0    0 -0.10112279308E+01 -0.29652475088E+01 -0.98714808624E+00  0.32847733652E+01  0.00000000000E+00 0. -1.
</event>
<event>
 7    1  0.8398055E-009  0.4614232E+02  0.7816164E-02  0.1320468E+00
        -11   -1    0    0    0    0  0.00000000000E+00  0.00000000000E+00  0.45593999997E+02  0.45594000000E+02  0.51100000000E-03 0. -1.
         11   -1    0    0    0    0 -0.00000000000E+00 -0.00000000000E+00 -0.45593999997E+02  0.45594000000E+02  0.51100000000E-03 0.  1.
    9900012    2    1    2    0    0  0.14956667042E+01  0.31005507117E+02  0.32642531042E+02  0.46142319594E+02  0.10000016710E+02 0.  0.
        -12    1    1    2    0    0 -0.14956667042E+01 -0.31005507117E+02 -0.32642531042E+02  0.45045680406E+02  0.00000000000E+00 0.  1.
         11    1    3    3    0    0 -0.27205169157E+01  0.18345208670E+02  0.22139624967E+02  0.28880977951E+02  0.51100000000E-03 0. -1.
        -11    1    3    3    0    0 -0.13530065424E+00 -0.77483677477E-01 -0.42794249420E-01  0.16168363002E+00  0.51100000000E-03 0.  1.
         12    1    3    3    0    0  0.43514842742E+01  0.12737782125E+02  0.10545700324E+02  0.17099658013E+02  0.00000000000E+00 0. -1.
</event>
<event>
 7    1  0.8398055E-009  0.4614232E+02  0.7816164E-02  0.1320468E+00
        -11   -1    0    0    0    0  0.00000000000E+00  0.00000000000E+00  0.45593999997E+02  0.45594000000E+02  0.51100000000E-03 0. -1.
         11   -1    0    0    0    0 -0.00000000000E+00 -0.00000000000E+00 -0.45593999997E+02  0.45594000000E+02  0.51100000000E-03 0.  1.
    9900012    2    1    2    0    0 -0.21684489542E+02 -0.88135243469E+01 -0.38486597798E+02  0.46142317541E+02  0.99999979903E+01 0.  0.
         12    1    1    2    0    0  0.21684489542E+02  0.88135243469E+01  0.38486597798E+02  0.45045682459E+02  0.00000000000E+00 0. -1.
         11    1    3    3    0    0 -0.12570511215E+02 -0.70243238672E+01 -0.18650612992E+02  0.23562772402E+02  0.51100000000E-03 0. -1.
        -11    1    3    3    0    0 -0.42657836625E+01 -0.36275540400E+01 -0.10555866900E+02  0.11949158332E+02  0.51100000000E-03 0.  1.
         12    1    3    3    0    0 -0.48481946647E+01  0.18383535604E+01 -0.92801179058E+01  0.10630386807E+02  0.00000000000E+00 0. -1.
</event>
<event>
 7    1  0.8398055E-009  0.4614232E+02  0.7816164E-02  0.1320468E+00
        -11   -1    0    0    0    0  0.00000000000E+00  0.00000000000E+00  0.45593999997E+02  0.45594000000E+02  0.51100000000E-03 0.  1.
         11   -1    0    0    0    0 -0.00000000000E+00 -0.00000000000E+00 -0.45593999997E+02  0.45594000000E+02  0.51100000000E-03 0. -1.
    9900012    2    1    2    0    0 -0.29402938817E+02 -0.17212589268E+02  0.29467056603E+02  0.46142318018E+02  0.10000002346E+02 0.  0.
        -12    1    1    2    0    0  0.29402938817E+02  0.17212589268E+02 -0.29467056603E+02  0.45045681982E+02  0.00000000000E+00 0.  1.
         11    1    3    3    0    0 -0.52467758743E+01 -0.16918126891E+01  0.53888764146E+01  0.77091423987E+01  0.51100000000E-03 0. -1.
        -11    1    3    3    0    0 -0.13169850921E+02 -0.68520839528E+01  0.17561802262E+02  0.22995932830E+02  0.51100000000E-03 0.  1.
         12    1    3    3    0    0 -0.10986312021E+02 -0.86686926256E+01  0.65163779264E+01  0.15437242790E+02  0.00000000000E+00 0. -1.
</event>
<event>
 7    1  0.8398055E-009  0.4614232E+02  0.7816164E-02  0.1320468E+00
        -11   -1    0    0    0    0  0.00000000000E+00  0.00000000000E+00  0.45593999997E+02  0.45594000000E+02  0.51100000000E-03 0. -1.
         11   -1    0    0    0    0 -0.00000000000E+00 -0.00000000000E+00 -0.45593999997E+02  0.45594000000E+02  0.51100000000E-03 0.  1.
    9900012    2    1    2    0    0  0.26651406146E+02  0.21847397784E+02 -0.29008744413E+02  0.46142317722E+02  0.99999996410E+01 0.  0.
         12    1    1    2    0    0 -0.26651406146E+02 -0.21847397784E+02  0.29008744413E+02  0.45045682278E+02  0.00000000000E+00 0. -1.
         11    1    3    3    0    0  0.78312571789E+01  0.50455926344E+01 -0.38146040778E+01  0.10066667699E+02  0.51100000000E-03 0. -1.
        -11    1    3    3    0    0  0.62327624936E+01  0.23634310278E+01 -0.65049767366E+01  0.93138529691E+01  0.51100000000E-03 0.  1.
         12    1    3    3    0    0  0.12587386474E+02  0.14438374122E+02 -0.18689163598E+02  0.26761797053E+02  0.00000000000E+00 0. -1.
</event>
<event>
 7    1  0.8398055E-009  0.4614232E+02  0.7816164E-02  0.1320468E+00
        -11   -1    0    0    0    0  0.00000000000E+00  0.00000000000E+00  0.45593999997E+02  0.45594000000E+02  0.51100000000E-03 0. -1.
         11   -1    0    0    0    0 -0.00000000000E+00 -0.00000000000E+00 -0.45593999997E+02  0.45594000000E+02  0.51100000000E-03 0.  1.
    9900012    2    1    2    0    0 -0.21747409010E+02 -0.11760371397E+02 -0.37654446171E+02  0.46142318181E+02  0.10000003833E+02 0.  0.
         12    1    1    2    0    0  0.21747409010E+02  0.11760371397E+02  0.37654446171E+02  0.45045681819E+02  0.00000000000E+00 0. -1.
         11    1    3    3    0    0 -0.50726487837E+01  0.91451293547E+00 -0.98747153078E+01  0.11139035069E+02  0.51100000000E-03 0. -1.
        -11    1    3    3    0    0 -0.23666876109E+01 -0.39507707506E+00 -0.38701427746E+01  0.45536031338E+01  0.51100000000E-03 0.  1.
        -12    1    3    3    0    0 -0.14308072616E+02 -0.12279807258E+02 -0.23909588089E+02  0.30449679979E+02  0.00000000000E+00 0.  1.
</event>
<event>
 7    1  0.8398055E-009  0.4614232E+02  0.7816164E-02  0.1320468E+00
        -11   -1    0    0    0    0  0.00000000000E+00  0.00000000000E+00  0.45593999997E+02  0.45594000000E+02  0.51100000000E-03 0. -1.
         11   -1    0    0    0    0 -0.00000000000E+00 -0.00000000000E+00 -0.45593999997E+02  0.45594000000E+02  0.51100000000E-03 0.  1.
    9900012    2    1    2    0    0 -0.43917568846E+02 -0.84505867690E+01  0.53803521398E+01  0.46142318084E+02  0.10000002946E+02 0.  0.
         12    1    1    2    0    0  0.43917568846E+02  0.84505867690E+01 -0.53803521398E+01  0.45045681916E+02  0.00000000000E+00 0. -1.
         11    1    3    3    0    0 -0.24412702075E+02 -0.37402202642E+01  0.44593007021E+01  0.25096904854E+02  0.51100000000E-03 0. -1.
        -11    1    3    3    0    0 -0.16659708384E+02 -0.25693153892E+01 -0.12025119199E+01  0.16899505916E+02  0.51100000000E-03 0.  1.
         12    1    3    3    0    0 -0.28451583870E+01 -0.21410511155E+01  0.21235633576E+01  0.41459073145E+01  0.00000000000E+00 0. -1.
</event>
<event>
 7    1  0.8398055E-009  0.4614232E+02  0.7816164E-02  0.1320468E+00
        -11   -1    0    0    0    0  0.00000000000E+00  0.00000000000E+00  0.45593999997E+02  0.45594000000E+02  0.51100000000E-03 0. -1.
         11   -1    0    0    0    0 -0.00000000000E+00 -0.00000000000E+00 -0.45593999997E+02  0.45594000000E+02  0.51100000000E-03 0.  1.
    9900012    2    1    2    0    0 -0.20363522647E+01  0.23709410779E+02 -0.38246970859E+02  0.46142315746E+02  0.99999816292E+01 0.  0.
         12    1    1    2    0    0  0.20363522647E+01 -0.23709410779E+02  0.38246970859E+02  0.45045684254E+02  0.00000000000E+00 0. -1.
         11    1    3    3    0    0 -0.90831037904E+00  0.21854292193E+01 -0.10746813431E+01  0.25992439030E+01  0.51100000000E-03 0. -1.
        -11    1    3    3    0    0 -0.11089669515E+01  0.21984012191E+02 -0.35184998678E+02  0.41503141229E+02  0.51100000000E-03 0.  1.
        -12    1    3    3    0    0 -0.19074934158E-01 -0.46003063180E+00 -0.19872908379E+01  0.20399306140E+01  0.00000000000E+00 0.  1.
</event>
<event>
 7    1  0.8398055E-009  0.4614232E+02  0.7816164E-02  0.1320468E+00
        -11   -1    0    0    0    0  0.00000000000E+00  0.00000000000E+00  0.45593999997E+02  0.45594000000E+02  0.51100000000E-03 0. -1.
         11   -1    0    0    0    0 -0.00000000000E+00 -0.00000000000E+00 -0.45593999997E+02  0.45594000000E+02  0.51100000000E-03 0.  1.
    9900012    2    1    2    0    0 -0.33293337442E+02 -0.15883206567E+02 -0.25853250717E+02  0.46142321611E+02  0.10000035109E+02 0.  0.
         12    1    1    2    0    0  0.33293337442E+02  0.15883206567E+02  0.25853250717E+02  0.45045678389E+02  0.00000000000E+00 0. -1.
         11    1    3    3    0    0 -0.23811496808E+02 -0.64548366998E+01 -0.18506916370E+02  0.30840853601E+02  0.51100000000E-03 0. -1.
        -11    1    3    3    0    0 -0.49877346292E+01 -0.55787277349E+01 -0.36679199988E+01  0.83338668846E+01  0.51100000000E-03 0.  1.
        -12    1    3    3    0    0 -0.44941060054E+01 -0.38496421324E+01 -0.36784143478E+01  0.69676011258E+01  0.00000000000E+00 0.  1.
</event>
<event>
 7    1  0.8398055E-009  0.4614232E+02  0.7816164E-02  0.1320468E+00
        -11   -1    0    0    0    0  0.00000000000E+00  0.00000000000E+00  0.45593999997E+02  0.45594000000E+02  0.51100000000E-03 0. -1.
         11   -1    0    0    0    0 -0.00000000000E+00 -0.00000000000E+00 -0.45593999997E+02  0.45594000000E+02  0.51100000000E-03 0.  1.
    9900012    2    1    2    0    0 -0.38030978423E+02 -0.14516059693E+02  0.19288399347E+02  0.46142315876E+02  0.99999828065E+01 0.  0.
        -12    1    1    2    0    0  0.38030978423E+02  0.14516059693E+02 -0.19288399347E+02  0.45045684124E+02  0.00000000000E+00 0.  1.
         11    1    3    3    0    0 -0.12683528375E+02 -0.26420017928E+01  0.53589707622E+01  0.14020364953E+02  0.51100000000E-03 0. -1.
        -11    1    3    3    0    0 -0.16497321853E+02 -0.89808864230E+01  0.12828257292E+02  0.22746035581E+02  0.51100000000E-03 0.  1.
        -12    1    3    3    0    0 -0.88501281953E+01 -0.28931714776E+01  0.11011712928E+01  0.93759153414E+01  0.00000000000E+00 0.  1.
</event>
<event>
 7    1  0.8398055E-009  0.4614233E+02  0.7816164E-02  0.1320468E+00
        -11   -1    0    0    0    0  0.00000000000E+00  0.00000000000E+00  0.45593999997E+02  0.45594000000E+02  0.51100000000E-03 0. -1.
         11   -1    0    0    0    0 -0.00000000000E+00 -0.00000000000E+00 -0.45593999997E+02  0.45594000000E+02  0.51100000000E-03 0.  1.
    9900012    2    1    2    0    0 -0.57706875530E+01  0.36243934560E+01 -0.44527246714E+02  0.46142325816E+02  0.10000073454E+02 0.  0.
         12    1    1    2    0    0  0.57706875530E+01 -0.36243934560E+01  0.44527246714E+02  0.45045674184E+02  0.00000000000E+00 0. -1.
         11    1    3    3    0    0 -0.44083395518E+01  0.14619199893E+01 -0.92555324770E+01  0.10355459881E+02  0.51100000000E-03 0. -1.
        -11    1    3    3    0    0  0.18966834832E+01  0.17313149228E+01 -0.20078558612E+02  0.20242118856E+02  0.51100000000E-03 0.  1.
         12    1    3    3    0    0 -0.32590314843E+01  0.43115854389E+00 -0.15193155625E+02  0.15544747079E+02  0.00000000000E+00 0. -1.
</event>
<event>
 7    1  0.8398055E-009  0.4614232E+02  0.7816164E-02  0.1320468E+00
        -11   -1    0    0    0    0  0.00000000000E+00  0.00000000000E+00  0.45593999997E+02  0.45594000000E+02  0.51100000000E-03 0. -1.
         11   -1    0    0    0    0 -0.00000000000E+00 -0.00000000000E+00 -0.45593999997E+02  0.45594000000E+02  0.51100000000E-03 0.  1.
    9900012    2    1    2    0    0  0.76473503092E+01 -0.48629797671E+01  0.44124630623E+02  0.46142316893E+02  0.99999920795E+01 0.  0.
        -12    1    1    2    0    0 -0.76473503092E+01  0.48629797671E+01 -0.44124630623E+02  0.45045683107E+02  0.00000000000E+00 0.  1.
         11    1    3    3    0    0 -0.65148111492E+00 -0.21590492559E+01  0.73240870335E+01  0.76634308549E+01  0.51100000000E-03 0. -1.
        -11    1    3    3    0    0  0.56637951987E+01  0.29239648471E+00  0.30487854788E+02  0.31010858769E+02  0.51100000000E-03 0.  1.
        -12    1    3    3    0    0  0.26350362254E+01 -0.29963269958E+01  0.63126888023E+01  0.74680272689E+01  0.00000000000E+00 0.  1.
</event>
<event>
 7    1  0.8398055E-009  0.4614232E+02  0.7816164E-02  0.1320468E+00
        -11   -1    0    0    0    0  0.00000000000E+00  0.00000000000E+00  0.45593999997E+02  0.45594000000E+02  0.51100000000E-03 0.  1.
         11   -1    0    0    0    0 -0.00000000000E+00 -0.00000000000E+00 -0.45593999997E+02  0.45594000000E+02  0.51100000000E-03 0. -1.
    9900012    2    1    2    0    0  0.61776522112E+01  0.44341986993E+02 -0.49737596447E+01  0.46142317828E+02  0.10000000607E+02 0.  0.
         12    1    1    2    0    0 -0.61776522112E+01 -0.44341986993E+02  0.49737596447E+01  0.45045682172E+02  0.00000000000E+00 0. -1.
         11    1    3    3    0    0  0.17652087507E+01  0.25014154627E+01 -0.32339625498E+00  0.30785754253E+01  0.51100000000E-03 0. -1.
        -11    1    3    3    0    0 -0.33154877795E+00  0.19349870012E+02 -0.53124623183E+01  0.20068623526E+02  0.51100000000E-03 0.  1.
        -12    1    3    3    0    0  0.47439922384E+01  0.22490701519E+02  0.66209892855E+00  0.22995118877E+02  0.00000000000E+00 0.  1.
</event>
<event>
 7    1  0.8398055E-009  0.4614232E+02  0.7816164E-02  0.1320468E+00
        -11   -1    0    0    0    0  0.00000000000E+00  0.00000000000E+00  0.45593999997E+02  0.45594000000E+02  0.51100000000E-03 0.  1.
         11   -1    0    0    0    0 -0.00000000000E+00 -0.00000000000E+00 -0.45593999997E+02  0.45594000000E+02  0.51100000000E-03 0. -1.
    9900012    2    1    2    0    0 -0.19118800908E+02  0.25017961995E+02  0.32213140653E+02  0.46142318728E+02  0.10000008819E+02 0.  0.
        -12    1    1    2    0    0  0.19118800908E+02 -0.25017961995E+02 -0.32213140653E+02  0.45045681272E+02  0.00000000000E+00 0.  1.
         11    1    3    3    0    0 -0.74466885019E+01  0.68036576177E+01  0.72801703403E+01  0.12439606387E+02  0.51100000000E-03 0. -1.
        -11    1    3    3    0    0 -0.90651867610E+01  0.78590723522E+01  0.13299882521E+02  0.17911714172E+02  0.51100000000E-03 0.  1.
        -12    1    3    3    0    0 -0.26069256450E+01  0.10355232025E+02  0.11633087792E+02  0.15790998169E+02  0.00000000000E+00 0.  1.
</event>
<event>
 7    1  0.8398055E-009  0.4614232E+02  0.7816164E-02  0.1320468E+00
        -11   -1    0    0    0    0  0.00000000000E+00  0.00000000000E+00  0.45593999997E+02  0.45594000000E+02  0.51100000000E-03 0. -1.
         11   -1    0    0    0    0 -0.00000000000E+00 -0.00000000000E+00 -0.45593999997E+02  0.45594000000E+02  0.51100000000E-03 0.  1.
    9900012    2    1    2    0    0 -0.18213910625E+02  0.22767845435E+02  0.34336454860E+02  0.46142318094E+02  0.10000003035E+02 0.  0.
        -12    1    1    2    0    0  0.18213910625E+02 -0.22767845435E+02 -0.34336454860E+02  0.45045681906E+02  0.00000000000E+00 0.  1.
         11    1    3    3    0    0 -0.94400678914E+01  0.14686099858E+02  0.19881291877E+02  0.26458688135E+02  0.51100000000E-03 0. -1.
        -11    1    3    3    0    0 -0.42703620212E+01  0.77215792927E+01  0.10044225025E+02  0.13369563762E+02  0.51100000000E-03 0.  1.
        -12    1    3    3    0    0 -0.45034807124E+01  0.36016628466E+00  0.44109379580E+01  0.63140661977E+01  0.00000000000E+00 0.  1.
</event>
<event>
 7    1  0.8398055E-009  0.4614232E+02  0.7816164E-02  0.1320468E+00
        -11   -1    0    0    0    0  0.00000000000E+00  0.00000000000E+00  0.45593999997E+02  0.45594000000E+02  0.51100000000E-03 0. -1.
         11   -1    0    0    0    0 -0.00000000000E+00 -0.00000000000E+00 -0.45593999997E+02  0.45594000000E+02  0.51100000000E-03 0.  1.
    9900012    2    1    2    0    0  0.77094191244E+01  0.15611685437E+02 -0.41544598628E+02  0.46142317181E+02  0.99999947124E+01 0.  0.
         12    1    1    2    0    0 -0.77094191244E+01 -0.15611685437E+02  0.41544598628E+02  0.45045682819E+02  0.00000000000E+00 0. -1.
         11    1    3    3    0    0  0.45800515730E+00  0.10212739724E+01 -0.74554168571E+00  0.13448427109E+01  0.51100000000E-03 0. -1.
        -11    1    3    3    0    0  0.14900649836E+01  0.11316644618E+02 -0.20757408346E+02  0.23688747130E+02  0.51100000000E-03 0.  1.
         12    1    3    3    0    0  0.57613489834E+01  0.32737668463E+01 -0.20041648596E+02  0.21108727340E+02  0.00000000000E+00 0. -1.
</event>
<event>
 7    1  0.8398055E-009  0.4614232E+02  0.7816164E-02  0.1320468E+00
        -11   -1    0    0    0    0  0.00000000000E+00  0.00000000000E+00  0.45593999997E+02  0.45594000000E+02  0.51100000000E-03 0. -1.
         11   -1    0    0    0    0 -0.00000000000E+00 -0.00000000000E+00 -0.45593999997E+02  0.45594000000E+02  0.51100000000E-03 0.  1.
    9900012    2    1    2    0    0  0.14636533358E+02  0.15583822129E+02 -0.39648831383E+02  0.46142318176E+02  0.10000003786E+02 0.  0.
         12    1    1    2    0    0 -0.14636533358E+02 -0.15583822129E+02  0.39648831383E+02  0.45045681824E+02  0.00000000000E+00 0. -1.
         11    1    3    3    0    0  0.10755325746E+01 -0.88011351580E+00 -0.57081452085E+01  0.58748865608E+01  0.51100000000E-03 0. -1.
        -11    1    3    3    0    0  0.67066360729E+01  0.98090761050E+01 -0.15855431952E+02  0.19813926014E+02  0.51100000000E-03 0.  1.
        -12    1    3    3    0    0  0.68543647108E+01  0.66548595396E+01 -0.18085254223E+02  0.20453505602E+02  0.00000000000E+00 0.  1.
</event>
<event>
 7    1  0.8398055E-009  0.4614232E+02  0.7816164E-02  0.1320468E+00
        -11   -1    0    0    0    0  0.00000000000E+00  0.00000000000E+00  0.45593999997E+02  0.45594000000E+02  0.51100000000E-03 0. -1.
         11   -1    0    0    0    0 -0.00000000000E+00 -0.00000000000E+00 -0.45593999997E+02  0.45594000000E+02  0.51100000000E-03 0.  1.
    9900012    2    1    2    0    0  0.25767530660E+02  0.36889163116E+02 -0.20826630382E+01  0.46142317887E+02  0.10000001146E+02 0.  0.
         12    1    1    2    0    0 -0.25767530660E+02 -0.36889163116E+02  0.20826630382E+01  0.45045682113E+02  0.00000000000E+00 0. -1.
         11    1    3    3    0    0  0.29405625274E+01  0.74879904083E+01  0.19658262743E+01  0.82813876575E+01  0.51100000000E-03 0. -1.
        -11    1    3    3    0    0  0.70070195085E+01  0.10591984004E+02 -0.38918204206E+01  0.13282872957E+02  0.51100000000E-03 0.  1.
        -12    1    3    3    0    0  0.15819948624E+02  0.18809188704E+02 -0.15666889187E+00  0.24578057273E+02  0.00000000000E+00 0.  1.
</event>
<event>
 7    1  0.8398055E-009  0.4614232E+02  0.7816164E-02  0.1320468E+00
        -11   -1    0    0    0    0  0.00000000000E+00  0.00000000000E+00  0.45593999997E+02  0.45594000000E+02  0.51100000000E-03 0. -1.
         11   -1    0    0    0    0 -0.00000000000E+00 -0.00000000000E+00 -0.45593999997E+02  0.45594000000E+02  0.51100000000E-03 0.  1.
    9900012    2    1    2    0    0  0.42196402057E+02 -0.12934596034E+02 -0.90151754639E+01  0.46142317523E+02  0.99999978311E+01 0.  0.
         12    1    1    2    0    0 -0.42196402057E+02  0.12934596034E+02  0.90151754639E+01  0.45045682477E+02  0.00000000000E+00 0. -1.
         11    1    3    3    0    0 -0.24472561682E+00 -0.27228565482E+00 -0.18721638550E+00  0.41119380038E+00  0.51100000000E-03 0. -1.
        -11    1    3    3    0    0  0.23003912593E+02 -0.76486391816E+01 -0.83899245968E+01  0.25652924023E+02  0.51100000000E-03 0.  1.
         12    1    3    3    0    0  0.19437215081E+02 -0.50136711975E+01 -0.43803448158E+00  0.20078199700E+02  0.00000000000E+00 0. -1.
</event>
<event>
 7    1  0.8398055E-009  0.4614232E+02  0.7816164E-02  0.1320468E+00
        -11   -1    0    0    0    0  0.00000000000E+00  0.00000000000E+00  0.45593999997E+02  0.45594000000E+02  0.51100000000E-03 0. -1.
         11   -1    0    0    0    0 -0.00000000000E+00 -0.00000000000E+00 -0.45593999997E+02  0.45594000000E+02  0.51100000000E-03 0.  1.
    9900012    2    1    2    0    0  0.12976641803E+02 -0.10527681892E+01 -0.43123217766E+02  0.46142318034E+02  0.10000002486E+02 0.  0.
         12    1    1    2    0    0 -0.12976641803E+02  0.10527681892E+01  0.43123217766E+02  0.45045681966E+02  0.00000000000E+00 0. -1.
         11    1    3    3    0    0  0.47330387040E+01 -0.61975680455E+00 -0.98225064731E+01  0.10920960926E+02  0.51100000000E-03 0. -1.
        -11    1    3    3    0    0  0.94715101643E+01  0.39411726806E+00 -0.31470702779E+02  0.32867460609E+02  0.51100000000E-03 0.  1.
        -12    1    3    3    0    0 -0.12279070649E+01 -0.82712865267E+00 -0.18300085130E+01  0.23538964985E+01  0.00000000000E+00 0.  1.
</event>
<event>
 7    1  0.8398055E-009  0.4614232E+02  0.7816164E-02  0.1320468E+00
        -11   -1    0    0    0    0  0.00000000000E+00  0.00000000000E+00  0.45593999997E+02  0.45594000000E+02  0.51100000000E-03 0. -1.
         11   -1    0    0    0    0 -0.00000000000E+00 -0.00000000000E+00 -0.45593999997E+02  0.45594000000E+02  0.51100000000E-03 0.  1.
    9900012    2    1    2    0    0  0.80306896180E+01  0.21992046183E+02  0.38483391481E+02  0.46142317733E+02  0.99999997423E+01 0.  0.
        -12    1    1    2    0    0 -0.80306896180E+01 -0.21992046183E+02 -0.38483391481E+02  0.45045682267E+02  0.00000000000E+00 0.  1.
         11    1    3    3    0    0  0.46993295471E+01  0.13617947347E+02  0.17312220782E+02  0.22522104183E+02  0.51100000000E-03 0. -1.
        -11    1    3    3    0    0  0.33234664710E+01  0.34312525113E+01  0.60310709788E+01  0.76936818619E+01  0.51100000000E-03 0.  1.
        -12    1    3    3    0    0  0.78935999928E-02  0.49428463247E+01  0.15140099720E+02  0.15926531688E+02  0.00000000000E+00 0.  1.
</event>
<event>
 7    1  0.8398055E-009  0.4614232E+02  0.7816164E-02  0.1320468E+00
        -11   -1    0    0    0    0  0.00000000000E+00  0.00000000000E+00  0.45593999997E+02  0.45594000000E+02  0.51100000000E-03 0. -1.
         11   -1    0    0    0    0 -0.00000000000E+00 -0.00000000000E+00 -0.45593999997E+02  0.45594000000E+02  0.51100000000E-03 0.  1.
    9900012    2    1    2    0    0 -0.20866233999E+02 -0.39418029124E+02  0.63192414434E+01  0.46142317036E+02  0.99999933886E+01 0.  0.
        -12    1    1    2    0    0  0.20866233999E+02  0.39418029124E+02 -0.63192414434E+01  0.45045682964E+02  0.00000000000E+00 0.  1.
         11    1    3    3    0    0 -0.41991841276E+01 -0.55706239449E+01 -0.95024585131E+00  0.70404521099E+01  0.51100000000E-03 0. -1.
        -11    1    3    3    0    0 -0.10917183926E+02 -0.24753444899E+02  0.20172044232E+01  0.27129081319E+02  0.51100000000E-03 0.  1.
        -12    1    3    3    0    0 -0.57498659447E+01 -0.90939602794E+01  0.52522828715E+01  0.11972783607E+02  0.00000000000E+00 0.  1.
</event>
<event>
 7    1  0.8469959E-009  0.4614232E+02  0.7816164E-02  0.1320468E+00
        -11   -1    0    0    0    0  0.00000000000E+00  0.00000000000E+00  0.45593999997E+02  0.45594000000E+02  0.51100000000E-03 0. -1.
         11   -1    0    0    0    0 -0.00000000000E+00 -0.00000000000E+00 -0.45593999997E+02  0.45594000000E+02  0.51100000000E-03 0.  1.
    9900012    2    1    2    0    0  0.33797569475E+02  0.11741166936E+02 -0.27367549079E+02  0.46142318231E+02  0.10000004286E+02 0.  0.
         12    1    1    2    0    0 -0.33797569475E+02 -0.11741166936E+02  0.27367549079E+02  0.45045681769E+02  0.00000000000E+00 0. -1.
         11    1    3    3    0    0  0.57229947015E+01  0.51760693996E+01 -0.68605941359E+01  0.10325314278E+02  0.51100000000E-03 0. -1.
        -11    1    3    3    0    0  0.10917089244E+02  0.43536352912E+01 -0.10897303243E+02  0.16027732093E+02  0.51100000000E-03 0.  1.
         12    1    3    3    0    0  0.17157485529E+02  0.22114622449E+01 -0.96096517002E+01  0.19789271860E+02  0.00000000000E+00 0. -1.
</event>
<event>
 7    1  0.8398055E-009  0.4614231E+02  0.7816164E-02  0.1320468E+00
        -11   -1    0    0    0    0  0.00000000000E+00  0.00000000000E+00  0.45593999997E+02  0.45594000000E+02  0.51100000000E-03 0. -1.
         11   -1    0    0    0    0 -0.00000000000E+00 -0.00000000000E+00 -0.45593999997E+02  0.45594000000E+02  0.51100000000E-03 0.  1.
    9900012    2    1    2    0    0  0.22493594049E+02 -0.93383263588E+01  0.37893900768E+02  0.46142313993E+02  0.99999656349E+01 0.  0.
        -12    1    1    2    0    0 -0.22493594049E+02  0.93383263588E+01 -0.37893900768E+02  0.45045686007E+02  0.00000000000E+00 0.  1.
         11    1    3    3    0    0  0.55866964223E+01 -0.24466830125E+01  0.49080360301E+01  0.78285536731E+01  0.51100000000E-03 0.  1.
        -11    1    3    3    0    0  0.65411773098E+01 -0.62862935796E+01  0.16528172050E+02  0.18854308769E+02  0.51100000000E-03 0. -1.
         12    1    3    3    0    0  0.10365720317E+02 -0.60534976665E+00  0.16457692688E+02  0.19459451551E+02  0.00000000000E+00 0. -1.
</event>
<event>
 7    1  0.8398055E-009  0.4614232E+02  0.7816164E-02  0.1320468E+00
        -11   -1    0    0    0    0  0.00000000000E+00  0.00000000000E+00  0.45593999997E+02  0.45594000000E+02  0.51100000000E-03 0. -1.
         11   -1    0    0    0    0 -0.00000000000E+00 -0.00000000000E+00 -0.45593999997E+02  0.45594000000E+02  0.51100000000E-03 0.  1.
    9900012    2    1    2    0    0  0.24897475100E+02 -0.13280228539E+02 -0.35112173851E+02  0.46142317755E+02  0.99999999422E+01 0.  0.
         12    1    1    2    0    0 -0.24897475100E+02  0.13280228539E+02  0.35112173851E+02  0.45045682245E+02  0.00000000000E+00 0. -1.
         11    1    3    3    0    0  0.17597916290E+02 -0.67357440829E+01 -0.24216222231E+02  0.30683583974E+02  0.51100000000E-03 0.  1.
        -11    1    3    3    0    0  0.28385130919E-01 -0.50925654743E-01  0.47634614441E+00  0.47990108188E+00  0.51100000000E-03 0. -1.
        -12    1    3    3    0    0  0.72711736792E+01 -0.64935588009E+01 -0.11372297765E+02  0.14978832699E+02  0.00000000000E+00 0.  1.
</event>
<event>
 7    1  0.8398055E-009  0.4614232E+02  0.7816164E-02  0.1320468E+00
        -11   -1    0    0    0    0  0.00000000000E+00  0.00000000000E+00  0.45593999997E+02  0.45594000000E+02  0.51100000000E-03 0. -1.
         11   -1    0    0    0    0 -0.00000000000E+00 -0.00000000000E+00 -0.45593999997E+02  0.45594000000E+02  0.51100000000E-03 0.  1.
    9900012    2    1    2    0    0  0.24225243610E+02 -0.13211922891E+02  0.35604722517E+02  0.46142316523E+02  0.99999887097E+01 0.  0.
        -12    1    1    2    0    0 -0.24225243610E+02  0.13211922891E+02 -0.35604722517E+02  0.45045683477E+02  0.00000000000E+00 0.  1.
         11    1    3    3    0    0  0.11379743612E+02 -0.34406527865E+01  0.13537693909E+02  0.18016820278E+02  0.51100000000E-03 0.  1.
        -11    1    3    3    0    0  0.91071545734E+01 -0.34908276443E+01  0.15422888042E+02  0.18248057921E+02  0.51100000000E-03 0. -1.
         12    1    3    3    0    0  0.37383454244E+01 -0.62804424597E+01  0.66441405656E+01  0.98774383247E+01  0.00000000000E+00 0. -1.
</event>
<event>
 7    1  0.8398055E-009  0.4614232E+02  0.7816164E-02  0.1320468E+00
        -11   -1    0    0    0    0  0.00000000000E+00  0.00000000000E+00  0.45593999997E+02  0.45594000000E+02  0.51100000000E-03 0. -1.
         11   -1    0    0    0    0 -0.00000000000E+00 -0.00000000000E+00 -0.45593999997E+02  0.45594000000E+02  0.51100000000E-03 0.  1.
    9900012    2    1    2    0    0 -0.13706522620E+02 -0.32632815768E+02 -0.27862954381E+02  0.46142315921E+02  0.99999832176E+01 0.  0.
         12    1    1    2    0    0  0.13706522620E+02  0.32632815768E+02  0.27862954381E+02  0.45045684079E+02  0.00000000000E+00 0. -1.
         11    1    3    3    0    0 -0.41826190760E+01 -0.14136492568E+02 -0.16665029090E+02  0.22249897063E+02  0.51100000000E-03 0. -1.
        -11    1    3    3    0    0 -0.84860356758E+01 -0.17095521308E+02 -0.11237859356E+02  0.22148569558E+02  0.51100000000E-03 0.  1.
         12    1    3    3    0    0 -0.10378678685E+01 -0.14008018918E+01  0.39934064441E-01  0.17438493003E+01  0.00000000000E+00 0. -1.
</event>
<event>
 7    1  0.8398055E-009  0.4614232E+02  0.7816164E-02  0.1320468E+00
        -11   -1    0    0    0    0  0.00000000000E+00  0.00000000000E+00  0.45593999997E+02  0.45594000000E+02  0.51100000000E-03 0. -1.
         11   -1    0    0    0    0 -0.00000000000E+00 -0.00000000000E+00 -0.45593999997E+02  0.45594000000E+02  0.51100000000E-03 0.  1.
    9900012    2    1    2    0    0 -0.34627430105E+02 -0.92490522298E+01  0.27285703601E+02  0.46142317589E+02  0.99999984332E+01 0.  0.
        -12    1    1    2    0    0  0.34627430105E+02  0.92490522298E+01 -0.27285703601E+02  0.45045682411E+02  0.00000000000E+00 0.  1.
         11    1    3    3    0    0 -0.14690009815E+02 -0.25501466165E+01  0.14737181347E+02  0.20963877276E+02  0.51100000000E-03 0. -1.
        -11    1    3    3    0    0  0.27306588620E+00 -0.68998357433E+00  0.37034874819E+00  0.82933754736E+00  0.51100000000E-03 0.  1.
         12    1    3    3    0    0 -0.20210486177E+02 -0.60089220390E+01  0.12178173505E+02  0.24349102766E+02  0.00000000000E+00 0. -1.
</event>
<event>
 7    1  0.8398055E-009  0.4614232E+02  0.7816164E-02  0.1320468E+00
        -11   -1    0    0    0    0  0.00000000000E+00  0.00000000000E+00  0.45593999997E+02  0.45594000000E+02  0.51100000000E-03 0. -1.
         11   -1    0    0    0    0 -0.00000000000E+00 -0.00000000000E+00 -0.45593999997E+02  0.45594000000E+02  0.51100000000E-03 0.  1.
    9900012    2    1    2    0    0  0.21155841181E+02 -0.40289387704E+01 -0.39564018381E+02  0.46142317475E+02  0.99999973924E+01 0.  0.
         12    1    1    2    0    0 -0.21155841181E+02  0.40289387704E+01  0.39564018381E+02  0.45045682525E+02  0.00000000000E+00 0. -1.
         11    1    3    3    0    0  0.16587975606E+01 -0.13957981261E+01 -0.55318753663E+00  0.22373820567E+01  0.51100000000E-03 0. -1.
        -11    1    3    3    0    0  0.10695027176E+02 -0.19917683926E+01 -0.25990623149E+02  0.28175578780E+02  0.51100000000E-03 0.  1.
        -12    1    3    3    0    0  0.88020164437E+01 -0.64137225176E+00 -0.13020207695E+02  0.15729356639E+02  0.00000000000E+00 0.  1.
</event>
<event>
 7    1  0.8398055E-009  0.4614232E+02  0.7816164E-02  0.1320468E+00
        -11   -1    0    0    0    0  0.00000000000E+00  0.00000000000E+00  0.45593999997E+02  0.45594000000E+02  0.51100000000E-03 0. -1.
         11   -1    0    0    0    0 -0.00000000000E+00 -0.00000000000E+00 -0.45593999997E+02  0.45594000000E+02  0.51100000000E-03 0.  1.
    9900012    2    1    2    0    0  0.12970879468E+02 -0.23533036443E+02 -0.36153364575E+02  0.46142319980E+02  0.10000020230E+02 0.  0.
         12    1    1    2    0    0 -0.12970879468E+02  0.23533036443E+02  0.36153364575E+02  0.45045680020E+02  0.00000000000E+00 0. -1.
         11    1    3    3    0    0  0.96514892634E+00 -0.62909009975E+01 -0.73675905148E+01  0.97359302620E+01  0.51100000000E-03 0. -1.
        -11    1    3    3    0    0  0.61664874221E+01 -0.35509376527E+01 -0.67033443859E+01  0.97759680624E+01  0.51100000000E-03 0.  1.
        -12    1    3    3    0    0  0.58392431195E+01 -0.13691197793E+02 -0.22082429674E+02  0.26630421655E+02  0.00000000000E+00 0.  1.
</event>
<event>
 7    1  0.8398055E-009  0.4614233E+02  0.7816164E-02  0.1320468E+00
        -11   -1    0    0    0    0  0.00000000000E+00  0.00000000000E+00  0.45593999997E+02  0.45594000000E+02  0.51100000000E-03 0. -1.
         11   -1    0    0    0    0 -0.00000000000E+00 -0.00000000000E+00 -0.45593999997E+02  0.45594000000E+02  0.51100000000E-03 0.  1.
    9900012    2    1    2    0    0 -0.12787699767E+02  0.24591266249E+02  0.35508546598E+02  0.46142328481E+02  0.10000097751E+02 0.  0.
        -12    1    1    2    0    0  0.12787699767E+02 -0.24591266249E+02 -0.35508546598E+02  0.45045671519E+02  0.00000000000E+00 0.  1.
         11    1    3    3    0    0 -0.29161557063E+00  0.45284204200E+01  0.48421318633E+01  0.66361037050E+01  0.51100000000E-03 0. -1.
        -11    1    3    3    0    0 -0.27896701701E+01  0.29379140679E+00  0.45294468237E+01  0.53277069963E+01  0.51100000000E-03 0.  1.
         12    1    3    3    0    0 -0.97064140259E+01  0.19769054423E+02  0.26136967911E+02  0.34178517780E+02  0.00000000000E+00 0. -1.
</event>
<event>
 7    1  0.8398055E-009  0.4614232E+02  0.7816164E-02  0.1320468E+00
        -11   -1    0    0    0    0  0.00000000000E+00  0.00000000000E+00  0.45593999997E+02  0.45594000000E+02  0.51100000000E-03 0. -1.
         11   -1    0    0    0    0 -0.00000000000E+00 -0.00000000000E+00 -0.45593999997E+02  0.45594000000E+02  0.51100000000E-03 0.  1.
    9900012    2    1    2    0    0  0.20189879362E+02  0.26218473140E+02 -0.30562623836E+02  0.46142317208E+02  0.99999949563E+01 0.  0.
         12    1    1    2    0    0 -0.20189879362E+02 -0.26218473140E+02  0.30562623836E+02  0.45045682792E+02  0.00000000000E+00 0. -1.
         11    1    3    3    0    0  0.21050635092E+00  0.80307781464E+00  0.51647926970E+00  0.97775150079E+00  0.51100000000E-03 0. -1.
        -11    1    3    3    0    0  0.12244788439E+02  0.18915692966E+02 -0.19516152081E+02  0.29809704403E+02  0.51100000000E-03 0.  1.
         12    1    3    3    0    0  0.77345845718E+01  0.64997023599E+01 -0.11562951025E+02  0.15354861304E+02  0.00000000000E+00 0. -1.
</event>
<event>
 7    1  0.8398055E-009  0.4614232E+02  0.7816164E-02  0.1320468E+00
        -11   -1    0    0    0    0  0.00000000000E+00  0.00000000000E+00  0.45593999997E+02  0.45594000000E+02  0.51100000000E-03 0. -1.
         11   -1    0    0    0    0 -0.00000000000E+00 -0.00000000000E+00 -0.45593999997E+02  0.45594000000E+02  0.51100000000E-03 0.  1.
    9900012    2    1    2    0    0 -0.10987461496E+02 -0.10125114347E+02  0.42495544766E+02  0.46142316793E+02  0.99999911703E+01 0.  0.
        -12    1    1    2    0    0  0.10987461496E+02  0.10125114347E+02 -0.42495544766E+02  0.45045683207E+02  0.00000000000E+00 0.  1.
         11    1    3    3    0    0  0.13130980763E+01 -0.16909324093E+01  0.88845760857E+01  0.91388823963E+01  0.51100000000E-03 0. -1.
        -11    1    3    3    0    0 -0.84692908342E+01 -0.36974073526E+01  0.17726016986E+02  0.19990282310E+02  0.51100000000E-03 0.  1.
        -12    1    3    3    0    0 -0.38312687386E+01 -0.47367745848E+01  0.15884951694E+02  0.17013152087E+02  0.00000000000E+00 0.  1.
</event>
<event>
 7    1  0.8398055E-009  0.4614232E+02  0.7816164E-02  0.1320468E+00
        -11   -1    0    0    0    0  0.00000000000E+00  0.00000000000E+00  0.45593999997E+02  0.45594000000E+02  0.51100000000E-03 0. -1.
         11   -1    0    0    0    0 -0.00000000000E+00 -0.00000000000E+00 -0.45593999997E+02  0.45594000000E+02  0.51100000000E-03 0.  1.
    9900012    2    1    2    0    0 -0.38906377438E+02 -0.12896149920E+02  0.18684126217E+02  0.46142318069E+02  0.10000002811E+02 0.  0.
        -12    1    1    2    0    0  0.38906377438E+02  0.12896149920E+02 -0.18684126217E+02  0.45045681931E+02  0.00000000000E+00 0.  1.
         11    1    3    3    0    0 -0.17015609342E+02 -0.10683167614E+02  0.10286339448E+02  0.22571437948E+02  0.51100000000E-03 0. -1.
        -11    1    3    3    0    0 -0.48867918950E+01 -0.10611171697E+00  0.17256456439E+01  0.51836133990E+01  0.51100000000E-03 0.  1.
         12    1    3    3    0    0 -0.17003976201E+02 -0.21068705894E+01  0.66721411251E+01  0.18387266722E+02  0.00000000000E+00 0. -1.
</event>
<event>
 7    1  0.8398055E-009  0.4614232E+02  0.7816164E-02  0.1320468E+00
        -11   -1    0    0    0    0  0.00000000000E+00  0.00000000000E+00  0.45593999997E+02  0.45594000000E+02  0.51100000000E-03 0. -1.
         11   -1    0    0    0    0 -0.00000000000E+00 -0.00000000000E+00 -0.45593999997E+02  0.45594000000E+02  0.51100000000E-03 0.  1.
    9900012    2    1    2    0    0 -0.10898435763E+02  0.34669824390E+02  0.26614675292E+02  0.46142316897E+02  0.99999921200E+01 0.  0.
        -12    1    1    2    0    0  0.10898435763E+02 -0.34669824390E+02 -0.26614675292E+02  0.45045683103E+02  0.00000000000E+00 0.  1.
         11    1    3    3    0    0 -0.87899806476E+01  0.30589038124E+02  0.24549067180E+02  0.40194647813E+02  0.51100000000E-03 0. -1.
        -11    1    3    3    0    0 -0.18784378570E+01  0.77489137530E+00  0.16306073240E+01  0.26053533219E+01  0.51100000000E-03 0.  1.
         12    1    3    3    0    0 -0.23001725812E+00  0.33058948908E+01  0.43500078826E+00  0.33423157622E+01  0.00000000000E+00 0. -1.
</event>
<event>
 7    1  0.8398055E-009  0.4614232E+02  0.7816164E-02  0.1320468E+00
        -11   -1    0    0    0    0  0.00000000000E+00  0.00000000000E+00  0.45593999997E+02  0.45594000000E+02  0.51100000000E-03 0. -1.
         11   -1    0    0    0    0 -0.00000000000E+00 -0.00000000000E+00 -0.45593999997E+02  0.45594000000E+02  0.51100000000E-03 0.  1.
    9900012    2    1    2    0    0 -0.27860223988E+02  0.31292420238E+02  0.16544055345E+02  0.46142318606E+02  0.10000007705E+02 0.  0.
        -12    1    1    2    0    0  0.27860223988E+02 -0.31292420238E+02 -0.16544055345E+02  0.45045681394E+02  0.00000000000E+00 0.  1.
         11    1    3    3    0    0 -0.15480579961E+02  0.14076243477E+02  0.10326537152E+02  0.23332945724E+02  0.51100000000E-03 0. -1.
        -11    1    3    3    0    0 -0.56134823922E+01  0.12260948056E+02  0.47394522573E+01  0.14293510407E+02  0.51100000000E-03 0.  1.
        -12    1    3    3    0    0 -0.67661616341E+01  0.49552287054E+01  0.14780659356E+01  0.85158624749E+01  0.00000000000E+00 0.  1.
</event>
<event>
 7    1  0.8398055E-009  0.4614232E+02  0.7816164E-02  0.1320468E+00
        -11   -1    0    0    0    0  0.00000000000E+00  0.00000000000E+00  0.45593999997E+02  0.45594000000E+02  0.51100000000E-03 0. -1.
         11   -1    0    0    0    0 -0.00000000000E+00 -0.00000000000E+00 -0.45593999997E+02  0.45594000000E+02  0.51100000000E-03 0.  1.
    9900012    2    1    2    0    0  0.23563180757E+02  0.26908079583E+01 -0.38296861676E+02  0.46142317087E+02  0.99999938559E+01 0.  0.
         12    1    1    2    0    0 -0.23563180757E+02 -0.26908079583E+01  0.38296861676E+02  0.45045682913E+02  0.00000000000E+00 0. -1.
         11    1    3    3    0    0 -0.14553029741E+00 -0.67981228424E+00 -0.14960535067E+01  0.16496969919E+01  0.51100000000E-03 0. -1.
        -11    1    3    3    0    0  0.12801320048E+02  0.32699192594E+01 -0.14192822057E+02  0.19390780416E+02  0.51100000000E-03 0.  1.
        -12    1    3    3    0    0  0.10907391007E+02  0.10070098319E+00 -0.22607986112E+02  0.25101839680E+02  0.00000000000E+00 0.  1.
</event>
<event>
 7    1  0.8398055E-009  0.4614232E+02  0.7816164E-02  0.1320468E+00
        -11   -1    0    0    0    0  0.00000000000E+00  0.00000000000E+00  0.45593999997E+02  0.45594000000E+02  0.51100000000E-03 0. -1.
         11   -1    0    0    0    0 -0.00000000000E+00 -0.00000000000E+00 -0.45593999997E+02  0.45594000000E+02  0.51100000000E-03 0.  1.
    9900012    2    1    2    0    0  0.11856033465E+02 -0.15645300486E+02  0.40543465140E+02  0.46142317384E+02  0.99999965604E+01 0.  0.
        -12    1    1    2    0    0 -0.11856033465E+02  0.15645300486E+02 -0.40543465140E+02  0.45045682616E+02  0.00000000000E+00 0.  1.
         11    1    3    3    0    0  0.82155758387E+00 -0.20488557119E+01  0.82514649688E+01  0.85416298786E+01  0.51100000000E-03 0. -1.
        -11    1    3    3    0    0  0.53301562980E+01 -0.18754521970E+01  0.59248152228E+01  0.81872658922E+01  0.51100000000E-03 0.  1.
        -12    1    3    3    0    0  0.57043195826E+01 -0.11720992577E+02  0.26367184948E+02  0.29413421613E+02  0.00000000000E+00 0.  1.
</event>
<event>
 7    1  0.8398055E-009  0.4614232E+02  0.7816164E-02  0.1320468E+00
        -11   -1    0    0    0    0  0.00000000000E+00  0.00000000000E+00  0.45593999997E+02  0.45594000000E+02  0.51100000000E-03 0. -1.
         11   -1    0    0    0    0 -0.00000000000E+00 -0.00000000000E+00 -0.45593999997E+02  0.45594000000E+02  0.51100000000E-03 0.  1.
    9900012    2    1    2    0    0  0.41684182318E+02  0.13146466030E+02  0.10895545681E+02  0.46142317185E+02  0.99999947456E+01 0.  0.
        -12    1    1    2    0    0 -0.41684182318E+02 -0.13146466030E+02 -0.10895545681E+02  0.45045682815E+02  0.00000000000E+00 0.  1.
         11    1    3    3    0    0  0.17491576046E+02  0.75491401394E+01  0.29082609102E+01  0.19271811830E+02  0.51100000000E-03 0. -1.
        -11    1    3    3    0    0  0.48265329083E+01  0.56555689914E+00 -0.95768721905E+00  0.49530232779E+01  0.51100000000E-03 0.  1.
         12    1    3    3    0    0  0.19366073364E+02  0.50317689916E+01  0.89449719897E+01  0.21917482077E+02  0.00000000000E+00 0. -1.
</event>
<event>
 7    1  0.8398055E-009  0.4614232E+02  0.7816164E-02  0.1320468E+00
        -11   -1    0    0    0    0  0.00000000000E+00  0.00000000000E+00  0.45593999997E+02  0.45594000000E+02  0.51100000000E-03 0.  1.
         11   -1    0    0    0    0 -0.00000000000E+00 -0.00000000000E+00 -0.45593999997E+02  0.45594000000E+02  0.51100000000E-03 0. -1.
    9900012    2    1    2    0    0 -0.44918524909E+02 -0.33295913525E+01 -0.59442481374E+00  0.46142318748E+02  0.10000008999E+02 0.  0.
        -12    1    1    2    0    0  0.44918524909E+02  0.33295913525E+01  0.59442481374E+00  0.45045681252E+02  0.00000000000E+00 0.  1.
         11    1    3    3    0    0 -0.36539510345E+02 -0.32767653985E+01  0.12232232870E-02  0.36686141927E+02  0.51100000000E-03 0. -1.
        -11    1    3    3    0    0 -0.35884831106E+01  0.18396936768E+01  0.81842087202E+00  0.41147900122E+01  0.51100000000E-03 0.  1.
        -12    1    3    3    0    0 -0.47905314532E+01 -0.18925196308E+01 -0.14140689090E+01  0.53413868084E+01  0.00000000000E+00 0.  1.
</event>
<event>
 7    1  0.8398055E-009  0.4614232E+02  0.7816164E-02  0.1320468E+00
        -11   -1    0    0    0    0  0.00000000000E+00  0.00000000000E+00  0.45593999997E+02  0.45594000000E+02  0.51100000000E-03 0. -1.
         11   -1    0    0    0    0 -0.00000000000E+00 -0.00000000000E+00 -0.45593999997E+02  0.45594000000E+02  0.51100000000E-03 0.  1.
    9900012    2    1    2    0    0  0.38448247551E+02  0.18867735053E+02 -0.13959021439E+02  0.46142318239E+02  0.10000004358E+02 0.  0.
         12    1    1    2    0    0 -0.38448247551E+02 -0.18867735053E+02  0.13959021439E+02  0.45045681761E+02  0.00000000000E+00 0. -1.
         11    1    3    3    0    0  0.24943342912E+02  0.16679465858E+02 -0.97961209554E+01  0.31564836812E+02  0.51100000000E-03 0. -1.
        -11    1    3    3    0    0  0.58661978217E+01 -0.16087683439E+00 -0.26709465777E+01  0.64476440752E+01  0.51100000000E-03 0.  1.
         12    1    3    3    0    0  0.76387068172E+01  0.23491460293E+01 -0.14919539060E+01  0.81298373516E+01  0.00000000000E+00 0. -1.
</event>
<event>
 7    1  0.8398055E-009  0.4614232E+02  0.7816164E-02  0.1320468E+00
        -11   -1    0    0    0    0  0.00000000000E+00  0.00000000000E+00  0.45593999997E+02  0.45594000000E+02  0.51100000000E-03 0. -1.
         11   -1    0    0    0    0 -0.00000000000E+00 -0.00000000000E+00 -0.45593999997E+02  0.45594000000E+02  0.51100000000E-03 0.  1.
    9900012    2    1    2    0    0 -0.67936342197E+01 -0.41362660734E+02  0.16495148472E+02  0.46142322160E+02  0.10000040116E+02 0.  0.
        -12    1    1    2    0    0  0.67936342197E+01  0.41362660734E+02 -0.16495148472E+02  0.45045677840E+02  0.00000000000E+00 0.  1.
         11    1    3    3    0    0  0.62738365070E+00 -0.18595641178E+02  0.85645087141E+01  0.20482731528E+02  0.51100000000E-03 0. -1.
        -11    1    3    3    0    0 -0.64152628509E+00 -0.10465063624E+01  0.16467112610E+01  0.20538718995E+01  0.51100000000E-03 0.  1.
         12    1    3    3    0    0 -0.67794915853E+01 -0.21720513194E+02  0.62839284971E+01  0.23605718733E+02  0.00000000000E+00 0. -1.
</event>
<event>
 7    1  0.8398055E-009  0.4614232E+02  0.7816164E-02  0.1320468E+00
        -11   -1    0    0    0    0  0.00000000000E+00  0.00000000000E+00  0.45593999997E+02  0.45594000000E+02  0.51100000000E-03 0. -1.
         11   -1    0    0    0    0 -0.00000000000E+00 -0.00000000000E+00 -0.45593999997E+02  0.45594000000E+02  0.51100000000E-03 0.  1.
    9900012    2    1    2    0    0  0.11107410096E+02  0.21513727914E+02 -0.37985503238E+02  0.46142317587E+02  0.99999984122E+01 0.  0.
         12    1    1    2    0    0 -0.11107410096E+02 -0.21513727914E+02  0.37985503238E+02  0.45045682413E+02  0.00000000000E+00 0. -1.
         11    1    3    3    0    0  0.30713338780E+01  0.53487573340E+01 -0.14943410370E+02  0.16166255304E+02  0.51100000000E-03 0. -1.
        -11    1    3    3    0    0  0.40990138922E+01  0.54437069603E+01 -0.43935903881E+01  0.81079897088E+01  0.51100000000E-03 0.  1.
        -12    1    3    3    0    0  0.39370623256E+01  0.10721263620E+02 -0.18648502480E+02  0.21868072574E+02  0.00000000000E+00 0.  1.
</event>
<event>
 7    1  0.8398055E-009  0.4614232E+02  0.7816164E-02  0.1320468E+00
        -11   -1    0    0    0    0  0.00000000000E+00  0.00000000000E+00  0.45593999997E+02  0.45594000000E+02  0.51100000000E-03 0. -1.
         11   -1    0    0    0    0 -0.00000000000E+00 -0.00000000000E+00 -0.45593999997E+02  0.45594000000E+02  0.51100000000E-03 0.  1.
    9900012    2    1    2    0    0  0.16930712482E+02 -0.11441071533E+02 -0.40144318956E+02  0.46142317771E+02  0.10000000093E+02 0.  0.
         12    1    1    2    0    0 -0.16930712482E+02  0.11441071533E+02  0.40144318956E+02  0.45045682229E+02  0.00000000000E+00 0. -1.
         11    1    3    3    0    0  0.14503641223E+01 -0.10266065206E+01 -0.90672530012E+01  0.92397269594E+01  0.51100000000E-03 0. -1.
        -11    1    3    3    0    0  0.10162517965E+02 -0.98905961974E+01 -0.25505621942E+02  0.29182827406E+02  0.51100000000E-03 0.  1.
         12    1    3    3    0    0  0.53178303949E+01 -0.52386881461E+00 -0.55714440133E+01  0.77197634055E+01  0.00000000000E+00 0. -1.
</event>
<event>
 7    1  0.1359300E-008  0.4614232E+02  0.7816164E-02  0.1320468E+00
        -11   -1    0    0    0    0  0.00000000000E+00  0.00000000000E+00  0.45593999997E+02  0.45594000000E+02  0.51100000000E-03 0. -1.
         11   -1    0    0    0    0 -0.00000000000E+00 -0.00000000000E+00 -0.45593999997E+02  0.45594000000E+02  0.51100000000E-03 0.  1.
    9900012    2    1    2    0    0  0.20371865545E+02 -0.13511007564E+02 -0.37835872005E+02  0.46142318280E+02  0.10000004735E+02 0.  0.
         12    1    1    2    0    0 -0.20371865545E+02  0.13511007564E+02  0.37835872005E+02  0.45045681720E+02  0.00000000000E+00 0. -1.
         11    1    3    3    0    0  0.28044004222E+01  0.99700904837E-01 -0.16869517304E+01  0.32742034757E+01  0.51100000000E-03 0. -1.
        -11    1    3    3    0    0  0.10399366557E+01 -0.14261694444E+01 -0.69419390638E+00  0.18966636425E+01  0.51100000000E-03 0.  1.
        -12    1    3    3    0    0  0.16527528467E+02 -0.12184539025E+02 -0.35454726368E+02  0.40971451162E+02  0.00000000000E+00 0.  1.
</event>
<event>
 7    1  0.8398055E-009  0.4614232E+02  0.7816164E-02  0.1320468E+00
        -11   -1    0    0    0    0  0.00000000000E+00  0.00000000000E+00  0.45593999997E+02  0.45594000000E+02  0.51100000000E-03 0. -1.
         11   -1    0    0    0    0 -0.00000000000E+00 -0.00000000000E+00 -0.45593999997E+02  0.45594000000E+02  0.51100000000E-03 0.  1.
    9900012    2    1    2    0    0 -0.14148923093E+02 -0.73032891725E+01 -0.42137672087E+02  0.46142318006E+02  0.10000002229E+02 0.  0.
         12    1    1    2    0    0  0.14148923093E+02  0.73032891725E+01  0.42137672087E+02  0.45045681994E+02  0.00000000000E+00 0. -1.
         11    1    3    3    0    0 -0.63539251816E+01 -0.92106496031E-02 -0.11481142920E+02  0.13122084174E+02  0.51100000000E-03 0. -1.
        -11    1    3    3    0    0 -0.60651366288E+01 -0.20932623910E+01 -0.20480334211E+02  0.21461866634E+02  0.51100000000E-03 0.  1.
        -12    1    3    3    0    0 -0.17298612823E+01 -0.52008161320E+01 -0.10176194956E+02  0.11558367198E+02  0.00000000000E+00 0.  1.
</event>
<event>
 7    1  0.8398055E-009  0.4614232E+02  0.7816164E-02  0.1320468E+00
        -11   -1    0    0    0    0  0.00000000000E+00  0.00000000000E+00  0.45593999997E+02  0.45594000000E+02  0.51100000000E-03 0. -1.
         11   -1    0    0    0    0 -0.00000000000E+00 -0.00000000000E+00 -0.45593999997E+02  0.45594000000E+02  0.51100000000E-03 0.  1.
    9900012    2    1    2    0    0  0.14844313326E+02  0.22288589709E+02  0.36221246388E+02  0.46142316975E+02  0.99999928314E+01 0.  0.
        -12    1    1    2    0    0 -0.14844313326E+02 -0.22288589709E+02 -0.36221246388E+02  0.45045683025E+02  0.00000000000E+00 0.  1.
         11    1    3    3    0    0  0.12864383999E+02  0.15028304937E+02  0.20856715816E+02  0.28746215748E+02  0.51100000000E-03 0.  1.
        -11    1    3    3    0    0  0.22976482619E+01  0.65041048535E+01  0.14976507759E+02  0.16488734105E+02  0.51100000000E-03 0. -1.
        -12    1    3    3    0    0 -0.31771893481E+00  0.75617991839E+00  0.38802281293E+00  0.90736712188E+00  0.00000000000E+00 0.  1.
</event>
<event>
 7    1  0.8398055E-009  0.4614231E+02  0.7816164E-02  0.1320468E+00
        -11   -1    0    0    0    0  0.00000000000E+00  0.00000000000E+00  0.45593999997E+02  0.45594000000E+02  0.51100000000E-03 0. -1.
         11   -1    0    0    0    0 -0.00000000000E+00 -0.00000000000E+00 -0.45593999997E+02  0.45594000000E+02  0.51100000000E-03 0.  1.
    9900012    2    1    2    0    0 -0.40660840801E+02 -0.22838766521E+01 -0.19250810682E+02  0.46142314534E+02  0.99999705728E+01 0.  0.
         12    1    1    2    0    0  0.40660840801E+02  0.22838766521E+01  0.19250810682E+02  0.45045685466E+02  0.00000000000E+00 0. -1.
         11    1    3    3    0    0 -0.30236930279E+02 -0.38017989825E+01 -0.15272341429E+02  0.34087681664E+02  0.51100000000E-03 0. -1.
        -11    1    3    3    0    0 -0.10358060533E+02  0.22568576608E+01 -0.39472910672E+01  0.11312114370E+02  0.51100000000E-03 0.  1.
         12    1    3    3    0    0 -0.65849988890E-01 -0.73893533037E+00 -0.31178185686E-01  0.74251849995E+00  0.00000000000E+00 0. -1.
</event>
<event>
 7    1  0.8398055E-009  0.4614232E+02  0.7816164E-02  0.1320468E+00
        -11   -1    0    0    0    0  0.00000000000E+00  0.00000000000E+00  0.45593999997E+02  0.45594000000E+02  0.51100000000E-03 0. -1.
         11   -1    0    0    0    0 -0.00000000000E+00 -0.00000000000E+00 -0.45593999997E+02  0.45594000000E+02  0.51100000000E-03 0.  1.
    9900012    2    1    2    0    0 -0.20847046002E+02 -0.17491739824E+02 -0.35896423753E+02  0.46142317328E+02  0.99999960542E+01 0.  0.
         12    1    1    2    0    0  0.20847046002E+02  0.17491739824E+02  0.35896423753E+02  0.45045682672E+02  0.00000000000E+00 0. -1.
         11    1    3    3    0    0 -0.36062524498E+01 -0.38923857818E+01 -0.11488423003E+02  0.12654627105E+02  0.51100000000E-03 0. -1.
        -11    1    3    3    0    0 -0.36197115418E+01 -0.62359568487E+01 -0.10066683248E+02  0.12382551487E+02  0.51100000000E-03 0.  1.
         12    1    3    3    0    0 -0.13621082011E+02 -0.73633971934E+01 -0.14341317502E+02  0.21105138736E+02  0.00000000000E+00 0. -1.
</event>
<event>
 7    1  0.8398055E-009  0.4614232E+02  0.7816164E-02  0.1320468E+00
        -11   -1    0    0    0    0  0.00000000000E+00  0.00000000000E+00  0.45593999997E+02  0.45594000000E+02  0.51100000000E-03 0. -1.
         11   -1    0    0    0    0 -0.00000000000E+00 -0.00000000000E+00 -0.45593999997E+02  0.45594000000E+02  0.51100000000E-03 0.  1.
    9900012    2    1    2    0    0 -0.11190833915E+02 -0.14317777581E+02  0.41217471485E+02  0.46142317918E+02  0.10000001431E+02 0.  0.
        -12    1    1    2    0    0  0.11190833915E+02  0.14317777581E+02 -0.41217471485E+02  0.45045682082E+02  0.00000000000E+00 0.  1.
         11    1    3    3    0    0 -0.51114080040E+01 -0.10033231755E+02  0.19193235087E+02  0.22252471876E+02  0.51100000000E-03 0. -1.
        -11    1    3    3    0    0 -0.22884067560E+01 -0.26740372267E+01  0.36928608225E+01  0.51014215554E+01  0.51100000000E-03 0.  1.
         12    1    3    3    0    0 -0.37910191553E+01 -0.16105085997E+01  0.18331375576E+02  0.18788424487E+02  0.00000000000E+00 0. -1.
</event>
<event>
 7    1  0.8398055E-009  0.4614232E+02  0.7816164E-02  0.1320468E+00
        -11   -1    0    0    0    0  0.00000000000E+00  0.00000000000E+00  0.45593999997E+02  0.45594000000E+02  0.51100000000E-03 0. -1.
         11   -1    0    0    0    0 -0.00000000000E+00 -0.00000000000E+00 -0.45593999997E+02  0.45594000000E+02  0.51100000000E-03 0.  1.
    9900012    2    1    2    0    0  0.14510457498E+02 -0.79933486625E+01  0.41888738219E+02  0.46142318862E+02  0.10000010037E+02 0.  0.
        -12    1    1    2    0    0 -0.14510457498E+02  0.79933486625E+01 -0.41888738219E+02  0.45045681138E+02  0.00000000000E+00 0.  1.
         11    1    3    3    0    0 -0.22312314121E+00 -0.14873109188E+01  0.73138742037E+00  0.16723652487E+01  0.51100000000E-03 0. -1.
        -11    1    3    3    0    0  0.19212633162E+01 -0.96097592109E+00  0.21487608490E+01  0.30384043342E+01  0.51100000000E-03 0.  1.
         12    1    3    3    0    0  0.12812317323E+02 -0.55450618226E+01  0.39008589949E+02  0.41431549279E+02  0.00000000000E+00 0. -1.
</event>
<event>
 7    1  0.8398055E-009  0.4614232E+02  0.7816164E-02  0.1320468E+00
        -11   -1    0    0    0    0  0.00000000000E+00  0.00000000000E+00  0.45593999997E+02  0.45594000000E+02  0.51100000000E-03 0. -1.
         11   -1    0    0    0    0 -0.00000000000E+00 -0.00000000000E+00 -0.45593999997E+02  0.45594000000E+02  0.51100000000E-03 0.  1.
    9900012    2    1    2    0    0  0.24650680197E+02  0.86731544282E+01  0.36691059366E+02  0.46142317861E+02  0.10000000915E+02 0.  0.
        -12    1    1    2    0    0 -0.24650680197E+02 -0.86731544282E+01 -0.36691059366E+02  0.45045682139E+02  0.00000000000E+00 0.  1.
         11    1    3    3    0    0  0.50064511700E+01  0.28801107624E+01  0.14394267023E+02  0.15509819945E+02  0.51100000000E-03 0.  1.
        -11    1    3    3    0    0  0.41899385346E+01  0.33163967473E+01  0.52734292364E+01  0.75075381105E+01  0.51100000000E-03 0. -1.
        -12    1    3    3    0    0  0.15454290492E+02  0.24766469185E+01  0.17023363107E+02  0.23124959806E+02  0.00000000000E+00 0.  1.
</event>
<event>
 7    1  0.8398055E-009  0.4614232E+02  0.7816164E-02  0.1320468E+00
        -11   -1    0    0    0    0  0.00000000000E+00  0.00000000000E+00  0.45593999997E+02  0.45594000000E+02  0.51100000000E-03 0. -1.
         11   -1    0    0    0    0 -0.00000000000E+00 -0.00000000000E+00 -0.45593999997E+02  0.45594000000E+02  0.51100000000E-03 0.  1.
    9900012    2    1    2    0    0 -0.16634749611E+02 -0.22829698477E+02 -0.35088510288E+02  0.46142316728E+02  0.99999905791E+01 0.  0.
         12    1    1    2    0    0  0.16634749611E+02  0.22829698477E+02  0.35088510288E+02  0.45045683272E+02  0.00000000000E+00 0. -1.
         11    1    3    3    0    0 -0.45443325083E+01 -0.22537925831E+01 -0.70064570524E+01  0.86499121176E+01  0.51100000000E-03 0. -1.
        -11    1    3    3    0    0  0.16565460020E+00 -0.49458742171E+01 -0.63601819298E+01  0.80585996091E+01  0.51100000000E-03 0.  1.
        -12    1    3    3    0    0 -0.12256071703E+02 -0.15630031677E+02 -0.21721871306E+02  0.29433805001E+02  0.00000000000E+00 0.  1.
</event>
<event>
 7    1  0.8398055E-009  0.4614232E+02  0.7816164E-02  0.1320468E+00
        -11   -1    0    0    0    0  0.00000000000E+00  0.00000000000E+00  0.45593999997E+02  0.45594000000E+02  0.51100000000E-03 0. -1.
         11   -1    0    0    0    0 -0.00000000000E+00 -0.00000000000E+00 -0.45593999997E+02  0.45594000000E+02  0.51100000000E-03 0.  1.
    9900012    2    1    2    0    0 -0.31805005685E+02 -0.20674936389E+02  0.24292017789E+02  0.46142317526E+02  0.99999978548E+01 0.  0.
        -12    1    1    2    0    0  0.31805005685E+02  0.20674936389E+02 -0.24292017789E+02  0.45045682474E+02  0.00000000000E+00 0.  1.
         11    1    3    3    0    0 -0.11826679348E+02 -0.66708799620E+01  0.60001886890E+01  0.14844973844E+02  0.51100000000E-03 0.  1.
        -11    1    3    3    0    0 -0.10750830604E+02 -0.11021845724E+02  0.13516155128E+02  0.20487749792E+02  0.51100000000E-03 0. -1.
         12    1    3    3    0    0 -0.92274957319E+01 -0.29822107035E+01  0.47756739718E+01  0.10809593889E+02  0.00000000000E+00 0. -1.
</event>
<event>
 7    1  0.8398055E-009  0.4614232E+02  0.7816164E-02  0.1320468E+00
        -11   -1    0    0    0    0  0.00000000000E+00  0.00000000000E+00  0.45593999997E+02  0.45594000000E+02  0.51100000000E-03 0. -1.
         11   -1    0    0    0    0 -0.00000000000E+00 -0.00000000000E+00 -0.45593999997E+02  0.45594000000E+02  0.51100000000E-03 0.  1.
    9900012    2    1    2    0    0  0.44125096406E+02  0.90580932894E+01  0.20062320270E+00  0.46142318336E+02  0.10000005246E+02 0.  0.
        -12    1    1    2    0    0 -0.44125096406E+02 -0.90580932894E+01 -0.20062320270E+00  0.45045681664E+02  0.00000000000E+00 0.  1.
         11    1    3    3    0    0  0.99953758881E+01  0.93571315844E+00 -0.24686494939E+01  0.10338149198E+02  0.51100000000E-03 0. -1.
        -11    1    3    3    0    0  0.31529430337E+02  0.80692243090E+01  0.41535708594E+01  0.32809594777E+02  0.51100000000E-03 0.  1.
        -12    1    3    3    0    0  0.26002901813E+01  0.53155822024E-01 -0.14842981628E+01  0.29945743612E+01  0.00000000000E+00 0.  1.
</event>
<event>
 7    1  0.8398055E-009  0.4614232E+02  0.7816164E-02  0.1320468E+00
        -11   -1    0    0    0    0  0.00000000000E+00  0.00000000000E+00  0.45593999997E+02  0.45594000000E+02  0.51100000000E-03 0. -1.
         11   -1    0    0    0    0 -0.00000000000E+00 -0.00000000000E+00 -0.45593999997E+02  0.45594000000E+02  0.51100000000E-03 0.  1.
    9900012    2    1    2    0    0 -0.31131955457E+02  0.37395753507E+01 -0.32340847296E+02  0.46142317873E+02  0.10000001025E+02 0.  0.
         12    1    1    2    0    0  0.31131955457E+02 -0.37395753507E+01  0.32340847296E+02  0.45045682127E+02  0.00000000000E+00 0. -1.
         11    1    3    3    0    0 -0.48057019183E+01 -0.87036038078E+00 -0.52413659273E+01  0.71640920684E+01  0.51100000000E-03 0.  1.
        -11    1    3    3    0    0 -0.14258335433E+02  0.62144900976E+01 -0.17936856688E+02  0.23741331989E+02  0.51100000000E-03 0. -1.
         12    1    3    3    0    0 -0.12067918106E+02 -0.16045543660E+01 -0.91626246812E+01  0.15236893816E+02  0.00000000000E+00 0. -1.
</event>
<event>
 7    1  0.8398055E-009  0.4614232E+02  0.7816164E-02  0.1320468E+00
        -11   -1    0    0    0    0  0.00000000000E+00  0.00000000000E+00  0.45593999997E+02  0.45594000000E+02  0.51100000000E-03 0. -1.
         11   -1    0    0    0    0 -0.00000000000E+00 -0.00000000000E+00 -0.45593999997E+02  0.45594000000E+02  0.51100000000E-03 0.  1.
    9900012    2    1    2    0    0 -0.12550251670E+02 -0.17633291560E+02 -0.39505332872E+02  0.46142321922E+02  0.10000037938E+02 0.  0.
         12    1    1    2    0    0  0.12550251670E+02  0.17633291560E+02  0.39505332872E+02  0.45045678078E+02  0.00000000000E+00 0. -1.
         11    1    3    3    0    0 -0.50502360897E+01 -0.52187002492E+01 -0.88550849124E+01  0.11452172105E+02  0.51100000000E-03 0. -1.
        -11    1    3    3    0    0 -0.56141190903E+01 -0.93604890593E+01 -0.28469543996E+02  0.30490195542E+02  0.51100000000E-03 0.  1.
         12    1    3    3    0    0 -0.18858964904E+01 -0.30541022513E+01 -0.21807039640E+01  0.41999542751E+01  0.00000000000E+00 0. -1.
</event>
<event>
 7    1  0.8398055E-009  0.4614232E+02  0.7816164E-02  0.1320468E+00
        -11   -1    0    0    0    0  0.00000000000E+00  0.00000000000E+00  0.45593999997E+02  0.45594000000E+02  0.51100000000E-03 0.  1.
         11   -1    0    0    0    0 -0.00000000000E+00 -0.00000000000E+00 -0.45593999997E+02  0.45594000000E+02  0.51100000000E-03 0. -1.
    9900012    2    1    2    0    0 -0.15446323361E+02 -0.40055854402E+02  0.13640126761E+02  0.46142318350E+02  0.10000005373E+02 0.  0.
        -12    1    1    2    0    0  0.15446323361E+02  0.40055854402E+02 -0.13640126761E+02  0.45045681650E+02  0.00000000000E+00 0.  1.
         11    1    3    3    0    0 -0.11551003634E+01 -0.65484874501E+01  0.30266214455E+01  0.73059826423E+01  0.51100000000E-03 0. -1.
        -11    1    3    3    0    0 -0.32657022791E+01 -0.45723978180E+01  0.46710471787E+01  0.73068676728E+01  0.51100000000E-03 0.  1.
         12    1    3    3    0    0 -0.11025520719E+02 -0.28934969134E+02  0.59424581366E+01  0.31529468035E+02  0.00000000000E+00 0. -1.
</event>
<event>
 7    1  0.8398055E-009  0.4614232E+02  0.7816164E-02  0.1320468E+00
        -11   -1    0    0    0    0  0.00000000000E+00  0.00000000000E+00  0.45593999997E+02  0.45594000000E+02  0.51100000000E-03 0. -1.
         11   -1    0    0    0    0 -0.00000000000E+00 -0.00000000000E+00 -0.45593999997E+02  0.45594000000E+02  0.51100000000E-03 0.  1.
    9900012    2    1    2    0    0  0.20509859871E+01 -0.12165899985E+02 -0.43323178391E+02  0.46142318166E+02  0.10000003697E+02 0.  0.
         12    1    1    2    0    0 -0.20509859871E+01  0.12165899985E+02  0.43323178391E+02  0.45045681834E+02  0.00000000000E+00 0. -1.
         11    1    3    3    0    0  0.43140046264E-01  0.12834276880E-01 -0.11048113610E+02  0.11048205301E+02  0.51100000000E-03 0. -1.
        -11    1    3    3    0    0  0.40741285345E+01 -0.86160149651E+01 -0.20188192379E+02  0.22324814646E+02  0.51100000000E-03 0.  1.
         12    1    3    3    0    0 -0.20662825937E+01 -0.35627192971E+01 -0.12086872402E+02  0.12769298219E+02  0.00000000000E+00 0. -1.
</event>
<event>
 7    1  0.8398055E-009  0.4614232E+02  0.7816164E-02  0.1320468E+00
        -11   -1    0    0    0    0  0.00000000000E+00  0.00000000000E+00  0.45593999997E+02  0.45594000000E+02  0.51100000000E-03 0. -1.
         11   -1    0    0    0    0 -0.00000000000E+00 -0.00000000000E+00 -0.45593999997E+02  0.45594000000E+02  0.51100000000E-03 0.  1.
    9900012    2    1    2    0    0  0.35639997605E+01 -0.23227342332E+02  0.38430482530E+02  0.46142317481E+02  0.99999974436E+01 0.  0.
        -12    1    1    2    0    0 -0.35639997605E+01  0.23227342332E+02 -0.38430482530E+02  0.45045682519E+02  0.00000000000E+00 0.  1.
         11    1    3    3    0    0 -0.13118491048E+01 -0.11168274733E+02  0.20591025509E+02  0.23461492714E+02  0.51100000000E-03 0. -1.
        -11    1    3    3    0    0  0.14801735077E+01 -0.26919143837E+01  0.84460563852E+01  0.89873903546E+01  0.51100000000E-03 0.  1.
        -12    1    3    3    0    0  0.33956753576E+01 -0.93671532154E+01  0.93934006361E+01  0.13693434412E+02  0.00000000000E+00 0.  1.
</event>
<event>
 7    1  0.8398055E-009  0.4614232E+02  0.7816164E-02  0.1320468E+00
        -11   -1    0    0    0    0  0.00000000000E+00  0.00000000000E+00  0.45593999997E+02  0.45594000000E+02  0.51100000000E-03 0. -1.
         11   -1    0    0    0    0 -0.00000000000E+00 -0.00000000000E+00 -0.45593999997E+02  0.45594000000E+02  0.51100000000E-03 0.  1.
    9900012    2    1    2    0    0  0.31044595190E+02  0.32500556639E+02  0.30100616475E+01  0.46142317149E+02  0.99999944167E+01 0.  0.
        -12    1    1    2    0    0 -0.31044595190E+02 -0.32500556639E+02 -0.30100616475E+01  0.45045682851E+02  0.00000000000E+00 0.  1.
         11    1    3    3    0    0  0.10111453079E+02  0.10197084279E+02  0.42009893517E+01  0.14962296714E+02  0.51100000000E-03 0. -1.
        -11    1    3    3    0    0  0.37674270449E+01  0.39009934033E+01  0.20680973782E+01  0.58041608436E+01  0.51100000000E-03 0.  1.
        -12    1    3    3    0    0  0.17165715066E+02  0.18402478957E+02 -0.32590250823E+01  0.25375859591E+02  0.00000000000E+00 0.  1.
</event>
<event>
 7    1  0.8398055E-009  0.4614232E+02  0.7816164E-02  0.1320468E+00
        -11   -1    0    0    0    0  0.00000000000E+00  0.00000000000E+00  0.45593999997E+02  0.45594000000E+02  0.51100000000E-03 0. -1.
         11   -1    0    0    0    0 -0.00000000000E+00 -0.00000000000E+00 -0.45593999997E+02  0.45594000000E+02  0.51100000000E-03 0.  1.
    9900012    2    1    2    0    0  0.29795481088E+01  0.40749859993E+02 -0.18965352238E+02  0.46142318943E+02  0.10000010781E+02 0.  0.
         12    1    1    2    0    0 -0.29795481088E+01 -0.40749859993E+02  0.18965352238E+02  0.45045681057E+02  0.00000000000E+00 0. -1.
         11    1    3    3    0    0 -0.27818078101E+01  0.67523280046E+01 -0.47955762046E+01  0.87367007256E+01  0.51100000000E-03 0. -1.
        -11    1    3    3    0    0  0.42999304169E+00  0.32950689594E+01 -0.23826717045E+01  0.40889482970E+01  0.51100000000E-03 0.  1.
        -12    1    3    3    0    0  0.53313628772E+01  0.30702463029E+02 -0.11787104329E+02  0.33316669921E+02  0.00000000000E+00 0.  1.
</event>
<event>
 7    1  0.8398055E-009  0.4614232E+02  0.7816164E-02  0.1320468E+00
        -11   -1    0    0    0    0  0.00000000000E+00  0.00000000000E+00  0.45593999997E+02  0.45594000000E+02  0.51100000000E-03 0. -1.
         11   -1    0    0    0    0 -0.00000000000E+00 -0.00000000000E+00 -0.45593999997E+02  0.45594000000E+02  0.51100000000E-03 0.  1.
    9900012    2    1    2    0    0 -0.12648825178E+02  0.18670827135E+02  0.38993854899E+02  0.46142320028E+02  0.10000020669E+02 0.  0.
        -12    1    1    2    0    0  0.12648825178E+02 -0.18670827135E+02 -0.38993854899E+02  0.45045679972E+02  0.00000000000E+00 0.  1.
         11    1    3    3    0    0 -0.34033616750E+01  0.27536780416E+01  0.38047358861E+01  0.58001404183E+01  0.51100000000E-03 0. -1.
        -11    1    3    3    0    0 -0.10365668282E+01  0.95282199188E+00  0.88170490163E+01  0.89287565850E+01  0.51100000000E-03 0.  1.
         12    1    3    3    0    0 -0.82088966744E+01  0.14964327102E+02  0.26372069996E+02  0.31413423024E+02  0.00000000000E+00 0. -1.
</event>
<event>
 7    1  0.8398055E-009  0.4614232E+02  0.7816164E-02  0.1320468E+00
        -11   -1    0    0    0    0  0.00000000000E+00  0.00000000000E+00  0.45593999997E+02  0.45594000000E+02  0.51100000000E-03 0. -1.
         11   -1    0    0    0    0 -0.00000000000E+00 -0.00000000000E+00 -0.45593999997E+02  0.45594000000E+02  0.51100000000E-03 0.  1.
    9900012    2    1    2    0    0  0.17766956419E+01  0.51661734339E+01  0.44713164299E+02  0.46142322549E+02  0.10000043664E+02 0.  0.
        -12    1    1    2    0    0 -0.17766956419E+01 -0.51661734339E+01 -0.44713164299E+02  0.45045677451E+02  0.00000000000E+00 0.  1.
         11    1    3    3    0    0 -0.61581843434E+00 -0.10877665539E-01  0.26375256031E+00  0.67001219531E+00  0.51100000000E-03 0. -1.
        -11    1    3    3    0    0  0.32112748929E+01 -0.69558519639E+00  0.22393719891E+02  0.22633488817E+02  0.51100000000E-03 0.  1.
         12    1    3    3    0    0 -0.81876081674E+00  0.58726362958E+01  0.22055691847E+02  0.22838821537E+02  0.00000000000E+00 0. -1.
</event>
<event>
 7    1  0.8398055E-009  0.4614232E+02  0.7816164E-02  0.1320468E+00
        -11   -1    0    0    0    0  0.00000000000E+00  0.00000000000E+00  0.45593999997E+02  0.45594000000E+02  0.51100000000E-03 0. -1.
         11   -1    0    0    0    0 -0.00000000000E+00 -0.00000000000E+00 -0.45593999997E+02  0.45594000000E+02  0.51100000000E-03 0.  1.
    9900012    2    1    2    0    0  0.19986178930E+02  0.17806438158E+02 -0.36229779145E+02  0.46142317799E+02  0.10000000344E+02 0.  0.
         12    1    1    2    0    0 -0.19986178930E+02 -0.17806438158E+02  0.36229779145E+02  0.45045682201E+02  0.00000000000E+00 0. -1.
         11    1    3    3    0    0  0.11508850820E+00  0.64664490099E+00 -0.38231738068E+01  0.38791820285E+01  0.51100000000E-03 0. -1.
        -11    1    3    3    0    0  0.10092970242E+02  0.47417156116E+01 -0.15781641601E+02  0.19323874538E+02  0.51100000000E-03 0.  1.
         12    1    3    3    0    0  0.97781201797E+01  0.12418077645E+02 -0.16624963736E+02  0.22939261233E+02  0.00000000000E+00 0. -1.
</event>
<event>
 7    1  0.8398055E-009  0.4614232E+02  0.7816164E-02  0.1320468E+00
        -11   -1    0    0    0    0  0.00000000000E+00  0.00000000000E+00  0.45593999997E+02  0.45594000000E+02  0.51100000000E-03 0. -1.
         11   -1    0    0    0    0 -0.00000000000E+00 -0.00000000000E+00 -0.45593999997E+02  0.45594000000E+02  0.51100000000E-03 0.  1.
    9900012    2    1    2    0    0  0.34583492210E+02  0.52935067802E+01 -0.28373830538E+02  0.46142318666E+02  0.10000008250E+02 0.  0.
         12    1    1    2    0    0 -0.34583492210E+02 -0.52935067802E+01  0.28373830538E+02  0.45045681334E+02  0.00000000000E+00 0. -1.
         11    1    3    3    0    0  0.17782461809E+02  0.40146582105E+01 -0.19691637917E+02  0.26834567868E+02  0.51100000000E-03 0. -1.
        -11    1    3    3    0    0  0.97815260975E+01  0.23271602362E+01 -0.60712494424E+01  0.11745381970E+02  0.51100000000E-03 0.  1.
        -12    1    3    3    0    0  0.70195043035E+01 -0.10483116665E+01 -0.26109431787E+01  0.75623688286E+01  0.00000000000E+00 0.  1.
</event>
<event>
 7    1  0.8398055E-009  0.4614232E+02  0.7816164E-02  0.1320468E+00
        -11   -1    0    0    0    0  0.00000000000E+00  0.00000000000E+00  0.45593999997E+02  0.45594000000E+02  0.51100000000E-03 0.  1.
         11   -1    0    0    0    0 -0.00000000000E+00 -0.00000000000E+00 -0.45593999997E+02  0.45594000000E+02  0.51100000000E-03 0. -1.
    9900012    2    1    2    0    0 -0.31301429615E+02 -0.28269477204E+02  0.15816784838E+02  0.46142317411E+02  0.99999968061E+01 0.  0.
        -12    1    1    2    0    0  0.31301429615E+02  0.28269477204E+02 -0.15816784838E+02  0.45045682589E+02  0.00000000000E+00 0.  1.
         11    1    3    3    0    0 -0.10397987313E+02 -0.14806039882E+02  0.43768051064E+01  0.18614332659E+02  0.51100000000E-03 0. -1.
        -11    1    3    3    0    0 -0.15234634921E+01 -0.19800167785E+01  0.87755579020E+00  0.26479259584E+01  0.51100000000E-03 0.  1.
        -12    1    3    3    0    0 -0.19379978810E+02 -0.11483420543E+02  0.10562423941E+02  0.24880058793E+02  0.00000000000E+00 0.  1.
</event>
<event>
 7    1  0.8398055E-009  0.4614233E+02  0.7816164E-02  0.1320468E+00
        -11   -1    0    0    0    0  0.00000000000E+00  0.00000000000E+00  0.45593999997E+02  0.45594000000E+02  0.51100000000E-03 0. -1.
         11   -1    0    0    0    0 -0.00000000000E+00 -0.00000000000E+00 -0.45593999997E+02  0.45594000000E+02  0.51100000000E-03 0.  1.
    9900012    2    1    2    0    0 -0.33598942185E+01 -0.41464652912E+01  0.44728405045E+02  0.46142331158E+02  0.10000122159E+02 0.  0.
        -12    1    1    2    0    0  0.33598942185E+01  0.41464652912E+01 -0.44728405045E+02  0.45045668842E+02  0.00000000000E+00 0.  1.
         11    1    3    3    0    0 -0.53782962315E+01  0.10771262317E+01  0.26945901622E+02  0.27498506973E+02  0.51100000000E-03 0. -1.
        -11    1    3    3    0    0  0.30457480991E+00 -0.71189784240E+00  0.25664916651E+01  0.26807543866E+01  0.51100000000E-03 0.  1.
         12    1    3    3    0    0  0.17138272031E+01 -0.45116936804E+01  0.15216011758E+02  0.15963069798E+02  0.00000000000E+00 0. -1.
</event>
<event>
 7    1  0.8398055E-009  0.4614232E+02  0.7816164E-02  0.1320468E+00
        -11   -1    0    0    0    0  0.00000000000E+00  0.00000000000E+00  0.45593999997E+02  0.45594000000E+02  0.51100000000E-03 0. -1.
         11   -1    0    0    0    0 -0.00000000000E+00 -0.00000000000E+00 -0.45593999997E+02  0.45594000000E+02  0.51100000000E-03 0.  1.
    9900012    2    1    2    0    0 -0.13413635245E+02  0.29997591777E+02 -0.30811239166E+02  0.46142316723E+02  0.99999905328E+01 0.  0.
         12    1    1    2    0    0  0.13413635245E+02 -0.29997591777E+02  0.30811239166E+02  0.45045683277E+02  0.00000000000E+00 0. -1.
         11    1    3    3    0    0  0.74867407608E+00  0.43327782619E+01 -0.41981706975E+01  0.60793188603E+01  0.51100000000E-03 0. -1.
        -11    1    3    3    0    0 -0.10125099246E+02  0.12272632593E+02 -0.13019631846E+02  0.20558354972E+02  0.51100000000E-03 0.  1.
         12    1    3    3    0    0 -0.40372100754E+01  0.13392180923E+02 -0.13593436623E+02  0.19504642890E+02  0.00000000000E+00 0. -1.
</event>
<event>
 7    1  0.8398055E-009  0.4614232E+02  0.7816164E-02  0.1320468E+00
        -11   -1    0    0    0    0  0.00000000000E+00  0.00000000000E+00  0.45593999997E+02  0.45594000000E+02  0.51100000000E-03 0. -1.
         11   -1    0    0    0    0 -0.00000000000E+00 -0.00000000000E+00 -0.45593999997E+02  0.45594000000E+02  0.51100000000E-03 0.  1.
    9900012    2    1    2    0    0  0.22541863218E+01 -0.40255393836E+02 -0.20088187523E+02  0.46142319110E+02  0.10000012304E+02 0.  0.
         12    1    1    2    0    0 -0.22541863218E+01  0.40255393836E+02  0.20088187523E+02  0.45045680890E+02  0.00000000000E+00 0. -1.
         11    1    3    3    0    0 -0.10541336034E+01 -0.66479901631E+01 -0.72195211472E+01  0.98705854294E+01  0.51100000000E-03 0. -1.
        -11    1    3    3    0    0  0.19757525985E+01 -0.16070211182E+02 -0.77750214239E+01  0.17961242835E+02  0.51100000000E-03 0.  1.
         12    1    3    3    0    0  0.13325673268E+01 -0.17537192490E+02 -0.50936449518E+01  0.18310490846E+02  0.00000000000E+00 0. -1.
</event>
<event>
 7    1  0.8398055E-009  0.4614232E+02  0.7816164E-02  0.1320468E+00
        -11   -1    0    0    0    0  0.00000000000E+00  0.00000000000E+00  0.45593999997E+02  0.45594000000E+02  0.51100000000E-03 0. -1.
         11   -1    0    0    0    0 -0.00000000000E+00 -0.00000000000E+00 -0.45593999997E+02  0.45594000000E+02  0.51100000000E-03 0.  1.
    9900012    2    1    2    0    0 -0.16924167078E+02 -0.18921088954E+02 -0.37211266979E+02  0.46142318424E+02  0.10000006043E+02 0.  0.
         12    1    1    2    0    0  0.16924167078E+02  0.18921088954E+02  0.37211266979E+02  0.45045681576E+02  0.00000000000E+00 0. -1.
         11    1    3    3    0    0 -0.28217717317E+01 -0.27755568218E+01 -0.11053175092E+02  0.11740476619E+02  0.51100000000E-03 0. -1.
        -11    1    3    3    0    0 -0.14693768112E+02 -0.15199415853E+02 -0.24081277011E+02  0.32044296940E+02  0.51100000000E-03 0.  1.
        -12    1    3    3    0    0  0.59137276547E+00 -0.94611627912E+00 -0.20768148757E+01  0.23575448647E+01  0.00000000000E+00 0.  1.
</event>
<event>
 7    1  0.8398055E-009  0.4614232E+02  0.7816164E-02  0.1320468E+00
        -11   -1    0    0    0    0  0.00000000000E+00  0.00000000000E+00  0.45593999997E+02  0.45594000000E+02  0.51100000000E-03 0. -1.
         11   -1    0    0    0    0 -0.00000000000E+00 -0.00000000000E+00 -0.45593999997E+02  0.45594000000E+02  0.51100000000E-03 0.  1.
    9900012    2    1    2    0    0 -0.21082225891E+02  0.36145013643E+02 -0.16679064217E+02  0.46142318266E+02  0.10000004605E+02 0.  0.
         12    1    1    2    0    0  0.21082225891E+02 -0.36145013643E+02  0.16679064217E+02  0.45045681734E+02  0.00000000000E+00 0. -1.
         11    1    3    3    0    0 -0.21730717193E+01  0.44335945023E+01 -0.72059771893E+00  0.49898158524E+01  0.51100000000E-03 0. -1.
        -11    1    3    3    0    0 -0.12808502427E+02  0.24624101251E+02 -0.80351963243E+01  0.28895821100E+02  0.51100000000E-03 0.  1.
         12    1    3    3    0    0 -0.61006517443E+01  0.70873178896E+01 -0.79232701736E+01  0.12256681313E+02  0.00000000000E+00 0. -1.
</event>
<event>
 7    1  0.8398055E-009  0.4614232E+02  0.7816164E-02  0.1320468E+00
        -11   -1    0    0    0    0  0.00000000000E+00  0.00000000000E+00  0.45593999997E+02  0.45594000000E+02  0.51100000000E-03 0.  1.
         11   -1    0    0    0    0 -0.00000000000E+00 -0.00000000000E+00 -0.45593999997E+02  0.45594000000E+02  0.51100000000E-03 0. -1.
    9900012    2    1    2    0    0 -0.43607141110E+02  0.71832580168E+01  0.87138639602E+01  0.46142319001E+02  0.10000011305E+02 0.  0.
         12    1    1    2    0    0  0.43607141110E+02 -0.71832580168E+01 -0.87138639602E+01  0.45045680999E+02  0.00000000000E+00 0. -1.
         11    1    3    3    0    0 -0.32899572450E+01  0.18379735831E+01 -0.74930505881E+00  0.38423201192E+01  0.51100000000E-03 0. -1.
        -11    1    3    3    0    0 -0.14506813153E+02 -0.89177239219E+00  0.50252249385E+01  0.15378419028E+02  0.51100000000E-03 0.  1.
         12    1    3    3    0    0 -0.25810370712E+02  0.62370568260E+01  0.44379440805E+01  0.26921579854E+02  0.00000000000E+00 0. -1.
</event>
<event>
 7    1  0.8398055E-009  0.4614232E+02  0.7816164E-02  0.1320468E+00
        -11   -1    0    0    0    0  0.00000000000E+00  0.00000000000E+00  0.45593999997E+02  0.45594000000E+02  0.51100000000E-03 0. -1.
         11   -1    0    0    0    0 -0.00000000000E+00 -0.00000000000E+00 -0.45593999997E+02  0.45594000000E+02  0.51100000000E-03 0.  1.
    9900012    2    1    2    0    0 -0.19160188445E+02 -0.22713859700E+01  0.40704319290E+02  0.46142316252E+02  0.99999862387E+01 0.  0.
        -12    1    1    2    0    0  0.19160188445E+02  0.22713859700E+01 -0.40704319290E+02  0.45045683748E+02  0.00000000000E+00 0.  1.
         11    1    3    3    0    0 -0.30361890917E+01 -0.20174084428E+01  0.53438442940E+01  0.64687752415E+01  0.51100000000E-03 0. -1.
        -11    1    3    3    0    0 -0.80778056856E+01 -0.38770713522E+01  0.20800254152E+02  0.22648028612E+02  0.51100000000E-03 0.  1.
         12    1    3    3    0    0 -0.80461936680E+01  0.36230938251E+01  0.14560220843E+02  0.17025512398E+02  0.00000000000E+00 0. -1.
</event>
<event>
 7    1  0.8398055E-009  0.4614232E+02  0.7816164E-02  0.1320468E+00
        -11   -1    0    0    0    0  0.00000000000E+00  0.00000000000E+00  0.45593999997E+02  0.45594000000E+02  0.51100000000E-03 0. -1.
         11   -1    0    0    0    0 -0.00000000000E+00 -0.00000000000E+00 -0.45593999997E+02  0.45594000000E+02  0.51100000000E-03 0.  1.
    9900012    2    1    2    0    0  0.37461121000E+02  0.21066218932E+02  0.13490452001E+02  0.46142318055E+02  0.10000002680E+02 0.  0.
        -12    1    1    2    0    0 -0.37461121000E+02 -0.21066218932E+02 -0.13490452001E+02  0.45045681945E+02  0.00000000000E+00 0.  1.
         11    1    3    3    0    0  0.14224015366E+02  0.90003096668E+01  0.78715677060E+01  0.18581974212E+02  0.51100000000E-03 0. -1.
        -11    1    3    3    0    0  0.23954020541E+01  0.36843476005E+01 -0.39475093112E-01  0.43947612889E+01  0.51100000000E-03 0.  1.
        -12    1    3    3    0    0  0.20841703580E+02  0.83815616648E+01  0.56583593885E+01  0.23165582554E+02  0.00000000000E+00 0.  1.
</event>
<event>
 7    1  0.8398055E-009  0.4614232E+02  0.7816164E-02  0.1320468E+00
        -11   -1    0    0    0    0  0.00000000000E+00  0.00000000000E+00  0.45593999997E+02  0.45594000000E+02  0.51100000000E-03 0. -1.
         11   -1    0    0    0    0 -0.00000000000E+00 -0.00000000000E+00 -0.45593999997E+02  0.45594000000E+02  0.51100000000E-03 0.  1.
    9900012    2    1    2    0    0  0.10713183053E+02 -0.26969833926E+02  0.34452421659E+02  0.46142316619E+02  0.99999895832E+01 0.  0.
        -12    1    1    2    0    0 -0.10713183053E+02  0.26969833926E+02 -0.34452421659E+02  0.45045683381E+02  0.00000000000E+00 0.  1.
         11    1    3    3    0    0  0.44136508903E+01 -0.44125315661E+01  0.32528213862E+01  0.70378687281E+01  0.51100000000E-03 0. -1.
        -11    1    3    3    0    0  0.51087339551E+01 -0.17823681904E+02  0.22776122506E+02  0.29368938625E+02  0.51100000000E-03 0.  1.
         12    1    3    3    0    0  0.11907982074E+01 -0.47336204558E+01  0.84234777664E+01  0.97355092661E+01  0.00000000000E+00 0. -1.
</event>
<event>
 7    1  0.8398055E-009  0.4614232E+02  0.7816164E-02  0.1320468E+00
        -11   -1    0    0    0    0  0.00000000000E+00  0.00000000000E+00  0.45593999997E+02  0.45594000000E+02  0.51100000000E-03 0.  1.
         11   -1    0    0    0    0 -0.00000000000E+00 -0.00000000000E+00 -0.45593999997E+02  0.45594000000E+02  0.51100000000E-03 0. -1.
    9900012    2    1    2    0    0  0.44898003032E+02  0.36233770683E+01 -0.39243555959E+00  0.46142317152E+02  0.99999944421E+01 0.  0.
        -12    1    1    2    0    0 -0.44898003032E+02 -0.36233770683E+01  0.39243555959E+00  0.45045682848E+02  0.00000000000E+00 0.  1.
         11    1    3    3    0    0  0.21855189432E+02 -0.21431401307E+00  0.13037129724E+01  0.21895088567E+02  0.51100000000E-03 0. -1.
        -11    1    3    3    0    0  0.20004251058E+02  0.50217198101E+01 -0.27784133352E+01  0.20811230410E+02  0.51100000000E-03 0.  1.
        -12    1    3    3    0    0  0.30385625418E+01 -0.11840287288E+01  0.10822648032E+01  0.34359981746E+01  0.00000000000E+00 0.  1.
</event>
<event>
 7    1  0.8398055E-009  0.4614233E+02  0.7816164E-02  0.1320468E+00
        -11   -1    0    0    0    0  0.00000000000E+00  0.00000000000E+00  0.45593999997E+02  0.45594000000E+02  0.51100000000E-03 0. -1.
         11   -1    0    0    0    0 -0.00000000000E+00 -0.00000000000E+00 -0.45593999997E+02  0.45594000000E+02  0.51100000000E-03 0.  1.
    9900012    2    1    2    0    0 -0.74587002537E+01 -0.24278634842E+02 -0.37202530084E+02  0.46142328023E+02  0.10000093572E+02 0.  0.
         12    1    1    2    0    0  0.74587002537E+01  0.24278634842E+02  0.37202530084E+02  0.45045671977E+02  0.00000000000E+00 0. -1.
         11    1    3    3    0    0  0.56380538527E+00 -0.36061891359E+01 -0.37729210033E+01  0.52495151923E+01  0.51100000000E-03 0. -1.
        -11    1    3    3    0    0 -0.62456590633E+01 -0.20662189571E+02 -0.29260543381E+02  0.36360881923E+02  0.51100000000E-03 0.  1.
        -12    1    3    3    0    0 -0.17768465757E+01 -0.10256135167E-01 -0.41690656995E+01  0.45319309073E+01  0.00000000000E+00 0.  1.
</event>
<event>
 7    1  0.8398055E-009  0.4614231E+02  0.7816164E-02  0.1320468E+00
        -11   -1    0    0    0    0  0.00000000000E+00  0.00000000000E+00  0.45593999997E+02  0.45594000000E+02  0.51100000000E-03 0. -1.
         11   -1    0    0    0    0 -0.00000000000E+00 -0.00000000000E+00 -0.45593999997E+02  0.45594000000E+02  0.51100000000E-03 0.  1.
    9900012    2    1    2    0    0 -0.29353202914E+02 -0.99197697396E+01  0.32697118773E+02  0.46142312869E+02  0.99999553924E+01 0.  0.
        -12    1    1    2    0    0  0.29353202914E+02  0.99197697396E+01 -0.32697118773E+02  0.45045687131E+02  0.00000000000E+00 0.  1.
         11    1    3    3    0    0 -0.57388915538E+01 -0.45686950915E+01  0.10637805372E+02  0.12921716392E+02  0.51100000000E-03 0. -1.
        -11    1    3    3    0    0 -0.19450950202E+02 -0.24526629702E+01  0.18974146843E+02  0.27283204872E+02  0.51100000000E-03 0.  1.
         12    1    3    3    0    0 -0.41633611581E+01 -0.28984116779E+01  0.30851665580E+01  0.59373916056E+01  0.00000000000E+00 0. -1.
</event>
<event>
 7    1  0.8398055E-009  0.4614232E+02  0.7816164E-02  0.1320468E+00
        -11   -1    0    0    0    0  0.00000000000E+00  0.00000000000E+00  0.45593999997E+02  0.45594000000E+02  0.51100000000E-03 0. -1.
         11   -1    0    0    0    0 -0.00000000000E+00 -0.00000000000E+00 -0.45593999997E+02  0.45594000000E+02  0.51100000000E-03 0.  1.
    9900012    2    1    2    0    0  0.32638691557E+02  0.67661590703E+01 -0.30299313883E+02  0.46142317444E+02  0.99999971118E+01 0.  0.
         12    1    1    2    0    0 -0.32638691557E+02 -0.67661590703E+01  0.30299313883E+02  0.45045682556E+02  0.00000000000E+00 0. -1.
         11    1    3    3    0    0  0.21379222271E+02  0.85482397936E+01 -0.19582114149E+02  0.30225862159E+02  0.51100000000E-03 0. -1.
        -11    1    3    3    0    0  0.51267940738E+00 -0.32788311959E+00 -0.17230101901E+01  0.18273236964E+01  0.51100000000E-03 0.  1.
         12    1    3    3    0    0  0.10746789879E+02 -0.14541976036E+01 -0.89941895439E+01  0.14089131589E+02  0.00000000000E+00 0. -1.
</event>
<event>
 7    1  0.8398055E-009  0.4614232E+02  0.7816164E-02  0.1320468E+00
        -11   -1    0    0    0    0  0.00000000000E+00  0.00000000000E+00  0.45593999997E+02  0.45594000000E+02  0.51100000000E-03 0. -1.
         11   -1    0    0    0    0 -0.00000000000E+00 -0.00000000000E+00 -0.45593999997E+02  0.45594000000E+02  0.51100000000E-03 0.  1.
    9900012    2    1    2    0    0  0.22740179035E+02 -0.62674856211E+01 -0.38375987296E+02  0.46142317416E+02  0.99999968504E+01 0.  0.
         12    1    1    2    0    0 -0.22740179035E+02  0.62674856211E+01  0.38375987296E+02  0.45045682584E+02  0.00000000000E+00 0. -1.
         11    1    3    3    0    0  0.38072830484E+01  0.16570583865E+01 -0.95158336256E+01  0.10382308826E+02  0.51100000000E-03 0. -1.
        -11    1    3    3    0    0  0.72514061457E+01 -0.67650969291E+00 -0.11558847749E+02  0.13661900234E+02  0.51100000000E-03 0.  1.
         12    1    3    3    0    0  0.11681489840E+02 -0.72480343146E+01 -0.17301305922E+02  0.22098108356E+02  0.00000000000E+00 0. -1.
</event>
<event>
 7    1  0.8398055E-009  0.4614232E+02  0.7816164E-02  0.1320468E+00
        -11   -1    0    0    0    0  0.00000000000E+00  0.00000000000E+00  0.45593999997E+02  0.45594000000E+02  0.51100000000E-03 0.  1.
         11   -1    0    0    0    0 -0.00000000000E+00 -0.00000000000E+00 -0.45593999997E+02  0.45594000000E+02  0.51100000000E-03 0. -1.
    9900012    2    1    2    0    0  0.44220966252E+02  0.18709535898E+01  0.83737183340E+01  0.46142317828E+02  0.10000000609E+02 0.  0.
        -12    1    1    2    0    0 -0.44220966252E+02 -0.18709535898E+01 -0.83737183340E+01  0.45045682172E+02  0.00000000000E+00 0.  1.
         11    1    3    3    0    0  0.16901830079E+02  0.34752381292E+01  0.26127326043E+01  0.17452091909E+02  0.51100000000E-03 0. -1.
        -11    1    3    3    0    0  0.18675996253E+02  0.79926041032E-01  0.66841631953E+01  0.19836261293E+02  0.51100000000E-03 0.  1.
         12    1    3    3    0    0  0.86431399204E+01 -0.16842105805E+01 -0.92317746566E+00  0.88539646258E+01  0.00000000000E+00 0. -1.
</event>
<event>
 7    1  0.8398055E-009  0.4614232E+02  0.7816164E-02  0.1320468E+00
        -11   -1    0    0    0    0  0.00000000000E+00  0.00000000000E+00  0.45593999997E+02  0.45594000000E+02  0.51100000000E-03 0. -1.
         11   -1    0    0    0    0 -0.00000000000E+00 -0.00000000000E+00 -0.45593999997E+02  0.45594000000E+02  0.51100000000E-03 0.  1.
    9900012    2    1    2    0    0 -0.11696898111E+02 -0.83341524889E+01  0.42694706391E+02  0.46142317888E+02  0.10000001155E+02 0.  0.
        -12    1    1    2    0    0  0.11696898111E+02  0.83341524889E+01 -0.42694706391E+02  0.45045682112E+02  0.00000000000E+00 0.  1.
         11    1    3    3    0    0 -0.29517360502E+01 -0.19885730720E+01  0.11479409587E+02  0.12018486315E+02  0.51100000000E-03 0. -1.
        -11    1    3    3    0    0 -0.23398801664E+01 -0.35183565089E+01  0.33495944243E+01  0.53919991455E+01  0.51100000000E-03 0.  1.
        -12    1    3    3    0    0 -0.64052818942E+01 -0.28272229080E+01  0.27865702380E+02  0.28731832428E+02  0.00000000000E+00 0.  1.
</event>
<event>
 7    1  0.8398055E-009  0.4614232E+02  0.7816164E-02  0.1320468E+00
        -11   -1    0    0    0    0  0.00000000000E+00  0.00000000000E+00  0.45593999997E+02  0.45594000000E+02  0.51100000000E-03 0. -1.
         11   -1    0    0    0    0 -0.00000000000E+00 -0.00000000000E+00 -0.45593999997E+02  0.45594000000E+02  0.51100000000E-03 0.  1.
    9900012    2    1    2    0    0  0.22750122007E+02 -0.45546126642E+01  0.38610891389E+02  0.46142317835E+02  0.10000000676E+02 0.  0.
        -12    1    1    2    0    0 -0.22750122007E+02  0.45546126642E+01 -0.38610891389E+02  0.45045682165E+02  0.00000000000E+00 0.  1.
         11    1    3    3    0    0  0.12431943557E+02 -0.14350224010E+01  0.26777610408E+02  0.29557620495E+02  0.51100000000E-03 0. -1.
        -11    1    3    3    0    0  0.95023667439E+01 -0.35047777695E+01  0.11961547387E+02  0.15673450708E+02  0.51100000000E-03 0.  1.
         12    1    3    3    0    0  0.81581170573E+00  0.38518750626E+00 -0.12826640578E+00  0.91124663239E+00  0.00000000000E+00 0. -1.
</event>
<event>
 7    1  0.8398055E-009  0.4614232E+02  0.7816164E-02  0.1320468E+00
        -11   -1    0    0    0    0  0.00000000000E+00  0.00000000000E+00  0.45593999997E+02  0.45594000000E+02  0.51100000000E-03 0.  1.
         11   -1    0    0    0    0 -0.00000000000E+00 -0.00000000000E+00 -0.45593999997E+02  0.45594000000E+02  0.51100000000E-03 0. -1.
    9900012    2    1    2    0    0 -0.27595482464E+02  0.26234633164E+02 -0.24069626201E+02  0.46142317243E+02  0.99999952733E+01 0.  0.
         12    1    1    2    0    0  0.27595482464E+02 -0.26234633164E+02  0.24069626201E+02  0.45045682757E+02  0.00000000000E+00 0. -1.
         11    1    3    3    0    0 -0.15309884367E+02  0.10980435872E+02 -0.13514902064E+02  0.23186528617E+02  0.51100000000E-03 0. -1.
        -11    1    3    3    0    0 -0.13258738442E+01  0.32067488460E+01  0.13785074545E+00  0.34727773758E+01  0.51100000000E-03 0.  1.
        -12    1    3    3    0    0 -0.10959724252E+02  0.12047448446E+02 -0.10692574882E+02  0.19483011250E+02  0.00000000000E+00 0.  1.
</event>
<event>
 7    1  0.8398055E-009  0.4614232E+02  0.7816164E-02  0.1320468E+00
        -11   -1    0    0    0    0  0.00000000000E+00  0.00000000000E+00  0.45593999997E+02  0.45594000000E+02  0.51100000000E-03 0. -1.
         11   -1    0    0    0    0 -0.00000000000E+00 -0.00000000000E+00 -0.45593999997E+02  0.45594000000E+02  0.51100000000E-03 0.  1.
    9900012    2    1    2    0    0  0.33782083473E+01  0.10892619991E+02  0.43578114626E+02  0.46142317230E+02  0.99999951549E+01 0.  0.
        -12    1    1    2    0    0 -0.33782083473E+01 -0.10892619991E+02 -0.43578114626E+02  0.45045682770E+02  0.00000000000E+00 0.  1.
         11    1    3    3    0    0  0.29451146511E+01  0.86846361545E+00  0.10473518934E+02  0.10914326753E+02  0.51100000000E-03 0. -1.
        -11    1    3    3    0    0 -0.58337999627E+00  0.66624668200E+01  0.11209619129E+02  0.13053135931E+02  0.51100000000E-03 0.  1.
        -12    1    3    3    0    0  0.10164736925E+01  0.33616895553E+01  0.21894976563E+02  0.22174854546E+02  0.00000000000E+00 0.  1.
</event>
<event>
 7    1  0.8398055E-009  0.4614231E+02  0.7816164E-02  0.1320468E+00
        -11   -1    0    0    0    0  0.00000000000E+00  0.00000000000E+00  0.45593999997E+02  0.45594000000E+02  0.51100000000E-03 0. -1.
         11   -1    0    0    0    0 -0.00000000000E+00 -0.00000000000E+00 -0.45593999997E+02  0.45594000000E+02  0.51100000000E-03 0.  1.
    9900012    2    1    2    0    0 -0.70054979700E+01 -0.24562776917E+02  0.37103998949E+02  0.46142314860E+02  0.99999735460E+01 0.  0.
        -12    1    1    2    0    0  0.70054979700E+01  0.24562776917E+02 -0.37103998949E+02  0.45045685140E+02  0.00000000000E+00 0.  1.
         11    1    3    3    0    0 -0.66243471260E+01 -0.16510264998E+02  0.30533114771E+02  0.35337542685E+02  0.51100000000E-03 0. -1.
        -11    1    3    3    0    0  0.42053930734E+00 -0.26179754643E+01  0.38494090390E+01  0.46742485012E+01  0.51100000000E-03 0.  1.
        -12    1    3    3    0    0 -0.80169015130E+00 -0.54345364552E+01  0.27214751396E+01  0.61305236740E+01  0.00000000000E+00 0.  1.
</event>
<event>
 7    1  0.8398055E-009  0.4614232E+02  0.7816164E-02  0.1320468E+00
        -11   -1    0    0    0    0  0.00000000000E+00  0.00000000000E+00  0.45593999997E+02  0.45594000000E+02  0.51100000000E-03 0. -1.
         11   -1    0    0    0    0 -0.00000000000E+00 -0.00000000000E+00 -0.45593999997E+02  0.45594000000E+02  0.51100000000E-03 0.  1.
    9900012    2    1    2    0    0  0.90270659052E+01 -0.26738059517E+02  0.35109852549E+02  0.46142317725E+02  0.99999996719E+01 0.  0.
        -12    1    1    2    0    0 -0.90270659052E+01  0.26738059517E+02 -0.35109852549E+02  0.45045682275E+02  0.00000000000E+00 0.  1.
         11    1    3    3    0    0  0.48872007979E+01 -0.66438717899E+01  0.92746834820E+01  0.12411507481E+02  0.51100000000E-03 0.  1.
        -11    1    3    3    0    0  0.10148005299E+01 -0.12096354658E+01  0.58434038031E+01  0.60529667389E+01  0.51100000000E-03 0. -1.
        -12    1    3    3    0    0  0.31250645774E+01 -0.18884552262E+02  0.19991765264E+02  0.27677843505E+02  0.00000000000E+00 0.  1.
</event>
<event>
 7    1  0.8398055E-009  0.4614232E+02  0.7816164E-02  0.1320468E+00
        -11   -1    0    0    0    0  0.00000000000E+00  0.00000000000E+00  0.45593999997E+02  0.45594000000E+02  0.51100000000E-03 0.  1.
         11   -1    0    0    0    0 -0.00000000000E+00 -0.00000000000E+00 -0.45593999997E+02  0.45594000000E+02  0.51100000000E-03 0. -1.
    9900012    2    1    2    0    0 -0.34379594814E+02  0.23646513178E+02 -0.16970547532E+02  0.46142316427E+02  0.99999878317E+01 0.  0.
         12    1    1    2    0    0  0.34379594814E+02 -0.23646513178E+02  0.16970547532E+02  0.45045683573E+02  0.00000000000E+00 0. -1.
         11    1    3    3    0    0 -0.10319475297E+02  0.85201650583E+01 -0.44663260281E+01  0.14107900321E+02  0.51100000000E-03 0. -1.
        -11    1    3    3    0    0 -0.15732759301E+02  0.12826065056E+02 -0.58351167168E+01  0.21120517215E+02  0.51100000000E-03 0.  1.
         12    1    3    3    0    0 -0.83273602160E+01  0.23002830635E+01 -0.66691047870E+01  0.10913898891E+02  0.00000000000E+00 0. -1.
</event>
<event>
 7    1  0.1104507E-008  0.4614232E+02  0.7816164E-02  0.1320468E+00
        -11   -1    0    0    0    0  0.00000000000E+00  0.00000000000E+00  0.45593999997E+02  0.45594000000E+02  0.51100000000E-03 0. -1.
         11   -1    0    0    0    0 -0.00000000000E+00 -0.00000000000E+00 -0.45593999997E+02  0.45594000000E+02  0.51100000000E-03 0.  1.
    9900012    2    1    2    0    0 -0.30910903931E+01 -0.62135425062E+01 -0.44507872326E+02  0.46142315975E+02  0.99999837102E+01 0.  0.
         12    1    1    2    0    0  0.30910903931E+01  0.62135425062E+01  0.44507872326E+02  0.45045684025E+02  0.00000000000E+00 0. -1.
         11    1    3    3    0    0  0.89629361110E+00  0.54051972503E-01 -0.11952315689E+01  0.14949390013E+01  0.51100000000E-03 0. -1.
        -11    1    3    3    0    0  0.16561064280E+01 -0.41213776691E+01 -0.24182704437E+02  0.24587225068E+02  0.51100000000E-03 0.  1.
        -12    1    3    3    0    0 -0.56434904322E+01 -0.21462168096E+01 -0.19129936320E+02  0.20060151905E+02  0.00000000000E+00 0.  1.
</event>
<event>
 7    1  0.8398055E-009  0.4614232E+02  0.7816164E-02  0.1320468E+00
        -11   -1    0    0    0    0  0.00000000000E+00  0.00000000000E+00  0.45593999997E+02  0.45594000000E+02  0.51100000000E-03 0. -1.
         11   -1    0    0    0    0 -0.00000000000E+00 -0.00000000000E+00 -0.45593999997E+02  0.45594000000E+02  0.51100000000E-03 0.  1.
    9900012    2    1    2    0    0  0.28038149798E+02  0.24051567965E+02  0.25777853197E+02  0.46142317842E+02  0.10000000734E+02 0.  0.
        -12    1    1    2    0    0 -0.28038149798E+02 -0.24051567965E+02 -0.25777853197E+02  0.45045682158E+02  0.00000000000E+00 0.  1.
         11    1    3    3    0    0  0.23245214186E+01  0.55337229376E+00  0.29942255176E+01  0.38307972320E+01  0.51100000000E-03 0. -1.
        -11    1    3    3    0    0  0.25439695689E+02  0.20828838525E+02  0.21819376146E+02  0.39460154672E+02  0.51100000000E-03 0.  1.
        -12    1    3    3    0    0  0.27393269003E+00  0.26693571457E+01  0.96425153342E+00  0.28513659375E+01  0.00000000000E+00 0.  1.
</event>
<event>
 7    1  0.8398055E-009  0.4614232E+02  0.7816164E-02  0.1320468E+00
        -11   -1    0    0    0    0  0.00000000000E+00  0.00000000000E+00  0.45593999997E+02  0.45594000000E+02  0.51100000000E-03 0. -1.
         11   -1    0    0    0    0 -0.00000000000E+00 -0.00000000000E+00 -0.45593999997E+02  0.45594000000E+02  0.51100000000E-03 0.  1.
    9900012    2    1    2    0    0 -0.84171956098E+01 -0.31690677318E+02 -0.30886327779E+02  0.46142318138E+02  0.10000003435E+02 0.  0.
         12    1    1    2    0    0  0.84171956098E+01  0.31690677318E+02  0.30886327779E+02  0.45045681862E+02  0.00000000000E+00 0. -1.
         11    1    3    3    0    0 -0.26146476750E+01 -0.15765298976E+02 -0.18513707075E+02  0.24456867833E+02  0.51100000000E-03 0.  1.
        -11    1    3    3    0    0  0.81560227637E+00 -0.46728541116E+01 -0.36457609846E+01  0.59826704772E+01  0.51100000000E-03 0. -1.
        -12    1    3    3    0    0 -0.66181502112E+01 -0.11252524230E+02 -0.87268597189E+01  0.15702779828E+02  0.00000000000E+00 0.  1.
</event>
<event>
 7    1  0.8398055E-009  0.4614232E+02  0.7816164E-02  0.1320468E+00
        -11   -1    0    0    0    0  0.00000000000E+00  0.00000000000E+00  0.45593999997E+02  0.45594000000E+02  0.51100000000E-03 0. -1.
         11   -1    0    0    0    0 -0.00000000000E+00 -0.00000000000E+00 -0.45593999997E+02  0.45594000000E+02  0.51100000000E-03 0.  1.
    9900012    2    1    2    0    0  0.18614425564E+02  0.57835795706E+01 -0.40609935687E+02  0.46142317541E+02  0.99999979893E+01 0.  0.
         12    1    1    2    0    0 -0.18614425564E+02 -0.57835795706E+01  0.40609935687E+02  0.45045682459E+02  0.00000000000E+00 0. -1.
         11    1    3    3    0    0  0.53303120308E+01  0.43012098667E+01 -0.68801138300E+01  0.97081717763E+01  0.51100000000E-03 0. -1.
        -11    1    3    3    0    0  0.69550202666E+01  0.24463641142E+01 -0.18015898809E+02  0.19466114519E+02  0.51100000000E-03 0.  1.
         12    1    3    3    0    0  0.63290932662E+01 -0.96399441031E+00 -0.15713923048E+02  0.16968031246E+02  0.00000000000E+00 0. -1.
</event>
<event>
 7    1  0.8398055E-009  0.4614232E+02  0.7816164E-02  0.1320468E+00
        -11   -1    0    0    0    0  0.00000000000E+00  0.00000000000E+00  0.45593999997E+02  0.45594000000E+02  0.51100000000E-03 0. -1.
         11   -1    0    0    0    0 -0.00000000000E+00 -0.00000000000E+00 -0.45593999997E+02  0.45594000000E+02  0.51100000000E-03 0.  1.
    9900012    2    1    2    0    0  0.39784273325E+02  0.15357993095E+02 -0.14507148033E+02  0.46142315413E+02  0.99999785839E+01 0.  0.
         12    1    1    2    0    0 -0.39784273325E+02 -0.15357993095E+02  0.14507148033E+02  0.45045684587E+02  0.00000000000E+00 0. -1.
         11    1    3    3    0    0  0.17901894707E+02  0.91832479610E+01 -0.84587530786E+01  0.21825681687E+02  0.51100000000E-03 0.  1.
        -11    1    3    3    0    0  0.33968320961E+01 -0.11605099341E+01 -0.23788159467E+00  0.35974768256E+01  0.51100000000E-03 0. -1.
        -12    1    3    3    0    0  0.18485546522E+02  0.73352550684E+01 -0.58105133600E+01  0.20719156900E+02  0.00000000000E+00 0.  1.
</event>
<event>
 7    1  0.8398055E-009  0.4614231E+02  0.7816164E-02  0.1320468E+00
        -11   -1    0    0    0    0  0.00000000000E+00  0.00000000000E+00  0.45593999997E+02  0.45594000000E+02  0.51100000000E-03 0. -1.
         11   -1    0    0    0    0 -0.00000000000E+00 -0.00000000000E+00 -0.45593999997E+02  0.45594000000E+02  0.51100000000E-03 0.  1.
    9900012    2    1    2    0    0 -0.37784082058E+02  0.37445667953E+01  0.24237473357E+02  0.46142314833E+02  0.99999733022E+01 0.  0.
        -12    1    1    2    0    0  0.37784082058E+02 -0.37445667953E+01 -0.24237473357E+02  0.45045685167E+02  0.00000000000E+00 0.  1.
         11    1    3    3    0    0 -0.27450361996E+02  0.42347610579E+01  0.13431817289E+02  0.30852379015E+02  0.51100000000E-03 0. -1.
        -11    1    3    3    0    0 -0.46207342731E+01 -0.17820764789E+01  0.46607150640E+01  0.68006798901E+01  0.51100000000E-03 0.  1.
         12    1    3    3    0    0 -0.57129857883E+01  0.12918822163E+01  0.61449410031E+01  0.84892559279E+01  0.00000000000E+00 0. -1.
</event>
<event>
 7    1  0.8398055E-009  0.4614232E+02  0.7816164E-02  0.1320468E+00
        -11   -1    0    0    0    0  0.00000000000E+00  0.00000000000E+00  0.45593999997E+02  0.45594000000E+02  0.51100000000E-03 0. -1.
         11   -1    0    0    0    0 -0.00000000000E+00 -0.00000000000E+00 -0.45593999997E+02  0.45594000000E+02  0.51100000000E-03 0.  1.
    9900012    2    1    2    0    0 -0.57705220831E+01  0.12469944231E+02 -0.42898892785E+02  0.46142318338E+02  0.10000005258E+02 0.  0.
         12    1    1    2    0    0  0.57705220831E+01 -0.12469944231E+02  0.42898892785E+02  0.45045681662E+02  0.00000000000E+00 0. -1.
         11    1    3    3    0    0 -0.45102139855E+01  0.12784786133E+01 -0.14097324492E+02  0.14856348672E+02  0.51100000000E-03 0. -1.
        -11    1    3    3    0    0 -0.40434503828E+00  0.20923746733E+01 -0.11729543410E+02  0.11921565146E+02  0.51100000000E-03 0.  1.
        -12    1    3    3    0    0 -0.85596305931E+00  0.90990909444E+01 -0.17072024883E+02  0.19364404519E+02  0.00000000000E+00 0.  1.
</event>
<event>
 7    1  0.8398055E-009  0.4614231E+02  0.7816164E-02  0.1320468E+00
        -11   -1    0    0    0    0  0.00000000000E+00  0.00000000000E+00  0.45593999997E+02  0.45594000000E+02  0.51100000000E-03 0. -1.
         11   -1    0    0    0    0 -0.00000000000E+00 -0.00000000000E+00 -0.45593999997E+02  0.45594000000E+02  0.51100000000E-03 0.  1.
    9900012    2    1    2    0    0  0.36169775100E+02 -0.67562933156E+01 -0.25984873766E+02  0.46142314360E+02  0.99999689852E+01 0.  0.
         12    1    1    2    0    0 -0.36169775100E+02  0.67562933156E+01  0.25984873766E+02  0.45045685640E+02  0.00000000000E+00 0. -1.
         11    1    3    3    0    0 -0.11229178571E+00  0.47554989321E+00 -0.10992174153E+00  0.50083949170E+00  0.51100000000E-03 0. -1.
        -11    1    3    3    0    0  0.16844080541E+02 -0.48741663526E+01 -0.86030365116E+01  0.19531840272E+02  0.51100000000E-03 0.  1.
         12    1    3    3    0    0  0.19437986344E+02 -0.23576768562E+01 -0.17271915513E+02  0.26109634597E+02  0.00000000000E+00 0. -1.
</event>
<event>
 7    1  0.8398055E-009  0.4614232E+02  0.7816164E-02  0.1320468E+00
        -11   -1    0    0    0    0  0.00000000000E+00  0.00000000000E+00  0.45593999997E+02  0.45594000000E+02  0.51100000000E-03 0. -1.
         11   -1    0    0    0    0 -0.00000000000E+00 -0.00000000000E+00 -0.45593999997E+02  0.45594000000E+02  0.51100000000E-03 0.  1.
    9900012    2    1    2    0    0 -0.22917573789E+02 -0.16307080136E+02 -0.35184904012E+02  0.46142317396E+02  0.99999966721E+01 0.  0.
         12    1    1    2    0    0  0.22917573789E+02  0.16307080136E+02  0.35184904012E+02  0.45045682604E+02  0.00000000000E+00 0. -1.
         11    1    3    3    0    0 -0.96182676514E+01 -0.50077171052E+01 -0.10096710007E+02  0.14816607454E+02  0.51100000000E-03 0. -1.
        -11    1    3    3    0    0 -0.65590505554E+01 -0.67327387440E+01 -0.77924911789E+01  0.12209579609E+02  0.51100000000E-03 0.  1.
         12    1    3    3    0    0 -0.67402555822E+01 -0.45666242868E+01 -0.17295702826E+02  0.19116130334E+02  0.00000000000E+00 0. -1.
</event>
<event>
 7    1  0.8398055E-009  0.4614232E+02  0.7816164E-02  0.1320468E+00
        -11   -1    0    0    0    0  0.00000000000E+00  0.00000000000E+00  0.45593999997E+02  0.45594000000E+02  0.51100000000E-03 0. -1.
         11   -1    0    0    0    0 -0.00000000000E+00 -0.00000000000E+00 -0.45593999997E+02  0.45594000000E+02  0.51100000000E-03 0.  1.
    9900012    2    1    2    0    0  0.99233410805E+00  0.38887445753E+02  0.22713331167E+02  0.46142316779E+02  0.99999910458E+01 0.  0.
        -12    1    1    2    0    0 -0.99233410805E+00 -0.38887445753E+02 -0.22713331167E+02  0.45045683221E+02  0.00000000000E+00 0.  1.
         11    1    3    3    0    0  0.77043669878E+00  0.56041551949E+01  0.37278044283E+01  0.67747069510E+01  0.51100000000E-03 0. -1.
        -11    1    3    3    0    0  0.84521635643E+00  0.33715935864E+02  0.18507923551E+02  0.38471053486E+02  0.51100000000E-03 0.  1.
        -12    1    3    3    0    0 -0.62331894716E+00 -0.43264530609E+00  0.47760318723E+00  0.89655634247E+00  0.00000000000E+00 0.  1.
</event>
<event>
 7    1  0.8398055E-009  0.4614231E+02  0.7816164E-02  0.1320468E+00
        -11   -1    0    0    0    0  0.00000000000E+00  0.00000000000E+00  0.45593999997E+02  0.45594000000E+02  0.51100000000E-03 0. -1.
         11   -1    0    0    0    0 -0.00000000000E+00 -0.00000000000E+00 -0.45593999997E+02  0.45594000000E+02  0.51100000000E-03 0.  1.
    9900012    2    1    2    0    0 -0.94819116767E+01  0.39507296165E+02 -0.19452025118E+02  0.46142307858E+02  0.99999096975E+01 0.  0.
         12    1    1    2    0    0  0.94819116767E+01 -0.39507296165E+02  0.19452025118E+02  0.45045692142E+02  0.00000000000E+00 0. -1.
         11    1    3    3    0    0 -0.62442999996E+01  0.12210422578E+02 -0.53257372938E+01  0.14712211934E+02  0.51100000000E-03 0. -1.
        -11    1    3    3    0    0 -0.39627123385E+01  0.25194133459E+02 -0.11466840645E+02  0.27963116501E+02  0.51100000000E-03 0.  1.
        -12    1    3    3    0    0  0.72510066139E+00  0.21027401283E+01 -0.26594471796E+01  0.34669794226E+01  0.00000000000E+00 0.  1.
</event>
<event>
 7    1  0.8398055E-009  0.4614232E+02  0.7816164E-02  0.1320468E+00
        -11   -1    0    0    0    0  0.00000000000E+00  0.00000000000E+00  0.45593999997E+02  0.45594000000E+02  0.51100000000E-03 0. -1.
         11   -1    0    0    0    0 -0.00000000000E+00 -0.00000000000E+00 -0.45593999997E+02  0.45594000000E+02  0.51100000000E-03 0.  1.
    9900012    2    1    2    0    0 -0.25866158023E+02  0.10426916801E+02  0.35374210507E+02  0.46142317700E+02  0.99999994435E+01 0.  0.
        -12    1    1    2    0    0  0.25866158023E+02 -0.10426916801E+02 -0.35374210507E+02  0.45045682300E+02  0.00000000000E+00 0.  1.
         11    1    3    3    0    0 -0.12095722205E+02  0.64142202519E+01  0.20273122185E+02  0.24463200945E+02  0.51100000000E-03 0. -1.
        -11    1    3    3    0    0  0.37738509871E+00 -0.39447227130E+00  0.35231151909E-01  0.54705518985E+00  0.51100000000E-03 0.  1.
         12    1    3    3    0    0 -0.14147820917E+02  0.44071688208E+01  0.15065857170E+02  0.21132061565E+02  0.00000000000E+00 0. -1.
</event>
<event>
 7    1  0.8398055E-009  0.4614232E+02  0.7816164E-02  0.1320468E+00
        -11   -1    0    0    0    0  0.00000000000E+00  0.00000000000E+00  0.45593999997E+02  0.45594000000E+02  0.51100000000E-03 0.  1.
         11   -1    0    0    0    0 -0.00000000000E+00 -0.00000000000E+00 -0.45593999997E+02  0.45594000000E+02  0.51100000000E-03 0. -1.
    9900012    2    1    2    0    0 -0.40798668227E+02  0.10876351996E+02  0.15693538987E+02  0.46142317323E+02  0.99999960079E+01 0.  0.
         12    1    1    2    0    0  0.40798668227E+02 -0.10876351996E+02 -0.15693538987E+02  0.45045682677E+02  0.00000000000E+00 0. -1.
         11    1    3    3    0    0 -0.74698442024E+00  0.12417578880E+01  0.12268081269E+01  0.18986855501E+01  0.51100000000E-03 0. -1.
        -11    1    3    3    0    0 -0.47300098901E+01 -0.41040785494E+00 -0.71394287374E-01  0.47483181836E+01  0.51100000000E-03 0.  1.
        -12    1    3    3    0    0 -0.35321673917E+02  0.10045001963E+02  0.14538125147E+02  0.39495313590E+02  0.00000000000E+00 0.  1.
</event>
<event>
 7    1  0.8398055E-009  0.4614232E+02  0.7816164E-02  0.1320468E+00
        -11   -1    0    0    0    0  0.00000000000E+00  0.00000000000E+00  0.45593999997E+02  0.45594000000E+02  0.51100000000E-03 0. -1.
         11   -1    0    0    0    0 -0.00000000000E+00 -0.00000000000E+00 -0.45593999997E+02  0.45594000000E+02  0.51100000000E-03 0.  1.
    9900012    2    1    2    0    0 -0.34907110695E+02  0.21716839184E+02 -0.18411572002E+02  0.46142318023E+02  0.10000002387E+02 0.  0.
         12    1    1    2    0    0  0.34907110695E+02 -0.21716839184E+02  0.18411572002E+02  0.45045681977E+02  0.00000000000E+00 0. -1.
         11    1    3    3    0    0 -0.90182852790E+00  0.28017826258E+01 -0.11093788316E+01  0.31454732917E+01  0.51100000000E-03 0. -1.
        -11    1    3    3    0    0 -0.20390698812E+02  0.12269031401E+02 -0.13567452268E+02  0.27393165040E+02  0.51100000000E-03 0.  1.
         12    1    3    3    0    0 -0.13614583355E+02  0.66460251563E+01 -0.37347409026E+01  0.15603679692E+02  0.00000000000E+00 0. -1.
</event>
<event>
 7    1  0.8398055E-009  0.4614232E+02  0.7816164E-02  0.1320468E+00
        -11   -1    0    0    0    0  0.00000000000E+00  0.00000000000E+00  0.45593999997E+02  0.45594000000E+02  0.51100000000E-03 0. -1.
         11   -1    0    0    0    0 -0.00000000000E+00 -0.00000000000E+00 -0.45593999997E+02  0.45594000000E+02  0.51100000000E-03 0.  1.
    9900012    2    1    2    0    0  0.13087502462E+02  0.17769923629E+02 -0.39269079242E+02  0.46142317732E+02  0.99999997360E+01 0.  0.
         12    1    1    2    0    0 -0.13087502462E+02 -0.17769923629E+02  0.39269079242E+02  0.45045682268E+02  0.00000000000E+00 0. -1.
         11    1    3    3    0    0  0.16191258606E+01  0.21431007790E+01 -0.26138781100E+01  0.37479072209E+01  0.51100000000E-03 0.  1.
        -11    1    3    3    0    0  0.18541260107E+00  0.58392488249E+01 -0.64799929929E+01  0.87247644164E+01  0.51100000000E-03 0. -1.
        -12    1    3    3    0    0  0.11282964001E+02  0.97875740254E+01 -0.30175208139E+02  0.33669646095E+02  0.00000000000E+00 0.  1.
</event>
<event>
 7    1  0.8398055E-009  0.4614233E+02  0.7816164E-02  0.1320468E+00
        -11   -1    0    0    0    0  0.00000000000E+00  0.00000000000E+00  0.45593999997E+02  0.45594000000E+02  0.51100000000E-03 0. -1.
         11   -1    0    0    0    0 -0.00000000000E+00 -0.00000000000E+00 -0.45593999997E+02  0.45594000000E+02  0.51100000000E-03 0.  1.
    9900012    2    1    2    0    0  0.96641923951E+01  0.43232511547E+02  0.81649019278E+01  0.46142331032E+02  0.10000121010E+02 0.  0.
         12    1    1    2    0    0 -0.96641923951E+01 -0.43232511547E+02 -0.81649019278E+01  0.45045668968E+02  0.00000000000E+00 0. -1.
         11    1    3    3    0    0  0.33534462851E+01  0.69669030997E+01 -0.18211998620E+00  0.77341133129E+01  0.51100000000E-03 0. -1.
        -11    1    3    3    0    0  0.95982983787E+00  0.67382973156E+01  0.44881617158E+01  0.81528841448E+01  0.51100000000E-03 0.  1.
        -12    1    3    3    0    0  0.53509162722E+01  0.29527311132E+02  0.38588601982E+01  0.30255333574E+02  0.00000000000E+00 0.  1.
</event>
<event>
 7    1  0.8398055E-009  0.4614232E+02  0.7816164E-02  0.1320468E+00
        -11   -1    0    0    0    0  0.00000000000E+00  0.00000000000E+00  0.45593999997E+02  0.45594000000E+02  0.51100000000E-03 0. -1.
         11   -1    0    0    0    0 -0.00000000000E+00 -0.00000000000E+00 -0.45593999997E+02  0.45594000000E+02  0.51100000000E-03 0.  1.
    9900012    2    1    2    0    0  0.45123929883E+01  0.12535791004E+02  0.43030286775E+02  0.46142319558E+02  0.10000016385E+02 0.  0.
        -12    1    1    2    0    0 -0.45123929883E+01 -0.12535791004E+02 -0.43030286775E+02  0.45045680442E+02  0.00000000000E+00 0.  1.
         11    1    3    3    0    0  0.24805082757E+01  0.82973279559E+01  0.16623837967E+02  0.18744347455E+02  0.51100000000E-03 0. -1.
        -11    1    3    3    0    0  0.14126780657E+01  0.51769973162E+01  0.25131515091E+02  0.25698054626E+02  0.51100000000E-03 0.  1.
        -12    1    3    3    0    0  0.61920664701E+00 -0.93853426855E+00  0.12749337164E+01  0.16999174763E+01  0.00000000000E+00 0.  1.
</event>
<event>
 7    1  0.8398055E-009  0.4614232E+02  0.7816164E-02  0.1320468E+00
        -11   -1    0    0    0    0  0.00000000000E+00  0.00000000000E+00  0.45593999997E+02  0.45594000000E+02  0.51100000000E-03 0. -1.
         11   -1    0    0    0    0 -0.00000000000E+00 -0.00000000000E+00 -0.45593999997E+02  0.45594000000E+02  0.51100000000E-03 0.  1.
    9900012    2    1    2    0    0  0.42324803356E+02  0.12433424310E+02 -0.91178089145E+01  0.46142318092E+02  0.10000003014E+02 0.  0.
         12    1    1    2    0    0 -0.42324803356E+02 -0.12433424310E+02  0.91178089145E+01  0.45045681908E+02  0.00000000000E+00 0. -1.
         11    1    3    3    0    0  0.46328787661E+01  0.47457918196E+01 -0.12345271822E+01  0.67461220921E+01  0.51100000000E-03 0. -1.
        -11    1    3    3    0    0  0.17309610606E+02  0.47685708473E+01 -0.47185882391E+01  0.18564131073E+02  0.51100000000E-03 0.  1.
        -12    1    3    3    0    0  0.20382313984E+02  0.29190616433E+01 -0.31646934932E+01  0.20832064927E+02  0.00000000000E+00 0.  1.
</event>
<event>
 7    1  0.8398055E-009  0.4614231E+02  0.7816164E-02  0.1320468E+00
        -11   -1    0    0    0    0  0.00000000000E+00  0.00000000000E+00  0.45593999997E+02  0.45594000000E+02  0.51100000000E-03 0. -1.
         11   -1    0    0    0    0 -0.00000000000E+00 -0.00000000000E+00 -0.45593999997E+02  0.45594000000E+02  0.51100000000E-03 0.  1.
    9900012    2    1    2    0    0 -0.24565536837E+02 -0.10369027707E+01 -0.37743517475E+02  0.46142313427E+02  0.99999604788E+01 0.  0.
         12    1    1    2    0    0  0.24565536837E+02  0.10369027707E+01  0.37743517475E+02  0.45045686573E+02  0.00000000000E+00 0. -1.
         11    1    3    3    0    0 -0.18042728525E+01 -0.15383276458E+01 -0.77116985570E+00  0.24933021637E+01  0.51100000000E-03 0. -1.
        -11    1    3    3    0    0 -0.12839337308E+02  0.24370433075E+01 -0.19871055970E+02  0.23783326685E+02  0.51100000000E-03 0.  1.
         12    1    3    3    0    0 -0.99219266772E+01 -0.19356184324E+01 -0.17101291649E+02  0.19865684578E+02  0.00000000000E+00 0. -1.
</event>
<event>
 7    1  0.8398055E-009  0.4614232E+02  0.7816164E-02  0.1320468E+00
        -11   -1    0    0    0    0  0.00000000000E+00  0.00000000000E+00  0.45593999997E+02  0.45594000000E+02  0.51100000000E-03 0. -1.
         11   -1    0    0    0    0 -0.00000000000E+00 -0.00000000000E+00 -0.45593999997E+02  0.45594000000E+02  0.51100000000E-03 0.  1.
    9900012    2    1    2    0    0  0.33534975243E+02  0.19167724764E+02  0.23175788970E+02  0.46142318391E+02  0.10000005747E+02 0.  0.
        -12    1    1    2    0    0 -0.33534975243E+02 -0.19167724764E+02 -0.23175788970E+02  0.45045681609E+02  0.00000000000E+00 0.  1.
         11    1    3    3    0    0  0.18619354327E+02  0.77505418782E+01  0.15564773222E+02  0.25475741808E+02  0.51100000000E-03 0. -1.
        -11    1    3    3    0    0  0.62326540877E+00  0.20021031236E+01  0.72925758019E+00  0.22200661176E+01  0.51100000000E-03 0.  1.
        -12    1    3    3    0    0  0.14292355507E+02  0.94150797623E+01  0.68817581686E+01  0.18446510466E+02  0.00000000000E+00 0.  1.
</event>
<event>
 7    1  0.8398055E-009  0.4614232E+02  0.7816164E-02  0.1320468E+00
        -11   -1    0    0    0    0  0.00000000000E+00  0.00000000000E+00  0.45593999997E+02  0.45594000000E+02  0.51100000000E-03 0. -1.
         11   -1    0    0    0    0 -0.00000000000E+00 -0.00000000000E+00 -0.45593999997E+02  0.45594000000E+02  0.51100000000E-03 0.  1.
    9900012    2    1    2    0    0  0.11254670432E+02  0.41239112281E+02 -0.14204976345E+02  0.46142319394E+02  0.10000014893E+02 0.  0.
         12    1    1    2    0    0 -0.11254670432E+02 -0.41239112281E+02  0.14204976345E+02  0.45045680606E+02  0.00000000000E+00 0. -1.
         11    1    3    3    0    0  0.74602923591E+01  0.32019175204E+02 -0.92857638589E+01  0.34162976357E+02  0.51100000000E-03 0. -1.
        -11    1    3    3    0    0  0.20659460841E+01  0.87984776568E+01 -0.34566082757E+01  0.96762329102E+01  0.51100000000E-03 0.  1.
        -12    1    3    3    0    0  0.17284319888E+01  0.42145941996E+00 -0.14626042106E+01  0.23031101275E+01  0.00000000000E+00 0.  1.
</event>
<event>
 7    1  0.8398055E-009  0.4614232E+02  0.7816164E-02  0.1320468E+00
        -11   -1    0    0    0    0  0.00000000000E+00  0.00000000000E+00  0.45593999997E+02  0.45594000000E+02  0.51100000000E-03 0. -1.
         11   -1    0    0    0    0 -0.00000000000E+00 -0.00000000000E+00 -0.45593999997E+02  0.45594000000E+02  0.51100000000E-03 0.  1.
    9900012    2    1    2    0    0  0.22812409061E+02  0.34847006297E+02 -0.17157904220E+02  0.46142317274E+02  0.99999955606E+01 0.  0.
         12    1    1    2    0    0 -0.22812409061E+02 -0.34847006297E+02  0.17157904220E+02  0.45045682726E+02  0.00000000000E+00 0. -1.
         11    1    3    3    0    0  0.58824713881E+01  0.37276577546E+01 -0.95810193706E+00  0.70297127644E+01  0.51100000000E-03 0. -1.
        -11    1    3    3    0    0  0.45903470398E+01  0.10780755988E+02 -0.40276731496E+01  0.12390243616E+02  0.51100000000E-03 0.  1.
         12    1    3    3    0    0  0.12339590633E+02  0.20338592555E+02 -0.12172129133E+02  0.26722360894E+02  0.00000000000E+00 0. -1.
</event>
<event>
 7    1  0.8398055E-009  0.4614232E+02  0.7816164E-02  0.1320468E+00
        -11   -1    0    0    0    0  0.00000000000E+00  0.00000000000E+00  0.45593999997E+02  0.45594000000E+02  0.51100000000E-03 0. -1.
         11   -1    0    0    0    0 -0.00000000000E+00 -0.00000000000E+00 -0.45593999997E+02  0.45594000000E+02  0.51100000000E-03 0.  1.
    9900012    2    1    2    0    0 -0.14434994883E+02 -0.36630986982E+02 -0.21884131344E+02  0.46142317751E+02  0.99999999112E+01 0.  0.
         12    1    1    2    0    0  0.14434994883E+02  0.36630986982E+02  0.21884131344E+02  0.45045682249E+02  0.00000000000E+00 0. -1.
         11    1    3    3    0    0 -0.10513751187E+01 -0.11532118612E+02 -0.44513782148E+01  0.12406043592E+02  0.51100000000E-03 0. -1.
        -11    1    3    3    0    0 -0.50550522142E+00 -0.13807052081E+01  0.22040387212E+00  0.14867617591E+01  0.51100000000E-03 0.  1.
        -12    1    3    3    0    0 -0.12878114543E+02 -0.23718163162E+02 -0.17653157001E+02  0.32249512400E+02  0.00000000000E+00 0.  1.
</event>
<event>
 7    1  0.8398055E-009  0.4614232E+02  0.7816164E-02  0.1320468E+00
        -11   -1    0    0    0    0  0.00000000000E+00  0.00000000000E+00  0.45593999997E+02  0.45594000000E+02  0.51100000000E-03 0. -1.
         11   -1    0    0    0    0 -0.00000000000E+00 -0.00000000000E+00 -0.45593999997E+02  0.45594000000E+02  0.51100000000E-03 0.  1.
    9900012    2    1    2    0    0  0.34193876619E+02 -0.48935834616E+01 -0.28912716299E+02  0.46142317398E+02  0.99999966889E+01 0.  0.
         12    1    1    2    0    0 -0.34193876619E+02  0.48935834616E+01  0.28912716299E+02  0.45045682602E+02  0.00000000000E+00 0. -1.
         11    1    3    3    0    0  0.11919408018E+02  0.72958197324E+00 -0.14576727685E+02  0.18843714274E+02  0.51100000000E-03 0. -1.
        -11    1    3    3    0    0  0.26264563044E+01 -0.14386211331E+01 -0.29688363809E+01  0.42168582145E+01  0.51100000000E-03 0.  1.
         12    1    3    3    0    0  0.19648012296E+02 -0.41845443017E+01 -0.11367152233E+02  0.23081744910E+02  0.00000000000E+00 0. -1.
</event>
<event>
 7    1  0.8398055E-009  0.4614232E+02  0.7816164E-02  0.1320468E+00
        -11   -1    0    0    0    0  0.00000000000E+00  0.00000000000E+00  0.45593999997E+02  0.45594000000E+02  0.51100000000E-03 0. -1.
         11   -1    0    0    0    0 -0.00000000000E+00 -0.00000000000E+00 -0.45593999997E+02  0.45594000000E+02  0.51100000000E-03 0.  1.
    9900012    2    1    2    0    0  0.10882976965E+02 -0.23504581284E+02  0.36853886578E+02  0.46142317800E+02  0.10000000350E+02 0.  0.
        -12    1    1    2    0    0 -0.10882976965E+02  0.23504581284E+02 -0.36853886578E+02  0.45045682200E+02  0.00000000000E+00 0.  1.
         11    1    3    3    0    0  0.34800456240E+01 -0.31749418642E+01  0.29289274353E+01  0.55470343039E+01  0.51100000000E-03 0.  1.
        -11    1    3    3    0    0  0.68188038096E+00 -0.52402111486E+01  0.12267670810E+02  0.13357414462E+02  0.51100000000E-03 0. -1.
         12    1    3    3    0    0  0.67210509605E+01 -0.15089428271E+02  0.21657288333E+02  0.27237869034E+02  0.00000000000E+00 0. -1.
</event>
<event>
 7    1  0.8398055E-009  0.4614232E+02  0.7816164E-02  0.1320468E+00
        -11   -1    0    0    0    0  0.00000000000E+00  0.00000000000E+00  0.45593999997E+02  0.45594000000E+02  0.51100000000E-03 0. -1.
         11   -1    0    0    0    0 -0.00000000000E+00 -0.00000000000E+00 -0.45593999997E+02  0.45594000000E+02  0.51100000000E-03 0.  1.
    9900012    2    1    2    0    0 -0.26908534091E+01  0.43298896410E+01  0.44756283073E+02  0.46142317511E+02  0.99999977212E+01 0.  0.
        -12    1    1    2    0    0  0.26908534091E+01 -0.43298896410E+01 -0.44756283073E+02  0.45045682489E+02  0.00000000000E+00 0.  1.
         11    1    3    3    0    0 -0.65329722287E+00 -0.23985680798E+01  0.11318303198E+02  0.11588093616E+02  0.51100000000E-03 0. -1.
        -11    1    3    3    0    0 -0.17625675911E+01  0.51890450429E+01  0.13715218753E+02  0.14769565284E+02  0.51100000000E-03 0.  1.
        -12    1    3    3    0    0 -0.27498859518E+00  0.15394126779E+01  0.19722761121E+02  0.19784658611E+02  0.00000000000E+00 0.  1.
</event>
<event>
 7    1  0.1403012E-008  0.4614232E+02  0.7816164E-02  0.1320468E+00
        -11   -1    0    0    0    0  0.00000000000E+00  0.00000000000E+00  0.45593999997E+02  0.45594000000E+02  0.51100000000E-03 0. -1.
         11   -1    0    0    0    0 -0.00000000000E+00 -0.00000000000E+00 -0.45593999997E+02  0.45594000000E+02  0.51100000000E-03 0.  1.
    9900012    2    1    2    0    0  0.82774818285E+01  0.13618342766E+01 -0.44257678946E+02  0.46142318257E+02  0.10000004520E+02 0.  0.
         12    1    1    2    0    0 -0.82774818285E+01 -0.13618342766E+01  0.44257678946E+02  0.45045681743E+02  0.00000000000E+00 0. -1.
         11    1    3    3    0    0  0.39455012641E+01 -0.50384638633E+00 -0.19202598615E+02  0.19610217623E+02  0.51100000000E-03 0. -1.
        -11    1    3    3    0    0  0.39205679484E+01 -0.19569985798E+00 -0.23718450855E+02  0.24041091130E+02  0.51100000000E-03 0.  1.
         12    1    3    3    0    0  0.41141261598E+00  0.20613805209E+01 -0.13366294763E+01  0.24910095041E+01  0.00000000000E+00 0. -1.
</event>
<event>
 7    1  0.8398055E-009  0.4614232E+02  0.7816164E-02  0.1320468E+00
        -11   -1    0    0    0    0  0.00000000000E+00  0.00000000000E+00  0.45593999997E+02  0.45594000000E+02  0.51100000000E-03 0. -1.
         11   -1    0    0    0    0 -0.00000000000E+00 -0.00000000000E+00 -0.45593999997E+02  0.45594000000E+02  0.51100000000E-03 0.  1.
    9900012    2    1    2    0    0 -0.16702315511E+02  0.39759397095E+02  0.13012930249E+02  0.46142319248E+02  0.10000013559E+02 0.  0.
        -12    1    1    2    0    0  0.16702315511E+02 -0.39759397095E+02 -0.13012930249E+02  0.45045680752E+02  0.00000000000E+00 0.  1.
         11    1    3    3    0    0 -0.11324647586E+02  0.17629523907E+02  0.74560600597E+01  0.22240516811E+02  0.51100000000E-03 0. -1.
        -11    1    3    3    0    0  0.42157311634E+00  0.62626520406E+01  0.65316009041E+00  0.63107172999E+01  0.51100000000E-03 0.  1.
        -12    1    3    3    0    0 -0.57992410409E+01  0.15867221147E+02  0.49037100986E+01  0.17591085137E+02  0.00000000000E+00 0.  1.
</event>
<event>
 7    1  0.8398055E-009  0.4614232E+02  0.7816164E-02  0.1320468E+00
        -11   -1    0    0    0    0  0.00000000000E+00  0.00000000000E+00  0.45593999997E+02  0.45594000000E+02  0.51100000000E-03 0. -1.
         11   -1    0    0    0    0 -0.00000000000E+00 -0.00000000000E+00 -0.45593999997E+02  0.45594000000E+02  0.51100000000E-03 0.  1.
    9900012    2    1    2    0    0  0.90008925597E+01 -0.15372622525E+02 -0.41373662071E+02  0.46142317595E+02  0.99999984837E+01 0.  0.
         12    1    1    2    0    0 -0.90008925597E+01  0.15372622525E+02  0.41373662071E+02  0.45045682405E+02  0.00000000000E+00 0. -1.
         11    1    3    3    0    0  0.48197728984E+01 -0.17823285059E+01 -0.55089012845E+01  0.75335847588E+01  0.51100000000E-03 0. -1.
        -11    1    3    3    0    0  0.13909518038E+01 -0.31260907780E+01 -0.99597340693E+01  0.10531072759E+02  0.51100000000E-03 0.  1.
         12    1    3    3    0    0  0.27901678574E+01 -0.10464203241E+02 -0.25905026717E+02  0.28077660076E+02  0.00000000000E+00 0. -1.
</event>
<event>
 7    1  0.8398055E-009  0.4614232E+02  0.7816164E-02  0.1320468E+00
        -11   -1    0    0    0    0  0.00000000000E+00  0.00000000000E+00  0.45593999997E+02  0.45594000000E+02  0.51100000000E-03 0. -1.
         11   -1    0    0    0    0 -0.00000000000E+00 -0.00000000000E+00 -0.45593999997E+02  0.45594000000E+02  0.51100000000E-03 0.  1.
    9900012    2    1    2    0    0 -0.12754306736E+02  0.12601851745E+02  0.41323536629E+02  0.46142315553E+02  0.99999798669E+01 0.  0.
        -12    1    1    2    0    0  0.12754306736E+02 -0.12601851745E+02 -0.41323536629E+02  0.45045684447E+02  0.00000000000E+00 0.  1.
         11    1    3    3    0    0 -0.92128689237E+01  0.10104445636E+02  0.37723991082E+02  0.40125755803E+02  0.51100000000E-03 0. -1.
        -11    1    3    3    0    0 -0.32544607388E+01  0.28036174354E+01  0.35876926416E+01  0.55967244149E+01  0.51100000000E-03 0.  1.
        -12    1    3    3    0    0 -0.28697707359E+00 -0.30621132620E+00  0.11852906155E-01  0.41983533492E+00  0.00000000000E+00 0.  1.
</event>
<event>
 7    1  0.8398055E-009  0.4614232E+02  0.7816164E-02  0.1320468E+00
        -11   -1    0    0    0    0  0.00000000000E+00  0.00000000000E+00  0.45593999997E+02  0.45594000000E+02  0.51100000000E-03 0. -1.
         11   -1    0    0    0    0 -0.00000000000E+00 -0.00000000000E+00 -0.45593999997E+02  0.45594000000E+02  0.51100000000E-03 0.  1.
    9900012    2    1    2    0    0  0.22268248141E+02 -0.36313548848E+02 -0.14648029067E+02  0.46142318068E+02  0.10000002795E+02 0.  0.
         12    1    1    2    0    0 -0.22268248141E+02  0.36313548848E+02  0.14648029067E+02  0.45045681932E+02  0.00000000000E+00 0. -1.
         11    1    3    3    0    0  0.13806618623E+02 -0.15667599215E+02 -0.39645474755E+01  0.21255917292E+02  0.51100000000E-03 0. -1.
        -11    1    3    3    0    0  0.78247714476E+01 -0.16523705708E+02 -0.82574712487E+01  0.20061050078E+02  0.51100000000E-03 0.  1.
         12    1    3    3    0    0  0.63685807025E+00 -0.41222439246E+01 -0.24260103428E+01  0.48253506980E+01  0.00000000000E+00 0. -1.
</event>
<event>
 7    1  0.8398055E-009  0.4614232E+02  0.7816164E-02  0.1320468E+00
        -11   -1    0    0    0    0  0.00000000000E+00  0.00000000000E+00  0.45593999997E+02  0.45594000000E+02  0.51100000000E-03 0. -1.
         11   -1    0    0    0    0 -0.00000000000E+00 -0.00000000000E+00 -0.45593999997E+02  0.45594000000E+02  0.51100000000E-03 0.  1.
    9900012    2    1    2    0    0 -0.70004157416E+01 -0.13135752133E+02 -0.42515407016E+02  0.46142316096E+02  0.99999848154E+01 0.  0.
         12    1    1    2    0    0  0.70004157416E+01  0.13135752133E+02  0.42515407016E+02  0.45045683904E+02  0.00000000000E+00 0. -1.
         11    1    3    3    0    0 -0.17023184455E+01 -0.80322578554E-02 -0.59044909137E+01  0.61449951846E+01  0.51100000000E-03 0. -1.
        -11    1    3    3    0    0 -0.11871185141E+01 -0.76356073477E+00 -0.12600678056E+02  0.12679485916E+02  0.51100000000E-03 0.  1.
         12    1    3    3    0    0 -0.41109787820E+01 -0.12364159141E+02 -0.24010238047E+02  0.27317834996E+02  0.00000000000E+00 0. -1.
</event>
<event>
 7    1  0.8398055E-009  0.4614232E+02  0.7816164E-02  0.1320468E+00
        -11   -1    0    0    0    0  0.00000000000E+00  0.00000000000E+00  0.45593999997E+02  0.45594000000E+02  0.51100000000E-03 0. -1.
         11   -1    0    0    0    0 -0.00000000000E+00 -0.00000000000E+00 -0.45593999997E+02  0.45594000000E+02  0.51100000000E-03 0.  1.
    9900012    2    1    2    0    0 -0.59301563934E+01 -0.50266338576E+01  0.44369806105E+02  0.46142317670E+02  0.99999991711E+01 0.  0.
        -12    1    1    2    0    0  0.59301563934E+01  0.50266338576E+01 -0.44369806105E+02  0.45045682330E+02  0.00000000000E+00 0.  1.
         11    1    3    3    0    0 -0.33034358085E+01  0.20392865383E+01  0.21254399444E+02  0.21606037899E+02  0.51100000000E-03 0. -1.
        -11    1    3    3    0    0 -0.69802094493E+00  0.12963309190E+00  0.30795087373E+01  0.31602867437E+01  0.51100000000E-03 0.  1.
         12    1    3    3    0    0 -0.19286996400E+01 -0.71955534878E+01  0.20035897924E+02  0.21375993027E+02  0.00000000000E+00 0. -1.
</event>
<event>
 7    1  0.8398055E-009  0.4614232E+02  0.7816164E-02  0.1320468E+00
        -11   -1    0    0    0    0  0.00000000000E+00  0.00000000000E+00  0.45593999997E+02  0.45594000000E+02  0.51100000000E-03 0. -1.
         11   -1    0    0    0    0 -0.00000000000E+00 -0.00000000000E+00 -0.45593999997E+02  0.45594000000E+02  0.51100000000E-03 0.  1.
    9900012    2    1    2    0    0 -0.24664704576E+02 -0.29987922764E+01 -0.37573569589E+02  0.46142317204E+02  0.99999949172E+01 0.  0.
         12    1    1    2    0    0  0.24664704576E+02  0.29987922764E+01  0.37573569589E+02  0.45045682796E+02  0.00000000000E+00 0. -1.
         11    1    3    3    0    0 -0.17051866495E+02  0.53601403154E+00 -0.19676524480E+02  0.26042639611E+02  0.51100000000E-03 0. -1.
        -11    1    3    3    0    0 -0.26872033891E+01 -0.86295245355E+00 -0.27139506421E+01  0.39155175061E+01  0.51100000000E-03 0.  1.
         12    1    3    3    0    0 -0.49256346914E+01 -0.26718538544E+01 -0.15183094467E+02  0.16184160087E+02  0.00000000000E+00 0. -1.
</event>
<event>
 7    1  0.8398055E-009  0.4614232E+02  0.7816164E-02  0.1320468E+00
        -11   -1    0    0    0    0  0.00000000000E+00  0.00000000000E+00  0.45593999997E+02  0.45594000000E+02  0.51100000000E-03 0.  1.
         11   -1    0    0    0    0 -0.00000000000E+00 -0.00000000000E+00 -0.45593999997E+02  0.45594000000E+02  0.51100000000E-03 0. -1.
    9900012    2    1    2    0    0  0.17518369155E+02 -0.41232908510E+02  0.46976118480E+01  0.46142316976E+02  0.99999928436E+01 0.  0.
        -12    1    1    2    0    0 -0.17518369155E+02  0.41232908510E+02 -0.46976118480E+01  0.45045683024E+02  0.00000000000E+00 0.  1.
         11    1    3    3    0    0  0.51471811196E+01 -0.14831773345E+02  0.54817705400E+01  0.16629034324E+02  0.51100000000E-03 0. -1.
        -11    1    3    3    0    0  0.28498007451E+01 -0.67523451372E+01 -0.21455831620E+01  0.76366914633E+01  0.51100000000E-03 0.  1.
         12    1    3    3    0    0  0.95213872900E+01 -0.19648790027E+02  0.13614244700E+01  0.21876591189E+02  0.00000000000E+00 0. -1.
</event>
<event>
 7    1  0.8398055E-009  0.4614232E+02  0.7816164E-02  0.1320468E+00
        -11   -1    0    0    0    0  0.00000000000E+00  0.00000000000E+00  0.45593999997E+02  0.45594000000E+02  0.51100000000E-03 0. -1.
         11   -1    0    0    0    0 -0.00000000000E+00 -0.00000000000E+00 -0.45593999997E+02  0.45594000000E+02  0.51100000000E-03 0.  1.
    9900012    2    1    2    0    0  0.17045158661E+02  0.17960919917E+02 -0.37629528620E+02  0.46142317607E+02  0.99999985977E+01 0.  0.
         12    1    1    2    0    0 -0.17045158661E+02 -0.17960919917E+02  0.37629528620E+02  0.45045682393E+02  0.00000000000E+00 0. -1.
         11    1    3    3    0    0  0.28687361016E+01  0.53283670954E+01 -0.13457929292E+02  0.14755914198E+02  0.51100000000E-03 0. -1.
        -11    1    3    3    0    0  0.84938820409E+01  0.82102647809E+01 -0.19512701845E+02  0.22810085784E+02  0.51100000000E-03 0.  1.
         12    1    3    3    0    0  0.56825405188E+01  0.44222880405E+01 -0.46588974827E+01  0.85763176256E+01  0.00000000000E+00 0. -1.
</event>
<event>
 7    1  0.8398055E-009  0.4614232E+02  0.7816164E-02  0.1320468E+00
        -11   -1    0    0    0    0  0.00000000000E+00  0.00000000000E+00  0.45593999997E+02  0.45594000000E+02  0.51100000000E-03 0. -1.
         11   -1    0    0    0    0 -0.00000000000E+00 -0.00000000000E+00 -0.45593999997E+02  0.45594000000E+02  0.51100000000E-03 0.  1.
    9900012    2    1    2    0    0  0.23245046163E+02 -0.38397123455E+02 -0.38002969726E+01  0.46142317434E+02  0.99999970208E+01 0.  0.
        -12    1    1    2    0    0 -0.23245046163E+02  0.38397123455E+02  0.38002969726E+01  0.45045682566E+02  0.00000000000E+00 0.  1.
         11    1    3    3    0    0  0.72036901311E+01 -0.16214058894E+02 -0.11597227424E+01  0.17780152261E+02  0.51100000000E-03 0. -1.
        -11    1    3    3    0    0  0.18479014811E+01 -0.77698484997E+01 -0.22341516114E+00  0.79896933725E+01  0.51100000000E-03 0.  1.
        -12    1    3    3    0    0  0.14193454551E+02 -0.14413216061E+02 -0.24171590691E+01  0.20372471801E+02  0.00000000000E+00 0.  1.
</event>
<event>
 7    1  0.8398055E-009  0.4614232E+02  0.7816164E-02  0.1320468E+00
        -11   -1    0    0    0    0  0.00000000000E+00  0.00000000000E+00  0.45593999997E+02  0.45594000000E+02  0.51100000000E-03 0. -1.
         11   -1    0    0    0    0 -0.00000000000E+00 -0.00000000000E+00 -0.45593999997E+02  0.45594000000E+02  0.51100000000E-03 0.  1.
    9900012    2    1    2    0    0 -0.74370698852E+01  0.36647725423E+02 -0.25114691784E+02  0.46142317293E+02  0.99999957344E+01 0.  0.
         12    1    1    2    0    0  0.74370698852E+01 -0.36647725423E+02  0.25114691784E+02  0.45045682707E+02  0.00000000000E+00 0. -1.
         11    1    3    3    0    0  0.61762266533E+00  0.36028160295E+00 -0.83562397421E+00  0.10997855598E+01  0.51100000000E-03 0. -1.
        -11    1    3    3    0    0 -0.94072100452E+01  0.33895947827E+02 -0.22192009784E+02  0.41592261040E+02  0.51100000000E-03 0.  1.
        -12    1    3    3    0    0  0.13525174947E+01  0.23914959931E+01 -0.20870580251E+01  0.34502706935E+01  0.00000000000E+00 0.  1.
</event>
<event>
 7    1  0.8398055E-009  0.4614233E+02  0.7816164E-02  0.1320468E+00
        -11   -1    0    0    0    0  0.00000000000E+00  0.00000000000E+00  0.45593999997E+02  0.45594000000E+02  0.51100000000E-03 0. -1.
         11   -1    0    0    0    0 -0.00000000000E+00 -0.00000000000E+00 -0.45593999997E+02  0.45594000000E+02  0.51100000000E-03 0.  1.
    9900012    2    1    2    0    0  0.37040233183E+02  0.11652457369E+02 -0.22833170919E+02  0.46142330605E+02  0.10000117123E+02 0.  0.
         12    1    1    2    0    0 -0.37040233183E+02 -0.11652457369E+02  0.22833170919E+02  0.45045669395E+02  0.00000000000E+00 0. -1.
         11    1    3    3    0    0  0.31625444400E+01  0.12868456034E+01 -0.57104229916E+00  0.34617551200E+01  0.51100000000E-03 0. -1.
        -11    1    3    3    0    0  0.23319469690E+02  0.81274579584E+01 -0.10851305372E+02  0.26974137021E+02  0.51100000000E-03 0.  1.
        -12    1    3    3    0    0  0.10558219053E+02  0.22381538068E+01 -0.11410823248E+02  0.15706438464E+02  0.00000000000E+00 0.  1.
</event>
<event>
 7    1  0.8398055E-009  0.4614232E+02  0.7816164E-02  0.1320468E+00
        -11   -1    0    0    0    0  0.00000000000E+00  0.00000000000E+00  0.45593999997E+02  0.45594000000E+02  0.51100000000E-03 0. -1.
         11   -1    0    0    0    0 -0.00000000000E+00 -0.00000000000E+00 -0.45593999997E+02  0.45594000000E+02  0.51100000000E-03 0.  1.
    9900012    2    1    2    0    0  0.73305211984E+01  0.26092734163E+02 -0.35979802417E+02  0.46142317642E+02  0.99999989100E+01 0.  0.
         12    1    1    2    0    0 -0.73305211984E+01 -0.26092734163E+02  0.35979802417E+02  0.45045682358E+02  0.00000000000E+00 0. -1.
         11    1    3    3    0    0  0.20204176696E+01  0.20127872453E+02 -0.24998673330E+02  0.32158156129E+02  0.51100000000E-03 0. -1.
        -11    1    3    3    0    0  0.21682478108E+01  0.44748897135E+01 -0.79193524549E+01  0.93510470046E+01  0.51100000000E-03 0.  1.
         12    1    3    3    0    0  0.31418557180E+01  0.14899719965E+01 -0.30617766322E+01  0.46331145085E+01  0.00000000000E+00 0. -1.
</event>
<event>
 7    1  0.8398055E-009  0.4614232E+02  0.7816164E-02  0.1320468E+00
        -11   -1    0    0    0    0  0.00000000000E+00  0.00000000000E+00  0.45593999997E+02  0.45594000000E+02  0.51100000000E-03 0. -1.
         11   -1    0    0    0    0 -0.00000000000E+00 -0.00000000000E+00 -0.45593999997E+02  0.45594000000E+02  0.51100000000E-03 0.  1.
    9900012    2    1    2    0    0 -0.89218454475E+01 -0.19207858188E+02 -0.39756412151E+02  0.46142318193E+02  0.10000003935E+02 0.  0.
         12    1    1    2    0    0  0.89218454475E+01  0.19207858188E+02  0.39756412151E+02  0.45045681807E+02  0.00000000000E+00 0. -1.
         11    1    3    3    0    0 -0.62642277912E+00 -0.98199169702E+01 -0.12814701186E+02  0.16156724344E+02  0.51100000000E-03 0. -1.
        -11    1    3    3    0    0 -0.38254070833E+01 -0.16023572002E+01 -0.96097531429E+01  0.10466548795E+02  0.51100000000E-03 0.  1.
        -12    1    3    3    0    0 -0.44700155851E+01 -0.77855840180E+01 -0.17331957822E+02  0.19519045053E+02  0.00000000000E+00 0.  1.
</event>
<event>
 7    1  0.8398055E-009  0.4614232E+02  0.7816164E-02  0.1320468E+00
        -11   -1    0    0    0    0  0.00000000000E+00  0.00000000000E+00  0.45593999997E+02  0.45594000000E+02  0.51100000000E-03 0. -1.
         11   -1    0    0    0    0 -0.00000000000E+00 -0.00000000000E+00 -0.45593999997E+02  0.45594000000E+02  0.51100000000E-03 0.  1.
    9900012    2    1    2    0    0 -0.25319776987E+02  0.82175582016E+01 -0.36338604411E+02  0.46142317188E+02  0.99999947748E+01 0.  0.
         12    1    1    2    0    0  0.25319776987E+02 -0.82175582016E+01  0.36338604411E+02  0.45045682812E+02  0.00000000000E+00 0. -1.
         11    1    3    3    0    0 -0.22095795266E+02  0.46155070678E+01 -0.30638198729E+02  0.38055568522E+02  0.51100000000E-03 0. -1.
        -11    1    3    3    0    0 -0.35607656601E+01  0.32909147209E+01 -0.58558196555E+01  0.76026176995E+01  0.51100000000E-03 0.  1.
         12    1    3    3    0    0  0.33678393899E+00  0.31113641283E+00  0.15541397413E+00  0.48413096607E+00  0.00000000000E+00 0. -1.
</event>
<event>
 7    1  0.8398055E-009  0.4614232E+02  0.7816164E-02  0.1320468E+00
        -11   -1    0    0    0    0  0.00000000000E+00  0.00000000000E+00  0.45593999997E+02  0.45594000000E+02  0.51100000000E-03 0. -1.
         11   -1    0    0    0    0 -0.00000000000E+00 -0.00000000000E+00 -0.45593999997E+02  0.45594000000E+02  0.51100000000E-03 0.  1.
    9900012    2    1    2    0    0 -0.32483408390E+02 -0.10094693222E+02 -0.29530303457E+02  0.46142317919E+02  0.10000001442E+02 0.  0.
         12    1    1    2    0    0  0.32483408390E+02  0.10094693222E+02  0.29530303457E+02  0.45045682081E+02  0.00000000000E+00 0. -1.
         11    1    3    3    0    0 -0.10535393446E+01  0.33539630866E+00 -0.54288573558E+00  0.12317309031E+01  0.51100000000E-03 0. -1.
        -11    1    3    3    0    0 -0.29407925528E+02 -0.97398207838E+01 -0.23087604055E+02  0.38635833808E+02  0.51100000000E-03 0.  1.
        -12    1    3    3    0    0 -0.20219435173E+01 -0.69026874683E+00 -0.58998136661E+01  0.62747532083E+01  0.00000000000E+00 0.  1.
</event>
<event>
 7    1  0.8398055E-009  0.4614232E+02  0.7816164E-02  0.1320468E+00
        -11   -1    0    0    0    0  0.00000000000E+00  0.00000000000E+00  0.45593999997E+02  0.45594000000E+02  0.51100000000E-03 0. -1.
         11   -1    0    0    0    0 -0.00000000000E+00 -0.00000000000E+00 -0.45593999997E+02  0.45594000000E+02  0.51100000000E-03 0.  1.
    9900012    2    1    2    0    0  0.19095443009E+02  0.50351745607E+01  0.40486102868E+02  0.46142318165E+02  0.10000003683E+02 0.  0.
        -12    1    1    2    0    0 -0.19095443009E+02 -0.50351745607E+01 -0.40486102868E+02  0.45045681835E+02  0.00000000000E+00 0.  1.
         11    1    3    3    0    0  0.55352825447E+01  0.45367883093E+01  0.21889334305E+02  0.23029649533E+02  0.51100000000E-03 0. -1.
        -11    1    3    3    0    0  0.62253253166E+01 -0.33844741152E+00  0.99641801225E+01  0.11753897555E+02  0.51100000000E-03 0.  1.
         12    1    3    3    0    0  0.73348351479E+01  0.83683366294E+00  0.86325884399E+01  0.11358771078E+02  0.00000000000E+00 0. -1.
</event>
<event>
 7    1  0.8398055E-009  0.4614232E+02  0.7816164E-02  0.1320468E+00
        -11   -1    0    0    0    0  0.00000000000E+00  0.00000000000E+00  0.45593999997E+02  0.45594000000E+02  0.51100000000E-03 0. -1.
         11   -1    0    0    0    0 -0.00000000000E+00 -0.00000000000E+00 -0.45593999997E+02  0.45594000000E+02  0.51100000000E-03 0.  1.
    9900012    2    1    2    0    0 -0.35785745710E+02  0.27119213269E+02  0.36113868489E+01  0.46142318306E+02  0.10000004966E+02 0.  0.
        -12    1    1    2    0    0  0.35785745710E+02 -0.27119213269E+02 -0.36113868489E+01  0.45045681694E+02  0.00000000000E+00 0.  1.
         11    1    3    3    0    0 -0.63337300533E+01  0.16262856998E+01  0.13077442851E+01  0.66686683035E+01  0.51100000000E-03 0.  1.
        -11    1    3    3    0    0 -0.12855290326E+02  0.73418080424E+01  0.49796481742E+00  0.14812447601E+02  0.51100000000E-03 0. -1.
        -12    1    3    3    0    0 -0.16596725330E+02  0.18151119527E+02  0.18056777464E+01  0.24661202402E+02  0.00000000000E+00 0.  1.
</event>
<event>
 7    1  0.8398055E-009  0.4614232E+02  0.7816164E-02  0.1320468E+00
        -11   -1    0    0    0    0  0.00000000000E+00  0.00000000000E+00  0.45593999997E+02  0.45594000000E+02  0.51100000000E-03 0. -1.
         11   -1    0    0    0    0 -0.00000000000E+00 -0.00000000000E+00 -0.45593999997E+02  0.45594000000E+02  0.51100000000E-03 0.  1.
    9900012    2    1    2    0    0 -0.26764428412E+02  0.13724320258E+02 -0.33532398505E+02  0.46142319360E+02  0.10000014584E+02 0.  0.
         12    1    1    2    0    0  0.26764428412E+02 -0.13724320258E+02  0.33532398505E+02  0.45045680640E+02  0.00000000000E+00 0. -1.
         11    1    3    3    0    0 -0.11028622805E+02  0.13994495563E+01 -0.14530625578E+02  0.18295574874E+02  0.51100000000E-03 0. -1.
        -11    1    3    3    0    0 -0.41508462308E+01  0.18448544882E+01 -0.27781475815E+01  0.53245766743E+01  0.51100000000E-03 0.  1.
         12    1    3    3    0    0 -0.11584959377E+02  0.10480016213E+02 -0.16223625346E+02  0.22522167812E+02  0.00000000000E+00 0. -1.
</event>
<event>
 7    1  0.8398055E-009  0.4614232E+02  0.7816164E-02  0.1320468E+00
        -11   -1    0    0    0    0  0.00000000000E+00  0.00000000000E+00  0.45593999997E+02  0.45594000000E+02  0.51100000000E-03 0. -1.
         11   -1    0    0    0    0 -0.00000000000E+00 -0.00000000000E+00 -0.45593999997E+02  0.45594000000E+02  0.51100000000E-03 0.  1.
    9900012    2    1    2    0    0 -0.17392653106E+02  0.19696970378E+02 -0.36587410032E+02  0.46142316556E+02  0.99999890079E+01 0.  0.
         12    1    1    2    0    0  0.17392653106E+02 -0.19696970378E+02  0.36587410032E+02  0.45045683444E+02  0.00000000000E+00 0. -1.
         11    1    3    3    0    0 -0.16426256299E+01  0.84592199861E+00 -0.15227157869E+01  0.23942570071E+01  0.51100000000E-03 0. -1.
        -11    1    3    3    0    0 -0.61346056900E+01  0.34850684525E+01 -0.15759411095E+02  0.17266676792E+02  0.51100000000E-03 0.  1.
         12    1    3    3    0    0 -0.96154217863E+01  0.15365979927E+02 -0.19305283149E+02  0.26481382757E+02  0.00000000000E+00 0. -1.
</event>
<event>
 7    1  0.8398055E-009  0.4614232E+02  0.7816164E-02  0.1320468E+00
        -11   -1    0    0    0    0  0.00000000000E+00  0.00000000000E+00  0.45593999997E+02  0.45594000000E+02  0.51100000000E-03 0. -1.
         11   -1    0    0    0    0 -0.00000000000E+00 -0.00000000000E+00 -0.45593999997E+02  0.45594000000E+02  0.51100000000E-03 0.  1.
    9900012    2    1    2    0    0  0.90713760304E+00  0.20182227062E+02  0.40261251104E+02  0.46142317318E+02  0.99999959608E+01 0.  0.
        -12    1    1    2    0    0 -0.90713760304E+00 -0.20182227062E+02 -0.40261251104E+02  0.45045682682E+02  0.00000000000E+00 0.  1.
         11    1    3    3    0    0 -0.65206328564E+00  0.14724728035E+02  0.26815028017E+02  0.30598832168E+02  0.51100000000E-03 0. -1.
        -11    1    3    3    0    0  0.16456928125E+01  0.54783390145E+01  0.13926260692E+02  0.15055272840E+02  0.51100000000E-03 0.  1.
        -12    1    3    3    0    0 -0.86491923812E-01 -0.20839987890E-01 -0.48003760420E+00  0.48821230979E+00  0.00000000000E+00 0.  1.
</event>
<event>
 7    1  0.8398055E-009  0.4614232E+02  0.7816164E-02  0.1320468E+00
        -11   -1    0    0    0    0  0.00000000000E+00  0.00000000000E+00  0.45593999997E+02  0.45594000000E+02  0.51100000000E-03 0. -1.
         11   -1    0    0    0    0 -0.00000000000E+00 -0.00000000000E+00 -0.45593999997E+02  0.45594000000E+02  0.51100000000E-03 0.  1.
    9900012    2    1    2    0    0 -0.15287761506E+02 -0.24158927683E+02 -0.34810113998E+02  0.46142317907E+02  0.10000001326E+02 0.  0.
         12    1    1    2    0    0  0.15287761506E+02  0.24158927683E+02  0.34810113998E+02  0.45045682093E+02  0.00000000000E+00 0. -1.
         11    1    3    3    0    0 -0.46940690223E+01 -0.29087730495E+01 -0.92357540433E+01  0.10760780532E+02  0.51100000000E-03 0. -1.
        -11    1    3    3    0    0 -0.30213575800E+01 -0.89465421998E+01 -0.13914844306E+02  0.16816423856E+02  0.51100000000E-03 0.  1.
         12    1    3    3    0    0 -0.75723349041E+01 -0.12303612434E+02 -0.11659515649E+02  0.18565113519E+02  0.00000000000E+00 0. -1.
</event>
<event>
 7    1  0.8398055E-009  0.4614232E+02  0.7816164E-02  0.1320468E+00
        -11   -1    0    0    0    0  0.00000000000E+00  0.00000000000E+00  0.45593999997E+02  0.45594000000E+02  0.51100000000E-03 0. -1.
         11   -1    0    0    0    0 -0.00000000000E+00 -0.00000000000E+00 -0.45593999997E+02  0.45594000000E+02  0.51100000000E-03 0.  1.
    9900012    2    1    2    0    0  0.26321225543E+02  0.24862780599E+02  0.26798296592E+02  0.46142317927E+02  0.10000001514E+02 0.  0.
        -12    1    1    2    0    0 -0.26321225543E+02 -0.24862780599E+02 -0.26798296592E+02  0.45045682073E+02  0.00000000000E+00 0.  1.
         11    1    3    3    0    0  0.19703453256E+02  0.17116431716E+02  0.21776203833E+02  0.33991195309E+02  0.51100000000E-03 0. -1.
        -11    1    3    3    0    0  0.36363642854E+01  0.71083773170E+01  0.32190053496E+01  0.86089586478E+01  0.51100000000E-03 0.  1.
         12    1    3    3    0    0  0.29814080007E+01  0.63797156606E+00  0.18030874098E+01  0.35421639703E+01  0.00000000000E+00 0. -1.
</event>
<event>
 7    1  0.1204224E-008  0.4614232E+02  0.7816164E-02  0.1320468E+00
        -11   -1    0    0    0    0  0.00000000000E+00  0.00000000000E+00  0.45593999997E+02  0.45594000000E+02  0.51100000000E-03 0. -1.
         11   -1    0    0    0    0 -0.00000000000E+00 -0.00000000000E+00 -0.45593999997E+02  0.45594000000E+02  0.51100000000E-03 0.  1.
    9900012    2    1    2    0    0  0.66806700389E+01  0.10702617898E+02 -0.43242755154E+02  0.46142320348E+02  0.10000023586E+02 0.  0.
         12    1    1    2    0    0 -0.66806700389E+01 -0.10702617898E+02  0.43242755154E+02  0.45045679652E+02  0.00000000000E+00 0. -1.
         11    1    3    3    0    0  0.79771027756E+00 -0.46485781806E+00 -0.48784301955E+00  0.10442344329E+01  0.51100000000E-03 0. -1.
        -11    1    3    3    0    0 -0.68329188763E-01  0.29860277261E+01 -0.19643924653E+02  0.19869695682E+02  0.51100000000E-03 0.  1.
        -12    1    3    3    0    0  0.59512889501E+01  0.81814479896E+01 -0.23110987482E+02  0.25228390233E+02  0.00000000000E+00 0.  1.
</event>
<event>
 7    1  0.8398055E-009  0.4614232E+02  0.7816164E-02  0.1320468E+00
        -11   -1    0    0    0    0  0.00000000000E+00  0.00000000000E+00  0.45593999997E+02  0.45594000000E+02  0.51100000000E-03 0. -1.
         11   -1    0    0    0    0 -0.00000000000E+00 -0.00000000000E+00 -0.45593999997E+02  0.45594000000E+02  0.51100000000E-03 0.  1.
    9900012    2    1    2    0    0  0.76638574407E+01 -0.33014706284E+02  0.29671670272E+02  0.46142316981E+02  0.99999928857E+01 0.  0.
        -12    1    1    2    0    0 -0.76638574407E+01  0.33014706284E+02 -0.29671670272E+02  0.45045683019E+02  0.00000000000E+00 0.  1.
         11    1    3    3    0    0 -0.12573058844E+01 -0.10396073690E+02  0.70551110038E+01  0.12626708113E+02  0.51100000000E-03 0. -1.
        -11    1    3    3    0    0  0.17829502518E+01 -0.46212003633E+01  0.23340338593E+01  0.54755930013E+01  0.51100000000E-03 0.  1.
         12    1    3    3    0    0  0.71382130733E+01 -0.17997432232E+02  0.20282525409E+02  0.28040015866E+02  0.00000000000E+00 0. -1.
</event>
<event>
 7    1  0.8398055E-009  0.4614232E+02  0.7816164E-02  0.1320468E+00
        -11   -1    0    0    0    0  0.00000000000E+00  0.00000000000E+00  0.45593999997E+02  0.45594000000E+02  0.51100000000E-03 0.  1.
         11   -1    0    0    0    0 -0.00000000000E+00 -0.00000000000E+00 -0.45593999997E+02  0.45594000000E+02  0.51100000000E-03 0. -1.
    9900012    2    1    2    0    0 -0.14579622043E+02  0.42154522793E+02 -0.62884284629E+01  0.46142317595E+02  0.99999984859E+01 0.  0.
         12    1    1    2    0    0  0.14579622043E+02 -0.42154522793E+02  0.62884284629E+01  0.45045682405E+02  0.00000000000E+00 0. -1.
         11    1    3    3    0    0 -0.46581149499E+01  0.78508160099E+01 -0.34756413475E+01  0.97679798293E+01  0.51100000000E-03 0. -1.
        -11    1    3    3    0    0 -0.43607411832E+01  0.84604182108E+01  0.13513833994E+01  0.96135829597E+01  0.51100000000E-03 0.  1.
        -12    1    3    3    0    0 -0.55607659100E+01  0.25843288572E+02 -0.41641705147E+01  0.26760754806E+02  0.00000000000E+00 0.  1.
</event>
<event>
 7    1  0.8398055E-009  0.4614232E+02  0.7816164E-02  0.1320468E+00
        -11   -1    0    0    0    0  0.00000000000E+00  0.00000000000E+00  0.45593999997E+02  0.45594000000E+02  0.51100000000E-03 0. -1.
         11   -1    0    0    0    0 -0.00000000000E+00 -0.00000000000E+00 -0.45593999997E+02  0.45594000000E+02  0.51100000000E-03 0.  1.
    9900012    2    1    2    0    0  0.39528866118E+01  0.11900191270E+02 -0.43265152310E+02  0.46142320193E+02  0.10000022178E+02 0.  0.
         12    1    1    2    0    0 -0.39528866118E+01 -0.11900191270E+02  0.43265152310E+02  0.45045679807E+02  0.00000000000E+00 0. -1.
         11    1    3    3    0    0 -0.39653771118E+00  0.17772261771E+01 -0.21267266083E+01  0.27997752354E+01  0.51100000000E-03 0. -1.
        -11    1    3    3    0    0  0.52425698897E+01  0.33255756650E+01 -0.25886954169E+02  0.26621014048E+02  0.51100000000E-03 0.  1.
        -12    1    3    3    0    0 -0.89314556674E+00  0.67973894278E+01 -0.15251471533E+02  0.16721530910E+02  0.00000000000E+00 0.  1.
</event>
<event>
 7    1  0.8398055E-009  0.4614232E+02  0.7816164E-02  0.1320468E+00
        -11   -1    0    0    0    0  0.00000000000E+00  0.00000000000E+00  0.45593999997E+02  0.45594000000E+02  0.51100000000E-03 0. -1.
         11   -1    0    0    0    0 -0.00000000000E+00 -0.00000000000E+00 -0.45593999997E+02  0.45594000000E+02  0.51100000000E-03 0.  1.
    9900012    2    1    2    0    0 -0.16194646734E+02 -0.98703417526E+01 -0.40858575122E+02  0.46142318852E+02  0.10000009945E+02 0.  0.
         12    1    1    2    0    0  0.16194646734E+02  0.98703417526E+01  0.40858575122E+02  0.45045681148E+02  0.00000000000E+00 0. -1.
         11    1    3    3    0    0 -0.17603504639E+01 -0.21260826014E+01 -0.16788828683E+01  0.32307443306E+01  0.51100000000E-03 0. -1.
        -11    1    3    3    0    0 -0.12053612353E+02 -0.57701232344E+01 -0.24479769288E+02  0.27889836815E+02  0.51100000000E-03 0.  1.
        -12    1    3    3    0    0 -0.23806839169E+01 -0.19741359168E+01 -0.14699922965E+02  0.15021737706E+02  0.00000000000E+00 0.  1.
</event>
<event>
 7    1  0.8398055E-009  0.4614232E+02  0.7816164E-02  0.1320468E+00
        -11   -1    0    0    0    0  0.00000000000E+00  0.00000000000E+00  0.45593999997E+02  0.45594000000E+02  0.51100000000E-03 0. -1.
         11   -1    0    0    0    0 -0.00000000000E+00 -0.00000000000E+00 -0.45593999997E+02  0.45594000000E+02  0.51100000000E-03 0.  1.
    9900012    2    1    2    0    0  0.14883887499E+01  0.10633584864E+02  0.43747286354E+02  0.46142317726E+02  0.99999996827E+01 0.  0.
        -12    1    1    2    0    0 -0.14883887499E+01 -0.10633584864E+02 -0.43747286354E+02  0.45045682274E+02  0.00000000000E+00 0.  1.
         11    1    3    3    0    0 -0.55143740219E+00  0.87681753166E+01  0.19209236243E+02  0.21122967095E+02  0.51100000000E-03 0. -1.
        -11    1    3    3    0    0  0.32110090766E+01  0.82221078165E+00  0.16439837964E+02  0.16770655396E+02  0.51100000000E-03 0.  1.
         12    1    3    3    0    0 -0.11711829244E+01  0.10431987656E+01  0.80982121473E+01  0.82486952356E+01  0.00000000000E+00 0. -1.
</event>
<event>
 7    1  0.8398055E-009  0.4614231E+02  0.7816164E-02  0.1320468E+00
        -11   -1    0    0    0    0  0.00000000000E+00  0.00000000000E+00  0.45593999997E+02  0.45594000000E+02  0.51100000000E-03 0. -1.
         11   -1    0    0    0    0 -0.00000000000E+00 -0.00000000000E+00 -0.45593999997E+02  0.45594000000E+02  0.51100000000E-03 0.  1.
    9900012    2    1    2    0    0  0.30971406787E+00 -0.10095034191E+02 -0.43898839608E+02  0.46142314779E+02  0.99999728044E+01 0.  0.
         12    1    1    2    0    0 -0.30971406787E+00  0.10095034191E+02  0.43898839608E+02  0.45045685221E+02  0.00000000000E+00 0. -1.
         11    1    3    3    0    0 -0.24611706671E+00  0.31098229851E+00 -0.10012847985E+01  0.10769656955E+01  0.51100000000E-03 0. -1.
        -11    1    3    3    0    0 -0.35438979558E+01 -0.58134740093E+01 -0.14651196437E+02  0.16155904495E+02  0.51100000000E-03 0.  1.
         12    1    3    3    0    0  0.40997290903E+01 -0.45925424799E+01 -0.28246358373E+02  0.28909444588E+02  0.00000000000E+00 0. -1.
</event>
<event>
 7    1  0.8398055E-009  0.4614232E+02  0.7816164E-02  0.1320468E+00
        -11   -1    0    0    0    0  0.00000000000E+00  0.00000000000E+00  0.45593999997E+02  0.45594000000E+02  0.51100000000E-03 0. -1.
         11   -1    0    0    0    0 -0.00000000000E+00 -0.00000000000E+00 -0.45593999997E+02  0.45594000000E+02  0.51100000000E-03 0.  1.
    9900012    2    1    2    0    0  0.23051522603E+02  0.33054154396E+02 -0.20128668107E+02  0.46142322106E+02  0.10000039621E+02 0.  0.
         12    1    1    2    0    0 -0.23051522603E+02 -0.33054154396E+02  0.20128668107E+02  0.45045677894E+02  0.00000000000E+00 0. -1.
         11    1    3    3    0    0  0.45323462221E+01  0.62387367500E+01 -0.85891449128E+01  0.11542850996E+02  0.51100000000E-03 0. -1.
        -11    1    3    3    0    0  0.62128124608E+01  0.96049128516E+01 -0.34505032667E+01  0.11948194952E+02  0.51100000000E-03 0.  1.
         12    1    3    3    0    0  0.12306363920E+02  0.17210504794E+02 -0.80890199274E+01  0.22651276158E+02  0.00000000000E+00 0. -1.
</event>
<event>
 7    1  0.8398055E-009  0.4614232E+02  0.7816164E-02  0.1320468E+00
        -11   -1    0    0    0    0  0.00000000000E+00  0.00000000000E+00  0.45593999997E+02  0.45594000000E+02  0.51100000000E-03 0. -1.
         11   -1    0    0    0    0 -0.00000000000E+00 -0.00000000000E+00 -0.45593999997E+02  0.45594000000E+02  0.51100000000E-03 0.  1.
    9900012    2    1    2    0    0 -0.28137822198E+02 -0.59555401967E+01 -0.34668545313E+02  0.46142317286E+02  0.99999956640E+01 0.  0.
         12    1    1    2    0    0  0.28137822198E+02  0.59555401967E+01  0.34668545313E+02  0.45045682714E+02  0.00000000000E+00 0. -1.
         11    1    3    3    0    0 -0.14570862264E+02 -0.58783359407E+01 -0.15672576802E+02  0.22192217654E+02  0.51100000000E-03 0. -1.
        -11    1    3    3    0    0 -0.20413605993E+01  0.15744905551E+01 -0.58281374309E+01  0.63728611925E+01  0.51100000000E-03 0.  1.
        -12    1    3    3    0    0 -0.11525599334E+02 -0.16516948111E+01 -0.13167831080E+02  0.17577238439E+02  0.00000000000E+00 0.  1.
</event>
<event>
 7    1  0.8398055E-009  0.4614232E+02  0.7816164E-02  0.1320468E+00
        -11   -1    0    0    0    0  0.00000000000E+00  0.00000000000E+00  0.45593999997E+02  0.45594000000E+02  0.51100000000E-03 0. -1.
         11   -1    0    0    0    0 -0.00000000000E+00 -0.00000000000E+00 -0.45593999997E+02  0.45594000000E+02  0.51100000000E-03 0.  1.
    9900012    2    1    2    0    0 -0.23998000588E+02  0.77725473694E+01  0.37320195291E+02  0.46142317616E+02  0.99999986798E+01 0.  0.
        -12    1    1    2    0    0  0.23998000588E+02 -0.77725473694E+01 -0.37320195291E+02  0.45045682384E+02  0.00000000000E+00 0.  1.
         11    1    3    3    0    0 -0.12833767576E+02  0.55771178777E+01  0.13489498207E+02  0.19436470774E+02  0.51100000000E-03 0. -1.
        -11    1    3    3    0    0 -0.38716045994E+01  0.11103431057E+01  0.46214357350E+01  0.61302408191E+01  0.51100000000E-03 0.  1.
         12    1    3    3    0    0 -0.72926284124E+01  0.10850863860E+01  0.19209261349E+02  0.20575606023E+02  0.00000000000E+00 0. -1.
</event>
<event>
 7    1  0.8398055E-009  0.4614232E+02  0.7816164E-02  0.1320468E+00
        -11   -1    0    0    0    0  0.00000000000E+00  0.00000000000E+00  0.45593999997E+02  0.45594000000E+02  0.51100000000E-03 0. -1.
         11   -1    0    0    0    0 -0.00000000000E+00 -0.00000000000E+00 -0.45593999997E+02  0.45594000000E+02  0.51100000000E-03 0.  1.
    9900012    2    1    2    0    0 -0.10722961985E+02 -0.26076596647E+02 -0.35130366129E+02  0.46142318400E+02  0.10000005829E+02 0.  0.
         12    1    1    2    0    0  0.10722961985E+02  0.26076596647E+02  0.35130366129E+02  0.45045681600E+02  0.00000000000E+00 0. -1.
         11    1    3    3    0    0 -0.52305109014E+01 -0.12737459739E+02 -0.23830603608E+02  0.27522695971E+02  0.51100000000E-03 0. -1.
        -11    1    3    3    0    0 -0.11223123838E+01 -0.12215651406E+01 -0.25693665871E+01  0.30583412824E+01  0.51100000000E-03 0.  1.
        -12    1    3    3    0    0 -0.43701386999E+01 -0.12117571767E+02 -0.87303959336E+01  0.15561281147E+02  0.00000000000E+00 0.  1.
</event>
<event>
 7    1  0.8398055E-009  0.4614232E+02  0.7816164E-02  0.1320468E+00
        -11   -1    0    0    0    0  0.00000000000E+00  0.00000000000E+00  0.45593999997E+02  0.45594000000E+02  0.51100000000E-03 0. -1.
         11   -1    0    0    0    0 -0.00000000000E+00 -0.00000000000E+00 -0.45593999997E+02  0.45594000000E+02  0.51100000000E-03 0.  1.
    9900012    2    1    2    0    0  0.99894602881E+01  0.37969683805E+02  0.22082284349E+02  0.46142317775E+02  0.10000000123E+02 0.  0.
        -12    1    1    2    0    0 -0.99894602881E+01 -0.37969683805E+02 -0.22082284349E+02  0.45045682225E+02  0.00000000000E+00 0.  1.
         11    1    3    3    0    0  0.85890186156E+00  0.11909139298E+02  0.90806445529E+01  0.15000780546E+02  0.51100000000E-03 0. -1.
        -11    1    3    3    0    0  0.18693023569E+01  0.16810331600E+01 -0.12374003664E+00  0.25170370765E+01  0.51100000000E-03 0.  1.
         12    1    3    3    0    0  0.72612560696E+01  0.24379511347E+02  0.13125379833E+02  0.28624500152E+02  0.00000000000E+00 0. -1.
</event>
<event>
 7    1  0.8398055E-009  0.4614232E+02  0.7816164E-02  0.1320468E+00
        -11   -1    0    0    0    0  0.00000000000E+00  0.00000000000E+00  0.45593999997E+02  0.45594000000E+02  0.51100000000E-03 0. -1.
         11   -1    0    0    0    0 -0.00000000000E+00 -0.00000000000E+00 -0.45593999997E+02  0.45594000000E+02  0.51100000000E-03 0.  1.
    9900012    2    1    2    0    0  0.55343471426E+01 -0.38479173491E+02 -0.22756046957E+02  0.46142318033E+02  0.10000002477E+02 0.  0.
         12    1    1    2    0    0 -0.55343471426E+01  0.38479173491E+02  0.22756046957E+02  0.45045681967E+02  0.00000000000E+00 0. -1.
         11    1    3    3    0    0  0.15901803398E+00 -0.20149951848E+02 -0.78759103783E+01  0.21635059758E+02  0.51100000000E-03 0. -1.
        -11    1    3    3    0    0  0.11284654415E+01 -0.10345758124E+02 -0.73687694884E+01  0.12751741428E+02  0.51100000000E-03 0.  1.
         12    1    3    3    0    0  0.42468636672E+01 -0.79834635182E+01 -0.75113670899E+01  0.11755516846E+02  0.00000000000E+00 0. -1.
</event>
<event>
 7    1  0.8398055E-009  0.4614232E+02  0.7816164E-02  0.1320468E+00
        -11   -1    0    0    0    0  0.00000000000E+00  0.00000000000E+00  0.45593999997E+02  0.45594000000E+02  0.51100000000E-03 0. -1.
         11   -1    0    0    0    0 -0.00000000000E+00 -0.00000000000E+00 -0.45593999997E+02  0.45594000000E+02  0.51100000000E-03 0.  1.
    9900012    2    1    2    0    0 -0.46128535464E+00 -0.80676224926E+01  0.44314943310E+02  0.46142317438E+02  0.99999970559E+01 0.  0.
        -12    1    1    2    0    0  0.46128535464E+00  0.80676224926E+01 -0.44314943310E+02  0.45045682562E+02  0.00000000000E+00 0.  1.
         11    1    3    3    0    0  0.16949363826E+00 -0.57429111051E+01  0.21556672510E+02  0.22309188376E+02  0.51100000000E-03 0. -1.
        -11    1    3    3    0    0  0.29650489229E+01 -0.17264102284E+01  0.11155394473E+02  0.11671111065E+02  0.51100000000E-03 0.  1.
        -12    1    3    3    0    0 -0.35958279158E+01 -0.59830115915E+00  0.11602876328E+02  0.12162017997E+02  0.00000000000E+00 0.  1.
</event>
<event>
 7    1  0.8398055E-009  0.4614232E+02  0.7816164E-02  0.1320468E+00
        -11   -1    0    0    0    0  0.00000000000E+00  0.00000000000E+00  0.45593999997E+02  0.45594000000E+02  0.51100000000E-03 0. -1.
         11   -1    0    0    0    0 -0.00000000000E+00 -0.00000000000E+00 -0.45593999997E+02  0.45594000000E+02  0.51100000000E-03 0.  1.
    9900012    2    1    2    0    0  0.20647353339E+02 -0.20107783753E+02  0.34619031370E+02  0.46142317628E+02  0.99999987882E+01 0.  0.
        -12    1    1    2    0    0 -0.20647353339E+02  0.20107783753E+02 -0.34619031370E+02  0.45045682372E+02  0.00000000000E+00 0.  1.
         11    1    3    3    0    0  0.78770826516E+00 -0.32094582837E+01  0.68812636202E+01  0.76336685845E+01  0.51100000000E-03 0. -1.
        -11    1    3    3    0    0  0.61771740985E+01 -0.25126283444E+01  0.50785196221E+01  0.83822516577E+01  0.51100000000E-03 0.  1.
        -12    1    3    3    0    0  0.13682470975E+02 -0.14385697125E+02  0.22659248127E+02  0.30126397386E+02  0.00000000000E+00 0.  1.
</event>
<event>
 7    1  0.8398055E-009  0.4614232E+02  0.7816164E-02  0.1320468E+00
        -11   -1    0    0    0    0  0.00000000000E+00  0.00000000000E+00  0.45593999997E+02  0.45594000000E+02  0.51100000000E-03 0. -1.
         11   -1    0    0    0    0 -0.00000000000E+00 -0.00000000000E+00 -0.45593999997E+02  0.45594000000E+02  0.51100000000E-03 0.  1.
    9900012    2    1    2    0    0  0.32196024860E+00  0.16789463785E+02  0.41798609505E+02  0.46142317531E+02  0.99999978980E+01 0.  0.
        -12    1    1    2    0    0 -0.32196024860E+00 -0.16789463785E+02 -0.41798609505E+02  0.45045682469E+02  0.00000000000E+00 0.  1.
         11    1    3    3    0    0 -0.31512700447E+01  0.36764122773E+01  0.14426638131E+02  0.15217568733E+02  0.51100000000E-03 0. -1.
        -11    1    3    3    0    0 -0.13806924943E+00  0.18353531717E+01  0.11965065333E+01  0.21952704908E+01  0.51100000000E-03 0.  1.
         12    1    3    3    0    0  0.36112995427E+01  0.11277698336E+02  0.26175464841E+02  0.28729478307E+02  0.00000000000E+00 0. -1.
</event>
<event>
 7    1  0.8398055E-009  0.4614232E+02  0.7816164E-02  0.1320468E+00
        -11   -1    0    0    0    0  0.00000000000E+00  0.00000000000E+00  0.45593999997E+02  0.45594000000E+02  0.51100000000E-03 0. -1.
         11   -1    0    0    0    0 -0.00000000000E+00 -0.00000000000E+00 -0.45593999997E+02  0.45594000000E+02  0.51100000000E-03 0.  1.
    9900012    2    1    2    0    0 -0.13304945228E+02 -0.10656514284E+02 -0.41695689446E+02  0.46142318935E+02  0.10000010708E+02 0.  0.
         12    1    1    2    0    0  0.13304945228E+02  0.10656514284E+02  0.41695689446E+02  0.45045681065E+02  0.00000000000E+00 0. -1.
         11    1    3    3    0    0 -0.10264837235E+02 -0.49004650897E+01 -0.27302056122E+02  0.29576742727E+02  0.51100000000E-03 0. -1.
        -11    1    3    3    0    0 -0.52678670630E+00 -0.15898537283E+01 -0.95655225174E+01  0.97110432191E+01  0.51100000000E-03 0.  1.
         12    1    3    3    0    0 -0.25133212864E+01 -0.41661954657E+01 -0.48281108061E+01  0.68545329894E+01  0.00000000000E+00 0. -1.
</event>
<event>
 7    1  0.8398055E-009  0.4614232E+02  0.7816164E-02  0.1320468E+00
        -11   -1    0    0    0    0  0.00000000000E+00  0.00000000000E+00  0.45593999997E+02  0.45594000000E+02  0.51100000000E-03 0. -1.
         11   -1    0    0    0    0 -0.00000000000E+00 -0.00000000000E+00 -0.45593999997E+02  0.45594000000E+02  0.51100000000E-03 0.  1.
    9900012    2    1    2    0    0  0.79239265662E+01 -0.24432484260E+02  0.37005115639E+02  0.46142317823E+02  0.10000000560E+02 0.  0.
        -12    1    1    2    0    0 -0.79239265662E+01  0.24432484260E+02 -0.37005115639E+02  0.45045682177E+02  0.00000000000E+00 0.  1.
         11    1    3    3    0    0  0.72842620985E+00 -0.54190167696E+01  0.29327551484E+01  0.62046273470E+01  0.51100000000E-03 0. -1.
        -11    1    3    3    0    0  0.43510716159E+00 -0.85683935950E+00  0.30721849823E+00  0.10088981102E+01  0.51100000000E-03 0.  1.
         12    1    3    3    0    0  0.67603931948E+01 -0.18156628131E+02  0.33765141993E+02  0.38928792365E+02  0.00000000000E+00 0. -1.
</event>
<event>
 7    1  0.8398055E-009  0.4614232E+02  0.7816164E-02  0.1320468E+00
        -11   -1    0    0    0    0  0.00000000000E+00  0.00000000000E+00  0.45593999997E+02  0.45594000000E+02  0.51100000000E-03 0. -1.
         11   -1    0    0    0    0 -0.00000000000E+00 -0.00000000000E+00 -0.45593999997E+02  0.45594000000E+02  0.51100000000E-03 0.  1.
    9900012    2    1    2    0    0 -0.31331926900E+02  0.32337678948E+02 -0.13032656453E+01  0.46142316252E+02  0.99999862356E+01 0.  0.
         12    1    1    2    0    0  0.31331926900E+02 -0.32337678948E+02  0.13032656453E+01  0.45045683748E+02  0.00000000000E+00 0. -1.
         11    1    3    3    0    0 -0.27547710449E+02  0.28873001027E+02 -0.30374971670E+01  0.40021905609E+02  0.51100000000E-03 0. -1.
        -11    1    3    3    0    0 -0.41742598736E+01  0.26912535256E+01  0.12244555704E+01  0.51153282139E+01  0.51100000000E-03 0.  1.
         12    1    3    3    0    0  0.39004342294E+00  0.77342439579E+00  0.50977595124E+00  0.10050824286E+01  0.00000000000E+00 0. -1.
</event>
<event>
 7    1  0.8398055E-009  0.4614232E+02  0.7816164E-02  0.1320468E+00
        -11   -1    0    0    0    0  0.00000000000E+00  0.00000000000E+00  0.45593999997E+02  0.45594000000E+02  0.51100000000E-03 0. -1.
         11   -1    0    0    0    0 -0.00000000000E+00 -0.00000000000E+00 -0.45593999997E+02  0.45594000000E+02  0.51100000000E-03 0.  1.
    9900012    2    1    2    0    0  0.73573027404E+01  0.21856428262E+02  0.38694700726E+02  0.46142320693E+02  0.10000026735E+02 0.  0.
        -12    1    1    2    0    0 -0.73573027404E+01 -0.21856428262E+02 -0.38694700726E+02  0.45045679307E+02  0.00000000000E+00 0.  1.
         11    1    3    3    0    0  0.46223748994E+01  0.92849013738E+01  0.14084100714E+02  0.17491073049E+02  0.51100000000E-03 0. -1.
        -11    1    3    3    0    0  0.44821680105E+01  0.72511391156E+01  0.18460027925E+02  0.20333260432E+02  0.51100000000E-03 0.  1.
        -12    1    3    3    0    0 -0.17472401695E+01  0.53203877726E+01  0.61505720872E+01  0.83179872121E+01  0.00000000000E+00 0.  1.
</event>
<event>
 7    1  0.8398055E-009  0.4614232E+02  0.7816164E-02  0.1320468E+00
        -11   -1    0    0    0    0  0.00000000000E+00  0.00000000000E+00  0.45593999997E+02  0.45594000000E+02  0.51100000000E-03 0. -1.
         11   -1    0    0    0    0 -0.00000000000E+00 -0.00000000000E+00 -0.45593999997E+02  0.45594000000E+02  0.51100000000E-03 0.  1.
    9900012    2    1    2    0    0  0.25539009416E+02  0.15508310602E+02  0.33710009836E+02  0.46142318044E+02  0.10000002583E+02 0.  0.
        -12    1    1    2    0    0 -0.25539009416E+02 -0.15508310602E+02 -0.33710009836E+02  0.45045681956E+02  0.00000000000E+00 0.  1.
         11    1    3    3    0    0  0.60765543110E+01  0.51347220170E+01  0.97539700174E+01  0.12586890555E+02  0.51100000000E-03 0. -1.
        -11    1    3    3    0    0  0.63038764111E+01  0.24403473730E+01  0.25914503961E+01  0.72394591320E+01  0.51100000000E-03 0.  1.
        -12    1    3    3    0    0  0.13158578694E+02  0.79332412123E+01  0.21364589423E+02  0.26315968357E+02  0.00000000000E+00 0.  1.
</event>
<event>
 7    1  0.8398055E-009  0.4614232E+02  0.7816164E-02  0.1320468E+00
        -11   -1    0    0    0    0  0.00000000000E+00  0.00000000000E+00  0.45593999997E+02  0.45594000000E+02  0.51100000000E-03 0.  1.
         11   -1    0    0    0    0 -0.00000000000E+00 -0.00000000000E+00 -0.45593999997E+02  0.45594000000E+02  0.51100000000E-03 0. -1.
    9900012    2    1    2    0    0 -0.44140755376E+01 -0.44536195641E+02 -0.51143634811E+01  0.46142317645E+02  0.99999989441E+01 0.  0.
        -12    1    1    2    0    0  0.44140755376E+01  0.44536195641E+02  0.51143634811E+01  0.45045682355E+02  0.00000000000E+00 0.  1.
         11    1    3    3    0    0 -0.56047365707E+01 -0.32252020200E+02 -0.46664909395E+01  0.33066327540E+02  0.51100000000E-03 0. -1.
        -11    1    3    3    0    0  0.17942298170E+01 -0.12236529526E+02 -0.76785639581E+00  0.12391187158E+02  0.51100000000E-03 0.  1.
        -12    1    3    3    0    0 -0.60356878391E+00 -0.47645914308E-01  0.31998385417E+00  0.68480294756E+00  0.00000000000E+00 0.  1.
</event>
<event>
 7    1  0.8398055E-009  0.4614232E+02  0.7816164E-02  0.1320468E+00
        -11   -1    0    0    0    0  0.00000000000E+00  0.00000000000E+00  0.45593999997E+02  0.45594000000E+02  0.51100000000E-03 0. -1.
         11   -1    0    0    0    0 -0.00000000000E+00 -0.00000000000E+00 -0.45593999997E+02  0.45594000000E+02  0.51100000000E-03 0.  1.
    9900012    2    1    2    0    0 -0.21647685710E+02  0.10768110001E+02 -0.38007091936E+02  0.46142317332E+02  0.99999960895E+01 0.  0.
         12    1    1    2    0    0  0.21647685710E+02 -0.10768110001E+02  0.38007091936E+02  0.45045682668E+02  0.00000000000E+00 0. -1.
         11    1    3    3    0    0 -0.11301271518E+02  0.10200025586E+02 -0.18159572384E+02  0.23696610080E+02  0.51100000000E-03 0. -1.
        -11    1    3    3    0    0 -0.33700762483E+01 -0.39381636636E+00 -0.74828160290E+01  0.82161451567E+01  0.51100000000E-03 0.  1.
         12    1    3    3    0    0 -0.69763379438E+01  0.96190078189E+00 -0.12364703523E+02  0.14229562095E+02  0.00000000000E+00 0. -1.
</event>
<event>
 7    1  0.8398055E-009  0.4614232E+02  0.7816164E-02  0.1320468E+00
        -11   -1    0    0    0    0  0.00000000000E+00  0.00000000000E+00  0.45593999997E+02  0.45594000000E+02  0.51100000000E-03 0. -1.
         11   -1    0    0    0    0 -0.00000000000E+00 -0.00000000000E+00 -0.45593999997E+02  0.45594000000E+02  0.51100000000E-03 0.  1.
    9900012    2    1    2    0    0  0.32512741310E+02 -0.30984618585E+02  0.34624583019E+01  0.46142317034E+02  0.99999933737E+01 0.  0.
        -12    1    1    2    0    0 -0.32512741310E+02  0.30984618585E+02 -0.34624583019E+01  0.45045682966E+02  0.00000000000E+00 0.  1.
         11    1    3    3    0    0  0.34721437645E+01 -0.41939327066E+01  0.29154335559E+01  0.61761320379E+01  0.51100000000E-03 0. -1.
        -11    1    3    3    0    0  0.12694398822E+02 -0.82597875646E+01 -0.12122720517E+01  0.15193467539E+02  0.51100000000E-03 0.  1.
         12    1    3    3    0    0  0.16346198723E+02 -0.18530898314E+02  0.17592967977E+01  0.24772717458E+02  0.00000000000E+00 0. -1.
</event>
<event>
 7    1  0.8398055E-009  0.4614232E+02  0.7816164E-02  0.1320468E+00
        -11   -1    0    0    0    0  0.00000000000E+00  0.00000000000E+00  0.45593999997E+02  0.45594000000E+02  0.51100000000E-03 0. -1.
         11   -1    0    0    0    0 -0.00000000000E+00 -0.00000000000E+00 -0.45593999997E+02  0.45594000000E+02  0.51100000000E-03 0.  1.
    9900012    2    1    2    0    0  0.29797695272E+02  0.15397027105E+02  0.30068960548E+02  0.46142317903E+02  0.10000001295E+02 0.  0.
        -12    1    1    2    0    0 -0.29797695272E+02 -0.15397027105E+02 -0.30068960548E+02  0.45045682097E+02  0.00000000000E+00 0.  1.
         11    1    3    3    0    0  0.68559548053E+01 -0.38762872036E+00  0.77550226980E+01  0.10358317896E+02  0.51100000000E-03 0. -1.
        -11    1    3    3    0    0  0.14776468850E+02  0.11628271771E+02  0.15431491828E+02  0.24324713284E+02  0.51100000000E-03 0.  1.
         12    1    3    3    0    0  0.81652716167E+01  0.41563840542E+01  0.68824460215E+01  0.11459286724E+02  0.00000000000E+00 0. -1.
</event>
<event>
 7    1  0.1108318E-008  0.4614232E+02  0.7816164E-02  0.1320468E+00
        -11   -1    0    0    0    0  0.00000000000E+00  0.00000000000E+00  0.45593999997E+02  0.45594000000E+02  0.51100000000E-03 0. -1.
         11   -1    0    0    0    0 -0.00000000000E+00 -0.00000000000E+00 -0.45593999997E+02  0.45594000000E+02  0.51100000000E-03 0.  1.
    9900012    2    1    2    0    0  0.25075093629E+02 -0.70653942827E+01 -0.36748243555E+02  0.46142317396E+02  0.99999966722E+01 0.  0.
         12    1    1    2    0    0 -0.25075093629E+02  0.70653942827E+01  0.36748243555E+02  0.45045682604E+02  0.00000000000E+00 0. -1.
         11    1    3    3    0    0  0.19167318979E+00 -0.14406495874E+00  0.34158138588E+00  0.41733850568E+00  0.51100000000E-03 0. -1.
        -11    1    3    3    0    0  0.13319214716E+01  0.49684455320E+00 -0.35932146220E+00  0.14662815182E+01  0.51100000000E-03 0.  1.
        -12    1    3    3    0    0  0.23551498967E+02 -0.74181738771E+01 -0.36730503479E+02  0.44258697372E+02  0.00000000000E+00 0.  1.
</event>
<event>
 7    1  0.8398055E-009  0.4614232E+02  0.7816164E-02  0.1320468E+00
        -11   -1    0    0    0    0  0.00000000000E+00  0.00000000000E+00  0.45593999997E+02  0.45594000000E+02  0.51100000000E-03 0. -1.
         11   -1    0    0    0    0 -0.00000000000E+00 -0.00000000000E+00 -0.45593999997E+02  0.45594000000E+02  0.51100000000E-03 0.  1.
    9900012    2    1    2    0    0  0.18165297779E+02 -0.24504945417E+02 -0.33145787512E+02  0.46142316266E+02  0.99999863647E+01 0.  0.
         12    1    1    2    0    0 -0.18165297779E+02  0.24504945417E+02  0.33145787512E+02  0.45045683734E+02  0.00000000000E+00 0. -1.
         11    1    3    3    0    0  0.46260410362E+01 -0.17103118492E+01 -0.22456598747E+01  0.54192629410E+01  0.51100000000E-03 0. -1.
        -11    1    3    3    0    0  0.34035958284E+01 -0.53106100074E+01 -0.69470061602E+01  0.93833862792E+01  0.51100000000E-03 0.  1.
         12    1    3    3    0    0  0.10135660914E+02 -0.17484023560E+02 -0.23953121477E+02  0.31339667046E+02  0.00000000000E+00 0. -1.
</event>
<event>
 7    1  0.8398055E-009  0.4614232E+02  0.7816164E-02  0.1320468E+00
        -11   -1    0    0    0    0  0.00000000000E+00  0.00000000000E+00  0.45593999997E+02  0.45594000000E+02  0.51100000000E-03 0. -1.
         11   -1    0    0    0    0 -0.00000000000E+00 -0.00000000000E+00 -0.45593999997E+02  0.45594000000E+02  0.51100000000E-03 0.  1.
    9900012    2    1    2    0    0  0.15896241900E+02  0.41625448832E+02 -0.66139950792E+01  0.46142318432E+02  0.10000006115E+02 0.  0.
        -12    1    1    2    0    0 -0.15896241900E+02 -0.41625448832E+02  0.66139950792E+01  0.45045681568E+02  0.00000000000E+00 0.  1.
         11    1    3    3    0    0  0.40946921673E+01  0.40420829055E+01 -0.17787631346E+01  0.60223696922E+01  0.51100000000E-03 0. -1.
        -11    1    3    3    0    0 -0.63717846134E+00  0.17463254583E+01  0.12262861789E+00  0.18629780023E+01  0.51100000000E-03 0.  1.
         12    1    3    3    0    0  0.12438728194E+02  0.35837040469E+02 -0.49578605625E+01  0.38256970737E+02  0.00000000000E+00 0. -1.
</event>
<event>
 7    1  0.8398055E-009  0.4614232E+02  0.7816164E-02  0.1320468E+00
        -11   -1    0    0    0    0  0.00000000000E+00  0.00000000000E+00  0.45593999997E+02  0.45594000000E+02  0.51100000000E-03 0. -1.
         11   -1    0    0    0    0 -0.00000000000E+00 -0.00000000000E+00 -0.45593999997E+02  0.45594000000E+02  0.51100000000E-03 0.  1.
    9900012    2    1    2    0    0 -0.74349928736E+01 -0.27808716589E+02  0.34648372378E+02  0.46142317123E+02  0.99999941839E+01 0.  0.
        -12    1    1    2    0    0  0.74349928736E+01  0.27808716589E+02 -0.34648372378E+02  0.45045682877E+02  0.00000000000E+00 0.  1.
         11    1    3    3    0    0 -0.85774160018E+00 -0.59735972967E+01  0.33119664114E+01  0.68839456046E+01  0.51100000000E-03 0. -1.
        -11    1    3    3    0    0 -0.25368217499E+01 -0.51729699408E+01  0.40869001495E+01  0.70638400104E+01  0.51100000000E-03 0.  1.
         12    1    3    3    0    0 -0.40404295235E+01 -0.16662149352E+02  0.27249505817E+02  0.32194531508E+02  0.00000000000E+00 0. -1.
</event>
<event>
 7    1  0.8398055E-009  0.4614232E+02  0.7816164E-02  0.1320468E+00
        -11   -1    0    0    0    0  0.00000000000E+00  0.00000000000E+00  0.45593999997E+02  0.45594000000E+02  0.51100000000E-03 0. -1.
         11   -1    0    0    0    0 -0.00000000000E+00 -0.00000000000E+00 -0.45593999997E+02  0.45594000000E+02  0.51100000000E-03 0.  1.
    9900012    2    1    2    0    0 -0.29780122904E+01  0.38027853227E+02 -0.23960954187E+02  0.46142317590E+02  0.99999984362E+01 0.  0.
         12    1    1    2    0    0  0.29780122904E+01 -0.38027853227E+02  0.23960954187E+02  0.45045682410E+02  0.00000000000E+00 0. -1.
         11    1    3    3    0    0  0.82574054020E+00  0.15149613323E+02 -0.72732377528E+01  0.16825356428E+02  0.51100000000E-03 0.  1.
        -11    1    3    3    0    0  0.15194115006E+01  0.86166505477E+01 -0.46408329660E+01  0.99041712853E+01  0.51100000000E-03 0. -1.
         12    1    3    3    0    0 -0.53231643312E+01  0.14261589357E+02 -0.12046883468E+02  0.19412789876E+02  0.00000000000E+00 0. -1.
</event>
<event>
 7    1  0.8398055E-009  0.4614232E+02  0.7816164E-02  0.1320468E+00
        -11   -1    0    0    0    0  0.00000000000E+00  0.00000000000E+00  0.45593999997E+02  0.45594000000E+02  0.51100000000E-03 0. -1.
         11   -1    0    0    0    0 -0.00000000000E+00 -0.00000000000E+00 -0.45593999997E+02  0.45594000000E+02  0.51100000000E-03 0.  1.
    9900012    2    1    2    0    0 -0.22603745059E+02 -0.31701466983E+02  0.22653944199E+02  0.46142317773E+02  0.10000000109E+02 0.  0.
        -12    1    1    2    0    0  0.22603745059E+02  0.31701466983E+02 -0.22653944199E+02  0.45045682227E+02  0.00000000000E+00 0.  1.
         11    1    3    3    0    0 -0.16486514669E+02 -0.23433230134E+02  0.17671183645E+02  0.33662919840E+02  0.51100000000E-03 0. -1.
        -11    1    3    3    0    0 -0.31505688479E+01 -0.19583652305E+01  0.39705316357E+01  0.54338200350E+01  0.51100000000E-03 0.  1.
        -12    1    3    3    0    0 -0.29666615414E+01 -0.63098716181E+01  0.10122289181E+01  0.70455778982E+01  0.00000000000E+00 0.  1.
</event>
<event>
 7    1  0.8398055E-009  0.4614232E+02  0.7816164E-02  0.1320468E+00
        -11   -1    0    0    0    0  0.00000000000E+00  0.00000000000E+00  0.45593999997E+02  0.45594000000E+02  0.51100000000E-03 0. -1.
         11   -1    0    0    0    0 -0.00000000000E+00 -0.00000000000E+00 -0.45593999997E+02  0.45594000000E+02  0.51100000000E-03 0.  1.
    9900012    2    1    2    0    0  0.55829238481E+01 -0.13056938874E+02 -0.42748810316E+02  0.46142317911E+02  0.10000001364E+02 0.  0.
         12    1    1    2    0    0 -0.55829238481E+01  0.13056938874E+02  0.42748810316E+02  0.45045682089E+02  0.00000000000E+00 0. -1.
         11    1    3    3    0    0 -0.11415056049E+00 -0.59412352614E+01 -0.17090840193E+02  0.18094422498E+02  0.51100000000E-03 0. -1.
        -11    1    3    3    0    0  0.61033058713E+01 -0.49401331918E+01 -0.12918679423E+02  0.15117788754E+02  0.51100000000E-03 0.  1.
         12    1    3    3    0    0 -0.40623146267E+00 -0.21755704207E+01 -0.12739290701E+02  0.12930106659E+02  0.00000000000E+00 0. -1.
</event>
<event>
 7    1  0.8398055E-009  0.4614232E+02  0.7816164E-02  0.1320468E+00
        -11   -1    0    0    0    0  0.00000000000E+00  0.00000000000E+00  0.45593999997E+02  0.45594000000E+02  0.51100000000E-03 0.  1.
         11   -1    0    0    0    0 -0.00000000000E+00 -0.00000000000E+00 -0.45593999997E+02  0.45594000000E+02  0.51100000000E-03 0. -1.
    9900012    2    1    2    0    0 -0.25308892695E+02  0.36631650111E+02  0.68334224425E+01  0.46142317615E+02  0.99999986653E+01 0.  0.
        -12    1    1    2    0    0  0.25308892695E+02 -0.36631650111E+02 -0.68334224425E+01  0.45045682385E+02  0.00000000000E+00 0.  1.
         11    1    3    3    0    0 -0.22543248610E+01  0.44385139723E+01 -0.14179404065E+00  0.49802101032E+01  0.51100000000E-03 0. -1.
        -11    1    3    3    0    0 -0.60701571538E+00  0.61165705175E+01  0.69031021692E+00  0.61852592049E+01  0.51100000000E-03 0.  1.
        -12    1    3    3    0    0 -0.22447552118E+02  0.26076565621E+02  0.62849062662E+01  0.34976848307E+02  0.00000000000E+00 0.  1.
</event>
<event>
 7    1  0.8398055E-009  0.4614232E+02  0.7816164E-02  0.1320468E+00
        -11   -1    0    0    0    0  0.00000000000E+00  0.00000000000E+00  0.45593999997E+02  0.45594000000E+02  0.51100000000E-03 0. -1.
         11   -1    0    0    0    0 -0.00000000000E+00 -0.00000000000E+00 -0.45593999997E+02  0.45594000000E+02  0.51100000000E-03 0.  1.
    9900012    2    1    2    0    0  0.26616020302E+02 -0.30326478580E+02  0.20025123245E+02  0.46142318734E+02  0.10000008867E+02 0.  0.
        -12    1    1    2    0    0 -0.26616020302E+02  0.30326478580E+02 -0.20025123245E+02  0.45045681266E+02  0.00000000000E+00 0.  1.
         11    1    3    3    0    0  0.55259107405E+01 -0.11236199647E+02  0.69093833039E+01  0.14301309378E+02  0.51100000000E-03 0. -1.
        -11    1    3    3    0    0  0.64183445811E+01 -0.25563677934E+01  0.30389741313E+01  0.75475510922E+01  0.51100000000E-03 0.  1.
        -12    1    3    3    0    0  0.14671764980E+02 -0.16533911139E+02  0.10076765810E+02  0.24293458263E+02  0.00000000000E+00 0.  1.
</event>
<event>
 7    1  0.8398055E-009  0.4614232E+02  0.7816164E-02  0.1320468E+00
        -11   -1    0    0    0    0  0.00000000000E+00  0.00000000000E+00  0.45593999997E+02  0.45594000000E+02  0.51100000000E-03 0. -1.
         11   -1    0    0    0    0 -0.00000000000E+00 -0.00000000000E+00 -0.45593999997E+02  0.45594000000E+02  0.51100000000E-03 0.  1.
    9900012    2    1    2    0    0 -0.42797758887E+02 -0.68864062208E+01 -0.12249194101E+02  0.46142317493E+02  0.99999975548E+01 0.  0.
         12    1    1    2    0    0  0.42797758887E+02  0.68864062208E+01  0.12249194101E+02  0.45045682507E+02  0.00000000000E+00 0. -1.
         11    1    3    3    0    0 -0.11536867967E+01 -0.82015724029E+00 -0.12612897800E+01  0.18959175335E+01  0.51100000000E-03 0.  1.
        -11    1    3    3    0    0 -0.19415391256E+02 -0.66380776800E+01 -0.37242536948E+01  0.20854053773E+02  0.51100000000E-03 0. -1.
         12    1    3    3    0    0 -0.22228680834E+02  0.57182869944E+00 -0.72636506264E+01  0.23392346186E+02  0.00000000000E+00 0. -1.
</event>
<event>
 7    1  0.8398055E-009  0.4614232E+02  0.7816164E-02  0.1320468E+00
        -11   -1    0    0    0    0  0.00000000000E+00  0.00000000000E+00  0.45593999997E+02  0.45594000000E+02  0.51100000000E-03 0. -1.
         11   -1    0    0    0    0 -0.00000000000E+00 -0.00000000000E+00 -0.45593999997E+02  0.45594000000E+02  0.51100000000E-03 0.  1.
    9900012    2    1    2    0    0 -0.31576921427E+02  0.17497191164E+02 -0.26941786748E+02  0.46142317203E+02  0.99999949144E+01 0.  0.
         12    1    1    2    0    0  0.31576921427E+02 -0.17497191164E+02  0.26941786748E+02  0.45045682797E+02  0.00000000000E+00 0. -1.
         11    1    3    3    0    0 -0.12996491575E+01  0.76997128187E+00  0.13038936001E+00  0.15162273424E+01  0.51100000000E-03 0. -1.
        -11    1    3    3    0    0 -0.22934421517E+02  0.98126077187E+01 -0.15935414209E+02  0.29600884900E+02  0.51100000000E-03 0.  1.
         12    1    3    3    0    0 -0.73428507527E+01  0.69146121636E+01 -0.11136761898E+02  0.15025204961E+02  0.00000000000E+00 0. -1.
</event>
<event>
 7    1  0.8398055E-009  0.4614232E+02  0.7816164E-02  0.1320468E+00
        -11   -1    0    0    0    0  0.00000000000E+00  0.00000000000E+00  0.45593999997E+02  0.45594000000E+02  0.51100000000E-03 0. -1.
         11   -1    0    0    0    0 -0.00000000000E+00 -0.00000000000E+00 -0.45593999997E+02  0.45594000000E+02  0.51100000000E-03 0.  1.
    9900012    2    1    2    0    0 -0.24213958909E+02 -0.22537366527E+02 -0.30575559764E+02  0.46142317067E+02  0.99999936675E+01 0.  0.
         12    1    1    2    0    0  0.24213958909E+02  0.22537366527E+02  0.30575559764E+02  0.45045682933E+02  0.00000000000E+00 0. -1.
         11    1    3    3    0    0 -0.64609623564E+01 -0.57393178588E+01 -0.43383276814E+01  0.96697927272E+01  0.51100000000E-03 0. -1.
        -11    1    3    3    0    0 -0.77702137748E+01 -0.30703657639E+01 -0.82741695449E+01  0.11758624492E+02  0.51100000000E-03 0.  1.
        -12    1    3    3    0    0 -0.99827827780E+01 -0.13727682904E+02 -0.17963062538E+02  0.24713899847E+02  0.00000000000E+00 0.  1.
</event>
<event>
 7    1  0.8398055E-009  0.4614232E+02  0.7816164E-02  0.1320468E+00
        -11   -1    0    0    0    0  0.00000000000E+00  0.00000000000E+00  0.45593999997E+02  0.45594000000E+02  0.51100000000E-03 0. -1.
         11   -1    0    0    0    0 -0.00000000000E+00 -0.00000000000E+00 -0.45593999997E+02  0.45594000000E+02  0.51100000000E-03 0.  1.
    9900012    2    1    2    0    0  0.12230351045E+02  0.53993715674E+01  0.43016029520E+02  0.46142317680E+02  0.99999992613E+01 0.  0.
        -12    1    1    2    0    0 -0.12230351045E+02 -0.53993715674E+01 -0.43016029520E+02  0.45045682320E+02  0.00000000000E+00 0.  1.
         11    1    3    3    0    0  0.36520133973E+01  0.47650424192E+01  0.19836472024E+02  0.20725068244E+02  0.51100000000E-03 0. -1.
        -11    1    3    3    0    0  0.17146775328E+01  0.19658420191E+01  0.11608042915E+02  0.11897533966E+02  0.51100000000E-03 0.  1.
        -12    1    3    3    0    0  0.68636601147E+01 -0.13315128709E+01  0.11571514581E+02  0.13519715470E+02  0.00000000000E+00 0.  1.
</event>
<event>
 7    1  0.8398055E-009  0.4614232E+02  0.7816164E-02  0.1320468E+00
        -11   -1    0    0    0    0  0.00000000000E+00  0.00000000000E+00  0.45593999997E+02  0.45594000000E+02  0.51100000000E-03 0. -1.
         11   -1    0    0    0    0 -0.00000000000E+00 -0.00000000000E+00 -0.45593999997E+02  0.45594000000E+02  0.51100000000E-03 0.  1.
    9900012    2    1    2    0    0  0.52571146085E+01 -0.37487271369E+02  0.24416812054E+02  0.46142317859E+02  0.10000000891E+02 0.  0.
        -12    1    1    2    0    0 -0.52571146085E+01  0.37487271369E+02 -0.24416812054E+02  0.45045682141E+02  0.00000000000E+00 0.  1.
         11    1    3    3    0    0  0.47027324049E+01 -0.18212760673E+02  0.78077763448E+01  0.20366190491E+02  0.51100000000E-03 0. -1.
        -11    1    3    3    0    0 -0.17293285369E+00 -0.10304827640E+00 -0.18903020929E+00  0.27614742494E+00  0.51100000000E-03 0.  1.
         12    1    3    3    0    0  0.72731505732E+00 -0.19171462419E+02  0.16798065918E+02  0.25499979943E+02  0.00000000000E+00 0. -1.
</event>
<event>
 7    1  0.1292401E-008  0.4614232E+02  0.7816164E-02  0.1320468E+00
        -11   -1    0    0    0    0  0.00000000000E+00  0.00000000000E+00  0.45593999997E+02  0.45594000000E+02  0.51100000000E-03 0. -1.
         11   -1    0    0    0    0 -0.00000000000E+00 -0.00000000000E+00 -0.45593999997E+02  0.45594000000E+02  0.51100000000E-03 0.  1.
    9900012    2    1    2    0    0  0.12327498867E+00  0.59130297670E+01 -0.44655732180E+02  0.46142317251E+02  0.99999953504E+01 0.  0.
         12    1    1    2    0    0 -0.12327498867E+00 -0.59130297670E+01  0.44655732180E+02  0.45045682749E+02  0.00000000000E+00 0. -1.
         11    1    3    3    0    0  0.13725087394E+01  0.46052210198E+01 -0.94254407458E+01  0.10579734136E+02  0.51100000000E-03 0. -1.
        -11    1    3    3    0    0 -0.79190046943E+00  0.29867143777E+01 -0.20942091664E+02  0.21168816043E+02  0.51100000000E-03 0.  1.
         12    1    3    3    0    0 -0.45733328125E+00 -0.16789056306E+01 -0.14288199771E+02  0.14393767072E+02  0.00000000000E+00 0. -1.
</event>
<event>
 7    1  0.8398055E-009  0.4614232E+02  0.7816164E-02  0.1320468E+00
        -11   -1    0    0    0    0  0.00000000000E+00  0.00000000000E+00  0.45593999997E+02  0.45594000000E+02  0.51100000000E-03 0. -1.
         11   -1    0    0    0    0 -0.00000000000E+00 -0.00000000000E+00 -0.45593999997E+02  0.45594000000E+02  0.51100000000E-03 0.  1.
    9900012    2    1    2    0    0  0.32406288003E+02 -0.16864727522E+01 -0.31242623955E+02  0.46142320473E+02  0.10000024729E+02 0.  0.
         12    1    1    2    0    0 -0.32406288003E+02  0.16864727522E+01  0.31242623955E+02  0.45045679527E+02  0.00000000000E+00 0. -1.
         11    1    3    3    0    0  0.13158627789E+02  0.33578337154E+01 -0.93518060486E+01  0.16488808604E+02  0.51100000000E-03 0.  1.
        -11    1    3    3    0    0  0.83927434761E+01 -0.12602861631E+01 -0.86346615808E+01  0.12107181552E+02  0.51100000000E-03 0. -1.
        -12    1    3    3    0    0  0.10854916738E+02 -0.37840203044E+01 -0.13256156325E+02  0.17546330316E+02  0.00000000000E+00 0.  1.
</event>
<event>
 7    1  0.8398055E-009  0.4614232E+02  0.7816164E-02  0.1320468E+00
        -11   -1    0    0    0    0  0.00000000000E+00  0.00000000000E+00  0.45593999997E+02  0.45594000000E+02  0.51100000000E-03 0. -1.
         11   -1    0    0    0    0 -0.00000000000E+00 -0.00000000000E+00 -0.45593999997E+02  0.45594000000E+02  0.51100000000E-03 0.  1.
    9900012    2    1    2    0    0 -0.29863281751E+01  0.26734570303E+02  0.36131122446E+02  0.46142318581E+02  0.10000007480E+02 0.  0.
        -12    1    1    2    0    0  0.29863281751E+01 -0.26734570303E+02 -0.36131122446E+02  0.45045681419E+02  0.00000000000E+00 0.  1.
         11    1    3    3    0    0  0.19848024133E+01  0.85221641335E+01  0.12962810919E+02  0.15639731114E+02  0.51100000000E-03 0.  1.
        -11    1    3    3    0    0 -0.32868136557E+01  0.13948798718E+02  0.21018896448E+02  0.25439460250E+02  0.51100000000E-03 0. -1.
        -12    1    3    3    0    0 -0.16843169327E+01  0.42636074517E+01  0.21494150790E+01  0.50631272168E+01  0.00000000000E+00 0.  1.
</event>
<event>
 7    1  0.8398055E-009  0.4614232E+02  0.7816164E-02  0.1320468E+00
        -11   -1    0    0    0    0  0.00000000000E+00  0.00000000000E+00  0.45593999997E+02  0.45594000000E+02  0.51100000000E-03 0. -1.
         11   -1    0    0    0    0 -0.00000000000E+00 -0.00000000000E+00 -0.45593999997E+02  0.45594000000E+02  0.51100000000E-03 0.  1.
    9900012    2    1    2    0    0 -0.37589500045E+01  0.24206523084E+02 -0.37802480617E+02  0.46142323118E+02  0.10000048849E+02 0.  0.
         12    1    1    2    0    0  0.37589500045E+01 -0.24206523084E+02  0.37802480617E+02  0.45045676882E+02  0.00000000000E+00 0. -1.
         11    1    3    3    0    0  0.47509169197E+00  0.26172329396E+01 -0.41601078008E+01  0.49378251844E+01  0.51100000000E-03 0.  1.
        -11    1    3    3    0    0  0.20834010885E+01  0.12746983782E+02 -0.17755967484E+02  0.21956787953E+02  0.51100000000E-03 0. -1.
         12    1    3    3    0    0 -0.63174427850E+01  0.88423063626E+01 -0.15886405332E+02  0.19247709981E+02  0.00000000000E+00 0. -1.
</event>
<event>
 7    1  0.8398055E-009  0.4614232E+02  0.7816164E-02  0.1320468E+00
        -11   -1    0    0    0    0  0.00000000000E+00  0.00000000000E+00  0.45593999997E+02  0.45594000000E+02  0.51100000000E-03 0.  1.
         11   -1    0    0    0    0 -0.00000000000E+00 -0.00000000000E+00 -0.45593999997E+02  0.45594000000E+02  0.51100000000E-03 0. -1.
    9900012    2    1    2    0    0  0.78565030531E+01  0.41241187385E+02 -0.16326459544E+02  0.46142318093E+02  0.10000003031E+02 0.  0.
         12    1    1    2    0    0 -0.78565030531E+01 -0.41241187385E+02  0.16326459544E+02  0.45045681907E+02  0.00000000000E+00 0. -1.
         11    1    3    3    0    0  0.13718661443E+01  0.14671029901E+02 -0.85662669096E+01  0.17044121101E+02  0.51100000000E-03 0. -1.
        -11    1    3    3    0    0  0.28804617136E+01  0.21107622376E+02 -0.44452239917E+01  0.21762095456E+02  0.51100000000E-03 0.  1.
         12    1    3    3    0    0  0.36041751952E+01  0.54625351086E+01 -0.33149686428E+01  0.73361015364E+01  0.00000000000E+00 0. -1.
</event>
<event>
 7    1  0.8398055E-009  0.4614232E+02  0.7816164E-02  0.1320468E+00
        -11   -1    0    0    0    0  0.00000000000E+00  0.00000000000E+00  0.45593999997E+02  0.45594000000E+02  0.51100000000E-03 0. -1.
         11   -1    0    0    0    0 -0.00000000000E+00 -0.00000000000E+00 -0.45593999997E+02  0.45594000000E+02  0.51100000000E-03 0.  1.
    9900012    2    1    2    0    0 -0.71824981706E+01 -0.27990450285E+02  0.34555172881E+02  0.46142316967E+02  0.99999927550E+01 0.  0.
        -12    1    1    2    0    0  0.71824981706E+01  0.27990450285E+02 -0.34555172881E+02  0.45045683033E+02  0.00000000000E+00 0.  1.
         11    1    3    3    0    0 -0.50079343086E+01 -0.97795348754E+01  0.90022893160E+01  0.14204221964E+02  0.51100000000E-03 0.  1.
        -11    1    3    3    0    0 -0.14206239218E+00 -0.11615843666E+02  0.11843223415E+02  0.16589452882E+02  0.51100000000E-03 0. -1.
        -12    1    3    3    0    0 -0.20325014699E+01 -0.65950717436E+01  0.13709660150E+02  0.15348642121E+02  0.00000000000E+00 0.  1.
</event>
<event>
 7    1  0.8398055E-009  0.4614232E+02  0.7816164E-02  0.1320468E+00
        -11   -1    0    0    0    0  0.00000000000E+00  0.00000000000E+00  0.45593999997E+02  0.45594000000E+02  0.51100000000E-03 0. -1.
         11   -1    0    0    0    0 -0.00000000000E+00 -0.00000000000E+00 -0.45593999997E+02  0.45594000000E+02  0.51100000000E-03 0.  1.
    9900012    2    1    2    0    0 -0.32213900714E+02 -0.91237402236E+01  0.30135281630E+02  0.46142320587E+02  0.10000025767E+02 0.  0.
        -12    1    1    2    0    0  0.32213900714E+02  0.91237402236E+01 -0.30135281630E+02  0.45045679413E+02  0.00000000000E+00 0.  1.
         11    1    3    3    0    0 -0.24285783269E+02 -0.93340775746E+01  0.20930427710E+02  0.33391721691E+02  0.51100000000E-03 0. -1.
        -11    1    3    3    0    0 -0.72424210304E+01 -0.10092971149E+01  0.68977707824E+01  0.10052392008E+02  0.51100000000E-03 0.  1.
        -12    1    3    3    0    0 -0.68569641493E+00  0.12196344660E+01  0.23070831378E+01  0.26982068877E+01  0.00000000000E+00 0.  1.
</event>
<event>
 7    1  0.8398055E-009  0.4614232E+02  0.7816164E-02  0.1320468E+00
        -11   -1    0    0    0    0  0.00000000000E+00  0.00000000000E+00  0.45593999997E+02  0.45594000000E+02  0.51100000000E-03 0. -1.
         11   -1    0    0    0    0 -0.00000000000E+00 -0.00000000000E+00 -0.45593999997E+02  0.45594000000E+02  0.51100000000E-03 0.  1.
    9900012    2    1    2    0    0 -0.14395426624E+02 -0.58368380618E+01  0.42282579902E+02  0.46142317083E+02  0.99999938176E+01 0.  0.
        -12    1    1    2    0    0  0.14395426624E+02  0.58368380618E+01 -0.42282579902E+02  0.45045682917E+02  0.00000000000E+00 0.  1.
         11    1    3    3    0    0  0.18044473789E+00 -0.23751735616E+00  0.16220810774E+00  0.33953870067E+00  0.51100000000E-03 0. -1.
        -11    1    3    3    0    0 -0.85978563320E+01 -0.67897669383E+01  0.19407354478E+02  0.22286082578E+02  0.51100000000E-03 0.  1.
        -12    1    3    3    0    0 -0.59780150297E+01  0.11904462326E+01  0.22713017316E+02  0.23516695804E+02  0.00000000000E+00 0.  1.
</event>
<event>
 7    1  0.8398055E-009  0.4614232E+02  0.7816164E-02  0.1320468E+00
        -11   -1    0    0    0    0  0.00000000000E+00  0.00000000000E+00  0.45593999997E+02  0.45594000000E+02  0.51100000000E-03 0.  1.
         11   -1    0    0    0    0 -0.00000000000E+00 -0.00000000000E+00 -0.45593999997E+02  0.45594000000E+02  0.51100000000E-03 0. -1.
    9900012    2    1    2    0    0 -0.29233566473E+01 -0.44944680957E+02 -0.73693521390E+00  0.46142318365E+02  0.10000005509E+02 0.  0.
        -12    1    1    2    0    0  0.29233566473E+01  0.44944680957E+02  0.73693521390E+00  0.45045681635E+02  0.00000000000E+00 0.  1.
         11    1    3    3    0    0  0.13983528017E+01 -0.15170050104E+02  0.31856742610E+01  0.15563879063E+02  0.51100000000E-03 0. -1.
        -11    1    3    3    0    0  0.66659598228E+00 -0.40116365638E+01 -0.88408253924E+00  0.41616319300E+01  0.51100000000E-03 0.  1.
         12    1    3    3    0    0 -0.49883054313E+01 -0.25762994289E+02 -0.30385269356E+01  0.26416807373E+02  0.00000000000E+00 0. -1.
</event>
<event>
 7    1  0.8398055E-009  0.4614232E+02  0.7816164E-02  0.1320468E+00
        -11   -1    0    0    0    0  0.00000000000E+00  0.00000000000E+00  0.45593999997E+02  0.45594000000E+02  0.51100000000E-03 0. -1.
         11   -1    0    0    0    0 -0.00000000000E+00 -0.00000000000E+00 -0.45593999997E+02  0.45594000000E+02  0.51100000000E-03 0.  1.
    9900012    2    1    2    0    0  0.19754801675E+02  0.94121868851E+01 -0.39373493739E+02  0.46142318072E+02  0.10000002832E+02 0.  0.
         12    1    1    2    0    0 -0.19754801675E+02 -0.94121868851E+01  0.39373493739E+02  0.45045681928E+02  0.00000000000E+00 0. -1.
         11    1    3    3    0    0  0.45853811390E+01  0.35003733693E+01 -0.17933747867E+02  0.18838727311E+02  0.51100000000E-03 0. -1.
        -11    1    3    3    0    0  0.49376464509E+01  0.40099174591E+01 -0.64822409494E+01  0.90818081069E+01  0.51100000000E-03 0.  1.
         12    1    3    3    0    0  0.10231774086E+02  0.19018960567E+01 -0.14957504923E+02  0.18221782653E+02  0.00000000000E+00 0. -1.
</event>
<event>
 7    1  0.8398055E-009  0.4614232E+02  0.7816164E-02  0.1320468E+00
        -11   -1    0    0    0    0  0.00000000000E+00  0.00000000000E+00  0.45593999997E+02  0.45594000000E+02  0.51100000000E-03 0. -1.
         11   -1    0    0    0    0 -0.00000000000E+00 -0.00000000000E+00 -0.45593999997E+02  0.45594000000E+02  0.51100000000E-03 0.  1.
    9900012    2    1    2    0    0  0.15292316277E+02  0.41347533276E+02 -0.92541935133E+01  0.46142317158E+02  0.99999945000E+01 0.  0.
         12    1    1    2    0    0 -0.15292316277E+02 -0.41347533276E+02  0.92541935133E+01  0.45045682842E+02  0.00000000000E+00 0. -1.
         11    1    3    3    0    0  0.13188731317E+01  0.35638121583E+01  0.76357480233E+00  0.38759811890E+01  0.51100000000E-03 0. -1.
        -11    1    3    3    0    0  0.48432409582E+00  0.10887750390E+02 -0.37967669082E+01  0.11540932268E+02  0.51100000000E-03 0.  1.
         12    1    3    3    0    0  0.13489119049E+02  0.26895970727E+02 -0.62210014075E+01  0.30725403701E+02  0.00000000000E+00 0. -1.
</event>
<event>
 7    1  0.8398055E-009  0.4614232E+02  0.7816164E-02  0.1320468E+00
        -11   -1    0    0    0    0  0.00000000000E+00  0.00000000000E+00  0.45593999997E+02  0.45594000000E+02  0.51100000000E-03 0. -1.
         11   -1    0    0    0    0 -0.00000000000E+00 -0.00000000000E+00 -0.45593999997E+02  0.45594000000E+02  0.51100000000E-03 0.  1.
    9900012    2    1    2    0    0 -0.11750132220E+02 -0.13937444670E+02  0.41192178334E+02  0.46142317332E+02  0.99999960881E+01 0.  0.
        -12    1    1    2    0    0  0.11750132220E+02  0.13937444670E+02 -0.41192178334E+02  0.45045682668E+02  0.00000000000E+00 0.  1.
         11    1    3    3    0    0  0.40543151061E+00 -0.80103474909E+00  0.12539175144E+01  0.15421870098E+01  0.51100000000E-03 0.  1.
        -11    1    3    3    0    0 -0.72975943769E+01 -0.12134307172E+02  0.34198876192E+02  0.37014313816E+02  0.51100000000E-03 0. -1.
         12    1    3    3    0    0 -0.48579693538E+01 -0.10021027489E+01  0.57393846281E+01  0.75858165065E+01  0.00000000000E+00 0. -1.
</event>
<event>
 7    1  0.8398055E-009  0.4614232E+02  0.7816164E-02  0.1320468E+00
        -11   -1    0    0    0    0  0.00000000000E+00  0.00000000000E+00  0.45593999997E+02  0.45594000000E+02  0.51100000000E-03 0.  1.
         11   -1    0    0    0    0 -0.00000000000E+00 -0.00000000000E+00 -0.45593999997E+02  0.45594000000E+02  0.51100000000E-03 0. -1.
    9900012    2    1    2    0    0 -0.15642388795E+02  0.41432883279E+02  0.82307583599E+01  0.46142317330E+02  0.99999960672E+01 0.  0.
         12    1    1    2    0    0  0.15642388795E+02 -0.41432883279E+02 -0.82307583599E+01  0.45045682670E+02  0.00000000000E+00 0. -1.
         11    1    3    3    0    0  0.83773193002E+00  0.65273929751E+00  0.17990716495E-01  0.10621616186E+01  0.51100000000E-03 0. -1.
        -11    1    3    3    0    0 -0.13950542646E+02  0.31441763345E+02  0.83800950081E+01  0.35403786732E+02  0.51100000000E-03 0.  1.
         12    1    3    3    0    0 -0.25295780787E+01  0.93383806367E+01 -0.16732736461E+00  0.96763689791E+01  0.00000000000E+00 0. -1.
</event>
<event>
 7    1  0.8398055E-009  0.4614232E+02  0.7816164E-02  0.1320468E+00
        -11   -1    0    0    0    0  0.00000000000E+00  0.00000000000E+00  0.45593999997E+02  0.45594000000E+02  0.51100000000E-03 0.  1.
         11   -1    0    0    0    0 -0.00000000000E+00 -0.00000000000E+00 -0.45593999997E+02  0.45594000000E+02  0.51100000000E-03 0. -1.
    9900012    2    1    2    0    0  0.30175114294E+02  0.28823384669E+02  0.16964327507E+02  0.46142318362E+02  0.10000005480E+02 0.  0.
         12    1    1    2    0    0 -0.30175114294E+02 -0.28823384669E+02 -0.16964327507E+02  0.45045681638E+02  0.00000000000E+00 0. -1.
         11    1    3    3    0    0  0.71924415069E+01  0.85142138221E+01  0.54998457459E+01  0.12428650584E+02  0.51100000000E-03 0. -1.
        -11    1    3    3    0    0  0.18076615886E+02  0.19447597802E+02  0.83256602358E+01  0.27826061898E+02  0.51100000000E-03 0.  1.
         12    1    3    3    0    0  0.49060569010E+01  0.86157304551E+00  0.31388215257E+01  0.58876058801E+01  0.00000000000E+00 0. -1.
</event>
<event>
 7    1  0.8398055E-009  0.4614232E+02  0.7816164E-02  0.1320468E+00
        -11   -1    0    0    0    0  0.00000000000E+00  0.00000000000E+00  0.45593999997E+02  0.45594000000E+02  0.51100000000E-03 0.  1.
         11   -1    0    0    0    0 -0.00000000000E+00 -0.00000000000E+00 -0.45593999997E+02  0.45594000000E+02  0.51100000000E-03 0. -1.
    9900012    2    1    2    0    0  0.41136691795E+02 -0.14020577870E+02  0.11845229914E+02  0.46142317772E+02  0.10000000103E+02 0.  0.
        -12    1    1    2    0    0 -0.41136691795E+02  0.14020577870E+02 -0.11845229914E+02  0.45045682228E+02  0.00000000000E+00 0.  1.
         11    1    3    3    0    0  0.32063177717E+02 -0.93268270217E+01  0.83905862153E+01  0.34430204834E+02  0.51100000000E-03 0. -1.
        -11    1    3    3    0    0  0.81893583145E+01 -0.32221458617E+01  0.12055009396E+01  0.88826260944E+01  0.51100000000E-03 0.  1.
        -12    1    3    3    0    0  0.88415576311E+00 -0.14716049862E+01  0.22491427589E+01  0.28294868437E+01  0.00000000000E+00 0.  1.
</event>
<event>
 7    1  0.8398055E-009  0.4614232E+02  0.7816164E-02  0.1320468E+00
        -11   -1    0    0    0    0  0.00000000000E+00  0.00000000000E+00  0.45593999997E+02  0.45594000000E+02  0.51100000000E-03 0. -1.
         11   -1    0    0    0    0 -0.00000000000E+00 -0.00000000000E+00 -0.45593999997E+02  0.45594000000E+02  0.51100000000E-03 0.  1.
    9900012    2    1    2    0    0 -0.58362236443E+01 -0.40791328233E+02  0.18196690656E+02  0.46142317452E+02  0.99999971769E+01 0.  0.
        -12    1    1    2    0    0  0.58362236443E+01  0.40791328233E+02 -0.18196690656E+02  0.45045682548E+02  0.00000000000E+00 0.  1.
         11    1    3    3    0    0 -0.31010482831E+01 -0.19674160546E+02  0.83494156506E+01  0.21596338477E+02  0.51100000000E-03 0. -1.
        -11    1    3    3    0    0 -0.24386603812E+01 -0.11348386127E+02  0.15207214057E+01  0.11706644524E+02  0.51100000000E-03 0.  1.
         12    1    3    3    0    0 -0.29651498007E+00 -0.97687815596E+01  0.83265535999E+01  0.12839334451E+02  0.00000000000E+00 0. -1.
</event>
<event>
 7    1  0.8398055E-009  0.4614232E+02  0.7816164E-02  0.1320468E+00
        -11   -1    0    0    0    0  0.00000000000E+00  0.00000000000E+00  0.45593999997E+02  0.45594000000E+02  0.51100000000E-03 0. -1.
         11   -1    0    0    0    0 -0.00000000000E+00 -0.00000000000E+00 -0.45593999997E+02  0.45594000000E+02  0.51100000000E-03 0.  1.
    9900012    2    1    2    0    0 -0.35409802384E+02 -0.17949065709E+02 -0.21285923163E+02  0.46142316638E+02  0.99999897555E+01 0.  0.
         12    1    1    2    0    0  0.35409802384E+02  0.17949065709E+02  0.21285923163E+02  0.45045683362E+02  0.00000000000E+00 0. -1.
         11    1    3    3    0    0 -0.42394244395E+01 -0.30365061308E+01 -0.17849822533E+01  0.55117375633E+01  0.51100000000E-03 0. -1.
        -11    1    3    3    0    0 -0.24730495762E+02 -0.91529164660E+01 -0.17826272206E+02  0.31830005992E+02  0.51100000000E-03 0.  1.
         12    1    3    3    0    0 -0.64398821827E+01 -0.57596431125E+01 -0.16746687038E+01  0.88005730823E+01  0.00000000000E+00 0. -1.
</event>
<event>
 7    1  0.8398055E-009  0.4614232E+02  0.7816164E-02  0.1320468E+00
        -11   -1    0    0    0    0  0.00000000000E+00  0.00000000000E+00  0.45593999997E+02  0.45594000000E+02  0.51100000000E-03 0. -1.
         11   -1    0    0    0    0 -0.00000000000E+00 -0.00000000000E+00 -0.45593999997E+02  0.45594000000E+02  0.51100000000E-03 0.  1.
    9900012    2    1    2    0    0 -0.81844268207E+01  0.36513920894E+02 -0.25077123023E+02  0.46142319180E+02  0.10000012940E+02 0.  0.
         12    1    1    2    0    0  0.81844268207E+01 -0.36513920894E+02  0.25077123023E+02  0.45045680820E+02  0.00000000000E+00 0. -1.
         11    1    3    3    0    0 -0.99214917360E-01  0.70600108131E+01 -0.21822493569E+01  0.73902509293E+01  0.51100000000E-03 0.  1.
        -11    1    3    3    0    0 -0.31050173467E+01  0.15885717051E+02 -0.15921551432E+02  0.22704469587E+02  0.51100000000E-03 0. -1.
        -12    1    3    3    0    0 -0.49801945566E+01  0.13568193029E+02 -0.69733222341E+01  0.16047598664E+02  0.00000000000E+00 0.  1.
</event>
<event>
 7    1  0.8398055E-009  0.4614232E+02  0.7816164E-02  0.1320468E+00
        -11   -1    0    0    0    0  0.00000000000E+00  0.00000000000E+00  0.45593999997E+02  0.45594000000E+02  0.51100000000E-03 0. -1.
         11   -1    0    0    0    0 -0.00000000000E+00 -0.00000000000E+00 -0.45593999997E+02  0.45594000000E+02  0.51100000000E-03 0.  1.
    9900012    2    1    2    0    0 -0.34096981831E+02 -0.70699204823E+01 -0.28574911630E+02  0.46142317407E+02  0.99999967747E+01 0.  0.
         12    1    1    2    0    0  0.34096981831E+02  0.70699204823E+01  0.28574911630E+02  0.45045682593E+02  0.00000000000E+00 0. -1.
         11    1    3    3    0    0 -0.45472585858E+01 -0.26262931790E+01 -0.50707523698E+01  0.72998292011E+01  0.51100000000E-03 0. -1.
        -11    1    3    3    0    0 -0.35837763629E+01 -0.33460122334E+01 -0.31021055233E+01  0.58019229419E+01  0.51100000000E-03 0.  1.
        -12    1    3    3    0    0 -0.25965946882E+02 -0.10976150699E+01 -0.20402053737E+02  0.33040565264E+02  0.00000000000E+00 0.  1.
</event>
<event>
 7    1  0.8398055E-009  0.4614232E+02  0.7816164E-02  0.1320468E+00
        -11   -1    0    0    0    0  0.00000000000E+00  0.00000000000E+00  0.45593999997E+02  0.45594000000E+02  0.51100000000E-03 0.  1.
         11   -1    0    0    0    0 -0.00000000000E+00 -0.00000000000E+00 -0.45593999997E+02  0.45594000000E+02  0.51100000000E-03 0. -1.
    9900012    2    1    2    0    0  0.30737389663E+02 -0.10629097010E+02  0.31166467432E+02  0.46142317424E+02  0.99999969276E+01 0.  0.
        -12    1    1    2    0    0 -0.30737389663E+02  0.10629097010E+02 -0.31166467432E+02  0.45045682576E+02  0.00000000000E+00 0.  1.
         11    1    3    3    0    0  0.16213597030E+02 -0.57389769937E+01  0.18943401628E+02  0.25586501345E+02  0.51100000000E-03 0. -1.
        -11    1    3    3    0    0  0.47092091876E+00 -0.93420557545E+00 -0.52834981882E+00  0.11720325768E+01  0.51100000000E-03 0.  1.
         12    1    3    3    0    0  0.14052871714E+02 -0.39559144412E+01  0.12751415623E+02  0.19383783502E+02  0.00000000000E+00 0. -1.
</event>
<event>
 7    1  0.8398055E-009  0.4614231E+02  0.7816164E-02  0.1320468E+00
        -11   -1    0    0    0    0  0.00000000000E+00  0.00000000000E+00  0.45593999997E+02  0.45594000000E+02  0.51100000000E-03 0. -1.
         11   -1    0    0    0    0 -0.00000000000E+00 -0.00000000000E+00 -0.45593999997E+02  0.45594000000E+02  0.51100000000E-03 0.  1.
    9900012    2    1    2    0    0 -0.26248773920E+02 -0.15121718003E+02 -0.33338405248E+02  0.46142314833E+02  0.99999733025E+01 0.  0.
         12    1    1    2    0    0  0.26248773920E+02  0.15121718003E+02  0.33338405248E+02  0.45045685167E+02  0.00000000000E+00 0. -1.
         11    1    3    3    0    0  0.32028273444E+00 -0.17105967774E+01 -0.17655872359E+01  0.24791169625E+01  0.51100000000E-03 0. -1.
        -11    1    3    3    0    0 -0.51686231156E+01 -0.40285487610E+01 -0.93380509559E+01  0.11408026383E+02  0.51100000000E-03 0.  1.
         12    1    3    3    0    0 -0.21400433539E+02 -0.93825724649E+01 -0.22234767056E+02  0.32255171488E+02  0.00000000000E+00 0. -1.
</event>
<event>
 7    1  0.8398055E-009  0.4614232E+02  0.7816164E-02  0.1320468E+00
        -11   -1    0    0    0    0  0.00000000000E+00  0.00000000000E+00  0.45593999997E+02  0.45594000000E+02  0.51100000000E-03 0. -1.
         11   -1    0    0    0    0 -0.00000000000E+00 -0.00000000000E+00 -0.45593999997E+02  0.45594000000E+02  0.51100000000E-03 0.  1.
    9900012    2    1    2    0    0  0.15668563584E+02  0.38453172915E+02 -0.17463190755E+02  0.46142318482E+02  0.10000006575E+02 0.  0.
         12    1    1    2    0    0 -0.15668563584E+02 -0.38453172915E+02  0.17463190755E+02  0.45045681518E+02  0.00000000000E+00 0. -1.
         11    1    3    3    0    0  0.57883994671E+01  0.14400995247E+02 -0.50084628884E+01  0.16308860575E+02  0.51100000000E-03 0. -1.
        -11    1    3    3    0    0  0.99793285329E+01  0.20555444410E+02 -0.80894626156E+01  0.24239486351E+02  0.51100000000E-03 0.  1.
         12    1    3    3    0    0 -0.99164415580E-01  0.34967332582E+01 -0.43652652512E+01  0.55939715564E+01  0.00000000000E+00 0. -1.
</event>
<event>
 7    1  0.8398055E-009  0.4614232E+02  0.7816164E-02  0.1320468E+00
        -11   -1    0    0    0    0  0.00000000000E+00  0.00000000000E+00  0.45593999997E+02  0.45594000000E+02  0.51100000000E-03 0.  1.
         11   -1    0    0    0    0 -0.00000000000E+00 -0.00000000000E+00 -0.45593999997E+02  0.45594000000E+02  0.51100000000E-03 0. -1.
    9900012    2    1    2    0    0  0.16426121672E+02  0.39964205380E+02 -0.12734140334E+02  0.46142317467E+02  0.99999973165E+01 0.  0.
         12    1    1    2    0    0 -0.16426121672E+02 -0.39964205380E+02  0.12734140334E+02  0.45045682533E+02  0.00000000000E+00 0. -1.
         11    1    3    3    0    0  0.40539294373E+01  0.14306225907E+02 -0.66734681764E+01  0.16298393213E+02  0.51100000000E-03 0. -1.
        -11    1    3    3    0    0  0.13303901641E+01  0.98242264981E+01 -0.23060161219E+01  0.10178559568E+02  0.51100000000E-03 0.  1.
        -12    1    3    3    0    0  0.11041802071E+02  0.15833752975E+02 -0.37546560355E+01  0.19665364685E+02  0.00000000000E+00 0.  1.
</event>
<event>
 7    1  0.8398055E-009  0.4614232E+02  0.7816164E-02  0.1320468E+00
        -11   -1    0    0    0    0  0.00000000000E+00  0.00000000000E+00  0.45593999997E+02  0.45594000000E+02  0.51100000000E-03 0. -1.
         11   -1    0    0    0    0 -0.00000000000E+00 -0.00000000000E+00 -0.45593999997E+02  0.45594000000E+02  0.51100000000E-03 0.  1.
    9900012    2    1    2    0    0  0.40138557515E+01  0.13483017880E+02 -0.42792646780E+02  0.46142318435E+02  0.10000006149E+02 0.  0.
         12    1    1    2    0    0 -0.40138557515E+01 -0.13483017880E+02  0.42792646780E+02  0.45045681565E+02  0.00000000000E+00 0. -1.
         11    1    3    3    0    0  0.25798563234E+01  0.37004178995E+01 -0.37706251633E+01  0.58793167685E+01  0.51100000000E-03 0. -1.
        -11    1    3    3    0    0 -0.23032601417E-01  0.16599385174E+01 -0.71110535428E+01  0.73022605494E+01  0.51100000000E-03 0.  1.
         12    1    3    3    0    0  0.14570320295E+01  0.81226614627E+01 -0.31910968074E+02  0.32960741118E+02  0.00000000000E+00 0. -1.
</event>
<event>
 7    1  0.9476779E-009  0.4614232E+02  0.7816164E-02  0.1320468E+00
        -11   -1    0    0    0    0  0.00000000000E+00  0.00000000000E+00  0.45593999997E+02  0.45594000000E+02  0.51100000000E-03 0. -1.
         11   -1    0    0    0    0 -0.00000000000E+00 -0.00000000000E+00 -0.45593999997E+02  0.45594000000E+02  0.51100000000E-03 0.  1.
    9900012    2    1    2    0    0  0.81897167916E+01 -0.89775088863E+01  0.43375640570E+02  0.46142319610E+02  0.10000016864E+02 0.  0.
        -12    1    1    2    0    0 -0.81897167916E+01  0.89775088863E+01 -0.43375640570E+02  0.45045680390E+02  0.00000000000E+00 0.  1.
         11    1    3    3    0    0 -0.10039695614E+01 -0.50370332020E+00  0.23173118507E+01  0.25751905541E+01  0.51100000000E-03 0. -1.
        -11    1    3    3    0    0  0.23247866190E+01  0.10587315505E+01  0.45924957483E+01  0.52551463137E+01  0.51100000000E-03 0.  1.
         12    1    3    3    0    0  0.68688997341E+01 -0.95325371165E+01  0.36465832971E+02  0.38311982743E+02  0.00000000000E+00 0. -1.
</event>
<event>
 7    1  0.8398055E-009  0.4614232E+02  0.7816164E-02  0.1320468E+00
        -11   -1    0    0    0    0  0.00000000000E+00  0.00000000000E+00  0.45593999997E+02  0.45594000000E+02  0.51100000000E-03 0. -1.
         11   -1    0    0    0    0 -0.00000000000E+00 -0.00000000000E+00 -0.45593999997E+02  0.45594000000E+02  0.51100000000E-03 0.  1.
    9900012    2    1    2    0    0  0.21763857271E+02 -0.14856458163E+02  0.36534006026E+02  0.46142318423E+02  0.10000006031E+02 0.  0.
        -12    1    1    2    0    0 -0.21763857271E+02  0.14856458163E+02 -0.36534006026E+02  0.45045681577E+02  0.00000000000E+00 0.  1.
         11    1    3    3    0    0  0.24392721150E+01 -0.30671954214E+01  0.52777130129E+01  0.65735828216E+01  0.51100000000E-03 0. -1.
        -11    1    3    3    0    0 -0.56069743774E+00  0.42528395473E+00  0.21482986960E+01  0.22606272597E+01  0.51100000000E-03 0.  1.
         12    1    3    3    0    0  0.19885282594E+02 -0.12214546696E+02  0.29107994317E+02  0.37308108341E+02  0.00000000000E+00 0. -1.
</event>
<event>
 7    1  0.8398055E-009  0.4614232E+02  0.7816164E-02  0.1320468E+00
        -11   -1    0    0    0    0  0.00000000000E+00  0.00000000000E+00  0.45593999997E+02  0.45594000000E+02  0.51100000000E-03 0. -1.
         11   -1    0    0    0    0 -0.00000000000E+00 -0.00000000000E+00 -0.45593999997E+02  0.45594000000E+02  0.51100000000E-03 0.  1.
    9900012    2    1    2    0    0  0.18108420367E+02 -0.34523508436E+02 -0.22568247659E+02  0.46142319571E+02  0.10000016507E+02 0.  0.
         12    1    1    2    0    0 -0.18108420367E+02  0.34523508436E+02  0.22568247659E+02  0.45045680429E+02  0.00000000000E+00 0. -1.
         11    1    3    3    0    0 -0.29062957040E+00 -0.10274430593E+01 -0.24219618507E+01  0.26468857653E+01  0.51100000000E-03 0. -1.
        -11    1    3    3    0    0  0.34523815463E+01 -0.88191528154E+01 -0.70763183724E+01  0.11822464916E+02  0.51100000000E-03 0.  1.
        -12    1    3    3    0    0  0.14946668391E+02 -0.24676912561E+02 -0.13069967436E+02  0.31672968890E+02  0.00000000000E+00 0.  1.
</event>
<event>
 7    1  0.8398055E-009  0.4614232E+02  0.7816164E-02  0.1320468E+00
        -11   -1    0    0    0    0  0.00000000000E+00  0.00000000000E+00  0.45593999997E+02  0.45594000000E+02  0.51100000000E-03 0. -1.
         11   -1    0    0    0    0 -0.00000000000E+00 -0.00000000000E+00 -0.45593999997E+02  0.45594000000E+02  0.51100000000E-03 0.  1.
    9900012    2    1    2    0    0 -0.36512381752E+02 -0.24457886893E+02  0.98879321699E+01  0.46142318131E+02  0.10000003372E+02 0.  0.
        -12    1    1    2    0    0  0.36512381752E+02  0.24457886893E+02 -0.98879321699E+01  0.45045681869E+02  0.00000000000E+00 0.  1.
         11    1    3    3    0    0 -0.23893449920E+02 -0.17682487603E+02  0.33612421808E+01  0.29914298691E+02  0.51100000000E-03 0.  1.
        -11    1    3    3    0    0 -0.35975987844E+01 -0.38727974713E+01  0.14700896638E+01  0.54865691601E+01  0.51100000000E-03 0. -1.
        -12    1    3    3    0    0 -0.90213330472E+01 -0.29026018192E+01  0.50566003253E+01  0.10741450280E+02  0.00000000000E+00 0.  1.
</event>
<event>
 7    1  0.8398055E-009  0.4614232E+02  0.7816164E-02  0.1320468E+00
        -11   -1    0    0    0    0  0.00000000000E+00  0.00000000000E+00  0.45593999997E+02  0.45594000000E+02  0.51100000000E-03 0. -1.
         11   -1    0    0    0    0 -0.00000000000E+00 -0.00000000000E+00 -0.45593999997E+02  0.45594000000E+02  0.51100000000E-03 0.  1.
    9900012    2    1    2    0    0 -0.13754741039E+02  0.11784491847E+01  0.42878104830E+02  0.46142317440E+02  0.99999970686E+01 0.  0.
        -12    1    1    2    0    0  0.13754741039E+02 -0.11784491847E+01 -0.42878104830E+02  0.45045682560E+02  0.00000000000E+00 0.  1.
         11    1    3    3    0    0 -0.92398145188E+01 -0.11262918058E+01  0.23327179390E+02  0.25115732204E+02  0.51100000000E-03 0. -1.
        -11    1    3    3    0    0  0.93784002658E+00  0.16607928159E+01  0.27152292346E+01  0.33181691865E+01  0.51100000000E-03 0.  1.
         12    1    3    3    0    0 -0.54527665464E+01  0.64394817466E+00  0.16835696205E+02  0.17708416049E+02  0.00000000000E+00 0. -1.
</event>
<event>
 7    1  0.8398055E-009  0.4614232E+02  0.7816164E-02  0.1320468E+00
        -11   -1    0    0    0    0  0.00000000000E+00  0.00000000000E+00  0.45593999997E+02  0.45594000000E+02  0.51100000000E-03 0. -1.
         11   -1    0    0    0    0 -0.00000000000E+00 -0.00000000000E+00 -0.45593999997E+02  0.45594000000E+02  0.51100000000E-03 0.  1.
    9900012    2    1    2    0    0 -0.83751923249E+00 -0.14127553524E+02  0.42764756278E+02  0.46142316671E+02  0.99999900611E+01 0.  0.
        -12    1    1    2    0    0  0.83751923249E+00  0.14127553524E+02 -0.42764756278E+02  0.45045683329E+02  0.00000000000E+00 0.  1.
         11    1    3    3    0    0  0.16379446858E+01 -0.10507812724E+01  0.23437231534E+01  0.30463162274E+01  0.51100000000E-03 0. -1.
        -11    1    3    3    0    0 -0.19355904897E+01 -0.18166657160E+01  0.15740945249E+02  0.15963212160E+02  0.51100000000E-03 0.  1.
         12    1    3    3    0    0 -0.53987342864E+00 -0.11260106535E+02  0.24680087876E+02  0.27132788284E+02  0.00000000000E+00 0. -1.
</event>
<event>
 7    1  0.8398055E-009  0.4614232E+02  0.7816164E-02  0.1320468E+00
        -11   -1    0    0    0    0  0.00000000000E+00  0.00000000000E+00  0.45593999997E+02  0.45594000000E+02  0.51100000000E-03 0. -1.
         11   -1    0    0    0    0 -0.00000000000E+00 -0.00000000000E+00 -0.45593999997E+02  0.45594000000E+02  0.51100000000E-03 0.  1.
    9900012    2    1    2    0    0  0.21130442016E+02  0.22770524784E+02  0.32620868278E+02  0.46142318454E+02  0.10000006321E+02 0.  0.
        -12    1    1    2    0    0 -0.21130442016E+02 -0.22770524784E+02 -0.32620868278E+02  0.45045681546E+02  0.00000000000E+00 0.  1.
         11    1    3    3    0    0  0.10494948363E+02  0.12275201558E+02  0.19879444619E+02  0.25612825558E+02  0.51100000000E-03 0. -1.
        -11    1    3    3    0    0  0.10677881240E+02  0.82899230871E+01  0.12307239480E+02  0.18281359808E+02  0.51100000000E-03 0.  1.
        -12    1    3    3    0    0 -0.42387586899E-01  0.22054001387E+01  0.43418417823E+00  0.22481330877E+01  0.00000000000E+00 0.  1.
</event>
<event>
 7    1  0.8398055E-009  0.4614232E+02  0.7816164E-02  0.1320468E+00
        -11   -1    0    0    0    0  0.00000000000E+00  0.00000000000E+00  0.45593999997E+02  0.45594000000E+02  0.51100000000E-03 0. -1.
         11   -1    0    0    0    0 -0.00000000000E+00 -0.00000000000E+00 -0.45593999997E+02  0.45594000000E+02  0.51100000000E-03 0.  1.
    9900012    2    1    2    0    0 -0.28143238149E+02  0.10127736121E+02  0.33682348458E+02  0.46142317742E+02  0.99999998272E+01 0.  0.
        -12    1    1    2    0    0  0.28143238149E+02 -0.10127736121E+02 -0.33682348458E+02  0.45045682258E+02  0.00000000000E+00 0.  1.
         11    1    3    3    0    0 -0.13645019925E+02  0.17975799465E+01  0.16457898317E+02  0.21454143648E+02  0.51100000000E-03 0. -1.
        -11    1    3    3    0    0 -0.10617944709E+02  0.38555096956E+01  0.84725434043E+01  0.14120541663E+02  0.51100000000E-03 0.  1.
         12    1    3    3    0    0 -0.38802735146E+01  0.44746464791E+01  0.87519067366E+01  0.10567632431E+02  0.00000000000E+00 0. -1.
</event>
<event>
 7    1  0.8398055E-009  0.4614232E+02  0.7816164E-02  0.1320468E+00
        -11   -1    0    0    0    0  0.00000000000E+00  0.00000000000E+00  0.45593999997E+02  0.45594000000E+02  0.51100000000E-03 0. -1.
         11   -1    0    0    0    0 -0.00000000000E+00 -0.00000000000E+00 -0.45593999997E+02  0.45594000000E+02  0.51100000000E-03 0.  1.
    9900012    2    1    2    0    0 -0.33368269229E+02  0.16226198095E+02 -0.25541772832E+02  0.46142322568E+02  0.10000043832E+02 0.  0.
         12    1    1    2    0    0  0.33368269229E+02 -0.16226198095E+02  0.25541772832E+02  0.45045677432E+02  0.00000000000E+00 0. -1.
         11    1    3    3    0    0 -0.24007442258E+01  0.14910522411E+01 -0.38103717382E+01  0.47440217820E+01  0.51100000000E-03 0. -1.
        -11    1    3    3    0    0 -0.31211310031E+02  0.14099612288E+02 -0.20297971786E+02  0.39811463166E+02  0.51100000000E-03 0.  1.
        -12    1    3    3    0    0  0.24378502792E+00  0.63553356541E+00 -0.14334293077E+01  0.15868376202E+01  0.00000000000E+00 0.  1.
</event>
<event>
 7    1  0.8398055E-009  0.4614232E+02  0.7816164E-02  0.1320468E+00
        -11   -1    0    0    0    0  0.00000000000E+00  0.00000000000E+00  0.45593999997E+02  0.45594000000E+02  0.51100000000E-03 0. -1.
         11   -1    0    0    0    0 -0.00000000000E+00 -0.00000000000E+00 -0.45593999997E+02  0.45594000000E+02  0.51100000000E-03 0.  1.
    9900012    2    1    2    0    0 -0.34900310418E+01  0.13836934801E+02  0.42725546797E+02  0.46142318404E+02  0.10000005861E+02 0.  0.
        -12    1    1    2    0    0  0.34900310418E+01 -0.13836934801E+02 -0.42725546797E+02  0.45045681596E+02  0.00000000000E+00 0.  1.
         11    1    3    3    0    0 -0.15422061331E+01  0.22590124623E+01  0.68894643227E+01  0.74125741802E+01  0.51100000000E-03 0. -1.
        -11    1    3    3    0    0  0.31002961995E+01  0.38031864189E+01  0.17623103722E+02  0.18293437307E+02  0.51100000000E-03 0.  1.
        -12    1    3    3    0    0 -0.50481211081E+01  0.77747359198E+01  0.18212978753E+02  0.20436306917E+02  0.00000000000E+00 0.  1.
</event>
<event>
 7    1  0.8398055E-009  0.4614232E+02  0.7816164E-02  0.1320468E+00
        -11   -1    0    0    0    0  0.00000000000E+00  0.00000000000E+00  0.45593999997E+02  0.45594000000E+02  0.51100000000E-03 0. -1.
         11   -1    0    0    0    0 -0.00000000000E+00 -0.00000000000E+00 -0.45593999997E+02  0.45594000000E+02  0.51100000000E-03 0.  1.
    9900012    2    1    2    0    0  0.22871234756E+02  0.26951858702E+02  0.27921630014E+02  0.46142317749E+02  0.99999998890E+01 0.  0.
        -12    1    1    2    0    0 -0.22871234756E+02 -0.26951858702E+02 -0.27921630014E+02  0.45045682251E+02  0.00000000000E+00 0.  1.
         11    1    3    3    0    0  0.73852832547E+01  0.52900218393E+01  0.79234865337E+01  0.12054392516E+02  0.51100000000E-03 0. -1.
        -11    1    3    3    0    0  0.78760832073E+01  0.59205093062E+01  0.95387238604E+01  0.13713948019E+02  0.51100000000E-03 0.  1.
        -12    1    3    3    0    0  0.76098682943E+01  0.15741327557E+02  0.10459419620E+02  0.20373977214E+02  0.00000000000E+00 0.  1.
</event>
<event>
 7    1  0.8398055E-009  0.4614232E+02  0.7816164E-02  0.1320468E+00
        -11   -1    0    0    0    0  0.00000000000E+00  0.00000000000E+00  0.45593999997E+02  0.45594000000E+02  0.51100000000E-03 0. -1.
         11   -1    0    0    0    0 -0.00000000000E+00 -0.00000000000E+00 -0.45593999997E+02  0.45594000000E+02  0.51100000000E-03 0.  1.
    9900012    2    1    2    0    0  0.42550583115E+02  0.10242214054E+02 -0.10661071325E+02  0.46142317477E+02  0.99999974073E+01 0.  0.
         12    1    1    2    0    0 -0.42550583115E+02 -0.10242214054E+02  0.10661071325E+02  0.45045682523E+02  0.00000000000E+00 0. -1.
         11    1    3    3    0    0  0.23269856973E+01 -0.19635699681E+00 -0.14182637507E+01  0.27321952407E+01  0.51100000000E-03 0. -1.
        -11    1    3    3    0    0  0.57179964556E+01  0.47699133220E+01 -0.15620339717E+01  0.76083839911E+01  0.51100000000E-03 0.  1.
        -12    1    3    3    0    0  0.34505600963E+02  0.56686577284E+01 -0.76807736025E+01  0.35801738245E+02  0.00000000000E+00 0.  1.
</event>
<event>
 7    1  0.8398055E-009  0.4614232E+02  0.7816164E-02  0.1320468E+00
        -11   -1    0    0    0    0  0.00000000000E+00  0.00000000000E+00  0.45593999997E+02  0.45594000000E+02  0.51100000000E-03 0.  1.
         11   -1    0    0    0    0 -0.00000000000E+00 -0.00000000000E+00 -0.45593999997E+02  0.45594000000E+02  0.51100000000E-03 0. -1.
    9900012    2    1    2    0    0  0.42472231184E+02 -0.13144002658E+02  0.72428075907E+01  0.46142317750E+02  0.99999998964E+01 0.  0.
         12    1    1    2    0    0 -0.42472231184E+02  0.13144002658E+02 -0.72428075907E+01  0.45045682250E+02  0.00000000000E+00 0. -1.
         11    1    3    3    0    0  0.10575514226E+02 -0.45074411956E+00  0.48542303502E+01  0.11645094417E+02  0.51100000000E-03 0.  1.
        -11    1    3    3    0    0  0.33515449072E+01 -0.75331625244E+00 -0.24343254557E+00  0.34437767504E+01  0.51100000000E-03 0. -1.
        -12    1    3    3    0    0  0.28545172050E+02 -0.11939942286E+02  0.26320097860E+01  0.31053446583E+02  0.00000000000E+00 0.  1.
</event>
<event>
 7    1  0.8398055E-009  0.4614232E+02  0.7816164E-02  0.1320468E+00
        -11   -1    0    0    0    0  0.00000000000E+00  0.00000000000E+00  0.45593999997E+02  0.45594000000E+02  0.51100000000E-03 0. -1.
         11   -1    0    0    0    0 -0.00000000000E+00 -0.00000000000E+00 -0.45593999997E+02  0.45594000000E+02  0.51100000000E-03 0.  1.
    9900012    2    1    2    0    0  0.63373534974E+01  0.25910154504E+01 -0.44522331541E+02  0.46142318562E+02  0.10000007301E+02 0.  0.
         12    1    1    2    0    0 -0.63373534974E+01 -0.25910154504E+01  0.44522331541E+02  0.45045681438E+02  0.00000000000E+00 0. -1.
         11    1    3    3    0    0 -0.19842630001E+01  0.20849362771E+01 -0.76865728893E+01  0.82077805756E+01  0.51100000000E-03 0. -1.
        -11    1    3    3    0    0  0.15309726649E+01 -0.12936560423E+01 -0.68770975818E+01  0.71632321383E+01  0.51100000000E-03 0.  1.
        -12    1    3    3    0    0  0.67906438326E+01  0.17997352155E+01 -0.29958661069E+02  0.30771305848E+02  0.00000000000E+00 0.  1.
</event>
<event>
 7    1  0.8398055E-009  0.4614232E+02  0.7816164E-02  0.1320468E+00
        -11   -1    0    0    0    0  0.00000000000E+00  0.00000000000E+00  0.45593999997E+02  0.45594000000E+02  0.51100000000E-03 0. -1.
         11   -1    0    0    0    0 -0.00000000000E+00 -0.00000000000E+00 -0.45593999997E+02  0.45594000000E+02  0.51100000000E-03 0.  1.
    9900012    2    1    2    0    0  0.14194665122E+02 -0.17189767200E+02  0.39142519256E+02  0.46142318431E+02  0.10000006107E+02 0.  0.
        -12    1    1    2    0    0 -0.14194665122E+02  0.17189767200E+02 -0.39142519256E+02  0.45045681569E+02  0.00000000000E+00 0.  1.
         11    1    3    3    0    0  0.41423478843E+01 -0.73633582050E+01  0.12076499818E+02  0.14738383160E+02  0.51100000000E-03 0. -1.
        -11    1    3    3    0    0 -0.35663698353E-01 -0.12731287765E+01  0.85788014750E+01  0.86728290534E+01  0.51100000000E-03 0.  1.
        -12    1    3    3    0    0  0.10087980936E+02 -0.85532802187E+01  0.18487217963E+02  0.22731106218E+02  0.00000000000E+00 0.  1.
</event>
<event>
 7    1  0.8398055E-009  0.4614232E+02  0.7816164E-02  0.1320468E+00
        -11   -1    0    0    0    0  0.00000000000E+00  0.00000000000E+00  0.45593999997E+02  0.45594000000E+02  0.51100000000E-03 0. -1.
         11   -1    0    0    0    0 -0.00000000000E+00 -0.00000000000E+00 -0.45593999997E+02  0.45594000000E+02  0.51100000000E-03 0.  1.
    9900012    2    1    2    0    0  0.32971644698E+02 -0.88886629101E+01 -0.29376449684E+02  0.46142317871E+02  0.10000001000E+02 0.  0.
         12    1    1    2    0    0 -0.32971644698E+02  0.88886629101E+01  0.29376449684E+02  0.45045682129E+02  0.00000000000E+00 0. -1.
         11    1    3    3    0    0  0.17160140612E+02 -0.12587894437E+01 -0.10391964297E+02  0.20100942737E+02  0.51100000000E-03 0. -1.
        -11    1    3    3    0    0  0.74926453129E+01 -0.26758692721E+01 -0.67105938323E+01  0.10408269788E+02  0.51100000000E-03 0.  1.
         12    1    3    3    0    0  0.83188587735E+01 -0.49540041944E+01 -0.12273891555E+02  0.15633105346E+02  0.00000000000E+00 0. -1.
</event>
<event>
 7    1  0.8398055E-009  0.4614232E+02  0.7816164E-02  0.1320468E+00
        -11   -1    0    0    0    0  0.00000000000E+00  0.00000000000E+00  0.45593999997E+02  0.45594000000E+02  0.51100000000E-03 0.  1.
         11   -1    0    0    0    0 -0.00000000000E+00 -0.00000000000E+00 -0.45593999997E+02  0.45594000000E+02  0.51100000000E-03 0. -1.
    9900012    2    1    2    0    0 -0.27823376352E+02  0.33726662353E+02  0.10839074823E+02  0.46142316876E+02  0.99999919308E+01 0.  0.
        -12    1    1    2    0    0  0.27823376352E+02 -0.33726662353E+02 -0.10839074823E+02  0.45045683124E+02  0.00000000000E+00 0.  1.
         11    1    3    3    0    0 -0.32303723123E+01  0.19353443545E+01 -0.31787100630E+00  0.37791408130E+01  0.51100000000E-03 0. -1.
        -11    1    3    3    0    0  0.15198858858E+00  0.25631699423E+01  0.56301804505E+00  0.26286746212E+01  0.51100000000E-03 0.  1.
         12    1    3    3    0    0 -0.24744992628E+02  0.29228148056E+02  0.10593927784E+02  0.39734501442E+02  0.00000000000E+00 0. -1.
</event>
<event>
 7    1  0.8398055E-009  0.4614232E+02  0.7816164E-02  0.1320468E+00
        -11   -1    0    0    0    0  0.00000000000E+00  0.00000000000E+00  0.45593999997E+02  0.45594000000E+02  0.51100000000E-03 0. -1.
         11   -1    0    0    0    0 -0.00000000000E+00 -0.00000000000E+00 -0.45593999997E+02  0.45594000000E+02  0.51100000000E-03 0.  1.
    9900012    2    1    2    0    0 -0.14401128866E+02  0.30511727304E+02  0.29845525916E+02  0.46142318377E+02  0.10000005615E+02 0.  0.
        -12    1    1    2    0    0  0.14401128866E+02 -0.30511727304E+02 -0.29845525916E+02  0.45045681623E+02  0.00000000000E+00 0.  1.
         11    1    3    3    0    0 -0.78343349028E+01  0.20076305769E+02  0.22024869129E+02  0.30814440074E+02  0.51100000000E-03 0. -1.
        -11    1    3    3    0    0  0.14068090568E+00  0.16331613080E+00 -0.47272568170E+00  0.51955087052E+00  0.51100000000E-03 0.  1.
         12    1    3    3    0    0 -0.67074748688E+01  0.10272105405E+02  0.82933824686E+01  0.14808327432E+02  0.00000000000E+00 0. -1.
</event>
<event>
 7    1  0.8398055E-009  0.4614232E+02  0.7816164E-02  0.1320468E+00
        -11   -1    0    0    0    0  0.00000000000E+00  0.00000000000E+00  0.45593999997E+02  0.45594000000E+02  0.51100000000E-03 0. -1.
         11   -1    0    0    0    0 -0.00000000000E+00 -0.00000000000E+00 -0.45593999997E+02  0.45594000000E+02  0.51100000000E-03 0.  1.
    9900012    2    1    2    0    0  0.41923659648E+02  0.20706447768E+01  0.16347255559E+02  0.46142316829E+02  0.99999914992E+01 0.  0.
        -12    1    1    2    0    0 -0.41923659648E+02 -0.20706447768E+01 -0.16347255559E+02  0.45045683171E+02  0.00000000000E+00 0.  1.
         11    1    3    3    0    0  0.10080075998E+02  0.18940693803E+01  0.21645491007E+00  0.10258766199E+02  0.51100000000E-03 0. -1.
        -11    1    3    3    0    0  0.17648833621E+01 -0.52780948108E+00  0.23923641818E+00  0.18575872672E+01  0.51100000000E-03 0.  1.
         12    1    3    3    0    0  0.30078700288E+02  0.70438487756E+00  0.15891564231E+02  0.34025963363E+02  0.00000000000E+00 0. -1.
</event>
<event>
 7    1  0.8398055E-009  0.4614232E+02  0.7816164E-02  0.1320468E+00
        -11   -1    0    0    0    0  0.00000000000E+00  0.00000000000E+00  0.45593999997E+02  0.45594000000E+02  0.51100000000E-03 0. -1.
         11   -1    0    0    0    0 -0.00000000000E+00 -0.00000000000E+00 -0.45593999997E+02  0.45594000000E+02  0.51100000000E-03 0.  1.
    9900012    2    1    2    0    0  0.26492911046E+02  0.93177871600E+01  0.35219568498E+02  0.46142317649E+02  0.99999989768E+01 0.  0.
        -12    1    1    2    0    0 -0.26492911046E+02 -0.93177871600E+01 -0.35219568498E+02  0.45045682351E+02  0.00000000000E+00 0.  1.
         11    1    3    3    0    0  0.60479004035E+01  0.17073159710E+00  0.57323382391E+01  0.83346235978E+01  0.51100000000E-03 0. -1.
        -11    1    3    3    0    0  0.52760555273E+01  0.51709085133E+00  0.30100660912E+01  0.60962810803E+01  0.51100000000E-03 0.  1.
        -12    1    3    3    0    0  0.15168955115E+02  0.86299647116E+01  0.26477164168E+02  0.31711412971E+02  0.00000000000E+00 0.  1.
</event>
<event>
 7    1  0.1080220E-008  0.4614231E+02  0.7816164E-02  0.1320468E+00
        -11   -1    0    0    0    0  0.00000000000E+00  0.00000000000E+00  0.45593999997E+02  0.45594000000E+02  0.51100000000E-03 0. -1.
         11   -1    0    0    0    0 -0.00000000000E+00 -0.00000000000E+00 -0.45593999997E+02  0.45594000000E+02  0.51100000000E-03 0.  1.
    9900012    2    1    2    0    0  0.11387012672E+02  0.25610505580E+02 -0.35264028868E+02  0.46142314461E+02  0.99999699093E+01 0.  0.
         12    1    1    2    0    0 -0.11387012672E+02 -0.25610505580E+02  0.35264028868E+02  0.45045685539E+02  0.00000000000E+00 0. -1.
         11    1    3    3    0    0  0.78334426165E-02  0.51809155809E+01 -0.38073710131E+01  0.64294651342E+01  0.51100000000E-03 0. -1.
        -11    1    3    3    0    0  0.67481349095E+00  0.16683239020E+00 -0.34790721851E+01  0.35478373447E+01  0.51100000000E-03 0.  1.
        -12    1    3    3    0    0  0.10704365738E+02  0.20262757609E+02 -0.27977585669E+02  0.36165011982E+02  0.00000000000E+00 0.  1.
</event>
<event>
 7    1  0.8398055E-009  0.4614232E+02  0.7816164E-02  0.1320468E+00
        -11   -1    0    0    0    0  0.00000000000E+00  0.00000000000E+00  0.45593999997E+02  0.45594000000E+02  0.51100000000E-03 0. -1.
         11   -1    0    0    0    0 -0.00000000000E+00 -0.00000000000E+00 -0.45593999997E+02  0.45594000000E+02  0.51100000000E-03 0.  1.
    9900012    2    1    2    0    0 -0.18454459977E+02  0.36793893543E+02  0.18296331283E+02  0.46142318370E+02  0.10000005550E+02 0.  0.
        -12    1    1    2    0    0  0.18454459977E+02 -0.36793893543E+02 -0.18296331283E+02  0.45045681630E+02  0.00000000000E+00 0.  1.
         11    1    3    3    0    0 -0.57008744447E+01  0.19063783518E+02  0.95333440493E+01  0.22063826968E+02  0.51100000000E-03 0. -1.
        -11    1    3    3    0    0 -0.30254129215E+01  0.13326314851E+01  0.70880797809E+00  0.33810411165E+01  0.51100000000E-03 0.  1.
         12    1    3    3    0    0 -0.97281726104E+01  0.16397478540E+02  0.80541792558E+01  0.20697450285E+02  0.00000000000E+00 0. -1.
</event>
<event>
 7    1  0.8880998E-009  0.4614232E+02  0.7816164E-02  0.1320468E+00
        -11   -1    0    0    0    0  0.00000000000E+00  0.00000000000E+00  0.45593999997E+02  0.45594000000E+02  0.51100000000E-03 0.  1.
         11   -1    0    0    0    0 -0.00000000000E+00 -0.00000000000E+00 -0.45593999997E+02  0.45594000000E+02  0.51100000000E-03 0. -1.
    9900012    2    1    2    0    0 -0.91539935783E+01 -0.13041479769E+02 -0.42133569497E+02  0.46142317948E+02  0.10000001704E+02 0.  0.
         12    1    1    2    0    0  0.91539935783E+01  0.13041479769E+02  0.42133569497E+02  0.45045682052E+02  0.00000000000E+00 0. -1.
         11    1    3    3    0    0  0.11843013989E+01 -0.31284967480E+01 -0.51773015430E+01  0.61639689514E+01  0.51100000000E-03 0.  1.
        -11    1    3    3    0    0 -0.49821277041E+00 -0.15698382472E+01 -0.95060820610E+01  0.96477046233E+01  0.51100000000E-03 0. -1.
        -12    1    3    3    0    0 -0.98400822068E+01 -0.83431447741E+01 -0.27450185893E+02  0.30330644373E+02  0.00000000000E+00 0.  1.
</event>
<event>
 7    1  0.8398055E-009  0.4614232E+02  0.7816164E-02  0.1320468E+00
        -11   -1    0    0    0    0  0.00000000000E+00  0.00000000000E+00  0.45593999997E+02  0.45594000000E+02  0.51100000000E-03 0. -1.
         11   -1    0    0    0    0 -0.00000000000E+00 -0.00000000000E+00 -0.45593999997E+02  0.45594000000E+02  0.51100000000E-03 0.  1.
    9900012    2    1    2    0    0 -0.41489374957E+01 -0.92301575357E+01 -0.43894235432E+02  0.46142318802E+02  0.10000009489E+02 0.  0.
         12    1    1    2    0    0  0.41489374957E+01  0.92301575357E+01  0.43894235432E+02  0.45045681198E+02  0.00000000000E+00 0. -1.
         11    1    3    3    0    0 -0.23185102732E+01 -0.67449225187E+01 -0.13711559036E+02  0.15455624256E+02  0.51100000000E-03 0. -1.
        -11    1    3    3    0    0 -0.23717075005E+01 -0.31972015152E+01 -0.28540330522E+02  0.28816619520E+02  0.51100000000E-03 0.  1.
         12    1    3    3    0    0  0.54128027801E+00  0.71196649831E+00 -0.16423458731E+01  0.18700750255E+01  0.00000000000E+00 0. -1.
</event>
<event>
 7    1  0.8398055E-009  0.4614232E+02  0.7816164E-02  0.1320468E+00
        -11   -1    0    0    0    0  0.00000000000E+00  0.00000000000E+00  0.45593999997E+02  0.45594000000E+02  0.51100000000E-03 0. -1.
         11   -1    0    0    0    0 -0.00000000000E+00 -0.00000000000E+00 -0.45593999997E+02  0.45594000000E+02  0.51100000000E-03 0.  1.
    9900012    2    1    2    0    0  0.53458885184E+01  0.44288399169E+02  0.62508113759E+01  0.46142317989E+02  0.10000002078E+02 0.  0.
         12    1    1    2    0    0 -0.53458885184E+01 -0.44288399169E+02 -0.62508113759E+01  0.45045682011E+02  0.00000000000E+00 0. -1.
         11    1    3    3    0    0  0.26166899283E+01  0.11578459255E+02  0.54056860477E+01  0.13043359491E+02  0.51100000000E-03 0. -1.
        -11    1    3    3    0    0  0.11832871562E+00  0.16750819501E+02  0.20836174913E+01  0.16880326352E+02  0.51100000000E-03 0.  1.
        -12    1    3    3    0    0  0.26108698745E+01  0.15959120413E+02 -0.12384921631E+01  0.16218632146E+02  0.00000000000E+00 0.  1.
</event>
<event>
 7    1  0.8398055E-009  0.4614232E+02  0.7816164E-02  0.1320468E+00
        -11   -1    0    0    0    0  0.00000000000E+00  0.00000000000E+00  0.45593999997E+02  0.45594000000E+02  0.51100000000E-03 0.  1.
         11   -1    0    0    0    0 -0.00000000000E+00 -0.00000000000E+00 -0.45593999997E+02  0.45594000000E+02  0.51100000000E-03 0. -1.
    9900012    2    1    2    0    0  0.40812241500E+02 -0.16759522013E+02  0.90880615728E+01  0.46142317660E+02  0.99999990775E+01 0.  0.
         12    1    1    2    0    0 -0.40812241500E+02  0.16759522013E+02 -0.90880615728E+01  0.45045682340E+02  0.00000000000E+00 0. -1.
         11    1    3    3    0    0  0.73834122681E+01 -0.59805084592E+01  0.31217346914E+01  0.10001324207E+02  0.51100000000E-03 0. -1.
        -11    1    3    3    0    0  0.70054267572E+00  0.34666791022E+00 -0.56148360497E+00  0.96239429563E+00  0.51100000000E-03 0.  1.
        -12    1    3    3    0    0  0.32728286556E+02 -0.11125681464E+02  0.65278104864E+01  0.35178599157E+02  0.00000000000E+00 0.  1.
</event>
<event>
 7    1  0.8398055E-009  0.4614232E+02  0.7816164E-02  0.1320468E+00
        -11   -1    0    0    0    0  0.00000000000E+00  0.00000000000E+00  0.45593999997E+02  0.45594000000E+02  0.51100000000E-03 0. -1.
         11   -1    0    0    0    0 -0.00000000000E+00 -0.00000000000E+00 -0.45593999997E+02  0.45594000000E+02  0.51100000000E-03 0.  1.
    9900012    2    1    2    0    0 -0.24756995507E+02 -0.27252951839E+02 -0.25951517921E+02  0.46142317710E+02  0.99999995384E+01 0.  0.
         12    1    1    2    0    0  0.24756995507E+02  0.27252951839E+02  0.25951517921E+02  0.45045682290E+02  0.00000000000E+00 0. -1.
         11    1    3    3    0    0 -0.14027078033E+02 -0.17055639271E+02 -0.17744047157E+02  0.28328518473E+02  0.51100000000E-03 0.  1.
        -11    1    3    3    0    0 -0.18757064960E+01 -0.33687565800E+01 -0.47333071491E+01  0.61049973451E+01  0.51100000000E-03 0. -1.
         12    1    3    3    0    0 -0.88542109784E+01 -0.68285559882E+01 -0.34741636148E+01  0.11708801892E+02  0.00000000000E+00 0. -1.
</event>
<event>
 7    1  0.8398055E-009  0.4614232E+02  0.7816164E-02  0.1320468E+00
        -11   -1    0    0    0    0  0.00000000000E+00  0.00000000000E+00  0.45593999997E+02  0.45594000000E+02  0.51100000000E-03 0. -1.
         11   -1    0    0    0    0 -0.00000000000E+00 -0.00000000000E+00 -0.45593999997E+02  0.45594000000E+02  0.51100000000E-03 0.  1.
    9900012    2    1    2    0    0  0.20545962144E+01 -0.15290577431E+02  0.42321275879E+02  0.46142317457E+02  0.99999972249E+01 0.  0.
        -12    1    1    2    0    0 -0.20545962144E+01  0.15290577431E+02 -0.42321275879E+02  0.45045682543E+02  0.00000000000E+00 0.  1.
         11    1    3    3    0    0 -0.61043288018E+00 -0.39969011543E+01  0.17866775624E+02  0.18318556674E+02  0.51100000000E-03 0. -1.
        -11    1    3    3    0    0  0.43467006317E+01 -0.10553027027E+02  0.20493162505E+02  0.23456979676E+02  0.51100000000E-03 0.  1.
        -12    1    3    3    0    0 -0.16816715371E+01 -0.74064924994E+00  0.39613377494E+01  0.43667811068E+01  0.00000000000E+00 0.  1.
</event>
<event>
 7    1  0.8398055E-009  0.4614231E+02  0.7816164E-02  0.1320468E+00
        -11   -1    0    0    0    0  0.00000000000E+00  0.00000000000E+00  0.45593999997E+02  0.45594000000E+02  0.51100000000E-03 0. -1.
         11   -1    0    0    0    0 -0.00000000000E+00 -0.00000000000E+00 -0.45593999997E+02  0.45594000000E+02  0.51100000000E-03 0.  1.
    9900012    2    1    2    0    0 -0.30328424104E+02  0.17708589911E+02  0.28208272572E+02  0.46142310897E+02  0.99999374067E+01 0.  0.
        -12    1    1    2    0    0  0.30328424104E+02 -0.17708589911E+02 -0.28208272572E+02  0.45045689103E+02  0.00000000000E+00 0.  1.
         11    1    3    3    0    0 -0.51309592514E+01  0.20436529819E+01  0.26409504419E+01  0.61219179877E+01  0.51100000000E-03 0. -1.
        -11    1    3    3    0    0  0.51349226536E+00  0.51201438146E+00  0.46330201628E-02  0.72515843745E+00  0.51100000000E-03 0.  1.
         12    1    3    3    0    0 -0.25710957118E+02  0.15152922548E+02  0.25562689110E+02  0.39295234472E+02  0.00000000000E+00 0. -1.
</event>
<event>
 7    1  0.8398055E-009  0.4614232E+02  0.7816164E-02  0.1320468E+00
        -11   -1    0    0    0    0  0.00000000000E+00  0.00000000000E+00  0.45593999997E+02  0.45594000000E+02  0.51100000000E-03 0. -1.
         11   -1    0    0    0    0 -0.00000000000E+00 -0.00000000000E+00 -0.45593999997E+02  0.45594000000E+02  0.51100000000E-03 0.  1.
    9900012    2    1    2    0    0 -0.10592208511E+02 -0.20847344735E+02  0.38500739164E+02  0.46142316746E+02  0.99999907432E+01 0.  0.
        -12    1    1    2    0    0  0.10592208511E+02  0.20847344735E+02 -0.38500739164E+02  0.45045683254E+02  0.00000000000E+00 0.  1.
         11    1    3    3    0    0  0.34743847668E+00 -0.56351649456E+01  0.71975498564E+01  0.91477058138E+01  0.51100000000E-03 0. -1.
        -11    1    3    3    0    0  0.42867671578E-01 -0.23673622065E+01  0.17271693835E+01  0.29307602759E+01  0.51100000000E-03 0.  1.
         12    1    3    3    0    0 -0.10982514659E+02 -0.12844817583E+02  0.29576019924E+02  0.34063850656E+02  0.00000000000E+00 0. -1.
</event>
<event>
 7    1  0.8398055E-009  0.4614231E+02  0.7816164E-02  0.1320468E+00
        -11   -1    0    0    0    0  0.00000000000E+00  0.00000000000E+00  0.45593999997E+02  0.45594000000E+02  0.51100000000E-03 0. -1.
         11   -1    0    0    0    0 -0.00000000000E+00 -0.00000000000E+00 -0.45593999997E+02  0.45594000000E+02  0.51100000000E-03 0.  1.
    9900012    2    1    2    0    0  0.25492225522E+02 -0.66557358085E+01 -0.36537127675E+02  0.46142311194E+02  0.99999401192E+01 0.  0.
         12    1    1    2    0    0 -0.25492225522E+02  0.66557358085E+01  0.36537127675E+02  0.45045688806E+02  0.00000000000E+00 0. -1.
         11    1    3    3    0    0  0.31390359210E+01 -0.26435071925E+01 -0.11240625815E+02  0.11966342205E+02  0.51100000000E-03 0. -1.
        -11    1    3    3    0    0  0.91394885019E+01 -0.14533225617E+01 -0.12912094627E+02  0.15885987047E+02  0.51100000000E-03 0.  1.
         12    1    3    3    0    0  0.13213701099E+02 -0.25589060542E+01 -0.12384407233E+02  0.18289981942E+02  0.00000000000E+00 0. -1.
</event>
<event>
 7    1  0.8398055E-009  0.4614232E+02  0.7816164E-02  0.1320468E+00
        -11   -1    0    0    0    0  0.00000000000E+00  0.00000000000E+00  0.45593999997E+02  0.45594000000E+02  0.51100000000E-03 0. -1.
         11   -1    0    0    0    0 -0.00000000000E+00 -0.00000000000E+00 -0.45593999997E+02  0.45594000000E+02  0.51100000000E-03 0.  1.
    9900012    2    1    2    0    0  0.70933289924E+01  0.15964861577E+02  0.41520132618E+02  0.46142317255E+02  0.99999953837E+01 0.  0.
        -12    1    1    2    0    0 -0.70933289924E+01 -0.15964861577E+02 -0.41520132618E+02  0.45045682745E+02  0.00000000000E+00 0.  1.
         11    1    3    3    0    0 -0.18696496132E+01  0.10558839672E+01  0.31171711315E+01  0.37851336506E+01  0.51100000000E-03 0. -1.
        -11    1    3    3    0    0  0.58998327271E-01  0.26570697923E+01  0.45244842844E+01  0.52473287476E+01  0.51100000000E-03 0.  1.
         12    1    3    3    0    0  0.89039802783E+01  0.12251907817E+02  0.33878477202E+02  0.37109854857E+02  0.00000000000E+00 0. -1.
</event>
<event>
 7    1  0.8398055E-009  0.4614232E+02  0.7816164E-02  0.1320468E+00
        -11   -1    0    0    0    0  0.00000000000E+00  0.00000000000E+00  0.45593999997E+02  0.45594000000E+02  0.51100000000E-03 0. -1.
         11   -1    0    0    0    0 -0.00000000000E+00 -0.00000000000E+00 -0.45593999997E+02  0.45594000000E+02  0.51100000000E-03 0.  1.
    9900012    2    1    2    0    0 -0.15733795233E+02 -0.33014155780E+02  0.26298796238E+02  0.46142317877E+02  0.10000001059E+02 0.  0.
        -12    1    1    2    0    0  0.15733795233E+02  0.33014155780E+02 -0.26298796238E+02  0.45045682123E+02  0.00000000000E+00 0.  1.
         11    1    3    3    0    0 -0.10426555393E+02 -0.15907547626E+02  0.16613880549E+02  0.25254388846E+02  0.51100000000E-03 0. -1.
        -11    1    3    3    0    0  0.12073120701E+00 -0.12635036108E+01 -0.40964019643E+00  0.13337251406E+01  0.51100000000E-03 0.  1.
        -12    1    3    3    0    0 -0.54279710472E+01 -0.15843104544E+02  0.10094555886E+02  0.19554203891E+02  0.00000000000E+00 0.  1.
</event>
<event>
 7    1  0.1140330E-008  0.4614232E+02  0.7816164E-02  0.1320468E+00
        -11   -1    0    0    0    0  0.00000000000E+00  0.00000000000E+00  0.45593999997E+02  0.45594000000E+02  0.51100000000E-03 0. -1.
         11   -1    0    0    0    0 -0.00000000000E+00 -0.00000000000E+00 -0.45593999997E+02  0.45594000000E+02  0.51100000000E-03 0.  1.
    9900012    2    1    2    0    0 -0.33511031863E+02 -0.79284186173E+01 -0.29039015171E+02  0.46142317850E+02  0.10000000807E+02 0.  0.
         12    1    1    2    0    0  0.33511031863E+02  0.79284186173E+01  0.29039015171E+02  0.45045682150E+02  0.00000000000E+00 0. -1.
         11    1    3    3    0    0 -0.39095238923E+01  0.44198910286E+00 -0.61973025921E+01  0.73407282412E+01  0.51100000000E-03 0. -1.
        -11    1    3    3    0    0 -0.44562793232E+01 -0.11594350664E+01 -0.64726387376E+01  0.79434103235E+01  0.51100000000E-03 0.  1.
        -12    1    3    3    0    0 -0.25145228648E+02 -0.72109726537E+01 -0.16369073841E+02  0.30858179285E+02  0.00000000000E+00 0.  1.
</event>
<event>
 7    1  0.8398055E-009  0.4614232E+02  0.7816164E-02  0.1320468E+00
        -11   -1    0    0    0    0  0.00000000000E+00  0.00000000000E+00  0.45593999997E+02  0.45594000000E+02  0.51100000000E-03 0. -1.
         11   -1    0    0    0    0 -0.00000000000E+00 -0.00000000000E+00 -0.45593999997E+02  0.45594000000E+02  0.51100000000E-03 0.  1.
    9900012    2    1    2    0    0  0.23949026676E+02 -0.16957235113E+02 -0.34176157091E+02  0.46142318576E+02  0.10000007431E+02 0.  0.
         12    1    1    2    0    0 -0.23949026676E+02  0.16957235113E+02  0.34176157091E+02  0.45045681424E+02  0.00000000000E+00 0. -1.
         11    1    3    3    0    0 -0.22115399498E+00 -0.49383713120E+00  0.82046176253E-01  0.54728058417E+00  0.51100000000E-03 0. -1.
        -11    1    3    3    0    0  0.19293632818E+02 -0.15770109260E+02 -0.26255266376E+02  0.36197784823E+02  0.51100000000E-03 0.  1.
         12    1    3    3    0    0  0.48765478533E+01 -0.69328872153E+00 -0.80029368918E+01  0.93972531684E+01  0.00000000000E+00 0. -1.
</event>
<event>
 7    1  0.8398055E-009  0.4614232E+02  0.7816164E-02  0.1320468E+00
        -11   -1    0    0    0    0  0.00000000000E+00  0.00000000000E+00  0.45593999997E+02  0.45594000000E+02  0.51100000000E-03 0. -1.
         11   -1    0    0    0    0 -0.00000000000E+00 -0.00000000000E+00 -0.45593999997E+02  0.45594000000E+02  0.51100000000E-03 0.  1.
    9900012    2    1    2    0    0 -0.32976171128E+02  0.26260771563E+02  0.15876316291E+02  0.46142318694E+02  0.10000008509E+02 0.  0.
        -12    1    1    2    0    0  0.32976171128E+02 -0.26260771563E+02 -0.15876316291E+02  0.45045681306E+02  0.00000000000E+00 0.  1.
         11    1    3    3    0    0 -0.11732511453E+02  0.61139872129E+01  0.74595712972E+01  0.15188083119E+02  0.51100000000E-03 0. -1.
        -11    1    3    3    0    0 -0.50527787215E+01  0.22307457633E+01  0.26551265319E+01  0.61283355513E+01  0.51100000000E-03 0.  1.
         12    1    3    3    0    0 -0.16190880953E+02  0.17916038587E+02  0.57616184618E+01  0.24825900024E+02  0.00000000000E+00 0. -1.
</event>
<event>
 7    1  0.8398055E-009  0.4614232E+02  0.7816164E-02  0.1320468E+00
        -11   -1    0    0    0    0  0.00000000000E+00  0.00000000000E+00  0.45593999997E+02  0.45594000000E+02  0.51100000000E-03 0. -1.
         11   -1    0    0    0    0 -0.00000000000E+00 -0.00000000000E+00 -0.45593999997E+02  0.45594000000E+02  0.51100000000E-03 0.  1.
    9900012    2    1    2    0    0  0.58982602464E+01  0.35845649898E+02 -0.26634810680E+02  0.46142320623E+02  0.10000026101E+02 0.  0.
         12    1    1    2    0    0 -0.58982602464E+01 -0.35845649898E+02  0.26634810680E+02  0.45045679377E+02  0.00000000000E+00 0. -1.
         11    1    3    3    0    0  0.24164054748E+01  0.20738333382E+02 -0.17063093781E+02  0.26964173574E+02  0.51100000000E-03 0. -1.
        -11    1    3    3    0    0  0.48280187434E+01  0.10952873097E+02 -0.85020248390E+01  0.14681948804E+02  0.51100000000E-03 0.  1.
         12    1    3    3    0    0 -0.13461639718E+01  0.41544434184E+01 -0.10696920603E+01  0.44961982451E+01  0.00000000000E+00 0. -1.
</event>
<event>
 7    1  0.8398055E-009  0.4614232E+02  0.7816164E-02  0.1320468E+00
        -11   -1    0    0    0    0  0.00000000000E+00  0.00000000000E+00  0.45593999997E+02  0.45594000000E+02  0.51100000000E-03 0. -1.
         11   -1    0    0    0    0 -0.00000000000E+00 -0.00000000000E+00 -0.45593999997E+02  0.45594000000E+02  0.51100000000E-03 0.  1.
    9900012    2    1    2    0    0 -0.32066320759E+01 -0.38116371900E+02 -0.23790191534E+02  0.46142317529E+02  0.99999978812E+01 0.  0.
         12    1    1    2    0    0  0.32066320759E+01  0.38116371900E+02  0.23790191534E+02  0.45045682471E+02  0.00000000000E+00 0. -1.
         11    1    3    3    0    0 -0.74639227082E+00 -0.10625952102E+02 -0.35104735262E+01  0.11215675821E+02  0.51100000000E-03 0. -1.
        -11    1    3    3    0    0  0.12063804383E+01 -0.20331797809E+02 -0.15195568117E+02  0.25411466833E+02  0.51100000000E-03 0.  1.
         12    1    3    3    0    0 -0.36666202435E+01 -0.71586219889E+01 -0.50841498906E+01  0.95151748749E+01  0.00000000000E+00 0. -1.
</event>
<event>
 7    1  0.8398055E-009  0.4614232E+02  0.7816164E-02  0.1320468E+00
        -11   -1    0    0    0    0  0.00000000000E+00  0.00000000000E+00  0.45593999997E+02  0.45594000000E+02  0.51100000000E-03 0. -1.
         11   -1    0    0    0    0 -0.00000000000E+00 -0.00000000000E+00 -0.45593999997E+02  0.45594000000E+02  0.51100000000E-03 0.  1.
    9900012    2    1    2    0    0 -0.41686228206E+02  0.42108898416E+01 -0.16542075095E+02  0.46142318035E+02  0.10000002494E+02 0.  0.
         12    1    1    2    0    0  0.41686228206E+02 -0.42108898416E+01  0.16542075095E+02  0.45045681965E+02  0.00000000000E+00 0. -1.
         11    1    3    3    0    0 -0.14180113777E+01  0.95392787107E+00  0.28229437991E+00  0.17321734984E+01  0.51100000000E-03 0. -1.
        -11    1    3    3    0    0 -0.12028920988E+02  0.80146732816E+00 -0.13922066893E+01  0.12135712989E+02  0.51100000000E-03 0.  1.
        -12    1    3    3    0    0 -0.28239295839E+02  0.24554946423E+01 -0.15432162786E+02  0.32274431547E+02  0.00000000000E+00 0.  1.
</event>
<event>
 7    1  0.8398055E-009  0.4614232E+02  0.7816164E-02  0.1320468E+00
        -11   -1    0    0    0    0  0.00000000000E+00  0.00000000000E+00  0.45593999997E+02  0.45594000000E+02  0.51100000000E-03 0.  1.
         11   -1    0    0    0    0 -0.00000000000E+00 -0.00000000000E+00 -0.45593999997E+02  0.45594000000E+02  0.51100000000E-03 0. -1.
    9900012    2    1    2    0    0  0.44220740255E+02 -0.74229111548E+01  0.43058267670E+01  0.46142316268E+02  0.99999863831E+01 0.  0.
         12    1    1    2    0    0 -0.44220740255E+02  0.74229111548E+01 -0.43058267670E+01  0.45045683732E+02  0.00000000000E+00 0. -1.
         11    1    3    3    0    0  0.35400415007E+01 -0.19009103294E+01  0.10193673896E+01  0.41454148216E+01  0.51100000000E-03 0. -1.
        -11    1    3    3    0    0  0.36847542057E+02 -0.73108457139E+01  0.22030872763E+01  0.37630352304E+02  0.51100000000E-03 0.  1.
        -12    1    3    3    0    0  0.38331566977E+01  0.17888448884E+01  0.10833721011E+01  0.43665491424E+01  0.00000000000E+00 0.  1.
</event>
<event>
 7    1  0.8398055E-009  0.4614232E+02  0.7816164E-02  0.1320468E+00
        -11   -1    0    0    0    0  0.00000000000E+00  0.00000000000E+00  0.45593999997E+02  0.45594000000E+02  0.51100000000E-03 0. -1.
         11   -1    0    0    0    0 -0.00000000000E+00 -0.00000000000E+00 -0.45593999997E+02  0.45594000000E+02  0.51100000000E-03 0.  1.
    9900012    2    1    2    0    0  0.28144176922E+01 -0.16300346352E+02 -0.41898584885E+02  0.46142315928E+02  0.99999832821E+01 0.  0.
         12    1    1    2    0    0 -0.28144176922E+01  0.16300346352E+02  0.41898584885E+02  0.45045684072E+02  0.00000000000E+00 0. -1.
         11    1    3    3    0    0 -0.71799299852E+00 -0.48961574768E+00 -0.60178461099E+01  0.60802721641E+01  0.51100000000E-03 0. -1.
        -11    1    3    3    0    0 -0.23093431087E+01 -0.53100391005E+01 -0.10962566474E+02  0.12397880657E+02  0.51100000000E-03 0.  1.
         12    1    3    3    0    0  0.58417537995E+01 -0.10500691504E+02 -0.24918172302E+02  0.27664163106E+02  0.00000000000E+00 0. -1.
</event>
<event>
 7    1  0.8398055E-009  0.4614232E+02  0.7816164E-02  0.1320468E+00
        -11   -1    0    0    0    0  0.00000000000E+00  0.00000000000E+00  0.45593999997E+02  0.45594000000E+02  0.51100000000E-03 0. -1.
         11   -1    0    0    0    0 -0.00000000000E+00 -0.00000000000E+00 -0.45593999997E+02  0.45594000000E+02  0.51100000000E-03 0.  1.
    9900012    2    1    2    0    0  0.23110319018E+02  0.66499804582E+01  0.38089425609E+02  0.46142318426E+02  0.10000006065E+02 0.  0.
        -12    1    1    2    0    0 -0.23110319018E+02 -0.66499804582E+01 -0.38089425609E+02  0.45045681574E+02  0.00000000000E+00 0.  1.
         11    1    3    3    0    0  0.11470473868E+02 -0.97281115292E+00  0.20686738011E+02  0.23674020826E+02  0.51100000000E-03 0.  1.
        -11    1    3    3    0    0  0.52507446776E+01  0.42830597519E+01  0.10436016080E+02  0.12442883604E+02  0.51100000000E-03 0. -1.
        -12    1    3    3    0    0  0.63891004727E+01  0.33397318591E+01  0.69666715186E+01  0.10025413996E+02  0.00000000000E+00 0.  1.
</event>
<event>
 7    1  0.8398055E-009  0.4614232E+02  0.7816164E-02  0.1320468E+00
        -11   -1    0    0    0    0  0.00000000000E+00  0.00000000000E+00  0.45593999997E+02  0.45594000000E+02  0.51100000000E-03 0.  1.
         11   -1    0    0    0    0 -0.00000000000E+00 -0.00000000000E+00 -0.45593999997E+02  0.45594000000E+02  0.51100000000E-03 0. -1.
    9900012    2    1    2    0    0 -0.28904898689E+02 -0.32620949064E+02 -0.11379547252E+02  0.46142316725E+02  0.99999905534E+01 0.  0.
        -12    1    1    2    0    0  0.28904898689E+02  0.32620949064E+02  0.11379547252E+02  0.45045683275E+02  0.00000000000E+00 0.  1.
         11    1    3    3    0    0 -0.47664863733E+01 -0.27569938487E+01 -0.29633419363E+01  0.62531434592E+01  0.51100000000E-03 0. -1.
        -11    1    3    3    0    0 -0.16943687397E+02 -0.21929776458E+02 -0.29644450431E+01  0.27870980836E+02  0.51100000000E-03 0.  1.
        -12    1    3    3    0    0 -0.71947249183E+01 -0.79341787573E+01 -0.54517602730E+01  0.12018192430E+02  0.00000000000E+00 0.  1.
</event>
<event>
 7    1  0.8398055E-009  0.4614232E+02  0.7816164E-02  0.1320468E+00
        -11   -1    0    0    0    0  0.00000000000E+00  0.00000000000E+00  0.45593999997E+02  0.45594000000E+02  0.51100000000E-03 0. -1.
         11   -1    0    0    0    0 -0.00000000000E+00 -0.00000000000E+00 -0.45593999997E+02  0.45594000000E+02  0.51100000000E-03 0.  1.
    9900012    2    1    2    0    0  0.17690179834E+02 -0.12853121240E+02 -0.39382335474E+02  0.46142317238E+02  0.99999952286E+01 0.  0.
         12    1    1    2    0    0 -0.17690179834E+02  0.12853121240E+02  0.39382335474E+02  0.45045682762E+02  0.00000000000E+00 0. -1.
         11    1    3    3    0    0  0.29447625231E+01 -0.18268326928E+01 -0.11174542694E+02  0.11699544807E+02  0.51100000000E-03 0. -1.
        -11    1    3    3    0    0 -0.46209636029E+00 -0.19531971941E+01 -0.36604209349E+01  0.41745890825E+01  0.51100000000E-03 0.  1.
        -12    1    3    3    0    0  0.15207513671E+02 -0.90730913530E+01 -0.24547371845E+02  0.30268183349E+02  0.00000000000E+00 0.  1.
</event>
<event>
 7    1  0.8398055E-009  0.4614232E+02  0.7816164E-02  0.1320468E+00
        -11   -1    0    0    0    0  0.00000000000E+00  0.00000000000E+00  0.45593999997E+02  0.45594000000E+02  0.51100000000E-03 0. -1.
         11   -1    0    0    0    0 -0.00000000000E+00 -0.00000000000E+00 -0.45593999997E+02  0.45594000000E+02  0.51100000000E-03 0.  1.
    9900012    2    1    2    0    0  0.63414418509E+01  0.29677541342E+02  0.33288784648E+02  0.46142317319E+02  0.99999959709E+01 0.  0.
        -12    1    1    2    0    0 -0.63414418509E+01 -0.29677541342E+02 -0.33288784648E+02  0.45045682681E+02  0.00000000000E+00 0.  1.
         11    1    3    3    0    0  0.48702123251E+00  0.19271781255E+01  0.54449858024E+01  0.57964709831E+01  0.51100000000E-03 0. -1.
        -11    1    3    3    0    0  0.12082108500E+00  0.40304096717E+01  0.11812932590E+01  0.42016965479E+01  0.51100000000E-03 0.  1.
         12    1    3    3    0    0  0.57335995334E+01  0.23719953545E+02  0.26662505586E+02  0.36144149788E+02  0.00000000000E+00 0. -1.
</event>
<event>
 7    1  0.8398055E-009  0.4614232E+02  0.7816164E-02  0.1320468E+00
        -11   -1    0    0    0    0  0.00000000000E+00  0.00000000000E+00  0.45593999997E+02  0.45594000000E+02  0.51100000000E-03 0. -1.
         11   -1    0    0    0    0 -0.00000000000E+00 -0.00000000000E+00 -0.45593999997E+02  0.45594000000E+02  0.51100000000E-03 0.  1.
    9900012    2    1    2    0    0 -0.28772369476E+02 -0.16615063130E+02 -0.30417163763E+02  0.46142318526E+02  0.10000006979E+02 0.  0.
         12    1    1    2    0    0  0.28772369476E+02  0.16615063130E+02  0.30417163763E+02  0.45045681474E+02  0.00000000000E+00 0. -1.
         11    1    3    3    0    0 -0.16587309939E+02 -0.78312171366E+01 -0.18709978873E+02  0.26201719839E+02  0.51100000000E-03 0. -1.
        -11    1    3    3    0    0 -0.10100708677E+02 -0.53395910017E+01 -0.58568874541E+01  0.12838951622E+02  0.51100000000E-03 0.  1.
        -12    1    3    3    0    0 -0.20843508602E+01 -0.34442549913E+01 -0.58502974363E+01  0.71016470657E+01  0.00000000000E+00 0.  1.
</event>
<event>
 7    1  0.8398055E-009  0.4614232E+02  0.7816164E-02  0.1320468E+00
        -11   -1    0    0    0    0  0.00000000000E+00  0.00000000000E+00  0.45593999997E+02  0.45594000000E+02  0.51100000000E-03 0. -1.
         11   -1    0    0    0    0 -0.00000000000E+00 -0.00000000000E+00 -0.45593999997E+02  0.45594000000E+02  0.51100000000E-03 0.  1.
    9900012    2    1    2    0    0 -0.11197583420E+02 -0.26067067325E+02  0.34989077757E+02  0.46142318346E+02  0.10000005337E+02 0.  0.
        -12    1    1    2    0    0  0.11197583420E+02  0.26067067325E+02 -0.34989077757E+02  0.45045681654E+02  0.00000000000E+00 0.  1.
         11    1    3    3    0    0 -0.38314447418E+01 -0.13485097822E+02  0.15751478534E+02  0.21086415256E+02  0.51100000000E-03 0.  1.
        -11    1    3    3    0    0 -0.51235289386E+01 -0.12576427042E+02  0.14815602898E+02  0.20097740058E+02  0.51100000000E-03 0. -1.
        -12    1    3    3    0    0 -0.22426097392E+01 -0.55424603538E-02  0.44219963245E+01  0.49581630323E+01  0.00000000000E+00 0.  1.
</event>
<event>
 7    1  0.8398055E-009  0.4614232E+02  0.7816164E-02  0.1320468E+00
        -11   -1    0    0    0    0  0.00000000000E+00  0.00000000000E+00  0.45593999997E+02  0.45594000000E+02  0.51100000000E-03 0.  1.
         11   -1    0    0    0    0 -0.00000000000E+00 -0.00000000000E+00 -0.45593999997E+02  0.45594000000E+02  0.51100000000E-03 0. -1.
    9900012    2    1    2    0    0 -0.43605964433E+02 -0.88256396177E+01 -0.70527622675E+01  0.46142317584E+02  0.99999983810E+01 0.  0.
         12    1    1    2    0    0  0.43605964433E+02  0.88256396177E+01  0.70527622675E+01  0.45045682416E+02  0.00000000000E+00 0. -1.
         11    1    3    3    0    0 -0.18087964103E+02 -0.52928432324E+01 -0.51734306768E+01  0.19543618398E+02  0.51100000000E-03 0. -1.
        -11    1    3    3    0    0 -0.24559381849E+02 -0.36597893101E+01 -0.40296903660E+00  0.24833841405E+02  0.51100000000E-03 0.  1.
         12    1    3    3    0    0 -0.95861848057E+00  0.12699292481E+00 -0.14763625542E+01  0.17648577806E+01  0.00000000000E+00 0. -1.
</event>
<event>
 7    1  0.8398055E-009  0.4614232E+02  0.7816164E-02  0.1320468E+00
        -11   -1    0    0    0    0  0.00000000000E+00  0.00000000000E+00  0.45593999997E+02  0.45594000000E+02  0.51100000000E-03 0. -1.
         11   -1    0    0    0    0 -0.00000000000E+00 -0.00000000000E+00 -0.45593999997E+02  0.45594000000E+02  0.51100000000E-03 0.  1.
    9900012    2    1    2    0    0  0.16743235975E+00 -0.17049346355E+02  0.41694187860E+02  0.46142317122E+02  0.99999941675E+01 0.  0.
        -12    1    1    2    0    0 -0.16743235975E+00  0.17049346355E+02 -0.41694187860E+02  0.45045682878E+02  0.00000000000E+00 0.  1.
         11    1    3    3    0    0 -0.16776210806E+01 -0.32269145183E+01  0.97181550153E+01  0.10376412047E+02  0.51100000000E-03 0. -1.
        -11    1    3    3    0    0  0.46646546003E+01 -0.88474988424E+01  0.23514783782E+02  0.25553518248E+02  0.51100000000E-03 0.  1.
         12    1    3    3    0    0 -0.28196011600E+01 -0.49749329938E+01  0.84612490626E+01  0.10212386827E+02  0.00000000000E+00 0. -1.
</event>
<event>
 7    1  0.8398055E-009  0.4614232E+02  0.7816164E-02  0.1320468E+00
        -11   -1    0    0    0    0  0.00000000000E+00  0.00000000000E+00  0.45593999997E+02  0.45594000000E+02  0.51100000000E-03 0. -1.
         11   -1    0    0    0    0 -0.00000000000E+00 -0.00000000000E+00 -0.45593999997E+02  0.45594000000E+02  0.51100000000E-03 0.  1.
    9900012    2    1    2    0    0 -0.23531101626E+02  0.20306594330E+02 -0.32604341843E+02  0.46142316255E+02  0.99999862676E+01 0.  0.
         12    1    1    2    0    0  0.23531101626E+02 -0.20306594330E+02  0.32604341843E+02  0.45045683745E+02  0.00000000000E+00 0. -1.
         11    1    3    3    0    0 -0.16690508773E+02  0.10078111311E+02 -0.15921810385E+02  0.25172315286E+02  0.51100000000E-03 0. -1.
        -11    1    3    3    0    0 -0.24626664843E+01  0.46175212735E+01 -0.95755109631E+01  0.10912224310E+02  0.51100000000E-03 0.  1.
        -12    1    3    3    0    0 -0.43779263691E+01  0.56109617448E+01 -0.71070204958E+01  0.10057776659E+02  0.00000000000E+00 0.  1.
</event>
<event>
 7    1  0.8398055E-009  0.4614232E+02  0.7816164E-02  0.1320468E+00
        -11   -1    0    0    0    0  0.00000000000E+00  0.00000000000E+00  0.45593999997E+02  0.45594000000E+02  0.51100000000E-03 0. -1.
         11   -1    0    0    0    0 -0.00000000000E+00 -0.00000000000E+00 -0.45593999997E+02  0.45594000000E+02  0.51100000000E-03 0.  1.
    9900012    2    1    2    0    0  0.35669260132E+02 -0.15125094270E+02 -0.22979319632E+02  0.46142315125E+02  0.99999759660E+01 0.  0.
         12    1    1    2    0    0 -0.35669260132E+02  0.15125094270E+02  0.22979319632E+02  0.45045684875E+02  0.00000000000E+00 0. -1.
         11    1    3    3    0    0  0.98697476330E+01 -0.76412539718E+00 -0.55362875825E+01  0.11342234631E+02  0.51100000000E-03 0. -1.
        -11    1    3    3    0    0  0.26136226869E+01  0.27815702024E+00 -0.91317063259E+00  0.27824945180E+01  0.51100000000E-03 0.  1.
         12    1    3    3    0    0  0.23185889812E+02 -0.14639125893E+02 -0.16529861417E+02  0.32017585977E+02  0.00000000000E+00 0. -1.
</event>
<event>
 7    1  0.8398055E-009  0.4614232E+02  0.7816164E-02  0.1320468E+00
        -11   -1    0    0    0    0  0.00000000000E+00  0.00000000000E+00  0.45593999997E+02  0.45594000000E+02  0.51100000000E-03 0. -1.
         11   -1    0    0    0    0 -0.00000000000E+00 -0.00000000000E+00 -0.45593999997E+02  0.45594000000E+02  0.51100000000E-03 0.  1.
    9900012    2    1    2    0    0  0.36301699852E+02  0.21010845488E+02 -0.16426943877E+02  0.46142317349E+02  0.99999962458E+01 0.  0.
         12    1    1    2    0    0 -0.36301699852E+02 -0.21010845488E+02  0.16426943877E+02  0.45045682651E+02  0.00000000000E+00 0. -1.
         11    1    3    3    0    0  0.13468601965E+00  0.15678726049E+01 -0.30928905708E+00  0.16037533511E+01  0.51100000000E-03 0. -1.
        -11    1    3    3    0    0  0.31258369415E+02  0.16397771760E+02 -0.16014135547E+02  0.38761128915E+02  0.51100000000E-03 0.  1.
         12    1    3    3    0    0  0.49086444178E+01  0.30452011238E+01 -0.10351927296E+00  0.57774350835E+01  0.00000000000E+00 0. -1.
</event>
<event>
 7    1  0.8398055E-009  0.4614232E+02  0.7816164E-02  0.1320468E+00
        -11   -1    0    0    0    0  0.00000000000E+00  0.00000000000E+00  0.45593999997E+02  0.45594000000E+02  0.51100000000E-03 0. -1.
         11   -1    0    0    0    0 -0.00000000000E+00 -0.00000000000E+00 -0.45593999997E+02  0.45594000000E+02  0.51100000000E-03 0.  1.
    9900012    2    1    2    0    0  0.30982572485E+02  0.12959183376E+02 -0.30020882103E+02  0.46142316591E+02  0.99999893263E+01 0.  0.
         12    1    1    2    0    0 -0.30982572485E+02 -0.12959183376E+02  0.30020882103E+02  0.45045683409E+02  0.00000000000E+00 0. -1.
         11    1    3    3    0    0  0.54685928430E+01  0.40192743506E+01 -0.40132681478E+01  0.78845669175E+01  0.51100000000E-03 0. -1.
        -11    1    3    3    0    0  0.87562789464E+01 -0.35690379532E-01 -0.10862086586E+02  0.13952011327E+02  0.51100000000E-03 0.  1.
        -12    1    3    3    0    0  0.16757700695E+02  0.89755994048E+01 -0.15145527370E+02  0.24305738347E+02  0.00000000000E+00 0.  1.
</event>
<event>
 7    1  0.8398055E-009  0.4614232E+02  0.7816164E-02  0.1320468E+00
        -11   -1    0    0    0    0  0.00000000000E+00  0.00000000000E+00  0.45593999997E+02  0.45594000000E+02  0.51100000000E-03 0.  1.
         11   -1    0    0    0    0 -0.00000000000E+00 -0.00000000000E+00 -0.45593999997E+02  0.45594000000E+02  0.51100000000E-03 0. -1.
    9900012    2    1    2    0    0  0.32223831212E+02  0.30726928238E+02 -0.68260000429E+01  0.46142315484E+02  0.99999792338E+01 0.  0.
        -12    1    1    2    0    0 -0.32223831212E+02 -0.30726928238E+02  0.68260000429E+01  0.45045684516E+02  0.00000000000E+00 0.  1.
         11    1    3    3    0    0  0.19437818063E+02  0.20323314650E+02 -0.17365627677E+01  0.28175903533E+02  0.51100000000E-03 0. -1.
        -11    1    3    3    0    0  0.37295348367E+01  0.38426079877E+01 -0.40906501028E+01  0.67385818071E+01  0.51100000000E-03 0.  1.
        -12    1    3    3    0    0  0.90564783125E+01  0.65610056005E+01 -0.99878717238E+00  0.11227830143E+02  0.00000000000E+00 0.  1.
</event>
<event>
 7    1  0.8398055E-009  0.4614232E+02  0.7816164E-02  0.1320468E+00
        -11   -1    0    0    0    0  0.00000000000E+00  0.00000000000E+00  0.45593999997E+02  0.45594000000E+02  0.51100000000E-03 0.  1.
         11   -1    0    0    0    0 -0.00000000000E+00 -0.00000000000E+00 -0.45593999997E+02  0.45594000000E+02  0.51100000000E-03 0. -1.
    9900012    2    1    2    0    0 -0.23446303252E+02  0.28877822312E+02 -0.25405821317E+02  0.46142317471E+02  0.99999973588E+01 0.  0.
        -12    1    1    2    0    0  0.23446303252E+02 -0.28877822312E+02  0.25405821317E+02  0.45045682529E+02  0.00000000000E+00 0.  1.
         11    1    3    3    0    0 -0.59138780491E+01  0.47148227878E+01 -0.92433362612E+01  0.11943314992E+02  0.51100000000E-03 0. -1.
        -11    1    3    3    0    0 -0.40499853000E+01  0.36206110087E+01 -0.42197703991E+01  0.68787838670E+01  0.51100000000E-03 0.  1.
        -12    1    3    3    0    0 -0.13482439903E+02  0.20542388516E+02 -0.11942714656E+02  0.27320218612E+02  0.00000000000E+00 0.  1.
</event>
<event>
 7    1  0.8398055E-009  0.4614232E+02  0.7816164E-02  0.1320468E+00
        -11   -1    0    0    0    0  0.00000000000E+00  0.00000000000E+00  0.45593999997E+02  0.45594000000E+02  0.51100000000E-03 0. -1.
         11   -1    0    0    0    0 -0.00000000000E+00 -0.00000000000E+00 -0.45593999997E+02  0.45594000000E+02  0.51100000000E-03 0.  1.
    9900012    2    1    2    0    0  0.13664246626E+02  0.12077478533E+02  0.41189031850E+02  0.46142317984E+02  0.10000002033E+02 0.  0.
        -12    1    1    2    0    0 -0.13664246626E+02 -0.12077478533E+02 -0.41189031850E+02  0.45045682016E+02  0.00000000000E+00 0.  1.
         11    1    3    3    0    0  0.40317254061E+01  0.74613211786E+01  0.19111932218E+02  0.20909138597E+02  0.51100000000E-03 0. -1.
        -11    1    3    3    0    0  0.25654425764E+01  0.37087679672E+00  0.11680162553E+02  0.11964332106E+02  0.51100000000E-03 0.  1.
         12    1    3    3    0    0  0.70670786440E+01  0.42452805575E+01  0.10396937079E+02  0.13268847282E+02  0.00000000000E+00 0. -1.
</event>
<event>
 7    1  0.8398055E-009  0.4614232E+02  0.7816164E-02  0.1320468E+00
        -11   -1    0    0    0    0  0.00000000000E+00  0.00000000000E+00  0.45593999997E+02  0.45594000000E+02  0.51100000000E-03 0. -1.
         11   -1    0    0    0    0 -0.00000000000E+00 -0.00000000000E+00 -0.45593999997E+02  0.45594000000E+02  0.51100000000E-03 0.  1.
    9900012    2    1    2    0    0 -0.34418271149E+02  0.15793407410E+02  0.24393942153E+02  0.46142317407E+02  0.99999967707E+01 0.  0.
        -12    1    1    2    0    0  0.34418271149E+02 -0.15793407410E+02 -0.24393942153E+02  0.45045682593E+02  0.00000000000E+00 0.  1.
         11    1    3    3    0    0 -0.25945726063E+02  0.11869265429E+02  0.21856268914E+02  0.35941016317E+02  0.51100000000E-03 0. -1.
        -11    1    3    3    0    0 -0.36391414137E+00  0.94258744467E+00  0.10085314993E+01  0.14275996075E+01  0.51100000000E-03 0.  1.
        -12    1    3    3    0    0 -0.81086309448E+01  0.29815545364E+01  0.15291417393E+01  0.87737014829E+01  0.00000000000E+00 0.  1.
</event>
<event>
 7    1  0.8398055E-009  0.4614232E+02  0.7816164E-02  0.1320468E+00
        -11   -1    0    0    0    0  0.00000000000E+00  0.00000000000E+00  0.45593999997E+02  0.45594000000E+02  0.51100000000E-03 0. -1.
         11   -1    0    0    0    0 -0.00000000000E+00 -0.00000000000E+00 -0.45593999997E+02  0.45594000000E+02  0.51100000000E-03 0.  1.
    9900012    2    1    2    0    0  0.14761778294E+02 -0.15217165146E+02  0.39744702259E+02  0.46142316842E+02  0.99999916202E+01 0.  0.
        -12    1    1    2    0    0 -0.14761778294E+02  0.15217165146E+02 -0.39744702259E+02  0.45045683158E+02  0.00000000000E+00 0.  1.
         11    1    3    3    0    0  0.11904009181E+02 -0.10155077677E+02  0.23518617002E+02  0.28248121763E+02  0.51100000000E-03 0. -1.
        -11    1    3    3    0    0  0.34128768251E+01 -0.52142136526E+01  0.11049492574E+02  0.12685702134E+02  0.51100000000E-03 0.  1.
        -12    1    3    3    0    0 -0.55510771158E+00  0.15212618344E+00  0.51765926831E+01  0.52084929445E+01  0.00000000000E+00 0.  1.
</event>
<event>
 7    1  0.8398055E-009  0.4614232E+02  0.7816164E-02  0.1320468E+00
        -11   -1    0    0    0    0  0.00000000000E+00  0.00000000000E+00  0.45593999997E+02  0.45594000000E+02  0.51100000000E-03 0.  1.
         11   -1    0    0    0    0 -0.00000000000E+00 -0.00000000000E+00 -0.45593999997E+02  0.45594000000E+02  0.51100000000E-03 0. -1.
    9900012    2    1    2    0    0 -0.28229397380E+02  0.34697118933E+02 -0.53220839475E+01  0.46142317452E+02  0.99999971815E+01 0.  0.
        -12    1    1    2    0    0  0.28229397380E+02 -0.34697118933E+02  0.53220839475E+01  0.45045682548E+02  0.00000000000E+00 0.  1.
         11    1    3    3    0    0 -0.38883299845E+01  0.93495869088E+01  0.17559219199E+01  0.10277020360E+02  0.51100000000E-03 0.  1.
        -11    1    3    3    0    0 -0.92583558706E+01  0.10406724879E+02 -0.26808921613E+01  0.14184648715E+02  0.51100000000E-03 0. -1.
        -12    1    3    3    0    0 -0.15082711525E+02  0.14940807145E+02 -0.43971137060E+01  0.21680648377E+02  0.00000000000E+00 0.  1.
</event>
<event>
 7    1  0.8398055E-009  0.4614232E+02  0.7816164E-02  0.1320468E+00
        -11   -1    0    0    0    0  0.00000000000E+00  0.00000000000E+00  0.45593999997E+02  0.45594000000E+02  0.51100000000E-03 0. -1.
         11   -1    0    0    0    0 -0.00000000000E+00 -0.00000000000E+00 -0.45593999997E+02  0.45594000000E+02  0.51100000000E-03 0.  1.
    9900012    2    1    2    0    0  0.37686889896E+02 -0.16495612731E+02  0.18349566565E+02  0.46142317604E+02  0.99999985646E+01 0.  0.
        -12    1    1    2    0    0 -0.37686889896E+02  0.16495612731E+02 -0.18349566565E+02  0.45045682396E+02  0.00000000000E+00 0.  1.
         11    1    3    3    0    0  0.32058936158E+01  0.77817560478E+00  0.89433823352E+00  0.34180626508E+01  0.51100000000E-03 0. -1.
        -11    1    3    3    0    0  0.20232390322E+02 -0.12424676208E+02  0.12779128789E+02  0.26963462869E+02  0.51100000000E-03 0.  1.
        -12    1    3    3    0    0  0.14248605958E+02 -0.48491121279E+01  0.46760995428E+01  0.15760792084E+02  0.00000000000E+00 0.  1.
</event>
<event>
 7    1  0.8398055E-009  0.4614232E+02  0.7816164E-02  0.1320468E+00
        -11   -1    0    0    0    0  0.00000000000E+00  0.00000000000E+00  0.45593999997E+02  0.45594000000E+02  0.51100000000E-03 0. -1.
         11   -1    0    0    0    0 -0.00000000000E+00 -0.00000000000E+00 -0.45593999997E+02  0.45594000000E+02  0.51100000000E-03 0.  1.
    9900012    2    1    2    0    0 -0.28183230292E+02  0.18886242817E+02 -0.29633238768E+02  0.46142317884E+02  0.10000001122E+02 0.  0.
         12    1    1    2    0    0  0.28183230292E+02 -0.18886242817E+02  0.29633238768E+02  0.45045682116E+02  0.00000000000E+00 0. -1.
         11    1    3    3    0    0 -0.24072703399E+01  0.47870851055E+01 -0.66925011864E+01  0.85732553145E+01  0.51100000000E-03 0. -1.
        -11    1    3    3    0    0 -0.17156130633E+02  0.70114893509E+01 -0.15447534222E+02  0.24127165499E+02  0.51100000000E-03 0.  1.
        -12    1    3    3    0    0 -0.86198293185E+01  0.70876683603E+01 -0.74932033593E+01  0.13441897070E+02  0.00000000000E+00 0.  1.
</event>
<event>
 7    1  0.8398055E-009  0.4614232E+02  0.7816164E-02  0.1320468E+00
        -11   -1    0    0    0    0  0.00000000000E+00  0.00000000000E+00  0.45593999997E+02  0.45594000000E+02  0.51100000000E-03 0. -1.
         11   -1    0    0    0    0 -0.00000000000E+00 -0.00000000000E+00 -0.45593999997E+02  0.45594000000E+02  0.51100000000E-03 0.  1.
    9900012    2    1    2    0    0  0.34291453430E+02  0.17778403268E+02 -0.23176240130E+02  0.46142317547E+02  0.99999980506E+01 0.  0.
         12    1    1    2    0    0 -0.34291453430E+02 -0.17778403268E+02  0.23176240130E+02  0.45045682453E+02  0.00000000000E+00 0. -1.
         11    1    3    3    0    0  0.31877421168E+01 -0.84652926516E+00 -0.22694154725E+01  0.40035682144E+01  0.51100000000E-03 0.  1.
        -11    1    3    3    0    0  0.13442511011E+02  0.67569936552E+01 -0.61999857536E+01  0.16272611627E+02  0.51100000000E-03 0. -1.
        -12    1    3    3    0    0  0.17661200302E+02  0.11867938878E+02 -0.14706838904E+02  0.25866137706E+02  0.00000000000E+00 0.  1.
</event>
<event>
 7    1  0.8398055E-009  0.4614232E+02  0.7816164E-02  0.1320468E+00
        -11   -1    0    0    0    0  0.00000000000E+00  0.00000000000E+00  0.45593999997E+02  0.45594000000E+02  0.51100000000E-03 0. -1.
         11   -1    0    0    0    0 -0.00000000000E+00 -0.00000000000E+00 -0.45593999997E+02  0.45594000000E+02  0.51100000000E-03 0.  1.
    9900012    2    1    2    0    0  0.29247814975E+01  0.87330687733E+01  0.44094134860E+02  0.46142316899E+02  0.99999921366E+01 0.  0.
        -12    1    1    2    0    0 -0.29247814975E+01 -0.87330687733E+01 -0.44094134860E+02  0.45045683101E+02  0.00000000000E+00 0.  1.
         11    1    3    3    0    0 -0.17678098497E+01  0.34125243883E+01  0.19911029440E+02  0.20278549455E+02  0.51100000000E-03 0. -1.
        -11    1    3    3    0    0 -0.72150560773E-01  0.42137258428E+01  0.96687265713E+01  0.10547272868E+02  0.51100000000E-03 0.  1.
        -12    1    3    3    0    0  0.47647419080E+01  0.11068185422E+01  0.14514378849E+02  0.15316494576E+02  0.00000000000E+00 0.  1.
</event>
<event>
 7    1  0.8398055E-009  0.4614232E+02  0.7816164E-02  0.1320468E+00
        -11   -1    0    0    0    0  0.00000000000E+00  0.00000000000E+00  0.45593999997E+02  0.45594000000E+02  0.51100000000E-03 0. -1.
         11   -1    0    0    0    0 -0.00000000000E+00 -0.00000000000E+00 -0.45593999997E+02  0.45594000000E+02  0.51100000000E-03 0.  1.
    9900012    2    1    2    0    0  0.29973815600E+01  0.27259501896E+02 -0.35735819639E+02  0.46142317131E+02  0.99999942545E+01 0.  0.
         12    1    1    2    0    0 -0.29973815600E+01 -0.27259501896E+02  0.35735819639E+02  0.45045682869E+02  0.00000000000E+00 0. -1.
         11    1    3    3    0    0  0.49637050630E+00  0.67165250636E+01 -0.14215570939E+02  0.15730243164E+02  0.51100000000E-03 0.  1.
        -11    1    3    3    0    0 -0.18714249364E-01  0.32496734202E+01 -0.69001471359E+01  0.76271068118E+01  0.51100000000E-03 0. -1.
         12    1    3    3    0    0  0.25197253030E+01  0.17293303412E+02 -0.14620101564E+02  0.22784967155E+02  0.00000000000E+00 0. -1.
</event>
<event>
 7    1  0.8398055E-009  0.4614232E+02  0.7816164E-02  0.1320468E+00
        -11   -1    0    0    0    0  0.00000000000E+00  0.00000000000E+00  0.45593999997E+02  0.45594000000E+02  0.51100000000E-03 0. -1.
         11   -1    0    0    0    0 -0.00000000000E+00 -0.00000000000E+00 -0.45593999997E+02  0.45594000000E+02  0.51100000000E-03 0.  1.
    9900012    2    1    2    0    0  0.26006621944E+02  0.17622066745E+02  0.32283616902E+02  0.46142317170E+02  0.99999946116E+01 0.  0.
        -12    1    1    2    0    0 -0.26006621944E+02 -0.17622066745E+02 -0.32283616902E+02  0.45045682830E+02  0.00000000000E+00 0.  1.
         11    1    3    3    0    0  0.39288448066E+01  0.74726946097E+00  0.87299015148E+01  0.96023650149E+01  0.51100000000E-03 0. -1.
        -11    1    3    3    0    0  0.54165884961E+01  0.57597302840E+01  0.67568650408E+01  0.10400439862E+02  0.51100000000E-03 0.  1.
         12    1    3    3    0    0  0.16661188642E+02  0.11115067000E+02  0.16796850346E+02  0.26139512293E+02  0.00000000000E+00 0. -1.
</event>
<event>
 7    1  0.8398055E-009  0.4614232E+02  0.7816164E-02  0.1320468E+00
        -11   -1    0    0    0    0  0.00000000000E+00  0.00000000000E+00  0.45593999997E+02  0.45594000000E+02  0.51100000000E-03 0. -1.
         11   -1    0    0    0    0 -0.00000000000E+00 -0.00000000000E+00 -0.45593999997E+02  0.45594000000E+02  0.51100000000E-03 0.  1.
    9900012    2    1    2    0    0 -0.11632143496E+01 -0.13489708705E+02  0.42962636827E+02  0.46142317946E+02  0.10000001688E+02 0.  0.
        -12    1    1    2    0    0  0.11632143496E+01  0.13489708705E+02 -0.42962636827E+02  0.45045682054E+02  0.00000000000E+00 0.  1.
         11    1    3    3    0    0  0.72622202555E+00 -0.65838223469E+01  0.26918389998E+02  0.27721360636E+02  0.51100000000E-03 0. -1.
        -11    1    3    3    0    0  0.16034701061E+01 -0.31142520050E+01  0.92589680843E+01  0.98994026173E+01  0.51100000000E-03 0.  1.
        -12    1    3    3    0    0 -0.34929064812E+01 -0.37916343530E+01  0.67852787444E+01  0.85215546934E+01  0.00000000000E+00 0.  1.
</event>
<event>
 7    1  0.8398055E-009  0.4614232E+02  0.7816164E-02  0.1320468E+00
        -11   -1    0    0    0    0  0.00000000000E+00  0.00000000000E+00  0.45593999997E+02  0.45594000000E+02  0.51100000000E-03 0. -1.
         11   -1    0    0    0    0 -0.00000000000E+00 -0.00000000000E+00 -0.45593999997E+02  0.45594000000E+02  0.51100000000E-03 0.  1.
    9900012    2    1    2    0    0 -0.39841449929E+02 -0.17422113837E+02  0.11757647018E+02  0.46142318227E+02  0.10000004248E+02 0.  0.
        -12    1    1    2    0    0  0.39841449929E+02  0.17422113837E+02 -0.11757647018E+02  0.45045681773E+02  0.00000000000E+00 0.  1.
         11    1    3    3    0    0 -0.21833842435E+02 -0.10957223565E+02  0.29339792917E+01  0.24604586127E+02  0.51100000000E-03 0. -1.
        -11    1    3    3    0    0 -0.76843578591E+01 -0.30140124707E+01  0.62480824888E+01  0.10352398849E+02  0.51100000000E-03 0.  1.
         12    1    3    3    0    0 -0.10323249634E+02 -0.34508778012E+01  0.25755852376E+01  0.11185333251E+02  0.00000000000E+00 0. -1.
</event>
<event>
 7    1  0.8398055E-009  0.4614232E+02  0.7816164E-02  0.1320468E+00
        -11   -1    0    0    0    0  0.00000000000E+00  0.00000000000E+00  0.45593999997E+02  0.45594000000E+02  0.51100000000E-03 0. -1.
         11   -1    0    0    0    0 -0.00000000000E+00 -0.00000000000E+00 -0.45593999997E+02  0.45594000000E+02  0.51100000000E-03 0.  1.
    9900012    2    1    2    0    0 -0.23455170962E+02 -0.26702073802E+02 -0.27676121104E+02  0.46142317970E+02  0.10000001902E+02 0.  0.
         12    1    1    2    0    0  0.23455170962E+02  0.26702073802E+02  0.27676121104E+02  0.45045682030E+02  0.00000000000E+00 0. -1.
         11    1    3    3    0    0 -0.11636559823E+02 -0.14607538595E+02 -0.11589297466E+02  0.21979570613E+02  0.51100000000E-03 0.  1.
        -11    1    3    3    0    0 -0.10787124858E+02 -0.10150333014E+02 -0.16210481410E+02  0.21958393175E+02  0.51100000000E-03 0. -1.
         12    1    3    3    0    0 -0.10314862810E+01 -0.19442021931E+01  0.12365777188E+00  0.22043541821E+01  0.00000000000E+00 0. -1.
</event>
<event>
 7    1  0.8398055E-009  0.4614232E+02  0.7816164E-02  0.1320468E+00
        -11   -1    0    0    0    0  0.00000000000E+00  0.00000000000E+00  0.45593999997E+02  0.45594000000E+02  0.51100000000E-03 0. -1.
         11   -1    0    0    0    0 -0.00000000000E+00 -0.00000000000E+00 -0.45593999997E+02  0.45594000000E+02  0.51100000000E-03 0.  1.
    9900012    2    1    2    0    0  0.18768983097E+02 -0.34236969951E+02  0.22464831039E+02  0.46142317948E+02  0.10000001703E+02 0.  0.
        -12    1    1    2    0    0 -0.18768983097E+02  0.34236969951E+02 -0.22464831039E+02  0.45045682052E+02  0.00000000000E+00 0.  1.
         11    1    3    3    0    0  0.82528702312E+01 -0.94129767243E+01  0.94048709804E+01  0.15657764728E+02  0.51100000000E-03 0. -1.
        -11    1    3    3    0    0  0.22674684291E+01 -0.83189511717E+01  0.68628380647E+01  0.11020204546E+02  0.51100000000E-03 0.  1.
        -12    1    3    3    0    0  0.82486444368E+01 -0.16505042055E+02  0.61971219942E+01  0.19464348674E+02  0.00000000000E+00 0.  1.
</event>
<event>
 7    1  0.8398055E-009  0.4614231E+02  0.7816164E-02  0.1320468E+00
        -11   -1    0    0    0    0  0.00000000000E+00  0.00000000000E+00  0.45593999997E+02  0.45594000000E+02  0.51100000000E-03 0. -1.
         11   -1    0    0    0    0 -0.00000000000E+00 -0.00000000000E+00 -0.45593999997E+02  0.45594000000E+02  0.51100000000E-03 0.  1.
    9900012    2    1    2    0    0 -0.17256382349E+02  0.98800412365E+01  0.40419250667E+02  0.46142314623E+02  0.99999713847E+01 0.  0.
        -12    1    1    2    0    0  0.17256382349E+02 -0.98800412365E+01 -0.40419250667E+02  0.45045685377E+02  0.00000000000E+00 0.  1.
         11    1    3    3    0    0 -0.97072356168E+01  0.56785746450E+01  0.20877628436E+02  0.23713962189E+02  0.51100000000E-03 0. -1.
        -11    1    3    3    0    0 -0.32408636095E+01  0.14138978622E+00  0.17673379602E+01  0.36941401887E+01  0.51100000000E-03 0.  1.
         12    1    3    3    0    0 -0.43082831232E+01  0.40600768053E+01  0.17774284271E+02  0.18734212246E+02  0.00000000000E+00 0. -1.
</event>
<event>
 7    1  0.8398055E-009  0.4614232E+02  0.7816164E-02  0.1320468E+00
        -11   -1    0    0    0    0  0.00000000000E+00  0.00000000000E+00  0.45593999997E+02  0.45594000000E+02  0.51100000000E-03 0. -1.
         11   -1    0    0    0    0 -0.00000000000E+00 -0.00000000000E+00 -0.45593999997E+02  0.45594000000E+02  0.51100000000E-03 0.  1.
    9900012    2    1    2    0    0 -0.83659408542E+01 -0.31905616275E+02 -0.30678268253E+02  0.46142318084E+02  0.10000002945E+02 0.  0.
         12    1    1    2    0    0  0.83659408542E+01  0.31905616275E+02  0.30678268253E+02  0.45045681916E+02  0.00000000000E+00 0. -1.
         11    1    3    3    0    0 -0.11203841611E+01 -0.98600310669E+01 -0.11359375652E+02  0.15083464084E+02  0.51100000000E-03 0. -1.
        -11    1    3    3    0    0  0.15376025006E+00 -0.77967725839E+01 -0.92871686499E+01  0.12127027943E+02  0.51100000000E-03 0.  1.
         12    1    3    3    0    0 -0.73993169431E+01 -0.14248812624E+02 -0.10031723952E+02  0.18931826057E+02  0.00000000000E+00 0. -1.
</event>
<event>
 7    1  0.8398055E-009  0.4614232E+02  0.7816164E-02  0.1320468E+00
        -11   -1    0    0    0    0  0.00000000000E+00  0.00000000000E+00  0.45593999997E+02  0.45594000000E+02  0.51100000000E-03 0. -1.
         11   -1    0    0    0    0 -0.00000000000E+00 -0.00000000000E+00 -0.45593999997E+02  0.45594000000E+02  0.51100000000E-03 0.  1.
    9900012    2    1    2    0    0 -0.25531725488E+02  0.27561824136E+02  0.24851362726E+02  0.46142318903E+02  0.10000010415E+02 0.  0.
        -12    1    1    2    0    0  0.25531725488E+02 -0.27561824136E+02 -0.24851362726E+02  0.45045681097E+02  0.00000000000E+00 0.  1.
         11    1    3    3    0    0  0.37054773952E+00  0.17660231315E+01  0.22574805445E+01  0.28900453281E+01  0.51100000000E-03 0. -1.
        -11    1    3    3    0    0 -0.10484467023E+02  0.13030223281E+02  0.84130701660E+01  0.18721391972E+02  0.51100000000E-03 0.  1.
        -12    1    3    3    0    0 -0.15417806204E+02  0.12765577724E+02  0.14180812016E+02  0.24530881603E+02  0.00000000000E+00 0.  1.
</event>
<event>
 7    1  0.8398055E-009  0.4614233E+02  0.7816164E-02  0.1320468E+00
        -11   -1    0    0    0    0  0.00000000000E+00  0.00000000000E+00  0.45593999997E+02  0.45594000000E+02  0.51100000000E-03 0. -1.
         11   -1    0    0    0    0 -0.00000000000E+00 -0.00000000000E+00 -0.45593999997E+02  0.45594000000E+02  0.51100000000E-03 0.  1.
    9900012    2    1    2    0    0 -0.17217380907E+02  0.28336642350E+02  0.30491123565E+02  0.46142332936E+02  0.10000138380E+02 0.  0.
        -12    1    1    2    0    0  0.17217380907E+02 -0.28336642350E+02 -0.30491123565E+02  0.45045667064E+02  0.00000000000E+00 0.  1.
         11    1    3    3    0    0 -0.90084469530E+01  0.11574155073E+02  0.15593990322E+02  0.21407608848E+02  0.51100000000E-03 0. -1.
        -11    1    3    3    0    0 -0.70744833118E+01  0.73063473366E+01  0.85827986623E+01  0.13307721769E+02  0.51100000000E-03 0.  1.
         12    1    3    3    0    0 -0.11344506420E+01  0.94561399400E+01  0.63143345807E+01  0.11427002320E+02  0.00000000000E+00 0. -1.
</event>
<event>
 7    1  0.8398055E-009  0.4614232E+02  0.7816164E-02  0.1320468E+00
        -11   -1    0    0    0    0  0.00000000000E+00  0.00000000000E+00  0.45593999997E+02  0.45594000000E+02  0.51100000000E-03 0. -1.
         11   -1    0    0    0    0 -0.00000000000E+00 -0.00000000000E+00 -0.45593999997E+02  0.45594000000E+02  0.51100000000E-03 0.  1.
    9900012    2    1    2    0    0  0.17160477168E+02  0.35363133900E+02  0.22001820267E+02  0.46142319730E+02  0.10000017956E+02 0.  0.
        -12    1    1    2    0    0 -0.17160477168E+02 -0.35363133900E+02 -0.22001820267E+02  0.45045680270E+02  0.00000000000E+00 0.  1.
         11    1    3    3    0    0  0.76880463831E+01  0.16430960466E+02  0.73587322066E+01  0.19576349480E+02  0.51100000000E-03 0. -1.
        -11    1    3    3    0    0  0.33810241526E+01  0.92725543832E+01  0.10518803554E+02  0.14424174762E+02  0.51100000000E-03 0.  1.
         12    1    3    3    0    0  0.60914066322E+01  0.96596190515E+01  0.41242845072E+01  0.12141795488E+02  0.00000000000E+00 0. -1.
</event>
<event>
 7    1  0.8398055E-009  0.4614232E+02  0.7816164E-02  0.1320468E+00
        -11   -1    0    0    0    0  0.00000000000E+00  0.00000000000E+00  0.45593999997E+02  0.45594000000E+02  0.51100000000E-03 0. -1.
         11   -1    0    0    0    0 -0.00000000000E+00 -0.00000000000E+00 -0.45593999997E+02  0.45594000000E+02  0.51100000000E-03 0.  1.
    9900012    2    1    2    0    0 -0.25184627940E+02  0.30649922672E+02 -0.21340814459E+02  0.46142316455E+02  0.99999880910E+01 0.  0.
         12    1    1    2    0    0  0.25184627940E+02 -0.30649922672E+02  0.21340814459E+02  0.45045683545E+02  0.00000000000E+00 0. -1.
         11    1    3    3    0    0  0.43887250543E+00  0.23846432255E+01 -0.24060777069E+00  0.24366010648E+01  0.51100000000E-03 0. -1.
        -11    1    3    3    0    0 -0.44819605904E+01  0.65587605579E+01 -0.50977585818E+01  0.94388798917E+01  0.51100000000E-03 0.  1.
         12    1    3    3    0    0 -0.21141539855E+02  0.21706518888E+02 -0.16002448106E+02  0.34266835499E+02  0.00000000000E+00 0. -1.
</event>
<event>
 7    1  0.8398055E-009  0.4614232E+02  0.7816164E-02  0.1320468E+00
        -11   -1    0    0    0    0  0.00000000000E+00  0.00000000000E+00  0.45593999997E+02  0.45594000000E+02  0.51100000000E-03 0. -1.
         11   -1    0    0    0    0 -0.00000000000E+00 -0.00000000000E+00 -0.45593999997E+02  0.45594000000E+02  0.51100000000E-03 0.  1.
    9900012    2    1    2    0    0 -0.31372278344E+02  0.55451012207E+01  0.31845650770E+02  0.46142317976E+02  0.10000001964E+02 0.  0.
        -12    1    1    2    0    0  0.31372278344E+02 -0.55451012207E+01 -0.31845650770E+02  0.45045682024E+02  0.00000000000E+00 0.  1.
         11    1    3    3    0    0 -0.11462094024E+02  0.41972165335E+01  0.16642475632E+02  0.20638997589E+02  0.51100000000E-03 0. -1.
        -11    1    3    3    0    0 -0.10551882657E+02  0.23262499683E+01  0.60852225198E+01  0.12400951572E+02  0.51100000000E-03 0.  1.
         12    1    3    3    0    0 -0.93583016635E+01 -0.97836528113E+00  0.91179526176E+01  0.13102368816E+02  0.00000000000E+00 0. -1.
</event>
<event>
 7    1  0.8398055E-009  0.4614232E+02  0.7816164E-02  0.1320468E+00
        -11   -1    0    0    0    0  0.00000000000E+00  0.00000000000E+00  0.45593999997E+02  0.45594000000E+02  0.51100000000E-03 0.  1.
         11   -1    0    0    0    0 -0.00000000000E+00 -0.00000000000E+00 -0.45593999997E+02  0.45594000000E+02  0.51100000000E-03 0. -1.
    9900012    2    1    2    0    0  0.32798087717E+02  0.30874610004E+02 -0.39635684806E+00  0.46142320967E+02  0.10000029234E+02 0.  0.
         12    1    1    2    0    0 -0.32798087717E+02 -0.30874610004E+02  0.39635684806E+00  0.45045679033E+02  0.00000000000E+00 0. -1.
         11    1    3    3    0    0  0.23922018585E+02  0.18886941441E+02 -0.28638394113E+01  0.30613413834E+02  0.51100000000E-03 0. -1.
        -11    1    3    3    0    0  0.48803322055E+01  0.67640663401E+01 -0.40864563596E+00  0.83508818340E+01  0.51100000000E-03 0.  1.
        -12    1    3    3    0    0  0.39957369271E+01  0.52236022225E+01  0.28761281992E+01  0.71780252986E+01  0.00000000000E+00 0.  1.
</event>
