<event>
 7    1  0.2237500E-009  0.4778728E+02  0.7816164E-02  0.1312668E+00
        -11   -1    0    0    0    0  0.00000000000E+00  0.00000000000E+00  0.45593999997E+02  0.45594000000E+02  0.51100000000E-03 0.  1.
         11   -1    0    0    0    0 -0.00000000000E+00 -0.00000000000E+00 -0.45593999997E+02  0.45594000000E+02  0.51100000000E-03 0. -1.
    9900012    2    1    2    0    0  0.37347429641E+02 -0.22009910703E+02 -0.20870183203E+01  0.47787282087E+02  0.20000050345E+02 0.  0.
         12    1    1    2    0    0 -0.37347429641E+02  0.22009910703E+02  0.20870183203E+01  0.43400717913E+02  0.00000000000E+00 0. -1.
         11    1    3    3    0    0  0.49579063029E+01 -0.18944919643E+01  0.88842508387E+00  0.53813784574E+01  0.51100000000E-03 0. -1.
        -11    1    3    3    0    0  0.16031850000E+02 -0.91988221137E+01  0.77071222582E+01  0.20025940090E+02  0.51100000000E-03 0.  1.
         12    1    3    3    0    0  0.16357673338E+02 -0.10916596625E+02 -0.10682565662E+02  0.22379963539E+02  0.00000000000E+00 0. -1.
</event>
<event>
 7    1  0.2237500E-009  0.4778727E+02  0.7816164E-02  0.1312668E+00
        -11   -1    0    0    0    0  0.00000000000E+00  0.00000000000E+00  0.45593999997E+02  0.45594000000E+02  0.51100000000E-03 0. -1.
         11   -1    0    0    0    0 -0.00000000000E+00 -0.00000000000E+00 -0.45593999997E+02  0.45594000000E+02  0.51100000000E-03 0.  1.
    9900012    2    1    2    0    0  0.37465455952E+02  0.14427348497E+02 -0.16486805019E+02  0.47787268277E+02  0.19999987384E+02 0.  0.
         12    1    1    2    0    0 -0.37465455952E+02 -0.14427348497E+02  0.16486805019E+02  0.43400731723E+02  0.00000000000E+00 0. -1.
         11    1    3    3    0    0  0.61940252968E+00 -0.21551633090E+01 -0.15453021527E+01  0.27232971535E+01  0.51100000000E-03 0. -1.
        -11    1    3    3    0    0  0.11992464881E+02  0.92806568072E+01 -0.11286647486E+02  0.18903391665E+02  0.51100000000E-03 0.  1.
         12    1    3    3    0    0  0.24853588541E+02  0.73018549990E+01 -0.36548553802E+01  0.26160579459E+02  0.00000000000E+00 0. -1.
</event>
<event>
 7    1  0.2237500E-009  0.4778727E+02  0.7816164E-02  0.1312668E+00
        -11   -1    0    0    0    0  0.00000000000E+00  0.00000000000E+00  0.45593999997E+02  0.45594000000E+02  0.51100000000E-03 0.  1.
         11   -1    0    0    0    0 -0.00000000000E+00 -0.00000000000E+00 -0.45593999997E+02  0.45594000000E+02  0.51100000000E-03 0. -1.
    9900012    2    1    2    0    0  0.19593550724E+02  0.19000238234E+02  0.33744733272E+02  0.47787270668E+02  0.19999998284E+02 0.  0.
         12    1    1    2    0    0 -0.19593550724E+02 -0.19000238234E+02 -0.33744733272E+02  0.43400729332E+02  0.00000000000E+00 0. -1.
         11    1    3    3    0    0 -0.12129220524E+01  0.13406208760E+01 -0.76246386807E+00  0.19620896130E+01  0.51100000000E-03 0. -1.
        -11    1    3    3    0    0  0.85756405815E+01  0.27618847592E+01  0.42779239091E+01  0.99734774296E+01  0.51100000000E-03 0.  1.
         12    1    3    3    0    0  0.12230832195E+02  0.14897732599E+02  0.30229273231E+02  0.35851703626E+02  0.00000000000E+00 0. -1.
</event>
<event>
 7    1  0.2237500E-009  0.4778727E+02  0.7816164E-02  0.1312668E+00
        -11   -1    0    0    0    0  0.00000000000E+00  0.00000000000E+00  0.45593999997E+02  0.45594000000E+02  0.51100000000E-03 0. -1.
         11   -1    0    0    0    0 -0.00000000000E+00 -0.00000000000E+00 -0.45593999997E+02  0.45594000000E+02  0.51100000000E-03 0.  1.
    9900012    2    1    2    0    0  0.28786376036E+00  0.11195090602E+02 -0.41931015695E+02  0.47787274242E+02  0.20000014578E+02 0.  0.
         12    1    1    2    0    0 -0.28786376036E+00 -0.11195090602E+02  0.41931015695E+02  0.43400725758E+02  0.00000000000E+00 0. -1.
         11    1    3    3    0    0 -0.96577623497E+00  0.10914674706E+02 -0.90407505375E+01  0.14205562932E+02  0.51100000000E-03 0. -1.
        -11    1    3    3    0    0 -0.24716293966E+01  0.47361825851E+00 -0.20150840697E+02  0.20307379131E+02  0.51100000000E-03 0.  1.
        -12    1    3    3    0    0  0.37252693919E+01 -0.19320236255E+00 -0.12739424460E+02  0.13274332178E+02  0.00000000000E+00 0.  1.
</event>
<event>
 7    1  0.2237500E-009  0.4778727E+02  0.7816164E-02  0.1312668E+00
        -11   -1    0    0    0    0  0.00000000000E+00  0.00000000000E+00  0.45593999997E+02  0.45594000000E+02  0.51100000000E-03 0.  1.
         11   -1    0    0    0    0 -0.00000000000E+00 -0.00000000000E+00 -0.45593999997E+02  0.45594000000E+02  0.51100000000E-03 0. -1.
    9900012    2    1    2    0    0 -0.63496672043E+01 -0.93441307170E+01  0.41904565094E+02  0.47787266963E+02  0.19999981389E+02 0.  0.
         12    1    1    2    0    0  0.63496672043E+01  0.93441307170E+01 -0.41904565094E+02  0.43400733037E+02  0.00000000000E+00 0. -1.
         11    1    3    3    0    0 -0.46107539437E+01 -0.90262209109E+01  0.18890312132E+02  0.21437714630E+02  0.51100000000E-03 0. -1.
        -11    1    3    3    0    0  0.42046032105E+01 -0.32228356854E+01  0.55415797827E+01  0.76664505974E+01  0.51100000000E-03 0.  1.
        -12    1    3    3    0    0 -0.59435164711E+01  0.29049258792E+01  0.17472673179E+02  0.18683101735E+02  0.00000000000E+00 0.  1.
</event>
<event>
 7    1  0.2237500E-009  0.4778728E+02  0.7816164E-02  0.1312668E+00
        -11   -1    0    0    0    0  0.00000000000E+00  0.00000000000E+00  0.45593999997E+02  0.45594000000E+02  0.51100000000E-03 0.  1.
         11   -1    0    0    0    0 -0.00000000000E+00 -0.00000000000E+00 -0.45593999997E+02  0.45594000000E+02  0.51100000000E-03 0. -1.
    9900012    2    1    2    0    0  0.28910400435E+02  0.10696048812E+02  0.30551689017E+02  0.47787280936E+02  0.20000045099E+02 0.  0.
         12    1    1    2    0    0 -0.28910400435E+02 -0.10696048812E+02 -0.30551689017E+02  0.43400719064E+02  0.00000000000E+00 0. -1.
         11    1    3    3    0    0  0.46834711948E+01  0.59177833250E+01  0.32204618216E+01  0.82052688268E+01  0.51100000000E-03 0. -1.
        -11    1    3    3    0    0  0.79588524073E+01  0.58943228723E+01  0.31050209652E+01  0.10379187310E+02  0.51100000000E-03 0.  1.
        -12    1    3    3    0    0  0.16268076832E+02 -0.11160573855E+01  0.24226206231E+02  0.29202824799E+02  0.00000000000E+00 0.  1.
</event>
<event>
 7    1  0.2237500E-009  0.4778727E+02  0.7816164E-02  0.1312668E+00
        -11   -1    0    0    0    0  0.00000000000E+00  0.00000000000E+00  0.45593999997E+02  0.45594000000E+02  0.51100000000E-03 0.  1.
         11   -1    0    0    0    0 -0.00000000000E+00 -0.00000000000E+00 -0.45593999997E+02  0.45594000000E+02  0.51100000000E-03 0. -1.
    9900012    2    1    2    0    0 -0.24287904979E+02 -0.33144517280E+02  0.13970028905E+02  0.47787273490E+02  0.20000011150E+02 0.  0.
         12    1    1    2    0    0  0.24287904979E+02  0.33144517280E+02 -0.13970028905E+02  0.43400726510E+02  0.00000000000E+00 0. -1.
         11    1    3    3    0    0 -0.14146406933E+02 -0.72959559195E+01 -0.25219935327E+00  0.15919026562E+02  0.51100000000E-03 0. -1.
        -11    1    3    3    0    0 -0.32860573506E+01 -0.23517258471E+01  0.21208188285E+01  0.45636235751E+01  0.51100000000E-03 0.  1.
         12    1    3    3    0    0 -0.68554406951E+01 -0.23496835513E+02  0.12101409430E+02  0.27304623353E+02  0.00000000000E+00 0. -1.
</event>
<event>
 7    1  0.2237500E-009  0.4778727E+02  0.7816164E-02  0.1312668E+00
        -11   -1    0    0    0    0  0.00000000000E+00  0.00000000000E+00  0.45593999997E+02  0.45594000000E+02  0.51100000000E-03 0.  1.
         11   -1    0    0    0    0 -0.00000000000E+00 -0.00000000000E+00 -0.45593999997E+02  0.45594000000E+02  0.51100000000E-03 0. -1.
    9900012    2    1    2    0    0 -0.38842510592E+02 -0.18665475045E+01  0.19271704369E+02  0.47787271689E+02  0.20000002937E+02 0.  0.
         12    1    1    2    0    0  0.38842510592E+02  0.18665475045E+01 -0.19271704369E+02  0.43400728311E+02  0.00000000000E+00 0. -1.
         11    1    3    3    0    0 -0.15705391903E+02 -0.35635898757E+00  0.13710285003E+02  0.20850857097E+02  0.51100000000E-03 0. -1.
        -11    1    3    3    0    0 -0.55402280097E+01  0.63601547975E+00  0.72299660928E+01  0.91307749974E+01  0.51100000000E-03 0.  1.
         12    1    3    3    0    0 -0.17596890680E+02 -0.21462039966E+01 -0.16685467272E+01  0.17805639595E+02  0.00000000000E+00 0. -1.
</event>
<event>
 7    1  0.2237500E-009  0.4778727E+02  0.7816164E-02  0.1312668E+00
        -11   -1    0    0    0    0  0.00000000000E+00  0.00000000000E+00  0.45593999997E+02  0.45594000000E+02  0.51100000000E-03 0. -1.
         11   -1    0    0    0    0 -0.00000000000E+00 -0.00000000000E+00 -0.45593999997E+02  0.45594000000E+02  0.51100000000E-03 0.  1.
    9900012    2    1    2    0    0 -0.33053695223E+02 -0.14722860362E+02 -0.23964851492E+02  0.47787268529E+02  0.19999988532E+02 0.  0.
         12    1    1    2    0    0  0.33053695223E+02  0.14722860362E+02  0.23964851492E+02  0.43400731471E+02  0.00000000000E+00 0. -1.
         11    1    3    3    0    0 -0.25799291779E+01 -0.29509352608E+00 -0.63622129892E+01  0.68717442570E+01  0.51100000000E-03 0. -1.
        -11    1    3    3    0    0  0.10983235203E+01 -0.32402792381E+01 -0.20139840843E+01  0.39701204325E+01  0.51100000000E-03 0.  1.
        -12    1    3    3    0    0 -0.31572089566E+02 -0.11187487598E+02 -0.15588654419E+02  0.36945403840E+02  0.00000000000E+00 0.  1.
</event>
<event>
 7    1  0.2237500E-009  0.4778727E+02  0.7816164E-02  0.1312668E+00
        -11   -1    0    0    0    0  0.00000000000E+00  0.00000000000E+00  0.45593999997E+02  0.45594000000E+02  0.51100000000E-03 0. -1.
         11   -1    0    0    0    0 -0.00000000000E+00 -0.00000000000E+00 -0.45593999997E+02  0.45594000000E+02  0.51100000000E-03 0.  1.
    9900012    2    1    2    0    0 -0.36508700567E+01  0.28097269118E+02 -0.32876097591E+02  0.47787272162E+02  0.20000005095E+02 0.  0.
         12    1    1    2    0    0  0.36508700567E+01 -0.28097269118E+02  0.32876097591E+02  0.43400727838E+02  0.00000000000E+00 0. -1.
         11    1    3    3    0    0 -0.14277828748E+01  0.18318591966E+02 -0.14709568157E+02  0.23536796112E+02  0.51100000000E-03 0. -1.
        -11    1    3    3    0    0 -0.45364104449E-01  0.12364226874E+02 -0.12066993451E+02  0.17276819594E+02  0.51100000000E-03 0.  1.
         12    1    3    3    0    0 -0.21777230774E+01 -0.25855497216E+01 -0.60995359828E+01  0.69736564563E+01  0.00000000000E+00 0. -1.
</event>
<event>
 7    1  0.2237500E-009  0.4778727E+02  0.7816164E-02  0.1312668E+00
        -11   -1    0    0    0    0  0.00000000000E+00  0.00000000000E+00  0.45593999997E+02  0.45594000000E+02  0.51100000000E-03 0.  1.
         11   -1    0    0    0    0 -0.00000000000E+00 -0.00000000000E+00 -0.45593999997E+02  0.45594000000E+02  0.51100000000E-03 0. -1.
    9900012    2    1    2    0    0  0.14347766490E+02 -0.95138881596E+01  0.39840315609E+02  0.47787271677E+02  0.20000002885E+02 0.  0.
         12    1    1    2    0    0 -0.14347766490E+02  0.95138881596E+01 -0.39840315609E+02  0.43400728323E+02  0.00000000000E+00 0. -1.
         11    1    3    3    0    0  0.13508573206E+01 -0.89457589011E+00  0.10892933308E+01  0.19523426302E+01  0.51100000000E-03 0. -1.
        -11    1    3    3    0    0 -0.21566890618E+01 -0.91946507813E-01  0.20549854605E+02  0.20662920569E+02  0.51100000000E-03 0.  1.
        -12    1    3    3    0    0  0.15153598231E+02 -0.85273657616E+01  0.18201167672E+02  0.25172008478E+02  0.00000000000E+00 0.  1.
</event>
<event>
 7    1  0.2237500E-009  0.4778725E+02  0.7816164E-02  0.1312668E+00
        -11   -1    0    0    0    0  0.00000000000E+00  0.00000000000E+00  0.45593999997E+02  0.45594000000E+02  0.51100000000E-03 0. -1.
         11   -1    0    0    0    0 -0.00000000000E+00 -0.00000000000E+00 -0.45593999997E+02  0.45594000000E+02  0.51100000000E-03 0.  1.
    9900012    2    1    2    0    0 -0.67153624571E+01 -0.55253949916E+01 -0.42520573730E+02  0.47787248013E+02  0.19999894990E+02 0.  0.
         12    1    1    2    0    0  0.67153624571E+01  0.55253949916E+01  0.42520573730E+02  0.43400751987E+02  0.00000000000E+00 0. -1.
         11    1    3    3    0    0  0.40570906447E+00 -0.12493784122E+01 -0.39263029227E+01  0.41402175262E+01  0.51100000000E-03 0. -1.
        -11    1    3    3    0    0 -0.25554068670E+01  0.34438017691E+01 -0.32550699761E+02  0.32831965066E+02  0.51100000000E-03 0.  1.
         12    1    3    3    0    0 -0.45656646546E+01 -0.77198183485E+01 -0.60435710457E+01  0.10815065421E+02  0.00000000000E+00 0. -1.
</event>
<event>
 7    1  0.2237500E-009  0.4778727E+02  0.7816164E-02  0.1312668E+00
        -11   -1    0    0    0    0  0.00000000000E+00  0.00000000000E+00  0.45593999997E+02  0.45594000000E+02  0.51100000000E-03 0. -1.
         11   -1    0    0    0    0 -0.00000000000E+00 -0.00000000000E+00 -0.45593999997E+02  0.45594000000E+02  0.51100000000E-03 0.  1.
    9900012    2    1    2    0    0  0.54526001176E+01  0.36875993244E+02 -0.22227313188E+02  0.47787272157E+02  0.20000005073E+02 0.  0.
         12    1    1    2    0    0 -0.54526001176E+01 -0.36875993244E+02  0.22227313188E+02  0.43400727843E+02  0.00000000000E+00 0. -1.
         11    1    3    3    0    0  0.14971363465E+01  0.44027822101E+01 -0.43853406045E+01  0.63919575177E+01  0.51100000000E-03 0.  1.
        -11    1    3    3    0    0  0.13771634693E+01  0.21320200499E+02 -0.20537526834E+02  0.29635072756E+02  0.51100000000E-03 0. -1.
         12    1    3    3    0    0  0.25783003017E+01  0.11153010534E+02  0.26955542511E+01  0.11760241883E+02  0.00000000000E+00 0. -1.
</event>
<event>
 7    1  0.2237500E-009  0.4778727E+02  0.7816164E-02  0.1312668E+00
        -11   -1    0    0    0    0  0.00000000000E+00  0.00000000000E+00  0.45593999997E+02  0.45594000000E+02  0.51100000000E-03 0.  1.
         11   -1    0    0    0    0 -0.00000000000E+00 -0.00000000000E+00 -0.45593999997E+02  0.45594000000E+02  0.51100000000E-03 0. -1.
    9900012    2    1    2    0    0  0.96657397187E+01 -0.34263205547E+02  0.24823963619E+02  0.47787274794E+02  0.20000017095E+02 0.  0.
         12    1    1    2    0    0 -0.96657397187E+01  0.34263205547E+02 -0.24823963619E+02  0.43400725206E+02  0.00000000000E+00 0. -1.
         11    1    3    3    0    0 -0.32237899599E+01 -0.14545922523E+02  0.73993816662E+01  0.16635129487E+02  0.51100000000E-03 0. -1.
        -11    1    3    3    0    0  0.84196524158E+00 -0.70071719267E+01  0.97335782391E+00  0.71243799445E+01  0.51100000000E-03 0.  1.
        -12    1    3    3    0    0  0.12047564437E+02 -0.12710111097E+02  0.16451224129E+02  0.24027765363E+02  0.00000000000E+00 0.  1.
</event>
<event>
 7    1  0.2237500E-009  0.4778729E+02  0.7816164E-02  0.1312668E+00
        -11   -1    0    0    0    0  0.00000000000E+00  0.00000000000E+00  0.45593999997E+02  0.45594000000E+02  0.51100000000E-03 0.  1.
         11   -1    0    0    0    0 -0.00000000000E+00 -0.00000000000E+00 -0.45593999997E+02  0.45594000000E+02  0.51100000000E-03 0. -1.
    9900012    2    1    2    0    0  0.97720238096E+01  0.11101166847E+02  0.40803103690E+02  0.47787290035E+02  0.20000086587E+02 0.  0.
         12    1    1    2    0    0 -0.97720238096E+01 -0.11101166847E+02 -0.40803103690E+02  0.43400709965E+02  0.00000000000E+00 0. -1.
         11    1    3    3    0    0  0.11571691021E+01  0.26272268865E+01  0.12493539977E+02  0.12819122547E+02  0.51100000000E-03 0. -1.
        -11    1    3    3    0    0  0.13363632007E+02  0.51435502697E+01  0.23065192407E+02  0.27148588745E+02  0.51100000000E-03 0.  1.
         12    1    3    3    0    0 -0.47487773000E+01  0.33303896905E+01  0.52443713060E+01  0.78195787438E+01  0.00000000000E+00 0. -1.
</event>
<event>
 7    1  0.4660674E-009  0.4778727E+02  0.7816164E-02  0.1312668E+00
        -11   -1    0    0    0    0  0.00000000000E+00  0.00000000000E+00  0.45593999997E+02  0.45594000000E+02  0.51100000000E-03 0. -1.
         11   -1    0    0    0    0 -0.00000000000E+00 -0.00000000000E+00 -0.45593999997E+02  0.45594000000E+02  0.51100000000E-03 0.  1.
    9900012    2    1    2    0    0  0.40551216402E+02 -0.13535876231E+02 -0.74834539788E+01  0.47787272120E+02  0.20000004904E+02 0.  0.
         12    1    1    2    0    0 -0.40551216402E+02  0.13535876231E+02  0.74834539788E+01  0.43400727880E+02  0.00000000000E+00 0. -1.
         11    1    3    3    0    0  0.48005084149E+01 -0.30406335463E+01  0.38728305436E+01  0.68767107024E+01  0.51100000000E-03 0. -1.
        -11    1    3    3    0    0  0.34658841817E+01 -0.83225216139E+00 -0.57242287912E+01  0.67432775663E+01  0.51100000000E-03 0.  1.
        -12    1    3    3    0    0  0.32284823806E+02 -0.96629905232E+01 -0.56320557312E+01  0.34167283851E+02  0.00000000000E+00 0.  1.
</event>
<event>
 7    1  0.2237500E-009  0.4778727E+02  0.7816164E-02  0.1312668E+00
        -11   -1    0    0    0    0  0.00000000000E+00  0.00000000000E+00  0.45593999997E+02  0.45594000000E+02  0.51100000000E-03 0. -1.
         11   -1    0    0    0    0 -0.00000000000E+00 -0.00000000000E+00 -0.45593999997E+02  0.45594000000E+02  0.51100000000E-03 0.  1.
    9900012    2    1    2    0    0  0.17525117354E+02  0.39575059187E+02  0.32106394483E+01  0.47787271278E+02  0.20000001066E+02 0.  0.
         12    1    1    2    0    0 -0.17525117354E+02 -0.39575059187E+02 -0.32106394483E+01  0.43400728722E+02  0.00000000000E+00 0. -1.
         11    1    3    3    0    0 -0.19734883881E+01  0.52922765420E+01  0.19853671948E+01  0.59870301966E+01  0.51100000000E-03 0. -1.
        -11    1    3    3    0    0  0.53323611898E+01  0.38697488235E+01 -0.42007911086E+01  0.78138132825E+01  0.51100000000E-03 0.  1.
        -12    1    3    3    0    0  0.14166244552E+02  0.30413033821E+02  0.54260633621E+01  0.33986427799E+02  0.00000000000E+00 0.  1.
</event>
<event>
 7    1  0.2237500E-009  0.4778727E+02  0.7816164E-02  0.1312668E+00
        -11   -1    0    0    0    0  0.00000000000E+00  0.00000000000E+00  0.45593999997E+02  0.45594000000E+02  0.51100000000E-03 0.  1.
         11   -1    0    0    0    0 -0.00000000000E+00 -0.00000000000E+00 -0.45593999997E+02  0.45594000000E+02  0.51100000000E-03 0. -1.
    9900012    2    1    2    0    0  0.85144467627E+01  0.24418198585E+02  0.34855111163E+02  0.47787274200E+02  0.20000014387E+02 0.  0.
         12    1    1    2    0    0 -0.85144467627E+01 -0.24418198585E+02 -0.34855111163E+02  0.43400725800E+02  0.00000000000E+00 0. -1.
         11    1    3    3    0    0  0.24363488230E+01  0.11091194344E+01 -0.74409108901E-01  0.26779616285E+01  0.51100000000E-03 0. -1.
        -11    1    3    3    0    0 -0.41983806536E+00  0.72524945776E+01  0.22888568494E+02  0.24013777495E+02  0.51100000000E-03 0.  1.
         12    1    3    3    0    0  0.64979360050E+01  0.16056584573E+02  0.12040951778E+02  0.21095535077E+02  0.00000000000E+00 0. -1.
</event>
<event>
 7    1  0.2237500E-009  0.4778727E+02  0.7816164E-02  0.1312668E+00
        -11   -1    0    0    0    0  0.00000000000E+00  0.00000000000E+00  0.45593999997E+02  0.45594000000E+02  0.51100000000E-03 0.  1.
         11   -1    0    0    0    0 -0.00000000000E+00 -0.00000000000E+00 -0.45593999997E+02  0.45594000000E+02  0.51100000000E-03 0. -1.
    9900012    2    1    2    0    0 -0.22286065993E+00 -0.35572549060E+02  0.24862977223E+02  0.47787267865E+02  0.19999985503E+02 0.  0.
         12    1    1    2    0    0  0.22286065993E+00  0.35572549060E+02 -0.24862977223E+02  0.43400732135E+02  0.00000000000E+00 0. -1.
         11    1    3    3    0    0  0.27273164052E+01 -0.91678712425E+01  0.35543937942E+01  0.10204010653E+02  0.51100000000E-03 0. -1.
        -11    1    3    3    0    0 -0.60703136263E+01 -0.68510484247E+01  0.98140112439E+00  0.92059068248E+01  0.51100000000E-03 0.  1.
        -12    1    3    3    0    0  0.31201365611E+01 -0.19553629393E+02  0.20327182304E+02  0.28377350387E+02  0.00000000000E+00 0.  1.
</event>
<event>
 7    1  0.2237500E-009  0.4778728E+02  0.7816164E-02  0.1312668E+00
        -11   -1    0    0    0    0  0.00000000000E+00  0.00000000000E+00  0.45593999997E+02  0.45594000000E+02  0.51100000000E-03 0.  1.
         11   -1    0    0    0    0 -0.00000000000E+00 -0.00000000000E+00 -0.45593999997E+02  0.45594000000E+02  0.51100000000E-03 0. -1.
    9900012    2    1    2    0    0 -0.14978180646E+01 -0.14345159004E+02  0.40934033429E+02  0.47787284124E+02  0.20000059635E+02 0.  0.
         12    1    1    2    0    0  0.14978180646E+01  0.14345159004E+02 -0.40934033429E+02  0.43400715876E+02  0.00000000000E+00 0. -1.
         11    1    3    3    0    0 -0.63613105701E+01 -0.63447385890E+01  0.57460294412E+01  0.10664841046E+02  0.51100000000E-03 0. -1.
        -11    1    3    3    0    0 -0.12621472887E+01 -0.46605205460E+01  0.15508826164E+02  0.16243064883E+02  0.51100000000E-03 0.  1.
        -12    1    3    3    0    0  0.61256397942E+01 -0.33398998686E+01  0.19679177824E+02  0.20879378196E+02  0.00000000000E+00 0.  1.
</event>
<event>
 7    1  0.2237500E-009  0.4778727E+02  0.7816164E-02  0.1312668E+00
        -11   -1    0    0    0    0  0.00000000000E+00  0.00000000000E+00  0.45593999997E+02  0.45594000000E+02  0.51100000000E-03 0. -1.
         11   -1    0    0    0    0 -0.00000000000E+00 -0.00000000000E+00 -0.45593999997E+02  0.45594000000E+02  0.51100000000E-03 0.  1.
    9900012    2    1    2    0    0 -0.15716033866E+02 -0.40212872954E+02  0.44220186881E+01  0.47787272806E+02  0.20000008030E+02 0.  0.
         12    1    1    2    0    0  0.15716033866E+02  0.40212872954E+02 -0.44220186881E+01  0.43400727194E+02  0.00000000000E+00 0. -1.
         11    1    3    3    0    0  0.39462841394E+00  0.10784962984E+01 -0.12364861886E+00  0.11550649735E+01  0.51100000000E-03 0. -1.
        -11    1    3    3    0    0 -0.51139777004E+01 -0.24962801002E+02 -0.27682788465E+01  0.25631183543E+02  0.51100000000E-03 0.  1.
        -12    1    3    3    0    0 -0.10996684580E+02 -0.16328568251E+02  0.73139461535E+01  0.21001024290E+02  0.00000000000E+00 0.  1.
</event>
<event>
 7    1  0.2237500E-009  0.4778726E+02  0.7816164E-02  0.1312668E+00
        -11   -1    0    0    0    0  0.00000000000E+00  0.00000000000E+00  0.45593999997E+02  0.45594000000E+02  0.51100000000E-03 0.  1.
         11   -1    0    0    0    0 -0.00000000000E+00 -0.00000000000E+00 -0.45593999997E+02  0.45594000000E+02  0.51100000000E-03 0. -1.
    9900012    2    1    2    0    0  0.22739198988E+02 -0.58293695966E+01  0.36504407772E+02  0.47787256835E+02  0.19999935214E+02 0.  0.
         12    1    1    2    0    0 -0.22739198988E+02  0.58293695966E+01 -0.36504407772E+02  0.43400743165E+02  0.00000000000E+00 0. -1.
         11    1    3    3    0    0  0.90840175092E+01 -0.47963772192E+01  0.12051641184E+02  0.15835613788E+02  0.51100000000E-03 0. -1.
        -11    1    3    3    0    0  0.83154034745E+01 -0.53473567424E+01  0.45214763996E+01  0.10871242255E+02  0.51100000000E-03 0.  1.
        -12    1    3    3    0    0  0.53397780040E+01  0.43143643651E+01  0.19931290188E+02  0.21080400792E+02  0.00000000000E+00 0.  1.
</event>
<event>
 7    1  0.2237500E-009  0.4778727E+02  0.7816164E-02  0.1312668E+00
        -11   -1    0    0    0    0  0.00000000000E+00  0.00000000000E+00  0.45593999997E+02  0.45594000000E+02  0.51100000000E-03 0.  1.
         11   -1    0    0    0    0 -0.00000000000E+00 -0.00000000000E+00 -0.45593999997E+02  0.45594000000E+02  0.51100000000E-03 0. -1.
    9900012    2    1    2    0    0  0.85056414880E+01  0.30128923305E+02  0.30058698313E+02  0.47787270733E+02  0.19999998580E+02 0.  0.
         12    1    1    2    0    0 -0.85056414880E+01 -0.30128923305E+02 -0.30058698313E+02  0.43400729267E+02  0.00000000000E+00 0. -1.
         11    1    3    3    0    0 -0.14459261061E+01 -0.30385747289E+00  0.39471248070E+01  0.42145967982E+01  0.51100000000E-03 0.  1.
        -11    1    3    3    0    0  0.14185480739E+01  0.33476239539E+01 -0.15289601971E+01  0.39441836063E+01  0.51100000000E-03 0. -1.
        -12    1    3    3    0    0  0.85330195202E+01  0.27085156824E+02  0.27640533703E+02  0.39628490328E+02  0.00000000000E+00 0.  1.
</event>
<event>
 7    1  0.2237500E-009  0.4778728E+02  0.7816164E-02  0.1312668E+00
        -11   -1    0    0    0    0  0.00000000000E+00  0.00000000000E+00  0.45593999997E+02  0.45594000000E+02  0.51100000000E-03 0.  1.
         11   -1    0    0    0    0 -0.00000000000E+00 -0.00000000000E+00 -0.45593999997E+02  0.45594000000E+02  0.51100000000E-03 0. -1.
    9900012    2    1    2    0    0  0.86688064845E+01  0.13038783386E+02  0.40477947375E+02  0.47787282244E+02  0.20000051065E+02 0.  0.
         12    1    1    2    0    0 -0.86688064845E+01 -0.13038783386E+02 -0.40477947375E+02  0.43400717756E+02  0.00000000000E+00 0. -1.
         11    1    3    3    0    0  0.10942314772E+02  0.45991293429E+01  0.19432329583E+02  0.22770631888E+02  0.51100000000E-03 0. -1.
        -11    1    3    3    0    0  0.24331912410E+01  0.26909505976E+01  0.15016218859E+02  0.15448251157E+02  0.51100000000E-03 0.  1.
         12    1    3    3    0    0 -0.47066995282E+01  0.57487034455E+01  0.60293989325E+01  0.95683991995E+01  0.00000000000E+00 0. -1.
</event>
<event>
 7    1  0.2237500E-009  0.4778727E+02  0.7816164E-02  0.1312668E+00
        -11   -1    0    0    0    0  0.00000000000E+00  0.00000000000E+00  0.45593999997E+02  0.45594000000E+02  0.51100000000E-03 0.  1.
         11   -1    0    0    0    0 -0.00000000000E+00 -0.00000000000E+00 -0.45593999997E+02  0.45594000000E+02  0.51100000000E-03 0. -1.
    9900012    2    1    2    0    0 -0.32904550811E+02 -0.28249415115E+02  0.16984904920E+01  0.47787265118E+02  0.19999972977E+02 0.  0.
         12    1    1    2    0    0  0.32904550811E+02  0.28249415115E+02 -0.16984904920E+01  0.43400734882E+02  0.00000000000E+00 0. -1.
         11    1    3    3    0    0 -0.23888035080E+02 -0.15625181724E+02 -0.55031238810E+01  0.29070068741E+02  0.51100000000E-03 0. -1.
        -11    1    3    3    0    0 -0.56559424834E+01 -0.18397516806E+01  0.30354832078E+01  0.66774643532E+01  0.51100000000E-03 0.  1.
         12    1    3    3    0    0 -0.33605732472E+01 -0.10784481710E+02  0.41661311652E+01  0.12039732023E+02  0.00000000000E+00 0. -1.
</event>
<event>
 7    1  0.2237500E-009  0.4778728E+02  0.7816164E-02  0.1312668E+00
        -11   -1    0    0    0    0  0.00000000000E+00  0.00000000000E+00  0.45593999997E+02  0.45594000000E+02  0.51100000000E-03 0.  1.
         11   -1    0    0    0    0 -0.00000000000E+00 -0.00000000000E+00 -0.45593999997E+02  0.45594000000E+02  0.51100000000E-03 0. -1.
    9900012    2    1    2    0    0 -0.28427322812E+02  0.30841044577E+02  0.11150771803E+02  0.47787280828E+02  0.20000044606E+02 0.  0.
         12    1    1    2    0    0  0.28427322812E+02 -0.30841044577E+02 -0.11150771803E+02  0.43400719172E+02  0.00000000000E+00 0. -1.
         11    1    3    3    0    0 -0.47889222107E+01  0.11704245553E+02  0.37402386063E+01  0.13187589810E+02  0.51100000000E-03 0. -1.
        -11    1    3    3    0    0 -0.57481218106E+01  0.79331727860E+01  0.91684530114E+01  0.13417774245E+02  0.51100000000E-03 0.  1.
         12    1    3    3    0    0 -0.17890278791E+02  0.11203626238E+02 -0.17579198149E+01  0.21181916773E+02  0.00000000000E+00 0. -1.
</event>
<event>
 7    1  0.2237500E-009  0.4778728E+02  0.7816164E-02  0.1312668E+00
        -11   -1    0    0    0    0  0.00000000000E+00  0.00000000000E+00  0.45593999997E+02  0.45594000000E+02  0.51100000000E-03 0.  1.
         11   -1    0    0    0    0 -0.00000000000E+00 -0.00000000000E+00 -0.45593999997E+02  0.45594000000E+02  0.51100000000E-03 0. -1.
    9900012    2    1    2    0    0 -0.25240509982E+01  0.37798785171E+02  0.21177908965E+02  0.47787276251E+02  0.20000023737E+02 0.  0.
         12    1    1    2    0    0  0.25240509982E+01 -0.37798785171E+02 -0.21177908965E+02  0.43400723749E+02  0.00000000000E+00 0. -1.
         11    1    3    3    0    0 -0.28319050992E+01  0.16404466275E+01  0.19479293151E+01  0.38085667260E+01  0.51100000000E-03 0. -1.
        -11    1    3    3    0    0 -0.33975637440E+01  0.33728433504E+02  0.12940530490E+02  0.36285093298E+02  0.51100000000E-03 0.  1.
         12    1    3    3    0    0  0.37054178449E+01  0.24299050393E+01  0.62894491598E+01  0.76936162264E+01  0.00000000000E+00 0. -1.
</event>
<event>
 7    1  0.2237500E-009  0.4778727E+02  0.7816164E-02  0.1312668E+00
        -11   -1    0    0    0    0  0.00000000000E+00  0.00000000000E+00  0.45593999997E+02  0.45594000000E+02  0.51100000000E-03 0.  1.
         11   -1    0    0    0    0 -0.00000000000E+00 -0.00000000000E+00 -0.45593999997E+02  0.45594000000E+02  0.51100000000E-03 0. -1.
    9900012    2    1    2    0    0 -0.34271404263E+02  0.64802925612E+01  0.25828276470E+02  0.47787271812E+02  0.20000003497E+02 0.  0.
         12    1    1    2    0    0  0.34271404263E+02 -0.64802925612E+01 -0.25828276470E+02  0.43400728188E+02  0.00000000000E+00 0. -1.
         11    1    3    3    0    0 -0.81715568754E+01 -0.36344329738E+01  0.14418201525E+02  0.16966672635E+02  0.51100000000E-03 0. -1.
        -11    1    3    3    0    0 -0.64940192389E+01  0.21236647435E+01  0.56852851383E+01  0.88884591006E+01  0.51100000000E-03 0.  1.
         12    1    3    3    0    0 -0.19605828149E+02  0.79910607914E+01  0.57247898064E+01  0.21932140076E+02  0.00000000000E+00 0. -1.
</event>
<event>
 7    1  0.2237500E-009  0.4778728E+02  0.7816164E-02  0.1312668E+00
        -11   -1    0    0    0    0  0.00000000000E+00  0.00000000000E+00  0.45593999997E+02  0.45594000000E+02  0.51100000000E-03 0. -1.
         11   -1    0    0    0    0 -0.00000000000E+00 -0.00000000000E+00 -0.45593999997E+02  0.45594000000E+02  0.51100000000E-03 0.  1.
    9900012    2    1    2    0    0  0.23700500997E+02 -0.22070932570E+02 -0.28892611526E+02  0.47787276356E+02  0.20000024217E+02 0.  0.
         12    1    1    2    0    0 -0.23700500997E+02  0.22070932570E+02  0.28892611526E+02  0.43400723644E+02  0.00000000000E+00 0. -1.
         11    1    3    3    0    0  0.69096001931E+01  0.11459458300E+00 -0.83581183229E+01  0.10844991881E+02  0.51100000000E-03 0.  1.
        -11    1    3    3    0    0 -0.18627211355E+01 -0.17496312273E+01 -0.12219640386E+00  0.25584901177E+01  0.51100000000E-03 0. -1.
        -12    1    3    3    0    0  0.18653621939E+02 -0.20435895926E+02 -0.20412296800E+02  0.34383794357E+02  0.00000000000E+00 0.  1.
</event>
<event>
 7    1  0.2237500E-009  0.4778727E+02  0.7816164E-02  0.1312668E+00
        -11   -1    0    0    0    0  0.00000000000E+00  0.00000000000E+00  0.45593999997E+02  0.45594000000E+02  0.51100000000E-03 0.  1.
         11   -1    0    0    0    0 -0.00000000000E+00 -0.00000000000E+00 -0.45593999997E+02  0.45594000000E+02  0.51100000000E-03 0. -1.
    9900012    2    1    2    0    0  0.17767612331E+02  0.13803681798E+02  0.37113255340E+02  0.47787269579E+02  0.19999993319E+02 0.  0.
         12    1    1    2    0    0 -0.17767612331E+02 -0.13803681798E+02 -0.37113255340E+02  0.43400730421E+02  0.00000000000E+00 0. -1.
         11    1    3    3    0    0 -0.10952523818E+01  0.32024199033E+01  0.18036816717E+01  0.38351452190E+01  0.51100000000E-03 0. -1.
        -11    1    3    3    0    0  0.23437058878E+01  0.34999831342E+01  0.19686679291E+02  0.20132267160E+02  0.51100000000E-03 0.  1.
         12    1    3    3    0    0  0.16519158825E+02  0.71012787603E+01  0.15622894377E+02  0.23819857200E+02  0.00000000000E+00 0. -1.
</event>
<event>
 7    1  0.2237500E-009  0.4778727E+02  0.7816164E-02  0.1312668E+00
        -11   -1    0    0    0    0  0.00000000000E+00  0.00000000000E+00  0.45593999997E+02  0.45594000000E+02  0.51100000000E-03 0.  1.
         11   -1    0    0    0    0 -0.00000000000E+00 -0.00000000000E+00 -0.45593999997E+02  0.45594000000E+02  0.51100000000E-03 0. -1.
    9900012    2    1    2    0    0 -0.22375026309E+02  0.29903051481E+02  0.22108569683E+02  0.47787272545E+02  0.20000006841E+02 0.  0.
         12    1    1    2    0    0  0.22375026309E+02 -0.29903051481E+02 -0.22108569683E+02  0.43400727455E+02  0.00000000000E+00 0. -1.
         11    1    3    3    0    0  0.63853155140E+00  0.15860726236E+01 -0.12488774642E+01  0.21173200257E+01  0.51100000000E-03 0. -1.
        -11    1    3    3    0    0 -0.68356215200E+01  0.18088006987E+02  0.16231413657E+02  0.25245999839E+02  0.51100000000E-03 0.  1.
         12    1    3    3    0    0 -0.16177936340E+02  0.10228971871E+02  0.71260334903E+01  0.20423952680E+02  0.00000000000E+00 0. -1.
</event>
<event>
 7    1  0.2237500E-009  0.4778732E+02  0.7816164E-02  0.1312668E+00
        -11   -1    0    0    0    0  0.00000000000E+00  0.00000000000E+00  0.45593999997E+02  0.45594000000E+02  0.51100000000E-03 0. -1.
         11   -1    0    0    0    0 -0.00000000000E+00 -0.00000000000E+00 -0.45593999997E+02  0.45594000000E+02  0.51100000000E-03 0.  1.
    9900012    2    1    2    0    0 -0.42145976802E+02 -0.85096879896E+01 -0.59093771334E+01  0.47787321568E+02  0.20000230356E+02 0.  0.
         12    1    1    2    0    0  0.42145976802E+02  0.85096879896E+01  0.59093771334E+01  0.43400678432E+02  0.00000000000E+00 0. -1.
         11    1    3    3    0    0 -0.19938482882E+02 -0.46424488051E+01 -0.31200255882E+01  0.20708210702E+02  0.51100000000E-03 0. -1.
        -11    1    3    3    0    0 -0.23185790596E+02 -0.62904466695E+01 -0.37093960686E+01  0.24308645053E+02  0.51100000000E-03 0.  1.
         12    1    3    3    0    0  0.97829667550E+00  0.24232074850E+01  0.92004452342E+00  0.27704658139E+01  0.00000000000E+00 0. -1.
</event>
<event>
 7    1  0.2237500E-009  0.4778727E+02  0.7816164E-02  0.1312668E+00
        -11   -1    0    0    0    0  0.00000000000E+00  0.00000000000E+00  0.45593999997E+02  0.45594000000E+02  0.51100000000E-03 0.  1.
         11   -1    0    0    0    0 -0.00000000000E+00 -0.00000000000E+00 -0.45593999997E+02  0.45594000000E+02  0.51100000000E-03 0. -1.
    9900012    2    1    2    0    0  0.59467756738E+01  0.10174915505E+02  0.41769965123E+02  0.47787273822E+02  0.20000012663E+02 0.  0.
         12    1    1    2    0    0 -0.59467756738E+01 -0.10174915505E+02 -0.41769965123E+02  0.43400726178E+02  0.00000000000E+00 0. -1.
         11    1    3    3    0    0 -0.13627314892E+01 -0.50868468284E+01  0.65455273706E+01  0.84010104504E+01  0.51100000000E-03 0. -1.
        -11    1    3    3    0    0  0.25579124864E+01  0.41508398849E+01  0.58004607460E+01  0.75774489879E+01  0.51100000000E-03 0.  1.
        -12    1    3    3    0    0  0.47515946766E+01  0.11110922448E+02  0.29423977006E+02  0.31808814383E+02  0.00000000000E+00 0.  1.
</event>
<event>
 7    1  0.2237500E-009  0.4778729E+02  0.7816164E-02  0.1312668E+00
        -11   -1    0    0    0    0  0.00000000000E+00  0.00000000000E+00  0.45593999997E+02  0.45594000000E+02  0.51100000000E-03 0. -1.
         11   -1    0    0    0    0 -0.00000000000E+00 -0.00000000000E+00 -0.45593999997E+02  0.45594000000E+02  0.51100000000E-03 0.  1.
    9900012    2    1    2    0    0 -0.17298942851E+02 -0.28710064578E+02 -0.27569923499E+02  0.47787286717E+02  0.20000071455E+02 0.  0.
         12    1    1    2    0    0  0.17298942851E+02  0.28710064578E+02  0.27569923499E+02  0.43400713283E+02  0.00000000000E+00 0. -1.
         11    1    3    3    0    0  0.89750169658E-01  0.52576113107E-01 -0.24161747480E+01  0.24184127056E+01  0.51100000000E-03 0. -1.
        -11    1    3    3    0    0  0.76349370992E+00 -0.14424729252E+02 -0.75395737951E+01  0.16294198658E+02  0.51100000000E-03 0.  1.
         12    1    3    3    0    0 -0.18152186730E+02 -0.14337911439E+02 -0.17614174955E+02  0.29074675353E+02  0.00000000000E+00 0. -1.
</event>
<event>
 7    1  0.2237500E-009  0.4778727E+02  0.7816164E-02  0.1312668E+00
        -11   -1    0    0    0    0  0.00000000000E+00  0.00000000000E+00  0.45593999997E+02  0.45594000000E+02  0.51100000000E-03 0. -1.
         11   -1    0    0    0    0 -0.00000000000E+00 -0.00000000000E+00 -0.45593999997E+02  0.45594000000E+02  0.51100000000E-03 0.  1.
    9900012    2    1    2    0    0  0.13809578419E+02  0.29481561302E+02 -0.28701153669E+02  0.47787272646E+02  0.20000007304E+02 0.  0.
         12    1    1    2    0    0 -0.13809578419E+02 -0.29481561302E+02  0.28701153669E+02  0.43400727354E+02  0.00000000000E+00 0. -1.
         11    1    3    3    0    0  0.14455401189E+01 -0.16763109128E+01  0.11779771801E+01  0.25074359433E+01  0.51100000000E-03 0. -1.
        -11    1    3    3    0    0  0.20468290968E+00  0.22021038509E+01 -0.48381617196E+00  0.22638981454E+01  0.51100000000E-03 0.  1.
         12    1    3    3    0    0  0.12159355390E+02  0.28955768364E+02 -0.29395314677E+02  0.43015938558E+02  0.00000000000E+00 0. -1.
</event>
<event>
 7    1  0.2237500E-009  0.4778727E+02  0.7816164E-02  0.1312668E+00
        -11   -1    0    0    0    0  0.00000000000E+00  0.00000000000E+00  0.45593999997E+02  0.45594000000E+02  0.51100000000E-03 0. -1.
         11   -1    0    0    0    0 -0.00000000000E+00 -0.00000000000E+00 -0.45593999997E+02  0.45594000000E+02  0.51100000000E-03 0.  1.
    9900012    2    1    2    0    0  0.16532804446E+02  0.33801388315E+02 -0.21627670229E+02  0.47787267352E+02  0.19999983164E+02 0.  0.
         12    1    1    2    0    0 -0.16532804446E+02 -0.33801388315E+02  0.21627670229E+02  0.43400732648E+02  0.00000000000E+00 0. -1.
         11    1    3    3    0    0  0.57199375922E+01  0.60886144114E+01 -0.64316929317E+01  0.10543034940E+02  0.51100000000E-03 0. -1.
        -11    1    3    3    0    0  0.14076544281E+02  0.26638757824E+02 -0.11640105139E+02  0.32299606270E+02  0.51100000000E-03 0.  1.
         12    1    3    3    0    0 -0.32636774264E+01  0.10740160795E+01 -0.35558721577E+01  0.49446261420E+01  0.00000000000E+00 0. -1.
</event>
<event>
 7    1  0.2237500E-009  0.4778727E+02  0.7816164E-02  0.1312668E+00
        -11   -1    0    0    0    0  0.00000000000E+00  0.00000000000E+00  0.45593999997E+02  0.45594000000E+02  0.51100000000E-03 0. -1.
         11   -1    0    0    0    0 -0.00000000000E+00 -0.00000000000E+00 -0.45593999997E+02  0.45594000000E+02  0.51100000000E-03 0.  1.
    9900012    2    1    2    0    0 -0.58025686586E+01  0.39906840080E+02 -0.16043614433E+02  0.47787271293E+02  0.20000001134E+02 0.  0.
         12    1    1    2    0    0  0.58025686586E+01 -0.39906840080E+02  0.16043614433E+02  0.43400728707E+02  0.00000000000E+00 0. -1.
         11    1    3    3    0    0  0.72927126530E+00  0.41819981546E+00 -0.99647478812E+00  0.13037215686E+01  0.51100000000E-03 0. -1.
        -11    1    3    3    0    0  0.42784857304E+01  0.22469376692E+02 -0.31935409454E+01  0.23094956876E+02  0.51100000000E-03 0.  1.
        -12    1    3    3    0    0 -0.10810325654E+02  0.17019263572E+02 -0.11853598700E+02  0.23388592848E+02  0.00000000000E+00 0.  1.
</event>
<event>
 7    1  0.2237500E-009  0.4778728E+02  0.7816164E-02  0.1312668E+00
        -11   -1    0    0    0    0  0.00000000000E+00  0.00000000000E+00  0.45593999997E+02  0.45594000000E+02  0.51100000000E-03 0.  1.
         11   -1    0    0    0    0 -0.00000000000E+00 -0.00000000000E+00 -0.45593999997E+02  0.45594000000E+02  0.51100000000E-03 0. -1.
    9900012    2    1    2    0    0 -0.39486649904E+02  0.43126686173E+01  0.17487944208E+02  0.47787276229E+02  0.20000023639E+02 0.  0.
         12    1    1    2    0    0  0.39486649904E+02 -0.43126686173E+01 -0.17487944208E+02  0.43400723771E+02  0.00000000000E+00 0. -1.
         11    1    3    3    0    0 -0.17844385309E+02  0.63267739048E+00  0.67892665858E+01  0.19102787984E+02  0.51100000000E-03 0. -1.
        -11    1    3    3    0    0 -0.18462535170E+02 -0.32231868362E+01  0.57064917111E+01  0.19591278319E+02  0.51100000000E-03 0.  1.
         12    1    3    3    0    0 -0.31797294252E+01  0.69031780631E+01  0.49921859107E+01  0.90932099258E+01  0.00000000000E+00 0. -1.
</event>
<event>
 7    1  0.2237500E-009  0.4778726E+02  0.7816164E-02  0.1312668E+00
        -11   -1    0    0    0    0  0.00000000000E+00  0.00000000000E+00  0.45593999997E+02  0.45594000000E+02  0.51100000000E-03 0.  1.
         11   -1    0    0    0    0 -0.00000000000E+00 -0.00000000000E+00 -0.45593999997E+02  0.45594000000E+02  0.51100000000E-03 0. -1.
    9900012    2    1    2    0    0  0.26783179798E+02 -0.32667961518E+02  0.99543688253E+01  0.47787263963E+02  0.19999967712E+02 0.  0.
         12    1    1    2    0    0 -0.26783179798E+02  0.32667961518E+02 -0.99543688253E+01  0.43400736037E+02  0.00000000000E+00 0. -1.
         11    1    3    3    0    0  0.98547233712E+01 -0.36670267405E+01  0.39079004771E+01  0.11217590839E+02  0.51100000000E-03 0. -1.
        -11    1    3    3    0    0  0.41384146069E+00  0.59289899217E-01  0.29745989978E+01  0.30038341342E+01  0.51100000000E-03 0.  1.
         12    1    3    3    0    0  0.16514614966E+02 -0.29060224677E+02  0.30718693505E+01  0.33565838989E+02  0.00000000000E+00 0. -1.
</event>
<event>
 7    1  0.2237500E-009  0.4778727E+02  0.7816164E-02  0.1312668E+00
        -11   -1    0    0    0    0  0.00000000000E+00  0.00000000000E+00  0.45593999997E+02  0.45594000000E+02  0.51100000000E-03 0.  1.
         11   -1    0    0    0    0 -0.00000000000E+00 -0.00000000000E+00 -0.45593999997E+02  0.45594000000E+02  0.51100000000E-03 0. -1.
    9900012    2    1    2    0    0 -0.13390575642E+02 -0.35205854176E+02  0.21560707396E+02  0.47787265125E+02  0.19999973010E+02 0.  0.
         12    1    1    2    0    0  0.13390575642E+02  0.35205854176E+02 -0.21560707396E+02  0.43400734875E+02  0.00000000000E+00 0. -1.
         11    1    3    3    0    0 -0.41431423933E+01 -0.21533211965E+01  0.72957070888E+01  0.86619722496E+01  0.51100000000E-03 0. -1.
        -11    1    3    3    0    0 -0.14505187157E+01 -0.55065117939E+00 -0.15105627401E+01  0.21654148145E+01  0.51100000000E-03 0.  1.
        -12    1    3    3    0    0 -0.77969145330E+01 -0.32501881800E+02  0.15775563047E+02  0.36959878061E+02  0.00000000000E+00 0.  1.
</event>
<event>
 7    1  0.2237500E-009  0.4778727E+02  0.7816164E-02  0.1312668E+00
        -11   -1    0    0    0    0  0.00000000000E+00  0.00000000000E+00  0.45593999997E+02  0.45594000000E+02  0.51100000000E-03 0. -1.
         11   -1    0    0    0    0 -0.00000000000E+00 -0.00000000000E+00 -0.45593999997E+02  0.45594000000E+02  0.51100000000E-03 0.  1.
    9900012    2    1    2    0    0  0.14937374802E+02 -0.21290397722E+01 -0.40693553943E+02  0.47787270642E+02  0.19999998163E+02 0.  0.
         12    1    1    2    0    0 -0.14937374802E+02  0.21290397722E+01  0.40693553943E+02  0.43400729358E+02  0.00000000000E+00 0. -1.
         11    1    3    3    0    0  0.46563180314E+01 -0.56028630806E+01 -0.14428423845E+02  0.16163316096E+02  0.51100000000E-03 0. -1.
        -11    1    3    3    0    0  0.13493234181E+01 -0.50024085071E+01 -0.95231001566E+01  0.10841319173E+02  0.51100000000E-03 0.  1.
         12    1    3    3    0    0  0.89317333523E+01  0.84762318154E+01 -0.16742029942E+02  0.20782635373E+02  0.00000000000E+00 0. -1.
</event>
<event>
 7    1  0.2237500E-009  0.4778725E+02  0.7816164E-02  0.1312668E+00
        -11   -1    0    0    0    0  0.00000000000E+00  0.00000000000E+00  0.45593999997E+02  0.45594000000E+02  0.51100000000E-03 0. -1.
         11   -1    0    0    0    0 -0.00000000000E+00 -0.00000000000E+00 -0.45593999997E+02  0.45594000000E+02  0.51100000000E-03 0.  1.
    9900012    2    1    2    0    0 -0.31936098484E+02  0.27659376369E+02  0.99332362735E+01  0.47787254956E+02  0.19999926646E+02 0.  0.
         12    1    1    2    0    0  0.31936098484E+02 -0.27659376369E+02 -0.99332362735E+01  0.43400745044E+02  0.00000000000E+00 0. -1.
         11    1    3    3    0    0 -0.94466915848E+01  0.16442584559E+01  0.50701412720E+00  0.96021159832E+01  0.51100000000E-03 0.  1.
        -11    1    3    3    0    0 -0.95524606141E-01 -0.14056281352E+01 -0.36034559548E+00  0.14542230276E+01  0.51100000000E-03 0. -1.
        -12    1    3    3    0    0 -0.22393882294E+02  0.27420746048E+02  0.97865677418E+01  0.36730915945E+02  0.00000000000E+00 0.  1.
</event>
<event>
 7    1  0.2237500E-009  0.4778726E+02  0.7816164E-02  0.1312668E+00
        -11   -1    0    0    0    0  0.00000000000E+00  0.00000000000E+00  0.45593999997E+02  0.45594000000E+02  0.51100000000E-03 0.  1.
         11   -1    0    0    0    0 -0.00000000000E+00 -0.00000000000E+00 -0.45593999997E+02  0.45594000000E+02  0.51100000000E-03 0. -1.
    9900012    2    1    2    0    0 -0.20178156452E+02 -0.19798173389E+02  0.32931719323E+02  0.47787264926E+02  0.19999972105E+02 0.  0.
         12    1    1    2    0    0  0.20178156452E+02  0.19798173389E+02 -0.32931719323E+02  0.43400735074E+02  0.00000000000E+00 0. -1.
         11    1    3    3    0    0 -0.17020648791E-01  0.77447306712E+00  0.53990773436E+01  0.54543684013E+01  0.51100000000E-03 0. -1.
        -11    1    3    3    0    0 -0.26597670597E+01 -0.11339017840E+02  0.14673228605E+02  0.18733694893E+02  0.51100000000E-03 0.  1.
        -12    1    3    3    0    0 -0.17501368744E+02 -0.92336286163E+01  0.12859413375E+02  0.23599201632E+02  0.00000000000E+00 0.  1.
</event>
<event>
 7    1  0.2237500E-009  0.4778727E+02  0.7816164E-02  0.1312668E+00
        -11   -1    0    0    0    0  0.00000000000E+00  0.00000000000E+00  0.45593999997E+02  0.45594000000E+02  0.51100000000E-03 0.  1.
         11   -1    0    0    0    0 -0.00000000000E+00 -0.00000000000E+00 -0.45593999997E+02  0.45594000000E+02  0.51100000000E-03 0. -1.
    9900012    2    1    2    0    0  0.36819803690E+02  0.47685232494E+01  0.22476349568E+02  0.47787273651E+02  0.20000011883E+02 0.  0.
         12    1    1    2    0    0 -0.36819803690E+02 -0.47685232494E+01 -0.22476349568E+02  0.43400726349E+02  0.00000000000E+00 0. -1.
         11    1    3    3    0    0  0.14123591425E+01 -0.10579945626E+01  0.45682687677E+01  0.48972635866E+01  0.51100000000E-03 0. -1.
        -11    1    3    3    0    0  0.20301977346E+02 -0.43151920942E+01  0.88111209450E+01  0.22548326314E+02  0.51100000000E-03 0.  1.
         12    1    3    3    0    0  0.15105467201E+02  0.10141709906E+02  0.90969598554E+01  0.20341683750E+02  0.00000000000E+00 0. -1.
</event>
<event>
 7    1  0.2237500E-009  0.4778727E+02  0.7816164E-02  0.1312668E+00
        -11   -1    0    0    0    0  0.00000000000E+00  0.00000000000E+00  0.45593999997E+02  0.45594000000E+02  0.51100000000E-03 0.  1.
         11   -1    0    0    0    0 -0.00000000000E+00 -0.00000000000E+00 -0.45593999997E+02  0.45594000000E+02  0.51100000000E-03 0. -1.
    9900012    2    1    2    0    0  0.47074538025E+01 -0.35103875550E+01  0.43001630585E+02  0.47787272183E+02  0.20000005191E+02 0.  0.
         12    1    1    2    0    0 -0.47074538025E+01  0.35103875550E+01 -0.43001630585E+02  0.43400727817E+02  0.00000000000E+00 0. -1.
         11    1    3    3    0    0 -0.17152856044E+01  0.24363701268E+01  0.50506926428E+01  0.58640941783E+01  0.51100000000E-03 0. -1.
        -11    1    3    3    0    0 -0.12196588203E+01  0.24661275683E+00  0.27656628311E+02  0.27684607190E+02  0.51100000000E-03 0.  1.
         12    1    3    3    0    0  0.76423982272E+01 -0.61933704386E+01  0.10294309632E+02  0.14238570815E+02  0.00000000000E+00 0. -1.
</event>
<event>
 7    1  0.2237500E-009  0.4778728E+02  0.7816164E-02  0.1312668E+00
        -11   -1    0    0    0    0  0.00000000000E+00  0.00000000000E+00  0.45593999997E+02  0.45594000000E+02  0.51100000000E-03 0.  1.
         11   -1    0    0    0    0 -0.00000000000E+00 -0.00000000000E+00 -0.45593999997E+02  0.45594000000E+02  0.51100000000E-03 0. -1.
    9900012    2    1    2    0    0  0.14362692327E+02 -0.29938672111E+02  0.27946587697E+02  0.47787276705E+02  0.20000025809E+02 0.  0.
         12    1    1    2    0    0 -0.14362692327E+02  0.29938672111E+02 -0.27946587697E+02  0.43400723295E+02  0.00000000000E+00 0. -1.
         11    1    3    3    0    0 -0.18294578121E+01 -0.38587581628E-01  0.36993915760E+01  0.41272149425E+01  0.51100000000E-03 0. -1.
        -11    1    3    3    0    0  0.75300442652E+01 -0.13492975156E+02  0.18776409675E+02  0.24316979783E+02  0.51100000000E-03 0.  1.
        -12    1    3    3    0    0  0.86621058739E+01 -0.16407109373E+02  0.54707864453E+01  0.19343081980E+02  0.00000000000E+00 0.  1.
</event>
<event>
 7    1  0.2237500E-009  0.4778727E+02  0.7816164E-02  0.1312668E+00
        -11   -1    0    0    0    0  0.00000000000E+00  0.00000000000E+00  0.45593999997E+02  0.45594000000E+02  0.51100000000E-03 0.  1.
         11   -1    0    0    0    0 -0.00000000000E+00 -0.00000000000E+00 -0.45593999997E+02  0.45594000000E+02  0.51100000000E-03 0. -1.
    9900012    2    1    2    0    0 -0.27335714857E+02  0.15777844668E+02  0.29789956872E+02  0.47787271670E+02  0.20000002853E+02 0.  0.
         12    1    1    2    0    0  0.27335714857E+02 -0.15777844668E+02 -0.29789956872E+02  0.43400728330E+02  0.00000000000E+00 0. -1.
         11    1    3    3    0    0 -0.12368781771E+02  0.16286699218E+01  0.12762886136E+02  0.17847425332E+02  0.51100000000E-03 0. -1.
        -11    1    3    3    0    0 -0.25989508043E-01 -0.23597982270E+01  0.16968148145E+01  0.29066310228E+01  0.51100000000E-03 0.  1.
         12    1    3    3    0    0 -0.14940943579E+02  0.16508972974E+02  0.15330255921E+02  0.27033215315E+02  0.00000000000E+00 0. -1.
</event>
<event>
 7    1  0.2237500E-009  0.4778728E+02  0.7816164E-02  0.1312668E+00
        -11   -1    0    0    0    0  0.00000000000E+00  0.00000000000E+00  0.45593999997E+02  0.45594000000E+02  0.51100000000E-03 0.  1.
         11   -1    0    0    0    0 -0.00000000000E+00 -0.00000000000E+00 -0.45593999997E+02  0.45594000000E+02  0.51100000000E-03 0. -1.
    9900012    2    1    2    0    0 -0.59041275108E+01  0.23803093022E+02  0.35807498473E+02  0.47787275283E+02  0.20000019325E+02 0.  0.
         12    1    1    2    0    0  0.59041275108E+01 -0.23803093022E+02 -0.35807498473E+02  0.43400724717E+02  0.00000000000E+00 0. -1.
         11    1    3    3    0    0 -0.34519767918E+01  0.56092831555E+01  0.50985561586E+01  0.83291942259E+01  0.51100000000E-03 0. -1.
        -11    1    3    3    0    0  0.57091466974E+01  0.16987841843E+01  0.46545808338E+01  0.75594541282E+01  0.51100000000E-03 0.  1.
        -12    1    3    3    0    0 -0.81612974164E+01  0.16495025682E+02  0.26054361481E+02  0.31898626929E+02  0.00000000000E+00 0.  1.
</event>
<event>
 7    1  0.2237500E-009  0.4778727E+02  0.7816164E-02  0.1312668E+00
        -11   -1    0    0    0    0  0.00000000000E+00  0.00000000000E+00  0.45593999997E+02  0.45594000000E+02  0.51100000000E-03 0.  1.
         11   -1    0    0    0    0 -0.00000000000E+00 -0.00000000000E+00 -0.45593999997E+02  0.45594000000E+02  0.51100000000E-03 0. -1.
    9900012    2    1    2    0    0 -0.17636989831E+02  0.23464445523E+02  0.31968419507E+02  0.47787268903E+02  0.19999990238E+02 0.  0.
         12    1    1    2    0    0  0.17636989831E+02 -0.23464445523E+02 -0.31968419507E+02  0.43400731097E+02  0.00000000000E+00 0. -1.
         11    1    3    3    0    0 -0.18191501680E+01 -0.13289386998E+01  0.23070165208E+01  0.32245481683E+01  0.51100000000E-03 0. -1.
        -11    1    3    3    0    0 -0.17735818061E+02  0.19348301204E+02  0.28365499145E+02  0.38646054699E+02  0.51100000000E-03 0.  1.
         12    1    3    3    0    0  0.19179783985E+01  0.54450830186E+01  0.12959038405E+01  0.59166660359E+01  0.00000000000E+00 0. -1.
</event>
<event>
 7    1  0.2237500E-009  0.4778725E+02  0.7816164E-02  0.1312668E+00
        -11   -1    0    0    0    0  0.00000000000E+00  0.00000000000E+00  0.45593999997E+02  0.45594000000E+02  0.51100000000E-03 0.  1.
         11   -1    0    0    0    0 -0.00000000000E+00 -0.00000000000E+00 -0.45593999997E+02  0.45594000000E+02  0.51100000000E-03 0. -1.
    9900012    2    1    2    0    0  0.11624055332E+02 -0.20095170196E+02  0.36670017223E+02  0.47787254722E+02  0.19999925577E+02 0.  0.
         12    1    1    2    0    0 -0.11624055332E+02  0.20095170196E+02 -0.36670017223E+02  0.43400745278E+02  0.00000000000E+00 0. -1.
         11    1    3    3    0    0 -0.12812527613E+01  0.22715684382E+01  0.10274943932E+01  0.28031012820E+01  0.51100000000E-03 0. -1.
        -11    1    3    3    0    0  0.22527917343E+01 -0.33258377786E+01  0.11641021145E+01  0.41822722917E+01  0.51100000000E-03 0.  1.
        -12    1    3    3    0    0  0.10652516359E+02 -0.19040900856E+02  0.34478420716E+02  0.40801881148E+02  0.00000000000E+00 0.  1.
</event>
<event>
 7    1  0.2237500E-009  0.4778727E+02  0.7816164E-02  0.1312668E+00
        -11   -1    0    0    0    0  0.00000000000E+00  0.00000000000E+00  0.45593999997E+02  0.45594000000E+02  0.51100000000E-03 0.  1.
         11   -1    0    0    0    0 -0.00000000000E+00 -0.00000000000E+00 -0.45593999997E+02  0.45594000000E+02  0.51100000000E-03 0. -1.
    9900012    2    1    2    0    0 -0.11511736465E+02  0.39918661528E+02  0.12554036761E+02  0.47787268974E+02  0.19999990560E+02 0.  0.
         12    1    1    2    0    0  0.11511736465E+02 -0.39918661528E+02 -0.12554036761E+02  0.43400731026E+02  0.00000000000E+00 0. -1.
         11    1    3    3    0    0  0.18613268242E+01  0.11458961628E+02 -0.46877682043E+00  0.11618609689E+02  0.51100000000E-03 0. -1.
        -11    1    3    3    0    0 -0.91035833433E+01  0.10876600468E+02  0.55398065255E+00  0.14194455335E+02  0.51100000000E-03 0.  1.
        -12    1    3    3    0    0 -0.42694799459E+01  0.17583099432E+02  0.12468832929E+02  0.21974203950E+02  0.00000000000E+00 0.  1.
</event>
<event>
 7    1  0.2237500E-009  0.4778727E+02  0.7816164E-02  0.1312668E+00
        -11   -1    0    0    0    0  0.00000000000E+00  0.00000000000E+00  0.45593999997E+02  0.45594000000E+02  0.51100000000E-03 0. -1.
         11   -1    0    0    0    0 -0.00000000000E+00 -0.00000000000E+00 -0.45593999997E+02  0.45594000000E+02  0.51100000000E-03 0.  1.
    9900012    2    1    2    0    0  0.19698782067E+02 -0.23472579344E+02 -0.30734654431E+02  0.47787274442E+02  0.20000015490E+02 0.  0.
         12    1    1    2    0    0 -0.19698782067E+02  0.23472579344E+02  0.30734654431E+02  0.43400725558E+02  0.00000000000E+00 0. -1.
         11    1    3    3    0    0 -0.19323959806E+01  0.15125204033E+01 -0.98979672178E+00  0.26460479980E+01  0.51100000000E-03 0. -1.
        -11    1    3    3    0    0  0.16532467624E+01 -0.19731609158E+00 -0.35220672793E+01  0.38957819085E+01  0.51100000000E-03 0.  1.
        -12    1    3    3    0    0  0.19977931285E+02 -0.24787783655E+02 -0.26222790430E+02  0.41245444535E+02  0.00000000000E+00 0.  1.
</event>
<event>
 7    1  0.2237500E-009  0.4778728E+02  0.7816164E-02  0.1312668E+00
        -11   -1    0    0    0    0  0.00000000000E+00  0.00000000000E+00  0.45593999997E+02  0.45594000000E+02  0.51100000000E-03 0.  1.
         11   -1    0    0    0    0 -0.00000000000E+00 -0.00000000000E+00 -0.45593999997E+02  0.45594000000E+02  0.51100000000E-03 0. -1.
    9900012    2    1    2    0    0  0.24781704738E+02 -0.10663801146E+02  0.33996664145E+02  0.47787277453E+02  0.20000029220E+02 0.  0.
         12    1    1    2    0    0 -0.24781704738E+02  0.10663801146E+02 -0.33996664145E+02  0.43400722547E+02  0.00000000000E+00 0. -1.
         11    1    3    3    0    0  0.49730406475E+01  0.16050525270E+01  0.76921390810E+01  0.92992650677E+01  0.51100000000E-03 0. -1.
        -11    1    3    3    0    0  0.18077722179E+02 -0.11296491877E+02  0.28459557445E+02  0.35557856770E+02  0.51100000000E-03 0.  1.
         12    1    3    3    0    0  0.17309419122E+01 -0.97236179581E+00 -0.21550323811E+01  0.29301556151E+01  0.00000000000E+00 0. -1.
</event>
<event>
 7    1  0.2237500E-009  0.4778727E+02  0.7816164E-02  0.1312668E+00
        -11   -1    0    0    0    0  0.00000000000E+00  0.00000000000E+00  0.45593999997E+02  0.45594000000E+02  0.51100000000E-03 0.  1.
         11   -1    0    0    0    0 -0.00000000000E+00 -0.00000000000E+00 -0.45593999997E+02  0.45594000000E+02  0.51100000000E-03 0. -1.
    9900012    2    1    2    0    0  0.18344340570E+02 -0.38069384336E+02  0.98909241177E+01  0.47787271498E+02  0.20000002066E+02 0.  0.
         12    1    1    2    0    0 -0.18344340570E+02  0.38069384336E+02 -0.98909241177E+01  0.43400728502E+02  0.00000000000E+00 0. -1.
         11    1    3    3    0    0  0.83967748188E+01 -0.17435541884E+02  0.33024631512E+01  0.19631867239E+02  0.51100000000E-03 0.  1.
        -11    1    3    3    0    0  0.10117300946E+02 -0.17930217779E+02  0.10722710646E+02  0.23212690751E+02  0.51100000000E-03 0. -1.
         12    1    3    3    0    0 -0.16973519469E+00 -0.27036246725E+01 -0.41342496798E+01  0.49427135079E+01  0.00000000000E+00 0. -1.
</event>
<event>
 7    1  0.2268717E-009  0.4778728E+02  0.7816164E-02  0.1312668E+00
        -11   -1    0    0    0    0  0.00000000000E+00  0.00000000000E+00  0.45593999997E+02  0.45594000000E+02  0.51100000000E-03 0. -1.
         11   -1    0    0    0    0 -0.00000000000E+00 -0.00000000000E+00 -0.45593999997E+02  0.45594000000E+02  0.51100000000E-03 0.  1.
    9900012    2    1    2    0    0  0.11663843922E+02 -0.85972495531E+01 -0.40910445493E+02  0.47787279898E+02  0.20000040368E+02 0.  0.
         12    1    1    2    0    0 -0.11663843922E+02  0.85972495531E+01  0.40910445493E+02  0.43400720102E+02  0.00000000000E+00 0. -1.
         11    1    3    3    0    0  0.84085921078E+01 -0.47827827836E+01 -0.15259875619E+02  0.18067740217E+02  0.51100000000E-03 0. -1.
        -11    1    3    3    0    0  0.77772581369E+01 -0.49145381149E+00 -0.21105276266E+02  0.22497998967E+02  0.51100000000E-03 0.  1.
         12    1    3    3    0    0 -0.45220063231E+01 -0.33230129580E+01 -0.45452936082E+01  0.72215407144E+01  0.00000000000E+00 0. -1.
</event>
<event>
 7    1  0.2237500E-009  0.4778727E+02  0.7816164E-02  0.1312668E+00
        -11   -1    0    0    0    0  0.00000000000E+00  0.00000000000E+00  0.45593999997E+02  0.45594000000E+02  0.51100000000E-03 0.  1.
         11   -1    0    0    0    0 -0.00000000000E+00 -0.00000000000E+00 -0.45593999997E+02  0.45594000000E+02  0.51100000000E-03 0. -1.
    9900012    2    1    2    0    0  0.14926609357E+02  0.40530622403E+02 -0.42530188407E+01  0.47787272027E+02  0.20000004482E+02 0.  0.
         12    1    1    2    0    0 -0.14926609357E+02 -0.40530622403E+02  0.42530188407E+01  0.43400727973E+02  0.00000000000E+00 0. -1.
         11    1    3    3    0    0  0.22317061953E+01  0.37638394500E+01  0.16380373485E+01  0.46722763792E+01  0.51100000000E-03 0. -1.
        -11    1    3    3    0    0  0.12637294089E+02  0.33851285413E+02  0.44948773372E+00  0.36136031402E+02  0.51100000000E-03 0.  1.
         12    1    3    3    0    0  0.57609072447E-01  0.29154975403E+01 -0.63405439229E+01  0.69789642463E+01  0.00000000000E+00 0. -1.
</event>
<event>
 7    1  0.2237500E-009  0.4778727E+02  0.7816164E-02  0.1312668E+00
        -11   -1    0    0    0    0  0.00000000000E+00  0.00000000000E+00  0.45593999997E+02  0.45594000000E+02  0.51100000000E-03 0. -1.
         11   -1    0    0    0    0 -0.00000000000E+00 -0.00000000000E+00 -0.45593999997E+02  0.45594000000E+02  0.51100000000E-03 0.  1.
    9900012    2    1    2    0    0 -0.46905628361E+01  0.10448297391E+01 -0.43133865772E+02  0.47787269299E+02  0.19999992043E+02 0.  0.
         12    1    1    2    0    0  0.46905628361E+01 -0.10448297391E+01  0.43133865772E+02  0.43400730701E+02  0.00000000000E+00 0. -1.
         11    1    3    3    0    0  0.26017807378E+01 -0.38877911161E+01 -0.18221563114E+02  0.18812483763E+02  0.51100000000E-03 0. -1.
        -11    1    3    3    0    0 -0.72243338505E+01  0.34426741716E+01 -0.25951222738E+02  0.27157116321E+02  0.51100000000E-03 0.  1.
        -12    1    3    3    0    0 -0.68009723466E-01  0.14899466836E+01  0.10389200795E+01  0.18176692147E+01  0.00000000000E+00 0.  1.
</event>
<event>
 7    1  0.2237500E-009  0.4778727E+02  0.7816164E-02  0.1312668E+00
        -11   -1    0    0    0    0  0.00000000000E+00  0.00000000000E+00  0.45593999997E+02  0.45594000000E+02  0.51100000000E-03 0. -1.
         11   -1    0    0    0    0 -0.00000000000E+00 -0.00000000000E+00 -0.45593999997E+02  0.45594000000E+02  0.51100000000E-03 0.  1.
    9900012    2    1    2    0    0  0.43236016370E+02 -0.16734047612E+01  0.33867113152E+01  0.47787271796E+02  0.20000003428E+02 0.  0.
         12    1    1    2    0    0 -0.43236016370E+02  0.16734047612E+01 -0.33867113152E+01  0.43400728204E+02  0.00000000000E+00 0. -1.
         11    1    3    3    0    0  0.12761413666E+02 -0.40480017039E+01 -0.64980499422E+01  0.14881688408E+02  0.51100000000E-03 0.  1.
        -11    1    3    3    0    0  0.23764569726E+02 -0.28817328483E+00  0.52887877110E+01  0.24347671220E+02  0.51100000000E-03 0. -1.
        -12    1    3    3    0    0  0.67100329781E+01  0.26627702275E+01  0.45959735464E+01  0.85579121689E+01  0.00000000000E+00 0.  1.
</event>
<event>
 7    1  0.2237500E-009  0.4778727E+02  0.7816164E-02  0.1312668E+00
        -11   -1    0    0    0    0  0.00000000000E+00  0.00000000000E+00  0.45593999997E+02  0.45594000000E+02  0.51100000000E-03 0. -1.
         11   -1    0    0    0    0 -0.00000000000E+00 -0.00000000000E+00 -0.45593999997E+02  0.45594000000E+02  0.51100000000E-03 0.  1.
    9900012    2    1    2    0    0 -0.20207238581E+02 -0.18131224329E+02 -0.33860738982E+02  0.47787269232E+02  0.19999991737E+02 0.  0.
         12    1    1    2    0    0  0.20207238581E+02  0.18131224329E+02  0.33860738982E+02  0.43400730768E+02  0.00000000000E+00 0. -1.
         11    1    3    3    0    0 -0.71665226731E+01 -0.63789850327E+01 -0.67132822583E+01  0.11709767556E+02  0.51100000000E-03 0. -1.
        -11    1    3    3    0    0 -0.58399798548E+01 -0.39868369056E+01 -0.14497597498E+00  0.70725703610E+01  0.51100000000E-03 0.  1.
        -12    1    3    3    0    0 -0.72007360527E+01 -0.77654023911E+01 -0.27002480749E+02  0.29004931315E+02  0.00000000000E+00 0.  1.
</event>
<event>
 7    1  0.2237500E-009  0.4778727E+02  0.7816164E-02  0.1312668E+00
        -11   -1    0    0    0    0  0.00000000000E+00  0.00000000000E+00  0.45593999997E+02  0.45594000000E+02  0.51100000000E-03 0. -1.
         11   -1    0    0    0    0 -0.00000000000E+00 -0.00000000000E+00 -0.45593999997E+02  0.45594000000E+02  0.51100000000E-03 0.  1.
    9900012    2    1    2    0    0 -0.22683628706E+02 -0.32951242664E+02 -0.16831276548E+02  0.47787271036E+02  0.19999999961E+02 0.  0.
         12    1    1    2    0    0  0.22683628706E+02  0.32951242664E+02  0.16831276548E+02  0.43400728964E+02  0.00000000000E+00 0. -1.
         11    1    3    3    0    0  0.10497811882E+01 -0.20215567836E+01  0.18302818610E+00  0.22852203286E+01  0.51100000000E-03 0. -1.
        -11    1    3    3    0    0 -0.18622755820E+02 -0.21452279958E+02 -0.41230986897E+01  0.28705527217E+02  0.51100000000E-03 0.  1.
        -12    1    3    3    0    0 -0.51106540743E+01 -0.94774059225E+01 -0.12891206045E+02  0.16796523491E+02  0.00000000000E+00 0.  1.
</event>
<event>
 7    1  0.2237500E-009  0.4778727E+02  0.7816164E-02  0.1312668E+00
        -11   -1    0    0    0    0  0.00000000000E+00  0.00000000000E+00  0.45593999997E+02  0.45594000000E+02  0.51100000000E-03 0.  1.
         11   -1    0    0    0    0 -0.00000000000E+00 -0.00000000000E+00 -0.45593999997E+02  0.45594000000E+02  0.51100000000E-03 0. -1.
    9900012    2    1    2    0    0 -0.16894696784E+02  0.14571277456E+02  0.37227281544E+02  0.47787269623E+02  0.19999993518E+02 0.  0.
         12    1    1    2    0    0  0.16894696784E+02 -0.14571277456E+02 -0.37227281544E+02  0.43400730377E+02  0.00000000000E+00 0. -1.
         11    1    3    3    0    0 -0.12770661645E+02  0.11059474666E+02  0.16153829621E+02  0.23374088013E+02  0.51100000000E-03 0. -1.
        -11    1    3    3    0    0 -0.66491109058E+01  0.39994077882E+01  0.82150798573E+01  0.11300153796E+02  0.51100000000E-03 0.  1.
         12    1    3    3    0    0  0.25250757673E+01 -0.48760499810E+00  0.12858372066E+02  0.13113027814E+02  0.00000000000E+00 0. -1.
</event>
<event>
 7    1  0.2237500E-009  0.4778726E+02  0.7816164E-02  0.1312668E+00
        -11   -1    0    0    0    0  0.00000000000E+00  0.00000000000E+00  0.45593999997E+02  0.45594000000E+02  0.51100000000E-03 0.  1.
         11   -1    0    0    0    0 -0.00000000000E+00 -0.00000000000E+00 -0.45593999997E+02  0.45594000000E+02  0.51100000000E-03 0. -1.
    9900012    2    1    2    0    0  0.43283983693E+02  0.63159364638E+00  0.31179900000E+01  0.47787262488E+02  0.19999960990E+02 0.  0.
         12    1    1    2    0    0 -0.43283983693E+02 -0.63159364638E+00 -0.31179900000E+01  0.43400737512E+02  0.00000000000E+00 0. -1.
         11    1    3    3    0    0 -0.18663874326E+00  0.30306812047E+01  0.22005875799E+00  0.30443864247E+01  0.51100000000E-03 0. -1.
        -11    1    3    3    0    0  0.11009540586E+02 -0.19749024590E+01 -0.33648866962E+01  0.11680440333E+02  0.51100000000E-03 0.  1.
        -12    1    3    3    0    0  0.32461081850E+02 -0.42418509928E+00  0.62628179382E+01  0.33062435730E+02  0.00000000000E+00 0.  1.
</event>
<event>
 7    1  0.2237500E-009  0.4778727E+02  0.7816164E-02  0.1312668E+00
        -11   -1    0    0    0    0  0.00000000000E+00  0.00000000000E+00  0.45593999997E+02  0.45594000000E+02  0.51100000000E-03 0.  1.
         11   -1    0    0    0    0 -0.00000000000E+00 -0.00000000000E+00 -0.45593999997E+02  0.45594000000E+02  0.51100000000E-03 0. -1.
    9900012    2    1    2    0    0 -0.15838195736E+02  0.24821361873E+02  0.31885335095E+02  0.47787273699E+02  0.20000012101E+02 0.  0.
         12    1    1    2    0    0  0.15838195736E+02 -0.24821361873E+02 -0.31885335095E+02  0.43400726301E+02  0.00000000000E+00 0. -1.
         11    1    3    3    0    0 -0.96152995680E+01  0.49269921426E+01  0.10196368290E+02  0.14855812463E+02  0.51100000000E-03 0.  1.
        -11    1    3    3    0    0 -0.16559221218E+01 -0.12956440755E+01 -0.21674362856E+00  0.21137052078E+01  0.51100000000E-03 0. -1.
        -12    1    3    3    0    0 -0.45669740458E+01  0.21190013806E+02  0.21905710433E+02  0.30817756028E+02  0.00000000000E+00 0.  1.
</event>
<event>
 7    1  0.2237500E-009  0.4778727E+02  0.7816164E-02  0.1312668E+00
        -11   -1    0    0    0    0  0.00000000000E+00  0.00000000000E+00  0.45593999997E+02  0.45594000000E+02  0.51100000000E-03 0.  1.
         11   -1    0    0    0    0 -0.00000000000E+00 -0.00000000000E+00 -0.45593999997E+02  0.45594000000E+02  0.51100000000E-03 0. -1.
    9900012    2    1    2    0    0  0.15639864714E+02  0.30757509439E+02  0.26324770632E+02  0.47787270698E+02  0.19999998420E+02 0.  0.
         12    1    1    2    0    0 -0.15639864714E+02 -0.30757509439E+02 -0.26324770632E+02  0.43400729302E+02  0.00000000000E+00 0. -1.
         11    1    3    3    0    0  0.47829414704E+01  0.27068893967E+00  0.42502033053E+01  0.64042197033E+01  0.51100000000E-03 0. -1.
        -11    1    3    3    0    0 -0.29965188121E+01  0.79046255080E+01  0.43431273441E+01  0.95039457490E+01  0.51100000000E-03 0.  1.
        -12    1    3    3    0    0  0.13853442056E+02  0.22582194991E+02  0.17731439982E+02  0.31879105246E+02  0.00000000000E+00 0.  1.
</event>
<event>
 7    1  0.2237500E-009  0.4778728E+02  0.7816164E-02  0.1312668E+00
        -11   -1    0    0    0    0  0.00000000000E+00  0.00000000000E+00  0.45593999997E+02  0.45594000000E+02  0.51100000000E-03 0.  1.
         11   -1    0    0    0    0 -0.00000000000E+00 -0.00000000000E+00 -0.45593999997E+02  0.45594000000E+02  0.51100000000E-03 0. -1.
    9900012    2    1    2    0    0 -0.24206900138E+01  0.38845568927E+02  0.19203773199E+02  0.47787275691E+02  0.20000021186E+02 0.  0.
         12    1    1    2    0    0  0.24206900138E+01 -0.38845568927E+02 -0.19203773199E+02  0.43400724309E+02  0.00000000000E+00 0. -1.
         11    1    3    3    0    0 -0.12758701151E+01  0.55613242585E+00  0.43429907356E+01  0.45605588053E+01  0.51100000000E-03 0. -1.
        -11    1    3    3    0    0 -0.50270041547E+01  0.10753692932E+02  0.87713653432E+01  0.14759726714E+02  0.51100000000E-03 0.  1.
        -12    1    3    3    0    0  0.38821842560E+01  0.27535743570E+02  0.60894171206E+01  0.28466990171E+02  0.00000000000E+00 0.  1.
</event>
<event>
 7    1  0.2237500E-009  0.4778729E+02  0.7816164E-02  0.1312668E+00
        -11   -1    0    0    0    0  0.00000000000E+00  0.00000000000E+00  0.45593999997E+02  0.45594000000E+02  0.51100000000E-03 0.  1.
         11   -1    0    0    0    0 -0.00000000000E+00 -0.00000000000E+00 -0.45593999997E+02  0.45594000000E+02  0.51100000000E-03 0. -1.
    9900012    2    1    2    0    0 -0.41167780658E+02  0.11281070683E+02  0.78468644898E+01  0.47787285693E+02  0.20000066790E+02 0.  0.
         12    1    1    2    0    0  0.41167780658E+02 -0.11281070683E+02 -0.78468644898E+01  0.43400714307E+02  0.00000000000E+00 0. -1.
         11    1    3    3    0    0 -0.13748885041E+02 -0.12285992455E+01  0.43594246095E+00  0.13810551838E+02  0.51100000000E-03 0. -1.
        -11    1    3    3    0    0 -0.28542504892E+02  0.97724313055E+01  0.71608694366E+01  0.31007306405E+02  0.51100000000E-03 0.  1.
         12    1    3    3    0    0  0.11236092760E+01  0.27372386226E+01  0.25005259228E+00  0.29694274501E+01  0.00000000000E+00 0. -1.
</event>
<event>
 7    1  0.2237500E-009  0.4778725E+02  0.7816164E-02  0.1312668E+00
        -11   -1    0    0    0    0  0.00000000000E+00  0.00000000000E+00  0.45593999997E+02  0.45594000000E+02  0.51100000000E-03 0.  1.
         11   -1    0    0    0    0 -0.00000000000E+00 -0.00000000000E+00 -0.45593999997E+02  0.45594000000E+02  0.51100000000E-03 0. -1.
    9900012    2    1    2    0    0 -0.29417669053E+01 -0.40905665186E+02  0.14202017274E+02  0.47787254252E+02  0.19999923437E+02 0.  0.
         12    1    1    2    0    0  0.29417669053E+01  0.40905665186E+02 -0.14202017274E+02  0.43400745748E+02  0.00000000000E+00 0. -1.
         11    1    3    3    0    0 -0.59763009967E+01 -0.14322205813E+02  0.56185220095E+01  0.16504833922E+02  0.51100000000E-03 0.  1.
        -11    1    3    3    0    0 -0.52468841147E+01 -0.80074302946E+01  0.43153110488E+01  0.10500982932E+02  0.51100000000E-03 0. -1.
        -12    1    3    3    0    0  0.82814182062E+01 -0.18576029078E+02  0.42681842153E+01  0.20781437398E+02  0.00000000000E+00 0.  1.
</event>
<event>
 7    1  0.2237500E-009  0.4778727E+02  0.7816164E-02  0.1312668E+00
        -11   -1    0    0    0    0  0.00000000000E+00  0.00000000000E+00  0.45593999997E+02  0.45594000000E+02  0.51100000000E-03 0. -1.
         11   -1    0    0    0    0 -0.00000000000E+00 -0.00000000000E+00 -0.45593999997E+02  0.45594000000E+02  0.51100000000E-03 0.  1.
    9900012    2    1    2    0    0 -0.12876716737E+02 -0.29877500821E+02  0.28725393634E+02  0.47787272717E+02  0.20000007627E+02 0.  0.
         12    1    1    2    0    0  0.12876716737E+02  0.29877500821E+02 -0.28725393634E+02  0.43400727283E+02  0.00000000000E+00 0. -1.
         11    1    3    3    0    0 -0.60849122924E+00  0.13096181814E+01 -0.64529190541E+00  0.15816963240E+01  0.51100000000E-03 0. -1.
        -11    1    3    3    0    0  0.21758561021E+01 -0.20191272621E+01  0.13657738873E+01  0.32675010711E+01  0.51100000000E-03 0.  1.
        -12    1    3    3    0    0 -0.14444081610E+02 -0.29167991740E+02  0.28004911653E+02  0.42938075322E+02  0.00000000000E+00 0.  1.
</event>
<event>
 7    1  0.2237500E-009  0.4778727E+02  0.7816164E-02  0.1312668E+00
        -11   -1    0    0    0    0  0.00000000000E+00  0.00000000000E+00  0.45593999997E+02  0.45594000000E+02  0.51100000000E-03 0.  1.
         11   -1    0    0    0    0 -0.00000000000E+00 -0.00000000000E+00 -0.45593999997E+02  0.45594000000E+02  0.51100000000E-03 0. -1.
    9900012    2    1    2    0    0 -0.37957990083E+02 -0.20846349565E+02 -0.28712318025E+01  0.47787271050E+02  0.20000000025E+02 0.  0.
         12    1    1    2    0    0  0.37957990083E+02  0.20846349565E+02  0.28712318025E+01  0.43400728950E+02  0.00000000000E+00 0. -1.
         11    1    3    3    0    0 -0.54457976309E+01 -0.83481215975E+01  0.11933477628E+01  0.10038522062E+02  0.51100000000E-03 0. -1.
        -11    1    3    3    0    0 -0.12267329777E+02 -0.97659069407E+01  0.33182300926E+01  0.16027194684E+02  0.51100000000E-03 0.  1.
         12    1    3    3    0    0 -0.20244862675E+02 -0.27323210266E+01 -0.73828096579E+01  0.21721554304E+02  0.00000000000E+00 0. -1.
</event>
<event>
 7    1  0.2237500E-009  0.4778727E+02  0.7816164E-02  0.1312668E+00
        -11   -1    0    0    0    0  0.00000000000E+00  0.00000000000E+00  0.45593999997E+02  0.45594000000E+02  0.51100000000E-03 0.  1.
         11   -1    0    0    0    0 -0.00000000000E+00 -0.00000000000E+00 -0.45593999997E+02  0.45594000000E+02  0.51100000000E-03 0. -1.
    9900012    2    1    2    0    0  0.26319549045E+02  0.27341764985E+02  0.21055466248E+02  0.47787269207E+02  0.19999991625E+02 0.  0.
         12    1    1    2    0    0 -0.26319549045E+02 -0.27341764985E+02 -0.21055466248E+02  0.43400730793E+02  0.00000000000E+00 0. -1.
         11    1    3    3    0    0  0.16197583726E+02  0.10149888005E+02  0.17330680110E+01  0.19193370472E+02  0.51100000000E-03 0. -1.
        -11    1    3    3    0    0 -0.27184017452E+00  0.44522097177E+01  0.27017725913E+01  0.52149442803E+01  0.51100000000E-03 0.  1.
        -12    1    3    3    0    0  0.10393805493E+02  0.12739667262E+02  0.16620625645E+02  0.23378954455E+02  0.00000000000E+00 0.  1.
</event>
<event>
 7    1  0.2237500E-009  0.4778727E+02  0.7816164E-02  0.1312668E+00
        -11   -1    0    0    0    0  0.00000000000E+00  0.00000000000E+00  0.45593999997E+02  0.45594000000E+02  0.51100000000E-03 0. -1.
         11   -1    0    0    0    0 -0.00000000000E+00 -0.00000000000E+00 -0.45593999997E+02  0.45594000000E+02  0.51100000000E-03 0.  1.
    9900012    2    1    2    0    0  0.34097876397E+02  0.24249413756E+02 -0.11529277328E+02  0.47787268693E+02  0.19999989277E+02 0.  0.
         12    1    1    2    0    0 -0.34097876397E+02 -0.24249413756E+02  0.11529277328E+02  0.43400731307E+02  0.00000000000E+00 0. -1.
         11    1    3    3    0    0 -0.16950643528E+00 -0.61912559192E+00 -0.17769449705E+01  0.18893339090E+01  0.51100000000E-03 0. -1.
        -11    1    3    3    0    0  0.15914393695E+02  0.14765899209E+02 -0.12038241317E+02  0.24823757983E+02  0.51100000000E-03 0.  1.
        -12    1    3    3    0    0  0.18352989137E+02  0.10102640140E+02  0.22859089595E+01  0.21074176801E+02  0.00000000000E+00 0.  1.
</event>
<event>
 7    1  0.2237500E-009  0.4778728E+02  0.7816164E-02  0.1312668E+00
        -11   -1    0    0    0    0  0.00000000000E+00  0.00000000000E+00  0.45593999997E+02  0.45594000000E+02  0.51100000000E-03 0. -1.
         11   -1    0    0    0    0 -0.00000000000E+00 -0.00000000000E+00 -0.45593999997E+02  0.45594000000E+02  0.51100000000E-03 0.  1.
    9900012    2    1    2    0    0  0.33347744203E+02 -0.26859079278E+02 -0.70809564110E+01  0.47787284260E+02  0.20000060255E+02 0.  0.
         12    1    1    2    0    0 -0.33347744203E+02  0.26859079278E+02  0.70809564110E+01  0.43400715740E+02  0.00000000000E+00 0. -1.
         11    1    3    3    0    0  0.47911094114E+01 -0.14297499109E+02 -0.77782205025E+00  0.15098947565E+02  0.51100000000E-03 0. -1.
        -11    1    3    3    0    0  0.14985369933E+02 -0.82654691249E+01 -0.68721318586E+01  0.18441949149E+02  0.51100000000E-03 0.  1.
        -12    1    3    3    0    0  0.13571264859E+02 -0.42961110440E+01  0.56899749783E+00  0.14246387546E+02  0.00000000000E+00 0.  1.
</event>
<event>
 7    1  0.2237500E-009  0.4778728E+02  0.7816164E-02  0.1312668E+00
        -11   -1    0    0    0    0  0.00000000000E+00  0.00000000000E+00  0.45593999997E+02  0.45594000000E+02  0.51100000000E-03 0.  1.
         11   -1    0    0    0    0 -0.00000000000E+00 -0.00000000000E+00 -0.45593999997E+02  0.45594000000E+02  0.51100000000E-03 0. -1.
    9900012    2    1    2    0    0 -0.21819931369E+02 -0.36199840237E+02  0.98531370965E+01  0.47787284006E+02  0.20000059098E+02 0.  0.
         12    1    1    2    0    0  0.21819931369E+02  0.36199840237E+02 -0.98531370965E+01  0.43400715994E+02  0.00000000000E+00 0. -1.
         11    1    3    3    0    0 -0.10020194930E+02 -0.61544816235E+01  0.49926892164E+01  0.12775323728E+02  0.51100000000E-03 0. -1.
        -11    1    3    3    0    0 -0.77899697135E+01 -0.64057053061E+01 -0.15221438693E+01  0.10199686800E+02  0.51100000000E-03 0.  1.
        -12    1    3    3    0    0 -0.40097667255E+01 -0.23639653308E+02  0.63825917494E+01  0.24812273478E+02  0.00000000000E+00 0.  1.
</event>
<event>
 7    1  0.2237500E-009  0.4778727E+02  0.7816164E-02  0.1312668E+00
        -11   -1    0    0    0    0  0.00000000000E+00  0.00000000000E+00  0.45593999997E+02  0.45594000000E+02  0.51100000000E-03 0.  1.
         11   -1    0    0    0    0 -0.00000000000E+00 -0.00000000000E+00 -0.45593999997E+02  0.45594000000E+02  0.51100000000E-03 0. -1.
    9900012    2    1    2    0    0  0.34302475796E+02 -0.11990299780E+02  0.23731749723E+02  0.47787273284E+02  0.20000010212E+02 0.  0.
         12    1    1    2    0    0 -0.34302475796E+02  0.11990299780E+02 -0.23731749723E+02  0.43400726716E+02  0.00000000000E+00 0. -1.
         11    1    3    3    0    0  0.61484573237E+01 -0.27224476360E+01 -0.23395907953E+01  0.71196161373E+01  0.51100000000E-03 0. -1.
        -11    1    3    3    0    0  0.33928137627E+01  0.14777227595E+01  0.59257298600E+01  0.69863527263E+01  0.51100000000E-03 0.  1.
        -12    1    3    3    0    0  0.24761204710E+02 -0.10745574903E+02  0.20145610658E+02  0.33681304421E+02  0.00000000000E+00 0.  1.
</event>
<event>
 7    1  0.2237500E-009  0.4778727E+02  0.7816164E-02  0.1312668E+00
        -11   -1    0    0    0    0  0.00000000000E+00  0.00000000000E+00  0.45593999997E+02  0.45594000000E+02  0.51100000000E-03 0. -1.
         11   -1    0    0    0    0 -0.00000000000E+00 -0.00000000000E+00 -0.45593999997E+02  0.45594000000E+02  0.51100000000E-03 0.  1.
    9900012    2    1    2    0    0 -0.38966878898E+02  0.17465299279E+02 -0.77568498206E+01  0.47787273634E+02  0.20000011808E+02 0.  0.
         12    1    1    2    0    0  0.38966878898E+02 -0.17465299279E+02  0.77568498206E+01  0.43400726366E+02  0.00000000000E+00 0. -1.
         11    1    3    3    0    0 -0.14382414995E+02  0.88649861439E+01 -0.62940036584E+01  0.18029318422E+02  0.51100000000E-03 0. -1.
        -11    1    3    3    0    0 -0.26076974816E+02  0.69832204745E+01 -0.28668767184E+01  0.27147614372E+02  0.51100000000E-03 0.  1.
        -12    1    3    3    0    0  0.14925109133E+01  0.16170926604E+01  0.14040305562E+01  0.26103408401E+01  0.00000000000E+00 0.  1.
</event>
<event>
 7    1  0.2237500E-009  0.4778727E+02  0.7816164E-02  0.1312668E+00
        -11   -1    0    0    0    0  0.00000000000E+00  0.00000000000E+00  0.45593999997E+02  0.45594000000E+02  0.51100000000E-03 0.  1.
         11   -1    0    0    0    0 -0.00000000000E+00 -0.00000000000E+00 -0.45593999997E+02  0.45594000000E+02  0.51100000000E-03 0. -1.
    9900012    2    1    2    0    0 -0.19186369709E+02  0.34077505512E+02  0.18821007538E+02  0.47787268563E+02  0.19999988688E+02 0.  0.
         12    1    1    2    0    0  0.19186369709E+02 -0.34077505512E+02 -0.18821007538E+02  0.43400731437E+02  0.00000000000E+00 0. -1.
         11    1    3    3    0    0  0.12276538574E+01  0.47373345104E+01  0.15512581198E+01  0.51337972566E+01  0.51100000000E-03 0. -1.
        -11    1    3    3    0    0 -0.82497007959E+01  0.96727305868E+01  0.14624003930E+02  0.19377326220E+02  0.51100000000E-03 0.  1.
         12    1    3    3    0    0 -0.12164322770E+02  0.19667440414E+02  0.26457454882E+01  0.23276145087E+02  0.00000000000E+00 0. -1.
</event>
<event>
 7    1  0.2237500E-009  0.4778727E+02  0.7816164E-02  0.1312668E+00
        -11   -1    0    0    0    0  0.00000000000E+00  0.00000000000E+00  0.45593999997E+02  0.45594000000E+02  0.51100000000E-03 0. -1.
         11   -1    0    0    0    0 -0.00000000000E+00 -0.00000000000E+00 -0.45593999997E+02  0.45594000000E+02  0.51100000000E-03 0.  1.
    9900012    2    1    2    0    0  0.20010680207E+02 -0.15618155280E+01 -0.38480604691E+02  0.47787268123E+02  0.19999986679E+02 0.  0.
         12    1    1    2    0    0 -0.20010680207E+02  0.15618155280E+01  0.38480604691E+02  0.43400731877E+02  0.00000000000E+00 0. -1.
         11    1    3    3    0    0  0.11973586606E+02 -0.66136836383E+01 -0.21449953898E+02  0.25440285179E+02  0.51100000000E-03 0. -1.
        -11    1    3    3    0    0  0.79536934034E+01  0.32979110346E+01 -0.18270296813E+02  0.20197554353E+02  0.51100000000E-03 0.  1.
         12    1    3    3    0    0  0.83400197791E-01  0.17539570757E+01  0.12396460196E+01  0.21494285916E+01  0.00000000000E+00 0. -1.
</event>
<event>
 7    1  0.2237500E-009  0.4778726E+02  0.7816164E-02  0.1312668E+00
        -11   -1    0    0    0    0  0.00000000000E+00  0.00000000000E+00  0.45593999997E+02  0.45594000000E+02  0.51100000000E-03 0.  1.
         11   -1    0    0    0    0 -0.00000000000E+00 -0.00000000000E+00 -0.45593999997E+02  0.45594000000E+02  0.51100000000E-03 0. -1.
    9900012    2    1    2    0    0 -0.17333468538E+02 -0.20759099829E+02  0.33944591539E+02  0.47787255167E+02  0.19999927609E+02 0.  0.
         12    1    1    2    0    0  0.17333468538E+02  0.20759099829E+02 -0.33944591539E+02  0.43400744833E+02  0.00000000000E+00 0. -1.
         11    1    3    3    0    0  0.23775534424E+01  0.51066273871E+00 -0.54039292102E+00  0.24910964602E+01  0.51100000000E-03 0. -1.
        -11    1    3    3    0    0 -0.78083039060E+01 -0.58956787108E+01  0.13696301317E+02  0.16832032182E+02  0.51100000000E-03 0.  1.
        -12    1    3    3    0    0 -0.11902718074E+02 -0.15374083857E+02  0.20788683143E+02  0.28464126525E+02  0.00000000000E+00 0.  1.
</event>
<event>
 7    1  0.2237500E-009  0.4778727E+02  0.7816164E-02  0.1312668E+00
        -11   -1    0    0    0    0  0.00000000000E+00  0.00000000000E+00  0.45593999997E+02  0.45594000000E+02  0.51100000000E-03 0. -1.
         11   -1    0    0    0    0 -0.00000000000E+00 -0.00000000000E+00 -0.45593999997E+02  0.45594000000E+02  0.51100000000E-03 0.  1.
    9900012    2    1    2    0    0  0.45617891686E+01  0.38885599870E+02 -0.18727611147E+02  0.47787271701E+02  0.20000002992E+02 0.  0.
         12    1    1    2    0    0 -0.45617891686E+01 -0.38885599870E+02  0.18727611147E+02  0.43400728299E+02  0.00000000000E+00 0. -1.
         11    1    3    3    0    0  0.27155095217E+01  0.39485060762E+01  0.20522271081E+00  0.47965413392E+01  0.51100000000E-03 0. -1.
        -11    1    3    3    0    0  0.87672414875E+01  0.16476107736E+02 -0.69287485471E+01  0.19908144216E+02  0.51100000000E-03 0.  1.
         12    1    3    3    0    0 -0.69209618407E+01  0.18460986057E+02 -0.12004085311E+02  0.23082586145E+02  0.00000000000E+00 0. -1.
</event>
<event>
 7    1  0.2237500E-009  0.4778728E+02  0.7816164E-02  0.1312668E+00
        -11   -1    0    0    0    0  0.00000000000E+00  0.00000000000E+00  0.45593999997E+02  0.45594000000E+02  0.51100000000E-03 0.  1.
         11   -1    0    0    0    0 -0.00000000000E+00 -0.00000000000E+00 -0.45593999997E+02  0.45594000000E+02  0.51100000000E-03 0. -1.
    9900012    2    1    2    0    0  0.14439542089E+02 -0.78261888245E+01  0.40173041749E+02  0.47787275459E+02  0.20000020130E+02 0.  0.
         12    1    1    2    0    0 -0.14439542089E+02  0.78261888245E+01 -0.40173041749E+02  0.43400724541E+02  0.00000000000E+00 0. -1.
         11    1    3    3    0    0  0.13223856388E+01 -0.57618392010E+01  0.13638249000E+02  0.14864364460E+02  0.51100000000E-03 0. -1.
        -11    1    3    3    0    0  0.26243222759E+00  0.33349542924E+01  0.13245851717E+02  0.13661748745E+02  0.51100000000E-03 0.  1.
        -12    1    3    3    0    0  0.12854724223E+02 -0.53993039159E+01  0.13288941032E+02  0.19261162254E+02  0.00000000000E+00 0.  1.
</event>
<event>
 7    1  0.2237500E-009  0.4778727E+02  0.7816164E-02  0.1312668E+00
        -11   -1    0    0    0    0  0.00000000000E+00  0.00000000000E+00  0.45593999997E+02  0.45594000000E+02  0.51100000000E-03 0.  1.
         11   -1    0    0    0    0 -0.00000000000E+00 -0.00000000000E+00 -0.45593999997E+02  0.45594000000E+02  0.51100000000E-03 0. -1.
    9900012    2    1    2    0    0  0.10818689119E+02  0.26628588754E+02  0.32519182877E+02  0.47787273873E+02  0.20000012899E+02 0.  0.
         12    1    1    2    0    0 -0.10818689119E+02 -0.26628588754E+02 -0.32519182877E+02  0.43400726127E+02  0.00000000000E+00 0. -1.
         11    1    3    3    0    0  0.73811833199E+01  0.22125185852E+01  0.50001205706E+01  0.91857667983E+01  0.51100000000E-03 0. -1.
        -11    1    3    3    0    0  0.42058868751E+01  0.75082857879E+01  0.36673925792E+01  0.93548708420E+01  0.51100000000E-03 0.  1.
         12    1    3    3    0    0 -0.76838107619E+00  0.16907784381E+02  0.23851669728E+02  0.29246636233E+02  0.00000000000E+00 0. -1.
</event>
<event>
 7    1  0.2237500E-009  0.4778727E+02  0.7816164E-02  0.1312668E+00
        -11   -1    0    0    0    0  0.00000000000E+00  0.00000000000E+00  0.45593999997E+02  0.45594000000E+02  0.51100000000E-03 0. -1.
         11   -1    0    0    0    0 -0.00000000000E+00 -0.00000000000E+00 -0.45593999997E+02  0.45594000000E+02  0.51100000000E-03 0.  1.
    9900012    2    1    2    0    0 -0.19801563120E+02 -0.31616900205E+02 -0.22178663179E+02  0.47787269811E+02  0.19999994375E+02 0.  0.
         12    1    1    2    0    0  0.19801563120E+02  0.31616900205E+02  0.22178663179E+02  0.43400730189E+02  0.00000000000E+00 0. -1.
         11    1    3    3    0    0 -0.32924668085E+01 -0.18187477245E+02 -0.65929801554E+01  0.19623762478E+02  0.51100000000E-03 0. -1.
        -11    1    3    3    0    0 -0.11194662299E+02 -0.14203777084E+02 -0.11852005755E+02  0.21622622138E+02  0.51100000000E-03 0.  1.
         12    1    3    3    0    0 -0.53144340119E+01  0.77435412436E+00 -0.37336772692E+01  0.65408851944E+01  0.00000000000E+00 0. -1.
</event>
<event>
 7    1  0.2237500E-009  0.4778727E+02  0.7816164E-02  0.1312668E+00
        -11   -1    0    0    0    0  0.00000000000E+00  0.00000000000E+00  0.45593999997E+02  0.45594000000E+02  0.51100000000E-03 0.  1.
         11   -1    0    0    0    0 -0.00000000000E+00 -0.00000000000E+00 -0.45593999997E+02  0.45594000000E+02  0.51100000000E-03 0. -1.
    9900012    2    1    2    0    0 -0.32415676259E+01  0.38209436786E+01  0.43110507671E+02  0.47787271402E+02  0.20000001628E+02 0.  0.
         12    1    1    2    0    0  0.32415676259E+01 -0.38209436786E+01 -0.43110507671E+02  0.43400728598E+02  0.00000000000E+00 0. -1.
         11    1    3    3    0    0 -0.75977506495E+01 -0.21675500287E+01  0.13721345286E+02  0.15833489975E+02  0.51100000000E-03 0. -1.
        -11    1    3    3    0    0  0.16337303909E+01  0.16963885280E+01  0.24289794949E+00  0.23676589077E+01  0.51100000000E-03 0.  1.
        -12    1    3    3    0    0  0.27224526326E+01  0.42921051793E+01  0.29146264435E+02  0.29586122519E+02  0.00000000000E+00 0.  1.
</event>
<event>
 7    1  0.2237500E-009  0.4778727E+02  0.7816164E-02  0.1312668E+00
        -11   -1    0    0    0    0  0.00000000000E+00  0.00000000000E+00  0.45593999997E+02  0.45594000000E+02  0.51100000000E-03 0. -1.
         11   -1    0    0    0    0 -0.00000000000E+00 -0.00000000000E+00 -0.45593999997E+02  0.45594000000E+02  0.51100000000E-03 0.  1.
    9900012    2    1    2    0    0 -0.46492025180E+01 -0.86487227566E+00 -0.43142324701E+02  0.47787271103E+02  0.20000000269E+02 0.  0.
         12    1    1    2    0    0  0.46492025180E+01  0.86487227566E+00  0.43142324701E+02  0.43400728897E+02  0.00000000000E+00 0. -1.
         11    1    3    3    0    0  0.17927162655E+01  0.25569654996E+01 -0.46373274340E+01  0.55907700871E+01  0.51100000000E-03 0. -1.
        -11    1    3    3    0    0 -0.36095542006E+01  0.23539367173E+01 -0.34166884893E+02  0.34437565581E+02  0.51100000000E-03 0.  1.
         12    1    3    3    0    0 -0.28323645829E+01 -0.57757744925E+01 -0.43381123747E+01  0.77589354357E+01  0.00000000000E+00 0. -1.
</event>
<event>
 7    1  0.2237500E-009  0.4778726E+02  0.7816164E-02  0.1312668E+00
        -11   -1    0    0    0    0  0.00000000000E+00  0.00000000000E+00  0.45593999997E+02  0.45594000000E+02  0.51100000000E-03 0.  1.
         11   -1    0    0    0    0 -0.00000000000E+00 -0.00000000000E+00 -0.45593999997E+02  0.45594000000E+02  0.51100000000E-03 0. -1.
    9900012    2    1    2    0    0 -0.41428151554E+02  0.93142570140E+01  0.89764867306E+01  0.47787257623E+02  0.19999938805E+02 0.  0.
         12    1    1    2    0    0  0.41428151554E+02 -0.93142570140E+01 -0.89764867306E+01  0.43400742377E+02  0.00000000000E+00 0. -1.
         11    1    3    3    0    0 -0.11962181096E+02 -0.29561473555E+01  0.19948892639E+00  0.12323651238E+02  0.51100000000E-03 0. -1.
        -11    1    3    3    0    0 -0.13819748169E+02  0.70740622827E+00  0.80193052472E+01  0.15993596217E+02  0.51100000000E-03 0.  1.
         12    1    3    3    0    0 -0.15646222289E+02  0.11562998141E+02  0.75769255697E+00  0.19470010168E+02  0.00000000000E+00 0. -1.
</event>
<event>
 7    1  0.2237500E-009  0.4778727E+02  0.7816164E-02  0.1312668E+00
        -11   -1    0    0    0    0  0.00000000000E+00  0.00000000000E+00  0.45593999997E+02  0.45594000000E+02  0.51100000000E-03 0.  1.
         11   -1    0    0    0    0 -0.00000000000E+00 -0.00000000000E+00 -0.45593999997E+02  0.45594000000E+02  0.51100000000E-03 0. -1.
    9900012    2    1    2    0    0  0.39556359607E+02 -0.92664557588E+01 -0.15265993443E+02  0.47787270242E+02  0.19999996342E+02 0.  0.
         12    1    1    2    0    0 -0.39556359607E+02  0.92664557588E+01  0.15265993443E+02  0.43400729758E+02  0.00000000000E+00 0. -1.
         11    1    3    3    0    0 -0.10646844399E+01 -0.11110164558E+01 -0.93298865693E+00  0.17995495594E+01  0.51100000000E-03 0. -1.
        -11    1    3    3    0    0  0.76762094941E+01 -0.54554654760E+01  0.11476268778E+01  0.94870091951E+01  0.51100000000E-03 0.  1.
        -12    1    3    3    0    0  0.32944834553E+02 -0.26999738270E+01 -0.15480631664E+02  0.36500711488E+02  0.00000000000E+00 0.  1.
</event>
<event>
 7    1  0.2237500E-009  0.4778727E+02  0.7816164E-02  0.1312668E+00
        -11   -1    0    0    0    0  0.00000000000E+00  0.00000000000E+00  0.45593999997E+02  0.45594000000E+02  0.51100000000E-03 0.  1.
         11   -1    0    0    0    0 -0.00000000000E+00 -0.00000000000E+00 -0.45593999997E+02  0.45594000000E+02  0.51100000000E-03 0. -1.
    9900012    2    1    2    0    0  0.15693893517E+02 -0.11267147528E+01  0.40448184947E+02  0.47787269069E+02  0.19999990995E+02 0.  0.
         12    1    1    2    0    0 -0.15693893517E+02  0.11267147528E+01 -0.40448184947E+02  0.43400730931E+02  0.00000000000E+00 0. -1.
         11    1    3    3    0    0  0.67796239838E+01 -0.70098813147E+01  0.12638795349E+02  0.15963736579E+02  0.51100000000E-03 0. -1.
        -11    1    3    3    0    0  0.50877828119E+01 -0.26585322001E+01  0.73599204119E+01  0.93339035849E+01  0.51100000000E-03 0.  1.
         12    1    3    3    0    0  0.38264867209E+01  0.85416987620E+01  0.20449469185E+02  0.22489628906E+02  0.00000000000E+00 0. -1.
</event>
<event>
 7    1  0.2237500E-009  0.4778726E+02  0.7816164E-02  0.1312668E+00
        -11   -1    0    0    0    0  0.00000000000E+00  0.00000000000E+00  0.45593999997E+02  0.45594000000E+02  0.51100000000E-03 0.  1.
         11   -1    0    0    0    0 -0.00000000000E+00 -0.00000000000E+00 -0.45593999997E+02  0.45594000000E+02  0.51100000000E-03 0. -1.
    9900012    2    1    2    0    0 -0.10284639666E+01 -0.25474816960E+02  0.35122641899E+02  0.47787262549E+02  0.19999961267E+02 0.  0.
         12    1    1    2    0    0  0.10284639666E+01  0.25474816960E+02 -0.35122641899E+02  0.43400737451E+02  0.00000000000E+00 0. -1.
         11    1    3    3    0    0  0.65142434868E+00 -0.18990440576E+02  0.13052862451E+02  0.23052947867E+02  0.51100000000E-03 0. -1.
        -11    1    3    3    0    0  0.90760454200E+00 -0.61652386188E+01  0.67201009146E+01  0.91648060424E+01  0.51100000000E-03 0.  1.
        -12    1    3    3    0    0 -0.25874928573E+01 -0.31913776585E+00  0.15349678533E+02  0.15569508639E+02  0.00000000000E+00 0.  1.
</event>
<event>
 7    1  0.2389115E-009  0.4778727E+02  0.7816164E-02  0.1312668E+00
        -11   -1    0    0    0    0  0.00000000000E+00  0.00000000000E+00  0.45593999997E+02  0.45594000000E+02  0.51100000000E-03 0. -1.
         11   -1    0    0    0    0 -0.00000000000E+00 -0.00000000000E+00 -0.45593999997E+02  0.45594000000E+02  0.51100000000E-03 0.  1.
    9900012    2    1    2    0    0  0.42778145509E+01  0.43183489035E+02 -0.71405198057E+00  0.47787270827E+02  0.19999999008E+02 0.  0.
         12    1    1    2    0    0 -0.42778145509E+01 -0.43183489035E+02  0.71405198057E+00  0.43400729173E+02  0.00000000000E+00 0. -1.
         11    1    3    3    0    0 -0.24444342532E+01 -0.22072062107E+00 -0.32942210222E+00  0.24763876096E+01  0.51100000000E-03 0. -1.
        -11    1    3    3    0    0  0.16048545210E+01  0.60481394193E+01 -0.40099491910E+01  0.74320415260E+01  0.51100000000E-03 0.  1.
        -12    1    3    3    0    0  0.51173942831E+01  0.37356070236E+02  0.36253193126E+01  0.37878841691E+02  0.00000000000E+00 0.  1.
</event>
<event>
 7    1  0.2237500E-009  0.4778727E+02  0.7816164E-02  0.1312668E+00
        -11   -1    0    0    0    0  0.00000000000E+00  0.00000000000E+00  0.45593999997E+02  0.45594000000E+02  0.51100000000E-03 0.  1.
         11   -1    0    0    0    0 -0.00000000000E+00 -0.00000000000E+00 -0.45593999997E+02  0.45594000000E+02  0.51100000000E-03 0. -1.
    9900012    2    1    2    0    0 -0.35338785255E+02  0.50361063025E+01  0.24686661249E+02  0.47787270126E+02  0.19999995811E+02 0.  0.
         12    1    1    2    0    0  0.35338785255E+02 -0.50361063025E+01 -0.24686661249E+02  0.43400729874E+02  0.00000000000E+00 0. -1.
         11    1    3    3    0    0 -0.30801017989E+01 -0.42305147673E+01  0.21850499419E+01  0.56708664062E+01  0.51100000000E-03 0.  1.
        -11    1    3    3    0    0 -0.59651453426E+01  0.24286877936E+01 -0.58066416099E+00  0.64667344531E+01  0.51100000000E-03 0. -1.
        -12    1    3    3    0    0 -0.26293538113E+02  0.68379332762E+01  0.23082275469E+02  0.35649669266E+02  0.00000000000E+00 0.  1.
</event>
<event>
 7    1  0.2237500E-009  0.4778727E+02  0.7816164E-02  0.1312668E+00
        -11   -1    0    0    0    0  0.00000000000E+00  0.00000000000E+00  0.45593999997E+02  0.45594000000E+02  0.51100000000E-03 0.  1.
         11   -1    0    0    0    0 -0.00000000000E+00 -0.00000000000E+00 -0.45593999997E+02  0.45594000000E+02  0.51100000000E-03 0. -1.
    9900012    2    1    2    0    0  0.41632659603E+02  0.12251977391E+02 -0.48366056508E+00  0.47787271628E+02  0.20000002663E+02 0.  0.
         12    1    1    2    0    0 -0.41632659603E+02 -0.12251977391E+02  0.48366056508E+00  0.43400728372E+02  0.00000000000E+00 0. -1.
         11    1    3    3    0    0  0.19613079926E+02  0.22667747136E+01 -0.33962287916E+01  0.20033610310E+02  0.51100000000E-03 0. -1.
        -11    1    3    3    0    0  0.17695474209E+02  0.58068126374E+01 -0.35141807598E+01  0.18952528780E+02  0.51100000000E-03 0.  1.
        -12    1    3    3    0    0  0.43241054686E+01  0.41783900399E+01  0.64267489862E+01  0.88011325385E+01  0.00000000000E+00 0.  1.
</event>
<event>
 7    1  0.2237500E-009  0.4778727E+02  0.7816164E-02  0.1312668E+00
        -11   -1    0    0    0    0  0.00000000000E+00  0.00000000000E+00  0.45593999997E+02  0.45594000000E+02  0.51100000000E-03 0.  1.
         11   -1    0    0    0    0 -0.00000000000E+00 -0.00000000000E+00 -0.45593999997E+02  0.45594000000E+02  0.51100000000E-03 0. -1.
    9900012    2    1    2    0    0  0.65752489221E+01  0.41957412222E+02  0.89423114687E+01  0.47787271053E+02  0.20000000039E+02 0.  0.
         12    1    1    2    0    0 -0.65752489221E+01 -0.41957412222E+02 -0.89423114687E+01  0.43400728947E+02  0.00000000000E+00 0. -1.
         11    1    3    3    0    0  0.21263498837E+01  0.16053642786E+01  0.17346022060E+01  0.31792142692E+01  0.51100000000E-03 0. -1.
        -11    1    3    3    0    0 -0.40139011626E+01  0.24807198404E+02 -0.88735102917E+00  0.25145494374E+02  0.51100000000E-03 0.  1.
         12    1    3    3    0    0  0.84628002010E+01  0.15544849539E+02  0.80950602918E+01  0.19462562410E+02  0.00000000000E+00 0. -1.
</event>
<event>
 7    1  0.2237500E-009  0.4778727E+02  0.7816164E-02  0.1312668E+00
        -11   -1    0    0    0    0  0.00000000000E+00  0.00000000000E+00  0.45593999997E+02  0.45594000000E+02  0.51100000000E-03 0.  1.
         11   -1    0    0    0    0 -0.00000000000E+00 -0.00000000000E+00 -0.45593999997E+02  0.45594000000E+02  0.51100000000E-03 0. -1.
    9900012    2    1    2    0    0 -0.46150955609E+01  0.34705848826E+02  0.25648166397E+02  0.47787268563E+02  0.19999988685E+02 0.  0.
         12    1    1    2    0    0  0.46150955609E+01 -0.34705848826E+02 -0.25648166397E+02  0.43400731437E+02  0.00000000000E+00 0. -1.
         11    1    3    3    0    0 -0.55546400299E+01  0.45920697767E+01  0.11415689273E+01  0.72968699161E+01  0.51100000000E-03 0. -1.
        -11    1    3    3    0    0 -0.48430036759E+00  0.80258195916E+01  0.83630597060E+00  0.80837945855E+01  0.51100000000E-03 0.  1.
        -12    1    3    3    0    0  0.14238448365E+01  0.22087959458E+02  0.23670291499E+02  0.32406604061E+02  0.00000000000E+00 0.  1.
</event>
<event>
 7    1  0.2237500E-009  0.4778727E+02  0.7816164E-02  0.1312668E+00
        -11   -1    0    0    0    0  0.00000000000E+00  0.00000000000E+00  0.45593999997E+02  0.45594000000E+02  0.51100000000E-03 0.  1.
         11   -1    0    0    0    0 -0.00000000000E+00 -0.00000000000E+00 -0.45593999997E+02  0.45594000000E+02  0.51100000000E-03 0. -1.
    9900012    2    1    2    0    0  0.37422905034E+02 -0.21595219196E+02  0.40982848368E+01  0.47787271297E+02  0.20000001152E+02 0.  0.
         12    1    1    2    0    0 -0.37422905034E+02  0.21595219196E+02 -0.40982848368E+01  0.43400728703E+02  0.00000000000E+00 0. -1.
         11    1    3    3    0    0  0.19638197966E+02 -0.14745948622E+02 -0.64100604663E+00  0.24566495662E+02  0.51100000000E-03 0. -1.
        -11    1    3    3    0    0  0.19131818569E+02 -0.65588415015E+01  0.62571553571E+01  0.21170660760E+02  0.51100000000E-03 0.  1.
         12    1    3    3    0    0 -0.13471115002E+01 -0.29042907239E+00 -0.15178644737E+01  0.20501148750E+01  0.00000000000E+00 0. -1.
</event>
<event>
 7    1  0.2237500E-009  0.4778727E+02  0.7816164E-02  0.1312668E+00
        -11   -1    0    0    0    0  0.00000000000E+00  0.00000000000E+00  0.45593999997E+02  0.45594000000E+02  0.51100000000E-03 0.  1.
         11   -1    0    0    0    0 -0.00000000000E+00 -0.00000000000E+00 -0.45593999997E+02  0.45594000000E+02  0.51100000000E-03 0. -1.
    9900012    2    1    2    0    0 -0.37672221048E+02 -0.18203893098E+02  0.11534531630E+02  0.47787269792E+02  0.19999994291E+02 0.  0.
         12    1    1    2    0    0  0.37672221048E+02  0.18203893098E+02 -0.11534531630E+02  0.43400730208E+02  0.00000000000E+00 0. -1.
         11    1    3    3    0    0 -0.11646974167E+02 -0.38144831078E+01  0.98537311017E+01  0.15725721144E+02  0.51100000000E-03 0. -1.
        -11    1    3    3    0    0  0.12513962698E+01 -0.24801323492E+00  0.27423095997E+00  0.13048777986E+01  0.51100000000E-03 0.  1.
        -12    1    3    3    0    0 -0.27276643151E+02 -0.14141396755E+02  0.14065695686E+01  0.30756670850E+02  0.00000000000E+00 0.  1.
</event>
<event>
 7    1  0.2237500E-009  0.4778727E+02  0.7816164E-02  0.1312668E+00
        -11   -1    0    0    0    0  0.00000000000E+00  0.00000000000E+00  0.45593999997E+02  0.45594000000E+02  0.51100000000E-03 0. -1.
         11   -1    0    0    0    0 -0.00000000000E+00 -0.00000000000E+00 -0.45593999997E+02  0.45594000000E+02  0.51100000000E-03 0.  1.
    9900012    2    1    2    0    0  0.38244248091E+02 -0.19142016233E+02 -0.73881274901E+01  0.47787265844E+02  0.19999976287E+02 0.  0.
         12    1    1    2    0    0 -0.38244248091E+02  0.19142016233E+02  0.73881274901E+01  0.43400734156E+02  0.00000000000E+00 0. -1.
         11    1    3    3    0    0  0.92609703766E+01  0.46017376442E+00 -0.15074441607E+01  0.93941322308E+01  0.51100000000E-03 0. -1.
        -11    1    3    3    0    0  0.23205858001E+01 -0.20656910898E+00  0.34175102752E+01  0.41360809947E+01  0.51100000000E-03 0.  1.
        -12    1    3    3    0    0  0.26662691914E+02 -0.19395620889E+02 -0.92981936046E+01  0.34257052618E+02  0.00000000000E+00 0.  1.
</event>
<event>
 7    1  0.2237500E-009  0.4778727E+02  0.7816164E-02  0.1312668E+00
        -11   -1    0    0    0    0  0.00000000000E+00  0.00000000000E+00  0.45593999997E+02  0.45594000000E+02  0.51100000000E-03 0.  1.
         11   -1    0    0    0    0 -0.00000000000E+00 -0.00000000000E+00 -0.45593999997E+02  0.45594000000E+02  0.51100000000E-03 0. -1.
    9900012    2    1    2    0    0  0.40083217761E+02 -0.39946373894E+01  0.16155550910E+02  0.47787270753E+02  0.19999998670E+02 0.  0.
         12    1    1    2    0    0 -0.40083217761E+02  0.39946373894E+01 -0.16155550910E+02  0.43400729247E+02  0.00000000000E+00 0. -1.
         11    1    3    3    0    0  0.67442341604E+01 -0.31689252329E+01  0.38650314797E-01  0.74517297086E+01  0.51100000000E-03 0. -1.
        -11    1    3    3    0    0  0.71840490928E+01 -0.99390451123E+00  0.11764595307E+02  0.13820423675E+02  0.51100000000E-03 0.  1.
        -12    1    3    3    0    0  0.26154934508E+02  0.16819235476E+00  0.43523052879E+01  0.26515117369E+02  0.00000000000E+00 0.  1.
</event>
<event>
 7    1  0.2237500E-009  0.4778727E+02  0.7816164E-02  0.1312668E+00
        -11   -1    0    0    0    0  0.00000000000E+00  0.00000000000E+00  0.45593999997E+02  0.45594000000E+02  0.51100000000E-03 0.  1.
         11   -1    0    0    0    0 -0.00000000000E+00 -0.00000000000E+00 -0.45593999997E+02  0.45594000000E+02  0.51100000000E-03 0. -1.
    9900012    2    1    2    0    0  0.42161597681E+02  0.10296199929E+02 -0.10561628547E+00  0.47787271818E+02  0.20000003525E+02 0.  0.
         12    1    1    2    0    0 -0.42161597681E+02 -0.10296199929E+02  0.10561628547E+00  0.43400728182E+02  0.00000000000E+00 0. -1.
         11    1    3    3    0    0  0.12176669422E+02  0.86033538894E+01 -0.68013636327E+01  0.16387419683E+02  0.51100000000E-03 0. -1.
        -11    1    3    3    0    0  0.10485328469E+02  0.30980137044E+01  0.72136396528E+00  0.10957197098E+02  0.51100000000E-03 0.  1.
         12    1    3    3    0    0  0.19499599790E+02 -0.14051676645E+01  0.59743833820E+01  0.20442655036E+02  0.00000000000E+00 0. -1.
</event>
<event>
 7    1  0.2237500E-009  0.4778726E+02  0.7816164E-02  0.1312668E+00
        -11   -1    0    0    0    0  0.00000000000E+00  0.00000000000E+00  0.45593999997E+02  0.45594000000E+02  0.51100000000E-03 0.  1.
         11   -1    0    0    0    0 -0.00000000000E+00 -0.00000000000E+00 -0.45593999997E+02  0.45594000000E+02  0.51100000000E-03 0. -1.
    9900012    2    1    2    0    0 -0.36235084485E+02 -0.21897338557E+02  0.95472129503E+01  0.47787262004E+02  0.19999958780E+02 0.  0.
         12    1    1    2    0    0  0.36235084485E+02  0.21897338557E+02 -0.95472129503E+01  0.43400737996E+02  0.00000000000E+00 0. -1.
         11    1    3    3    0    0 -0.84294492385E+01 -0.97410193949E+01 -0.28828300406E+01  0.13200522059E+02  0.51100000000E-03 0. -1.
        -11    1    3    3    0    0 -0.38512408042E-01  0.98830260637E+00  0.18444722851E+01  0.20929174659E+01  0.51100000000E-03 0.  1.
         12    1    3    3    0    0 -0.27767122838E+02 -0.13144621768E+02  0.10585570706E+02  0.32493822479E+02  0.00000000000E+00 0. -1.
</event>
<event>
 7    1  0.2237500E-009  0.4778727E+02  0.7816164E-02  0.1312668E+00
        -11   -1    0    0    0    0  0.00000000000E+00  0.00000000000E+00  0.45593999997E+02  0.45594000000E+02  0.51100000000E-03 0.  1.
         11   -1    0    0    0    0 -0.00000000000E+00 -0.00000000000E+00 -0.45593999997E+02  0.45594000000E+02  0.51100000000E-03 0. -1.
    9900012    2    1    2    0    0  0.11545866538E+02  0.13963767545E+02  0.39437664449E+02  0.47787271718E+02  0.20000003073E+02 0.  0.
         12    1    1    2    0    0 -0.11545866538E+02 -0.13963767545E+02 -0.39437664449E+02  0.43400728282E+02  0.00000000000E+00 0. -1.
         11    1    3    3    0    0  0.48592906373E+01 -0.22749377930E+01  0.86307055184E+01  0.10162535386E+02  0.51100000000E-03 0. -1.
        -11    1    3    3    0    0  0.13247249680E+01 -0.14165436715E+01  0.82876982311E+01  0.85116058675E+01  0.51100000000E-03 0.  1.
         12    1    3    3    0    0  0.53618509324E+01  0.17655249010E+02  0.22519260700E+02  0.29113130465E+02  0.00000000000E+00 0. -1.
</event>
<event>
 7    1  0.2237500E-009  0.4778727E+02  0.7816164E-02  0.1312668E+00
        -11   -1    0    0    0    0  0.00000000000E+00  0.00000000000E+00  0.45593999997E+02  0.45594000000E+02  0.51100000000E-03 0.  1.
         11   -1    0    0    0    0 -0.00000000000E+00 -0.00000000000E+00 -0.45593999997E+02  0.45594000000E+02  0.51100000000E-03 0. -1.
    9900012    2    1    2    0    0 -0.37208324091E+02  0.10976329022E+02  0.19459814770E+02  0.47787267617E+02  0.19999984374E+02 0.  0.
         12    1    1    2    0    0  0.37208324091E+02 -0.10976329022E+02 -0.19459814770E+02  0.43400732383E+02  0.00000000000E+00 0. -1.
         11    1    3    3    0    0 -0.91017334757E+01  0.36450535495E+01  0.41371036978E+01  0.10641597385E+02  0.51100000000E-03 0. -1.
        -11    1    3    3    0    0 -0.18268859810E+02 -0.36560592925E+01  0.55000076764E+01  0.19425964404E+02  0.51100000000E-03 0.  1.
         12    1    3    3    0    0 -0.98377308055E+01  0.10987334765E+02  0.98227033959E+01  0.17719705828E+02  0.00000000000E+00 0. -1.
</event>
<event>
 7    1  0.2516382E-009  0.4778727E+02  0.7816164E-02  0.1312668E+00
        -11   -1    0    0    0    0  0.00000000000E+00  0.00000000000E+00  0.45593999997E+02  0.45594000000E+02  0.51100000000E-03 0. -1.
         11   -1    0    0    0    0 -0.00000000000E+00 -0.00000000000E+00 -0.45593999997E+02  0.45594000000E+02  0.51100000000E-03 0.  1.
    9900012    2    1    2    0    0 -0.58589523569E+01 -0.18133540673E+02 -0.38993213561E+02  0.47787270468E+02  0.19999997373E+02 0.  0.
         12    1    1    2    0    0  0.58589523569E+01  0.18133540673E+02  0.38993213561E+02  0.43400729532E+02  0.00000000000E+00 0. -1.
         11    1    3    3    0    0  0.15435276895E+01 -0.47478626762E+01 -0.14914354345E+01  0.52104757591E+01  0.51100000000E-03 0. -1.
        -11    1    3    3    0    0  0.30239703171E+00  0.24298188789E+01 -0.62679822247E+01  0.67292692902E+01  0.51100000000E-03 0.  1.
        -12    1    3    3    0    0 -0.77048770781E+01 -0.15815496876E+02 -0.31233795902E+02  0.35847525419E+02  0.00000000000E+00 0.  1.
</event>
<event>
 7    1  0.2237500E-009  0.4778727E+02  0.7816164E-02  0.1312668E+00
        -11   -1    0    0    0    0  0.00000000000E+00  0.00000000000E+00  0.45593999997E+02  0.45594000000E+02  0.51100000000E-03 0.  1.
         11   -1    0    0    0    0 -0.00000000000E+00 -0.00000000000E+00 -0.45593999997E+02  0.45594000000E+02  0.51100000000E-03 0. -1.
    9900012    2    1    2    0    0  0.29695943528E+02 -0.54032938240E+01  0.31186196015E+02  0.47787268807E+02  0.19999989799E+02 0.  0.
         12    1    1    2    0    0 -0.29695943528E+02  0.54032938240E+01 -0.31186196015E+02  0.43400731193E+02  0.00000000000E+00 0. -1.
         11    1    3    3    0    0  0.14865498036E+02  0.12711196299E+00  0.10543215574E+02  0.18225218358E+02  0.51100000000E-03 0. -1.
        -11    1    3    3    0    0  0.68028370991E+01  0.41825895359E+01  0.47941073567E+01  0.93142961855E+01  0.51100000000E-03 0.  1.
        -12    1    3    3    0    0  0.80276083936E+01 -0.97129953229E+01  0.15848873085E+02  0.20247754264E+02  0.00000000000E+00 0.  1.
</event>
<event>
 7    1  0.2237500E-009  0.4778727E+02  0.7816164E-02  0.1312668E+00
        -11   -1    0    0    0    0  0.00000000000E+00  0.00000000000E+00  0.45593999997E+02  0.45594000000E+02  0.51100000000E-03 0.  1.
         11   -1    0    0    0    0 -0.00000000000E+00 -0.00000000000E+00 -0.45593999997E+02  0.45594000000E+02  0.51100000000E-03 0. -1.
    9900012    2    1    2    0    0 -0.71328677927E+01 -0.92019716292E+01  0.41809919101E+02  0.47787269360E+02  0.19999992322E+02 0.  0.
         12    1    1    2    0    0  0.71328677927E+01  0.92019716292E+01 -0.41809919101E+02  0.43400730640E+02  0.00000000000E+00 0. -1.
         11    1    3    3    0    0 -0.81199887415E+01 -0.44966663599E+01  0.19963796665E+02  0.22016071472E+02  0.51100000000E-03 0. -1.
        -11    1    3    3    0    0 -0.26808996036E+01 -0.63531380473E+01  0.20340248352E+02  0.21477320341E+02  0.51100000000E-03 0.  1.
         12    1    3    3    0    0  0.36680205525E+01  0.16478327781E+01  0.15058740838E+01  0.42938775476E+01  0.00000000000E+00 0. -1.
</event>
<event>
 7    1  0.2237500E-009  0.4778727E+02  0.7816164E-02  0.1312668E+00
        -11   -1    0    0    0    0  0.00000000000E+00  0.00000000000E+00  0.45593999997E+02  0.45594000000E+02  0.51100000000E-03 0. -1.
         11   -1    0    0    0    0 -0.00000000000E+00 -0.00000000000E+00 -0.45593999997E+02  0.45594000000E+02  0.51100000000E-03 0.  1.
    9900012    2    1    2    0    0  0.13845719652E+02  0.39040651344E+02 -0.12951709342E+02  0.47787272069E+02  0.20000004672E+02 0.  0.
         12    1    1    2    0    0 -0.13845719652E+02 -0.39040651344E+02  0.12951709342E+02  0.43400727931E+02  0.00000000000E+00 0. -1.
         11    1    3    3    0    0  0.19522257806E+01  0.11105326285E+02 -0.44471588545E+01  0.12120919088E+02  0.51100000000E-03 0. -1.
        -11    1    3    3    0    0  0.25486497225E+01  0.19171809701E+02  0.15188363117E+01  0.19400019758E+02  0.51100000000E-03 0.  1.
         12    1    3    3    0    0  0.93448441487E+01  0.87635153582E+01 -0.10023386800E+02  0.16266333223E+02  0.00000000000E+00 0. -1.
</event>
<event>
 7    1  0.2237500E-009  0.4778727E+02  0.7816164E-02  0.1312668E+00
        -11   -1    0    0    0    0  0.00000000000E+00  0.00000000000E+00  0.45593999997E+02  0.45594000000E+02  0.51100000000E-03 0.  1.
         11   -1    0    0    0    0 -0.00000000000E+00 -0.00000000000E+00 -0.45593999997E+02  0.45594000000E+02  0.51100000000E-03 0. -1.
    9900012    2    1    2    0    0 -0.34166748742E+00 -0.73664924872E+01  0.42769631168E+02  0.47787270761E+02  0.19999998707E+02 0.  0.
         12    1    1    2    0    0  0.34166748742E+00  0.73664924872E+01 -0.42769631168E+02  0.43400729239E+02  0.00000000000E+00 0. -1.
         11    1    3    3    0    0 -0.16577717653E+01 -0.87139560787E+01  0.16892522099E+02  0.19079794047E+02  0.51100000000E-03 0. -1.
        -11    1    3    3    0    0 -0.55107901124E+01  0.82521860377E+00  0.11025988183E+02  0.12354036145E+02  0.51100000000E-03 0.  1.
        -12    1    3    3    0    0  0.68268943903E+01  0.52224498778E+00  0.14851120886E+02  0.16353440568E+02  0.00000000000E+00 0.  1.
</event>
<event>
 7    1  0.2237500E-009  0.4778727E+02  0.7816164E-02  0.1312668E+00
        -11   -1    0    0    0    0  0.00000000000E+00  0.00000000000E+00  0.45593999997E+02  0.45594000000E+02  0.51100000000E-03 0.  1.
         11   -1    0    0    0    0 -0.00000000000E+00 -0.00000000000E+00 -0.45593999997E+02  0.45594000000E+02  0.51100000000E-03 0. -1.
    9900012    2    1    2    0    0 -0.11301728123E+01  0.62215465193E+01  0.42937611292E+02  0.47787269648E+02  0.19999993631E+02 0.  0.
         12    1    1    2    0    0  0.11301728123E+01 -0.62215465193E+01 -0.42937611292E+02  0.43400730352E+02  0.00000000000E+00 0. -1.
         11    1    3    3    0    0  0.75322476424E+00 -0.25727068857E+01  0.12300867978E+01  0.29494545354E+01  0.51100000000E-03 0.  1.
        -11    1    3    3    0    0  0.48346887353E+01  0.60575574215E+01  0.12215459151E+02  0.14466708666E+02  0.51100000000E-03 0. -1.
         12    1    3    3    0    0 -0.67180863119E+01  0.27366959835E+01  0.29492065343E+02  0.30371106446E+02  0.00000000000E+00 0. -1.
</event>
<event>
 7    1  0.2237500E-009  0.4778727E+02  0.7816164E-02  0.1312668E+00
        -11   -1    0    0    0    0  0.00000000000E+00  0.00000000000E+00  0.45593999997E+02  0.45594000000E+02  0.51100000000E-03 0.  1.
         11   -1    0    0    0    0 -0.00000000000E+00 -0.00000000000E+00 -0.45593999997E+02  0.45594000000E+02  0.51100000000E-03 0. -1.
    9900012    2    1    2    0    0 -0.22510679195E+02 -0.47278450134E+01  0.36804072969E+02  0.47787274391E+02  0.20000015258E+02 0.  0.
         12    1    1    2    0    0  0.22510679195E+02  0.47278450134E+01 -0.36804072969E+02  0.43400725609E+02  0.00000000000E+00 0. -1.
         11    1    3    3    0    0 -0.60192078706E+01 -0.72883086193E+01  0.52427008566E+01  0.10809080370E+02  0.51100000000E-03 0. -1.
        -11    1    3    3    0    0 -0.15592482186E+00  0.24177360159E+01  0.17653289070E+01  0.29976901781E+01  0.51100000000E-03 0.  1.
        -12    1    3    3    0    0 -0.16335546503E+02  0.14272759000E+00  0.29796043205E+02  0.33980503843E+02  0.00000000000E+00 0.  1.
</event>
<event>
 7    1  0.2237500E-009  0.4778727E+02  0.7816164E-02  0.1312668E+00
        -11   -1    0    0    0    0  0.00000000000E+00  0.00000000000E+00  0.45593999997E+02  0.45594000000E+02  0.51100000000E-03 0.  1.
         11   -1    0    0    0    0 -0.00000000000E+00 -0.00000000000E+00 -0.45593999997E+02  0.45594000000E+02  0.51100000000E-03 0. -1.
    9900012    2    1    2    0    0  0.34004303531E+02  0.21297358183E+02 -0.16545488248E+02  0.47787270679E+02  0.19999998334E+02 0.  0.
         12    1    1    2    0    0 -0.34004303531E+02 -0.21297358183E+02  0.16545488248E+02  0.43400729321E+02  0.00000000000E+00 0. -1.
         11    1    3    3    0    0  0.99982889907E+01  0.51215705180E+01 -0.10216533719E+02  0.15184657678E+02  0.51100000000E-03 0. -1.
        -11    1    3    3    0    0  0.23606570624E+02  0.11290497810E+02 -0.80972560247E+01  0.27391806673E+02  0.51100000000E-03 0.  1.
         12    1    3    3    0    0  0.39944391676E+00  0.48852898549E+01  0.17683014955E+01  0.52108063280E+01  0.00000000000E+00 0. -1.
</event>
<event>
 7    1  0.2237500E-009  0.4778729E+02  0.7816164E-02  0.1312668E+00
        -11   -1    0    0    0    0  0.00000000000E+00  0.00000000000E+00  0.45593999997E+02  0.45594000000E+02  0.51100000000E-03 0. -1.
         11   -1    0    0    0    0 -0.00000000000E+00 -0.00000000000E+00 -0.45593999997E+02  0.45594000000E+02  0.51100000000E-03 0.  1.
    9900012    2    1    2    0    0  0.96641591542E+01  0.39171784133E+02 -0.15993653784E+02  0.47787290263E+02  0.20000087623E+02 0.  0.
         12    1    1    2    0    0 -0.96641591542E+01 -0.39171784133E+02  0.15993653784E+02  0.43400709737E+02  0.00000000000E+00 0. -1.
         11    1    3    3    0    0  0.13541655094E+02  0.18520227701E+02 -0.49580588616E+01  0.23472486121E+02  0.51100000000E-03 0. -1.
        -11    1    3    3    0    0 -0.66239155793E-01  0.29776389851E+01 -0.38297711227E+01  0.48515841397E+01  0.51100000000E-03 0.  1.
        -12    1    3    3    0    0 -0.38112567837E+01  0.17673917447E+02 -0.72058238001E+01  0.19463220001E+02  0.00000000000E+00 0.  1.
</event>
<event>
 7    1  0.2237500E-009  0.4778727E+02  0.7816164E-02  0.1312668E+00
        -11   -1    0    0    0    0  0.00000000000E+00  0.00000000000E+00  0.45593999997E+02  0.45594000000E+02  0.51100000000E-03 0. -1.
         11   -1    0    0    0    0 -0.00000000000E+00 -0.00000000000E+00 -0.45593999997E+02  0.45594000000E+02  0.51100000000E-03 0.  1.
    9900012    2    1    2    0    0  0.10972183731E+02  0.37444733406E+02 -0.19003320709E+02  0.47787273351E+02  0.20000010517E+02 0.  0.
         12    1    1    2    0    0 -0.10972183731E+02 -0.37444733406E+02  0.19003320709E+02  0.43400726649E+02  0.00000000000E+00 0. -1.
         11    1    3    3    0    0  0.15462118640E+01  0.67777711639E+01  0.34652088483E+01  0.77676653958E+01  0.51100000000E-03 0. -1.
        -11    1    3    3    0    0 -0.21225728700E+00  0.11042752488E+02 -0.54668013669E+01  0.12323690726E+02  0.51100000000E-03 0.  1.
         12    1    3    3    0    0  0.96382291541E+01  0.19624209754E+02 -0.17001728191E+02  0.27695917229E+02  0.00000000000E+00 0. -1.
</event>
<event>
 7    1  0.2237500E-009  0.4778727E+02  0.7816164E-02  0.1312668E+00
        -11   -1    0    0    0    0  0.00000000000E+00  0.00000000000E+00  0.45593999997E+02  0.45594000000E+02  0.51100000000E-03 0.  1.
         11   -1    0    0    0    0 -0.00000000000E+00 -0.00000000000E+00 -0.45593999997E+02  0.45594000000E+02  0.51100000000E-03 0. -1.
    9900012    2    1    2    0    0 -0.36236168146E+02  0.15134002362E+02  0.18480409448E+02  0.47787269099E+02  0.19999991129E+02 0.  0.
         12    1    1    2    0    0  0.36236168146E+02 -0.15134002362E+02 -0.18480409448E+02  0.43400730901E+02  0.00000000000E+00 0. -1.
         11    1    3    3    0    0 -0.35869571492E+00  0.37087117150E+01  0.30797562923E+01  0.48340567107E+01  0.51100000000E-03 0. -1.
        -11    1    3    3    0    0 -0.15725910138E+02  0.12192184307E+02  0.85151892822E+01  0.21643984306E+02  0.51100000000E-03 0.  1.
        -12    1    3    3    0    0 -0.20151562293E+02 -0.76689365914E+00  0.68854638734E+01  0.21309228082E+02  0.00000000000E+00 0.  1.
</event>
<event>
 7    1  0.2237500E-009  0.4778727E+02  0.7816164E-02  0.1312668E+00
        -11   -1    0    0    0    0  0.00000000000E+00  0.00000000000E+00  0.45593999997E+02  0.45594000000E+02  0.51100000000E-03 0.  1.
         11   -1    0    0    0    0 -0.00000000000E+00 -0.00000000000E+00 -0.45593999997E+02  0.45594000000E+02  0.51100000000E-03 0. -1.
    9900012    2    1    2    0    0  0.26328491231E+02  0.10199356447E+02  0.32960686055E+02  0.47787272499E+02  0.20000006633E+02 0.  0.
         12    1    1    2    0    0 -0.26328491231E+02 -0.10199356447E+02 -0.32960686055E+02  0.43400727501E+02  0.00000000000E+00 0. -1.
         11    1    3    3    0    0 -0.87411059516E+00  0.25568112234E+01  0.83181280226E+00  0.28272364181E+01  0.51100000000E-03 0. -1.
        -11    1    3    3    0    0  0.75157544202E+01 -0.40460352395E+01  0.94415861704E+01  0.12727942306E+02  0.51100000000E-03 0.  1.
         12    1    3    3    0    0  0.19686847406E+02  0.11688580463E+02  0.22687287082E+02  0.32232093775E+02  0.00000000000E+00 0. -1.
</event>
<event>
 7    1  0.2237500E-009  0.4778727E+02  0.7816164E-02  0.1312668E+00
        -11   -1    0    0    0    0  0.00000000000E+00  0.00000000000E+00  0.45593999997E+02  0.45594000000E+02  0.51100000000E-03 0.  1.
         11   -1    0    0    0    0 -0.00000000000E+00 -0.00000000000E+00 -0.45593999997E+02  0.45594000000E+02  0.51100000000E-03 0. -1.
    9900012    2    1    2    0    0  0.13480061811E+02 -0.35616216607E+02  0.20818176488E+02  0.47787269314E+02  0.19999992110E+02 0.  0.
         12    1    1    2    0    0 -0.13480061811E+02  0.35616216607E+02 -0.20818176488E+02  0.43400730686E+02  0.00000000000E+00 0. -1.
         11    1    3    3    0    0  0.61316573895E+01 -0.16692107479E+01  0.71085784420E+01  0.95349554058E+01  0.51100000000E-03 0. -1.
        -11    1    3    3    0    0  0.29340214425E+01 -0.41011109411E+01  0.43603653953E+01  0.66663617827E+01  0.51100000000E-03 0.  1.
        -12    1    3    3    0    0  0.44143829787E+01 -0.29845894918E+02  0.93492326509E+01  0.31585952126E+02  0.00000000000E+00 0.  1.
</event>
<event>
 7    1  0.2237500E-009  0.4778727E+02  0.7816164E-02  0.1312668E+00
        -11   -1    0    0    0    0  0.00000000000E+00  0.00000000000E+00  0.45593999997E+02  0.45594000000E+02  0.51100000000E-03 0. -1.
         11   -1    0    0    0    0 -0.00000000000E+00 -0.00000000000E+00 -0.45593999997E+02  0.45594000000E+02  0.51100000000E-03 0.  1.
    9900012    2    1    2    0    0  0.26073720828E+02  0.12761862605E+02 -0.32263279062E+02  0.47787271541E+02  0.20000002263E+02 0.  0.
         12    1    1    2    0    0 -0.26073720828E+02 -0.12761862605E+02  0.32263279062E+02  0.43400728459E+02  0.00000000000E+00 0. -1.
         11    1    3    3    0    0  0.21113523193E+01 -0.40974280913E+01 -0.30166831978E+01  0.55088205051E+01  0.51100000000E-03 0. -1.
        -11    1    3    3    0    0  0.10813810659E+02  0.30443257216E+01 -0.13368815539E+02  0.17462292211E+02  0.51100000000E-03 0.  1.
         12    1    3    3    0    0  0.13148557849E+02  0.13814964975E+02 -0.15877780325E+02  0.24816158825E+02  0.00000000000E+00 0. -1.
</event>
<event>
 7    1  0.2237500E-009  0.4778728E+02  0.7816164E-02  0.1312668E+00
        -11   -1    0    0    0    0  0.00000000000E+00  0.00000000000E+00  0.45593999997E+02  0.45594000000E+02  0.51100000000E-03 0. -1.
         11   -1    0    0    0    0 -0.00000000000E+00 -0.00000000000E+00 -0.45593999997E+02  0.45594000000E+02  0.51100000000E-03 0.  1.
    9900012    2    1    2    0    0  0.22251047120E+01 -0.43159366263E+02  0.39925886889E+01  0.47787277061E+02  0.20000027430E+02 0.  0.
         12    1    1    2    0    0 -0.22251047120E+01  0.43159366263E+02 -0.39925886889E+01  0.43400722939E+02  0.00000000000E+00 0. -1.
         11    1    3    3    0    0  0.18438739738E+00 -0.35998001094E+01 -0.14046280165E+01  0.38685319782E+01  0.51100000000E-03 0. -1.
        -11    1    3    3    0    0 -0.44399659712E+01 -0.34139268130E+02  0.11101182974E+01  0.34444669968E+02  0.51100000000E-03 0.  1.
         12    1    3    3    0    0  0.64806832859E+01 -0.54202980235E+01  0.42870984080E+01  0.94740751146E+01  0.00000000000E+00 0. -1.
</event>
<event>
 7    1  0.2237500E-009  0.4778727E+02  0.7816164E-02  0.1312668E+00
        -11   -1    0    0    0    0  0.00000000000E+00  0.00000000000E+00  0.45593999997E+02  0.45594000000E+02  0.51100000000E-03 0.  1.
         11   -1    0    0    0    0 -0.00000000000E+00 -0.00000000000E+00 -0.45593999997E+02  0.45594000000E+02  0.51100000000E-03 0. -1.
    9900012    2    1    2    0    0  0.42592373230E+02 -0.76071025135E+01 -0.34125359913E+01  0.47787266505E+02  0.19999979305E+02 0.  0.
         12    1    1    2    0    0 -0.42592373230E+02  0.76071025135E+01  0.34125359913E+01  0.43400733495E+02  0.00000000000E+00 0. -1.
         11    1    3    3    0    0  0.21496650880E+02 -0.87656619112E+01 -0.25566954971E+01  0.23355502990E+02  0.51100000000E-03 0. -1.
        -11    1    3    3    0    0  0.17085236975E+02 -0.11026470182E+01  0.41644493409E+01  0.17619982733E+02  0.51100000000E-03 0.  1.
         12    1    3    3    0    0  0.40104853743E+01  0.22612064158E+01 -0.50202898351E+01  0.68117807819E+01  0.00000000000E+00 0. -1.
</event>
<event>
 7    1  0.2237500E-009  0.4778727E+02  0.7816164E-02  0.1312668E+00
        -11   -1    0    0    0    0  0.00000000000E+00  0.00000000000E+00  0.45593999997E+02  0.45594000000E+02  0.51100000000E-03 0.  1.
         11   -1    0    0    0    0 -0.00000000000E+00 -0.00000000000E+00 -0.45593999997E+02  0.45594000000E+02  0.51100000000E-03 0. -1.
    9900012    2    1    2    0    0 -0.40263660374E+02 -0.16305453117E+01  0.16118382709E+02  0.47787270906E+02  0.19999999370E+02 0.  0.
         12    1    1    2    0    0  0.40263660374E+02  0.16305453117E+01 -0.16118382709E+02  0.43400729094E+02  0.00000000000E+00 0. -1.
         11    1    3    3    0    0 -0.64939786427E+01 -0.94378189288E+00  0.36975668549E+01  0.75322296687E+01  0.51100000000E-03 0. -1.
        -11    1    3    3    0    0 -0.35595537205E+01  0.34552054699E+01  0.80427684651E+01  0.94496027627E+01  0.51100000000E-03 0.  1.
         12    1    3    3    0    0 -0.30210128011E+02 -0.41419688887E+01  0.43780473893E+01  0.30805438475E+02  0.00000000000E+00 0. -1.
</event>
<event>
 7    1  0.2237500E-009  0.4778727E+02  0.7816164E-02  0.1312668E+00
        -11   -1    0    0    0    0  0.00000000000E+00  0.00000000000E+00  0.45593999997E+02  0.45594000000E+02  0.51100000000E-03 0. -1.
         11   -1    0    0    0    0 -0.00000000000E+00 -0.00000000000E+00 -0.45593999997E+02  0.45594000000E+02  0.51100000000E-03 0.  1.
    9900012    2    1    2    0    0 -0.30462753008E+02 -0.15664740790E+01 -0.30873776602E+02  0.47787271394E+02  0.20000001594E+02 0.  0.
         12    1    1    2    0    0  0.30462753008E+02  0.15664740790E+01  0.30873776602E+02  0.43400728606E+02  0.00000000000E+00 0. -1.
         11    1    3    3    0    0 -0.47352505408E+01  0.23504829595E+01 -0.49274444310E+01  0.72268303363E+01  0.51100000000E-03 0. -1.
        -11    1    3    3    0    0 -0.17624378676E+02 -0.67535446394E+01 -0.25809154526E+02  0.31974076164E+02  0.51100000000E-03 0.  1.
         12    1    3    3    0    0 -0.81031237907E+01  0.28365876009E+01 -0.13717764483E+00  0.85863648939E+01  0.00000000000E+00 0. -1.
</event>
<event>
 7    1  0.2237500E-009  0.4778727E+02  0.7816164E-02  0.1312668E+00
        -11   -1    0    0    0    0  0.00000000000E+00  0.00000000000E+00  0.45593999997E+02  0.45594000000E+02  0.51100000000E-03 0.  1.
         11   -1    0    0    0    0 -0.00000000000E+00 -0.00000000000E+00 -0.45593999997E+02  0.45594000000E+02  0.51100000000E-03 0. -1.
    9900012    2    1    2    0    0  0.97180198100E+01  0.15731720071E+02  0.39264442669E+02  0.47787269781E+02  0.19999994239E+02 0.  0.
         12    1    1    2    0    0 -0.97180198100E+01 -0.15731720071E+02 -0.39264442669E+02  0.43400730219E+02  0.00000000000E+00 0. -1.
         11    1    3    3    0    0  0.29800047855E+01  0.13679589775E+02  0.10637146370E+02  0.17582960163E+02  0.51100000000E-03 0. -1.
        -11    1    3    3    0    0  0.52347279084E+01  0.12064860541E+01  0.88560666547E+01  0.10357987340E+02  0.51100000000E-03 0.  1.
        -12    1    3    3    0    0  0.15032871161E+01  0.84564424275E+00  0.19771229644E+02  0.19846322278E+02  0.00000000000E+00 0.  1.
</event>
<event>
 7    1  0.2237500E-009  0.4778727E+02  0.7816164E-02  0.1312668E+00
        -11   -1    0    0    0    0  0.00000000000E+00  0.00000000000E+00  0.45593999997E+02  0.45594000000E+02  0.51100000000E-03 0.  1.
         11   -1    0    0    0    0 -0.00000000000E+00 -0.00000000000E+00 -0.45593999997E+02  0.45594000000E+02  0.51100000000E-03 0. -1.
    9900012    2    1    2    0    0  0.73783631347E+01 -0.25047799775E+02  0.34666849930E+02  0.47787274198E+02  0.20000014377E+02 0.  0.
         12    1    1    2    0    0 -0.73783631347E+01  0.25047799775E+02 -0.34666849930E+02  0.43400725802E+02  0.00000000000E+00 0. -1.
         11    1    3    3    0    0  0.77773690923E+01 -0.90882017294E+01  0.13242435341E+02  0.17845026609E+02  0.51100000000E-03 0. -1.
        -11    1    3    3    0    0  0.27330277528E+01  0.13490851441E+01  0.51183108521E+01  0.59570611599E+01  0.51100000000E-03 0.  1.
        -12    1    3    3    0    0 -0.31320337105E+01 -0.17308683189E+02  0.16306103737E+02  0.23985186428E+02  0.00000000000E+00 0.  1.
</event>
<event>
 7    1  0.2237500E-009  0.4778724E+02  0.7816164E-02  0.1312668E+00
        -11   -1    0    0    0    0  0.00000000000E+00  0.00000000000E+00  0.45593999997E+02  0.45594000000E+02  0.51100000000E-03 0.  1.
         11   -1    0    0    0    0 -0.00000000000E+00 -0.00000000000E+00 -0.45593999997E+02  0.45594000000E+02  0.51100000000E-03 0. -1.
    9900012    2    1    2    0    0 -0.40165487854E+02 -0.36566463584E+01 -0.16030854106E+02  0.47787242397E+02  0.19999869386E+02 0.  0.
         12    1    1    2    0    0  0.40165487854E+02  0.36566463584E+01  0.16030854106E+02  0.43400757603E+02  0.00000000000E+00 0. -1.
         11    1    3    3    0    0 -0.15939790618E+02 -0.97373396791E+00 -0.11403726805E+02  0.19623202290E+02  0.51100000000E-03 0. -1.
        -11    1    3    3    0    0 -0.15866516606E+02  0.65043813703E+00 -0.88978789458E+01  0.18202792889E+02  0.51100000000E-03 0.  1.
        -12    1    3    3    0    0 -0.83591806291E+01 -0.33333505275E+01  0.42707516447E+01  0.99612472181E+01  0.00000000000E+00 0.  1.
</event>
<event>
 7    1  0.2237500E-009  0.4778727E+02  0.7816164E-02  0.1312668E+00
        -11   -1    0    0    0    0  0.00000000000E+00  0.00000000000E+00  0.45593999997E+02  0.45594000000E+02  0.51100000000E-03 0. -1.
         11   -1    0    0    0    0 -0.00000000000E+00 -0.00000000000E+00 -0.45593999997E+02  0.45594000000E+02  0.51100000000E-03 0.  1.
    9900012    2    1    2    0    0  0.50051837920E+00  0.32391909011E+02 -0.28881430793E+02  0.47787270367E+02  0.19999996910E+02 0.  0.
         12    1    1    2    0    0 -0.50051837920E+00 -0.32391909011E+02  0.28881430793E+02  0.43400729633E+02  0.00000000000E+00 0. -1.
         11    1    3    3    0    0  0.90763813317E+00  0.12097583504E+02 -0.10812582424E+02  0.16250762215E+02  0.51100000000E-03 0.  1.
        -11    1    3    3    0    0 -0.23107586405E+01  0.21773786361E+02 -0.18962037676E+02  0.28965432003E+02  0.51100000000E-03 0. -1.
         12    1    3    3    0    0  0.19036388865E+01 -0.14794608540E+01  0.89318930685E+00  0.25710761495E+01  0.00000000000E+00 0. -1.
</event>
<event>
 7    1  0.2237500E-009  0.4778728E+02  0.7816164E-02  0.1312668E+00
        -11   -1    0    0    0    0  0.00000000000E+00  0.00000000000E+00  0.45593999997E+02  0.45594000000E+02  0.51100000000E-03 0.  1.
         11   -1    0    0    0    0 -0.00000000000E+00 -0.00000000000E+00 -0.45593999997E+02  0.45594000000E+02  0.51100000000E-03 0. -1.
    9900012    2    1    2    0    0  0.12009796751E+02  0.15997132076E+02  0.38515961162E+02  0.47787277461E+02  0.20000029257E+02 0.  0.
         12    1    1    2    0    0 -0.12009796751E+02 -0.15997132076E+02 -0.38515961162E+02  0.43400722539E+02  0.00000000000E+00 0. -1.
         11    1    3    3    0    0  0.40543015278E+01  0.53954555807E+00  0.10929757145E+02  0.11669964087E+02  0.51100000000E-03 0. -1.
        -11    1    3    3    0    0  0.12408251998E+02  0.11891603219E+02  0.17490014394E+02  0.24520920630E+02  0.51100000000E-03 0.  1.
         12    1    3    3    0    0 -0.44527567749E+01  0.35659832988E+01  0.10096189623E+02  0.11596392745E+02  0.00000000000E+00 0. -1.
</event>
<event>
 7    1  0.2237500E-009  0.4778727E+02  0.7816164E-02  0.1312668E+00
        -11   -1    0    0    0    0  0.00000000000E+00  0.00000000000E+00  0.45593999997E+02  0.45594000000E+02  0.51100000000E-03 0. -1.
         11   -1    0    0    0    0 -0.00000000000E+00 -0.00000000000E+00 -0.45593999997E+02  0.45594000000E+02  0.51100000000E-03 0.  1.
    9900012    2    1    2    0    0 -0.24703032951E+02  0.48978338999E+01 -0.35346781607E+02  0.47787267473E+02  0.19999983717E+02 0.  0.
         12    1    1    2    0    0  0.24703032951E+02 -0.48978338999E+01  0.35346781607E+02  0.43400732527E+02  0.00000000000E+00 0. -1.
         11    1    3    3    0    0  0.52597139462E+00  0.12202703987E+01 -0.40017472138E+00  0.13877484724E+01  0.51100000000E-03 0. -1.
        -11    1    3    3    0    0  0.74785358220E+00 -0.33323731777E+01 -0.58142887402E+01  0.67431409441E+01  0.51100000000E-03 0.  1.
         12    1    3    3    0    0 -0.25976857928E+02  0.70099366789E+01 -0.29132318145E+02  0.39656378057E+02  0.00000000000E+00 0. -1.
</event>
<event>
 7    1  0.2237500E-009  0.4778727E+02  0.7816164E-02  0.1312668E+00
        -11   -1    0    0    0    0  0.00000000000E+00  0.00000000000E+00  0.45593999997E+02  0.45594000000E+02  0.51100000000E-03 0.  1.
         11   -1    0    0    0    0 -0.00000000000E+00 -0.00000000000E+00 -0.45593999997E+02  0.45594000000E+02  0.51100000000E-03 0. -1.
    9900012    2    1    2    0    0 -0.19150828110E+02  0.27260111827E+02  0.27816456507E+02  0.47787272279E+02  0.20000005629E+02 0.  0.
         12    1    1    2    0    0  0.19150828110E+02 -0.27260111827E+02 -0.27816456507E+02  0.43400727721E+02  0.00000000000E+00 0. -1.
         11    1    3    3    0    0 -0.64806648218E+00 -0.56004636714E+00 -0.92850285334E+00  0.12632339088E+01  0.51100000000E-03 0. -1.
        -11    1    3    3    0    0 -0.66930756519E+01  0.16628851629E+02  0.67248390418E+01  0.19145219471E+02  0.51100000000E-03 0.  1.
        -12    1    3    3    0    0 -0.11809685976E+02  0.11191306565E+02  0.22020120319E+02  0.27378818899E+02  0.00000000000E+00 0.  1.
</event>
<event>
 7    1  0.2237500E-009  0.4778727E+02  0.7816164E-02  0.1312668E+00
        -11   -1    0    0    0    0  0.00000000000E+00  0.00000000000E+00  0.45593999997E+02  0.45594000000E+02  0.51100000000E-03 0. -1.
         11   -1    0    0    0    0 -0.00000000000E+00 -0.00000000000E+00 -0.45593999997E+02  0.45594000000E+02  0.51100000000E-03 0.  1.
    9900012    2    1    2    0    0  0.16564000458E+02  0.30219099150E+02 -0.26383004770E+02  0.47787274139E+02  0.20000014109E+02 0.  0.
         12    1    1    2    0    0 -0.16564000458E+02 -0.30219099150E+02  0.26383004770E+02  0.43400725861E+02  0.00000000000E+00 0. -1.
         11    1    3    3    0    0  0.82323582918E+01  0.90449392527E+01 -0.16148718879E+02  0.20257437420E+02  0.51100000000E-03 0. -1.
        -11    1    3    3    0    0  0.47452049342E+01  0.15551671205E+02 -0.12475741743E+02  0.20494281628E+02  0.51100000000E-03 0.  1.
         12    1    3    3    0    0  0.35864372318E+01  0.56224886915E+01  0.22414558518E+01  0.70355550910E+01  0.00000000000E+00 0. -1.
</event>
<event>
 7    1  0.2237500E-009  0.4778727E+02  0.7816164E-02  0.1312668E+00
        -11   -1    0    0    0    0  0.00000000000E+00  0.00000000000E+00  0.45593999997E+02  0.45594000000E+02  0.51100000000E-03 0. -1.
         11   -1    0    0    0    0 -0.00000000000E+00 -0.00000000000E+00 -0.45593999997E+02  0.45594000000E+02  0.51100000000E-03 0.  1.
    9900012    2    1    2    0    0 -0.41976080162E+02 -0.95914112969E+01 -0.54439841137E+01  0.47787269137E+02  0.19999991304E+02 0.  0.
         12    1    1    2    0    0  0.41976080162E+02  0.95914112969E+01  0.54439841137E+01  0.43400730863E+02  0.00000000000E+00 0. -1.
         11    1    3    3    0    0 -0.66963116869E+00 -0.53661589793E+00 -0.13838743718E+01  0.16283338301E+01  0.51100000000E-03 0. -1.
        -11    1    3    3    0    0 -0.11082950894E+02 -0.99926288706E+01  0.27240089704E+01  0.15169200948E+02  0.51100000000E-03 0.  1.
        -12    1    3    3    0    0 -0.30223498099E+02  0.93783347160E+00 -0.67841187122E+01  0.30989734359E+02  0.00000000000E+00 0.  1.
</event>
<event>
 7    1  0.2237500E-009  0.4778727E+02  0.7816164E-02  0.1312668E+00
        -11   -1    0    0    0    0  0.00000000000E+00  0.00000000000E+00  0.45593999997E+02  0.45594000000E+02  0.51100000000E-03 0.  1.
         11   -1    0    0    0    0 -0.00000000000E+00 -0.00000000000E+00 -0.45593999997E+02  0.45594000000E+02  0.51100000000E-03 0. -1.
    9900012    2    1    2    0    0 -0.17868979892E+02  0.25629529451E+01  0.39468397398E+02  0.47787267709E+02  0.19999984793E+02 0.  0.
         12    1    1    2    0    0  0.17868979892E+02 -0.25629529451E+01 -0.39468397398E+02  0.43400732291E+02  0.00000000000E+00 0. -1.
         11    1    3    3    0    0 -0.44275250918E+01  0.18579545783E+01  0.18000731135E+00  0.48049325226E+01  0.51100000000E-03 0. -1.
        -11    1    3    3    0    0  0.85114399793E+00 -0.25693864914E+01  0.75514270285E+01  0.80218603501E+01  0.51100000000E-03 0.  1.
         12    1    3    3    0    0 -0.14292598799E+02  0.32743848583E+01  0.31736963058E+02  0.34960474836E+02  0.00000000000E+00 0. -1.
</event>
<event>
 7    1  0.2237500E-009  0.4778727E+02  0.7816164E-02  0.1312668E+00
        -11   -1    0    0    0    0  0.00000000000E+00  0.00000000000E+00  0.45593999997E+02  0.45594000000E+02  0.51100000000E-03 0.  1.
         11   -1    0    0    0    0 -0.00000000000E+00 -0.00000000000E+00 -0.45593999997E+02  0.45594000000E+02  0.51100000000E-03 0. -1.
    9900012    2    1    2    0    0 -0.36546227814E+02  0.23267591562E+02  0.25720425432E+01  0.47787274345E+02  0.20000015050E+02 0.  0.
         12    1    1    2    0    0  0.36546227814E+02 -0.23267591562E+02 -0.25720425432E+01  0.43400725655E+02  0.00000000000E+00 0. -1.
         11    1    3    3    0    0 -0.11104449109E+02  0.43077778112E+01  0.10441622035E+01  0.11956421482E+02  0.51100000000E-03 0. -1.
        -11    1    3    3    0    0 -0.14214470416E+02  0.54235220035E+01  0.78784712864E+01  0.17132894390E+02  0.51100000000E-03 0.  1.
         12    1    3    3    0    0 -0.11227308289E+02  0.13536291747E+02 -0.63505909467E+01  0.18697958473E+02  0.00000000000E+00 0. -1.
</event>
<event>
 7    1  0.2237500E-009  0.4778727E+02  0.7816164E-02  0.1312668E+00
        -11   -1    0    0    0    0  0.00000000000E+00  0.00000000000E+00  0.45593999997E+02  0.45594000000E+02  0.51100000000E-03 0.  1.
         11   -1    0    0    0    0 -0.00000000000E+00 -0.00000000000E+00 -0.45593999997E+02  0.45594000000E+02  0.51100000000E-03 0. -1.
    9900012    2    1    2    0    0 -0.24958964869E+02 -0.18493735400E+01  0.35457769099E+02  0.47787268447E+02  0.19999988158E+02 0.  0.
         12    1    1    2    0    0  0.24958964869E+02  0.18493735400E+01 -0.35457769099E+02  0.43400731553E+02  0.00000000000E+00 0. -1.
         11    1    3    3    0    0  0.83189963097E+00 -0.25751482511E+01  0.35058912440E+01  0.44288507750E+01  0.51100000000E-03 0. -1.
        -11    1    3    3    0    0 -0.60373856357E+01  0.20341419266E+01  0.18122325808E+02  0.19209540641E+02  0.51100000000E-03 0.  1.
        -12    1    3    3    0    0 -0.19753478865E+02 -0.13083672155E+01  0.13829552047E+02  0.24148877031E+02  0.00000000000E+00 0.  1.
</event>
<event>
 7    1  0.2237500E-009  0.4778727E+02  0.7816164E-02  0.1312668E+00
        -11   -1    0    0    0    0  0.00000000000E+00  0.00000000000E+00  0.45593999997E+02  0.45594000000E+02  0.51100000000E-03 0.  1.
         11   -1    0    0    0    0 -0.00000000000E+00 -0.00000000000E+00 -0.45593999997E+02  0.45594000000E+02  0.51100000000E-03 0. -1.
    9900012    2    1    2    0    0  0.87331004893E+01  0.45769757326E+01  0.42265917537E+02  0.47787268021E+02  0.19999986216E+02 0.  0.
         12    1    1    2    0    0 -0.87331004893E+01 -0.45769757326E+01 -0.42265917537E+02  0.43400731979E+02  0.00000000000E+00 0. -1.
         11    1    3    3    0    0  0.23058956025E+01  0.46676130967E+01  0.23339178517E+01  0.57053430528E+01  0.51100000000E-03 0. -1.
        -11    1    3    3    0    0  0.44312947174E+01  0.56174723087E+01  0.23874274402E+02  0.24923349423E+02  0.51100000000E-03 0.  1.
        -12    1    3    3    0    0  0.19959101694E+01 -0.57081096728E+01  0.16057725284E+02  0.17158575545E+02  0.00000000000E+00 0.  1.
</event>
<event>
 7    1  0.2237500E-009  0.4778730E+02  0.7816164E-02  0.1312668E+00
        -11   -1    0    0    0    0  0.00000000000E+00  0.00000000000E+00  0.45593999997E+02  0.45594000000E+02  0.51100000000E-03 0.  1.
         11   -1    0    0    0    0 -0.00000000000E+00 -0.00000000000E+00 -0.45593999997E+02  0.45594000000E+02  0.51100000000E-03 0. -1.
    9900012    2    1    2    0    0  0.30736249930E+02 -0.59857624442E+00  0.30635691745E+02  0.47787297679E+02  0.20000121435E+02 0.  0.
         12    1    1    2    0    0 -0.30736249930E+02  0.59857624442E+00 -0.30635691745E+02  0.43400702321E+02  0.00000000000E+00 0. -1.
         11    1    3    3    0    0  0.94403516478E+01  0.18723343452E+01  0.17448764262E+02  0.19926998009E+02  0.51100000000E-03 0. -1.
        -11    1    3    3    0    0  0.15282543051E+02  0.25661070419E+01  0.12638679961E+02  0.19996931237E+02  0.51100000000E-03 0.  1.
         12    1    3    3    0    0  0.60133552315E+01 -0.50370176316E+01  0.54824752155E+00  0.78633684325E+01  0.00000000000E+00 0. -1.
</event>
<event>
 7    1  0.2237500E-009  0.4778727E+02  0.7816164E-02  0.1312668E+00
        -11   -1    0    0    0    0  0.00000000000E+00  0.00000000000E+00  0.45593999997E+02  0.45594000000E+02  0.51100000000E-03 0.  1.
         11   -1    0    0    0    0 -0.00000000000E+00 -0.00000000000E+00 -0.45593999997E+02  0.45594000000E+02  0.51100000000E-03 0. -1.
    9900012    2    1    2    0    0 -0.43588137750E+01 -0.25661237699E+01  0.43104976904E+02  0.47787270943E+02  0.19999999539E+02 0.  0.
         12    1    1    2    0    0  0.43588137750E+01  0.25661237699E+01 -0.43104976904E+02  0.43400729057E+02  0.00000000000E+00 0. -1.
         11    1    3    3    0    0 -0.52883573630E+00 -0.65143459761E+01  0.20423616625E+02  0.21443891602E+02  0.51100000000E-03 0. -1.
        -11    1    3    3    0    0 -0.34127873026E+01  0.22312522620E+01  0.23868769306E+02  0.24214535971E+02  0.51100000000E-03 0.  1.
        -12    1    3    3    0    0 -0.41719073602E+00  0.17169699442E+01 -0.11874090268E+01  0.21288433706E+01  0.00000000000E+00 0.  1.
</event>
<event>
 7    1  0.2237500E-009  0.4778727E+02  0.7816164E-02  0.1312668E+00
        -11   -1    0    0    0    0  0.00000000000E+00  0.00000000000E+00  0.45593999997E+02  0.45594000000E+02  0.51100000000E-03 0. -1.
         11   -1    0    0    0    0 -0.00000000000E+00 -0.00000000000E+00 -0.45593999997E+02  0.45594000000E+02  0.51100000000E-03 0.  1.
    9900012    2    1    2    0    0 -0.26182171740E+02 -0.22688554576E+02  0.26140900616E+02  0.47787270619E+02  0.19999998062E+02 0.  0.
         12    1    1    2    0    0  0.26182171740E+02  0.22688554576E+02 -0.26140900616E+02  0.43400729381E+02  0.00000000000E+00 0. -1.
         11    1    3    3    0    0 -0.77909273868E+01 -0.14413734657E+02  0.16833137168E+02  0.23490610965E+02  0.51100000000E-03 0. -1.
        -11    1    3    3    0    0  0.80618200002E+00 -0.18886745095E+01  0.67465115785E-01  0.20546465932E+01  0.51100000000E-03 0.  1.
        -12    1    3    3    0    0 -0.19197426353E+02 -0.63861454093E+01  0.92402983317E+01  0.22242013061E+02  0.00000000000E+00 0.  1.
</event>
<event>
 7    1  0.2237500E-009  0.4778727E+02  0.7816164E-02  0.1312668E+00
        -11   -1    0    0    0    0  0.00000000000E+00  0.00000000000E+00  0.45593999997E+02  0.45594000000E+02  0.51100000000E-03 0.  1.
         11   -1    0    0    0    0 -0.00000000000E+00 -0.00000000000E+00 -0.45593999997E+02  0.45594000000E+02  0.51100000000E-03 0. -1.
    9900012    2    1    2    0    0  0.18866802021E+01  0.12672989154E+02  0.41466363397E+02  0.47787268328E+02  0.19999987616E+02 0.  0.
         12    1    1    2    0    0 -0.18866802021E+01 -0.12672989154E+02 -0.41466363397E+02  0.43400731672E+02  0.00000000000E+00 0. -1.
         11    1    3    3    0    0  0.80025895221E+01  0.60861278062E+01  0.29547787050E+02  0.31211441981E+02  0.51100000000E-03 0. -1.
        -11    1    3    3    0    0  0.13759050511E+01  0.24966888496E+01  0.41465681130E+01  0.50319576010E+01  0.51100000000E-03 0.  1.
        -12    1    3    3    0    0 -0.74918143711E+01  0.40901724983E+01  0.77720082336E+01  0.11543868746E+02  0.00000000000E+00 0.  1.
</event>
<event>
 7    1  0.2237500E-009  0.4778726E+02  0.7816164E-02  0.1312668E+00
        -11   -1    0    0    0    0  0.00000000000E+00  0.00000000000E+00  0.45593999997E+02  0.45594000000E+02  0.51100000000E-03 0.  1.
         11   -1    0    0    0    0 -0.00000000000E+00 -0.00000000000E+00 -0.45593999997E+02  0.45594000000E+02  0.51100000000E-03 0. -1.
    9900012    2    1    2    0    0  0.25136890520E+02  0.89751153550E+01  0.34222916032E+02  0.47787263343E+02  0.19999964885E+02 0.  0.
         12    1    1    2    0    0 -0.25136890520E+02 -0.89751153550E+01 -0.34222916032E+02  0.43400736657E+02  0.00000000000E+00 0. -1.
         11    1    3    3    0    0  0.21916042362E+01 -0.44270842575E+01  0.10194117095E+02  0.11327940138E+02  0.51100000000E-03 0. -1.
        -11    1    3    3    0    0  0.53337153519E+01  0.51656389667E+01  0.10130089399E+02  0.12559898761E+02  0.51100000000E-03 0.  1.
         12    1    3    3    0    0  0.17611570931E+02  0.82365606458E+01  0.13898709538E+02  0.23899424444E+02  0.00000000000E+00 0. -1.
</event>
<event>
 7    1  0.2237500E-009  0.4778727E+02  0.7816164E-02  0.1312668E+00
        -11   -1    0    0    0    0  0.00000000000E+00  0.00000000000E+00  0.45593999997E+02  0.45594000000E+02  0.51100000000E-03 0.  1.
         11   -1    0    0    0    0 -0.00000000000E+00 -0.00000000000E+00 -0.45593999997E+02  0.45594000000E+02  0.51100000000E-03 0. -1.
    9900012    2    1    2    0    0  0.35380860003E+02  0.16194878123E+02  0.19223525202E+02  0.47787271283E+02  0.20000001087E+02 0.  0.
         12    1    1    2    0    0 -0.35380860003E+02 -0.16194878123E+02 -0.19223525202E+02  0.43400728717E+02  0.00000000000E+00 0. -1.
         11    1    3    3    0    0  0.46450005654E+01  0.67290180311E+01  0.45667826381E+01  0.93654267303E+01  0.51100000000E-03 0. -1.
        -11    1    3    3    0    0  0.16595826179E+02  0.12831181558E+02  0.83799772616E+01  0.22589481754E+02  0.51100000000E-03 0.  1.
        -12    1    3    3    0    0  0.14140033258E+02 -0.33653214660E+01  0.62767653025E+01  0.15832362798E+02  0.00000000000E+00 0.  1.
</event>
<event>
 7    1  0.2237500E-009  0.4778726E+02  0.7816164E-02  0.1312668E+00
        -11   -1    0    0    0    0  0.00000000000E+00  0.00000000000E+00  0.45593999997E+02  0.45594000000E+02  0.51100000000E-03 0. -1.
         11   -1    0    0    0    0 -0.00000000000E+00 -0.00000000000E+00 -0.45593999997E+02  0.45594000000E+02  0.51100000000E-03 0.  1.
    9900012    2    1    2    0    0  0.21626006951E+02 -0.23149872227E+02 -0.29665190386E+02  0.47787259437E+02  0.19999947078E+02 0.  0.
         12    1    1    2    0    0 -0.21626006951E+02  0.23149872227E+02  0.29665190386E+02  0.43400740563E+02  0.00000000000E+00 0. -1.
         11    1    3    3    0    0  0.66263645081E+00 -0.36986484996E+01 -0.10766012612E+01  0.39087284794E+01  0.51100000000E-03 0. -1.
        -11    1    3    3    0    0  0.20914144584E+02 -0.13229119891E+02 -0.15012758581E+02  0.28944670964E+02  0.51100000000E-03 0.  1.
         12    1    3    3    0    0  0.49225915873E-01 -0.62221038368E+01 -0.13575830544E+02  0.14933859993E+02  0.00000000000E+00 0. -1.
</event>
<event>
 7    1  0.2237500E-009  0.4778727E+02  0.7816164E-02  0.1312668E+00
        -11   -1    0    0    0    0  0.00000000000E+00  0.00000000000E+00  0.45593999997E+02  0.45594000000E+02  0.51100000000E-03 0. -1.
         11   -1    0    0    0    0 -0.00000000000E+00 -0.00000000000E+00 -0.45593999997E+02  0.45594000000E+02  0.51100000000E-03 0.  1.
    9900012    2    1    2    0    0 -0.39319866915E+02 -0.53439879930E+01 -0.17578775807E+02  0.47787268430E+02  0.19999988081E+02 0.  0.
         12    1    1    2    0    0  0.39319866915E+02  0.53439879930E+01  0.17578775807E+02  0.43400731570E+02  0.00000000000E+00 0. -1.
         11    1    3    3    0    0 -0.89766991690E+01 -0.40525013807E+00 -0.58145417481E+01  0.10703001992E+02  0.51100000000E-03 0.  1.
        -11    1    3    3    0    0 -0.21030959577E+02 -0.10276389005E+02 -0.37886819733E+01  0.23712012632E+02  0.51100000000E-03 0. -1.
         12    1    3    3    0    0 -0.93122081694E+01  0.53376511497E+01 -0.79755520857E+01  0.13372253806E+02  0.00000000000E+00 0. -1.
</event>
<event>
 7    1  0.2237500E-009  0.4778727E+02  0.7816164E-02  0.1312668E+00
        -11   -1    0    0    0    0  0.00000000000E+00  0.00000000000E+00  0.45593999997E+02  0.45594000000E+02  0.51100000000E-03 0. -1.
         11   -1    0    0    0    0 -0.00000000000E+00 -0.00000000000E+00 -0.45593999997E+02  0.45594000000E+02  0.51100000000E-03 0.  1.
    9900012    2    1    2    0    0  0.30370576373E+02 -0.30257336198E+02  0.67634850239E+01  0.47787273823E+02  0.20000012669E+02 0.  0.
         12    1    1    2    0    0 -0.30370576373E+02  0.30257336198E+02 -0.67634850239E+01  0.43400726177E+02  0.00000000000E+00 0. -1.
         11    1    3    3    0    0  0.10504216372E+01 -0.73950530651E+01  0.11501709829E+01  0.75573202263E+01  0.51100000000E-03 0. -1.
        -11    1    3    3    0    0  0.23589778962E+02 -0.23581936810E+02  0.74350808011E+01  0.34174052174E+02  0.51100000000E-03 0.  1.
         12    1    3    3    0    0  0.57303757734E+01  0.71965367712E+00 -0.18217667600E+01  0.60559014231E+01  0.00000000000E+00 0. -1.
</event>
<event>
 7    1  0.2237500E-009  0.4778727E+02  0.7816164E-02  0.1312668E+00
        -11   -1    0    0    0    0  0.00000000000E+00  0.00000000000E+00  0.45593999997E+02  0.45594000000E+02  0.51100000000E-03 0. -1.
         11   -1    0    0    0    0 -0.00000000000E+00 -0.00000000000E+00 -0.45593999997E+02  0.45594000000E+02  0.51100000000E-03 0.  1.
    9900012    2    1    2    0    0 -0.56453123691E+00 -0.10388207482E+02 -0.42135373198E+02  0.47787271610E+02  0.20000002579E+02 0.  0.
         12    1    1    2    0    0  0.56453123691E+00  0.10388207482E+02  0.42135373198E+02  0.43400728390E+02  0.00000000000E+00 0. -1.
         11    1    3    3    0    0 -0.60970633622E+01 -0.20937553406E+01 -0.35374962065E+01  0.73533579228E+01  0.51100000000E-03 0. -1.
        -11    1    3    3    0    0  0.12595776521E+01 -0.18080397940E+01 -0.21982182724E+02  0.22092349384E+02  0.51100000000E-03 0.  1.
        -12    1    3    3    0    0  0.42729544732E+01 -0.64864123471E+01 -0.16615694268E+02  0.18341564303E+02  0.00000000000E+00 0.  1.
</event>
<event>
 7    1  0.2237500E-009  0.4778728E+02  0.7816164E-02  0.1312668E+00
        -11   -1    0    0    0    0  0.00000000000E+00  0.00000000000E+00  0.45593999997E+02  0.45594000000E+02  0.51100000000E-03 0. -1.
         11   -1    0    0    0    0 -0.00000000000E+00 -0.00000000000E+00 -0.45593999997E+02  0.45594000000E+02  0.51100000000E-03 0.  1.
    9900012    2    1    2    0    0 -0.98129208193E+01 -0.34620228802E+02  0.24264557255E+02  0.47787281157E+02  0.20000046105E+02 0.  0.
         12    1    1    2    0    0  0.98129208193E+01  0.34620228802E+02 -0.24264557255E+02  0.43400718843E+02  0.00000000000E+00 0. -1.
         11    1    3    3    0    0 -0.18782150729E+01  0.49109362452E+00 -0.11857339758E+01  0.22748252967E+01  0.51100000000E-03 0. -1.
        -11    1    3    3    0    0 -0.36666410425E+01 -0.14091986184E+02  0.38263494663E+01  0.15055539899E+02  0.51100000000E-03 0.  1.
         12    1    3    3    0    0 -0.42680647039E+01 -0.21019336243E+02  0.21623941765E+02  0.30456915961E+02  0.00000000000E+00 0. -1.
</event>
<event>
 7    1  0.2237500E-009  0.4778727E+02  0.7816164E-02  0.1312668E+00
        -11   -1    0    0    0    0  0.00000000000E+00  0.00000000000E+00  0.45593999997E+02  0.45594000000E+02  0.51100000000E-03 0.  1.
         11   -1    0    0    0    0 -0.00000000000E+00 -0.00000000000E+00 -0.45593999997E+02  0.45594000000E+02  0.51100000000E-03 0. -1.
    9900012    2    1    2    0    0 -0.39447275404E+02  0.13077199623E+02 -0.12510898283E+02  0.47787271174E+02  0.20000000592E+02 0.  0.
         12    1    1    2    0    0  0.39447275404E+02 -0.13077199623E+02  0.12510898283E+02  0.43400728826E+02  0.00000000000E+00 0. -1.
         11    1    3    3    0    0 -0.12685674074E+02 -0.23978905577E+01 -0.63614878544E+01  0.14392523539E+02  0.51100000000E-03 0. -1.
        -11    1    3    3    0    0 -0.10722172307E+02  0.80487057119E+01 -0.80170000070E+01  0.15621105338E+02  0.51100000000E-03 0.  1.
         12    1    3    3    0    0 -0.16039429023E+02  0.74263844685E+01  0.18675895788E+01  0.17773642297E+02  0.00000000000E+00 0. -1.
</event>
<event>
 7    1  0.2237500E-009  0.4778727E+02  0.7816164E-02  0.1312668E+00
        -11   -1    0    0    0    0  0.00000000000E+00  0.00000000000E+00  0.45593999997E+02  0.45594000000E+02  0.51100000000E-03 0.  1.
         11   -1    0    0    0    0 -0.00000000000E+00 -0.00000000000E+00 -0.45593999997E+02  0.45594000000E+02  0.51100000000E-03 0. -1.
    9900012    2    1    2    0    0 -0.28507266319E+02  0.32183269987E+02  0.59326509186E+01  0.47787269050E+02  0.19999990906E+02 0.  0.
         12    1    1    2    0    0  0.28507266319E+02 -0.32183269987E+02 -0.59326509186E+01  0.43400730950E+02  0.00000000000E+00 0. -1.
         11    1    3    3    0    0 -0.19315559895E+02  0.20343709503E+02  0.86536210824E+01  0.29357154639E+02  0.51100000000E-03 0. -1.
        -11    1    3    3    0    0 -0.78154306484E+01  0.13761152071E+02 -0.19573100807E+01  0.15946200975E+02  0.51100000000E-03 0.  1.
         12    1    3    3    0    0 -0.13762757755E+01 -0.19215915859E+01 -0.76366008304E+00  0.24839134356E+01  0.00000000000E+00 0. -1.
</event>
<event>
 7    1  0.2237500E-009  0.4778722E+02  0.7816164E-02  0.1312668E+00
        -11   -1    0    0    0    0  0.00000000000E+00  0.00000000000E+00  0.45593999997E+02  0.45594000000E+02  0.51100000000E-03 0.  1.
         11   -1    0    0    0    0 -0.00000000000E+00 -0.00000000000E+00 -0.45593999997E+02  0.45594000000E+02  0.51100000000E-03 0. -1.
    9900012    2    1    2    0    0  0.28966556781E+01  0.39494632338E+02  0.17759824122E+02  0.47787217167E+02  0.19999754352E+02 0.  0.
         12    1    1    2    0    0 -0.28966556781E+01 -0.39494632338E+02 -0.17759824122E+02  0.43400782833E+02  0.00000000000E+00 0. -1.
         11    1    3    3    0    0  0.48048312596E+00 -0.53633226030E+00 -0.82037013347E+00  0.10915693953E+01  0.51100000000E-03 0. -1.
        -11    1    3    3    0    0  0.34399932041E+01  0.40820668662E+02  0.16329601502E+02  0.44100072888E+02  0.51100000000E-03 0.  1.
        -12    1    3    3    0    0 -0.10238206520E+01 -0.78970406388E+00  0.22505927534E+01  0.25955748839E+01  0.00000000000E+00 0.  1.
</event>
<event>
 7    1  0.2237500E-009  0.4778727E+02  0.7816164E-02  0.1312668E+00
        -11   -1    0    0    0    0  0.00000000000E+00  0.00000000000E+00  0.45593999997E+02  0.45594000000E+02  0.51100000000E-03 0.  1.
         11   -1    0    0    0    0 -0.00000000000E+00 -0.00000000000E+00 -0.45593999997E+02  0.45594000000E+02  0.51100000000E-03 0. -1.
    9900012    2    1    2    0    0 -0.39257152015E+02 -0.11507327776E+01  0.18470933582E+02  0.47787267775E+02  0.19999985095E+02 0.  0.
         12    1    1    2    0    0  0.39257152015E+02  0.11507327776E+01 -0.18470933582E+02  0.43400732225E+02  0.00000000000E+00 0. -1.
         11    1    3    3    0    0 -0.11039878653E+01 -0.31435300979E+01  0.75486000606E-01  0.33326069496E+01  0.51100000000E-03 0. -1.
        -11    1    3    3    0    0 -0.24469253366E+02  0.30271700661E+01  0.18344595240E+02  0.30731617166E+02  0.51100000000E-03 0.  1.
         12    1    3    3    0    0 -0.13683910784E+02 -0.10343727457E+01  0.50852341148E-01  0.13723043659E+02  0.00000000000E+00 0. -1.
</event>
<event>
 7    1  0.2237500E-009  0.4778728E+02  0.7816164E-02  0.1312668E+00
        -11   -1    0    0    0    0  0.00000000000E+00  0.00000000000E+00  0.45593999997E+02  0.45594000000E+02  0.51100000000E-03 0.  1.
         11   -1    0    0    0    0 -0.00000000000E+00 -0.00000000000E+00 -0.45593999997E+02  0.45594000000E+02  0.51100000000E-03 0. -1.
    9900012    2    1    2    0    0 -0.40565098844E+02  0.16534736633E+01  0.15341476900E+02  0.47787284189E+02  0.20000059933E+02 0.  0.
         12    1    1    2    0    0  0.40565098844E+02 -0.16534736633E+01 -0.15341476900E+02  0.43400715811E+02  0.00000000000E+00 0. -1.
         11    1    3    3    0    0 -0.15948421716E+02  0.24623517398E+01  0.11168874842E+02  0.19625470614E+02  0.51100000000E-03 0. -1.
        -11    1    3    3    0    0 -0.19572138787E+02  0.49360777823E+01  0.35086160146E+01  0.20487651578E+02  0.51100000000E-03 0.  1.
         12    1    3    3    0    0 -0.50445383404E+01 -0.57449558588E+01  0.66398604346E+00  0.76741619969E+01  0.00000000000E+00 0. -1.
</event>
<event>
 7    1  0.2237500E-009  0.4778727E+02  0.7816164E-02  0.1312668E+00
        -11   -1    0    0    0    0  0.00000000000E+00  0.00000000000E+00  0.45593999997E+02  0.45594000000E+02  0.51100000000E-03 0.  1.
         11   -1    0    0    0    0 -0.00000000000E+00 -0.00000000000E+00 -0.45593999997E+02  0.45594000000E+02  0.51100000000E-03 0. -1.
    9900012    2    1    2    0    0  0.59129403419E+01  0.36185290385E+02  0.23222510743E+02  0.47787272944E+02  0.20000008663E+02 0.  0.
         12    1    1    2    0    0 -0.59129403419E+01 -0.36185290385E+02 -0.23222510743E+02  0.43400727056E+02  0.00000000000E+00 0. -1.
         11    1    3    3    0    0  0.16628847872E+01  0.10064867164E+02  0.15397830265E+02  0.18470514718E+02  0.51100000000E-03 0. -1.
        -11    1    3    3    0    0 -0.12446219186E+01 -0.11906914348E+00 -0.33400686645E+00  0.12941491526E+01  0.51100000000E-03 0.  1.
        -12    1    3    3    0    0  0.54946774734E+01  0.26239492364E+02  0.81586873450E+01  0.28022609073E+02  0.00000000000E+00 0.  1.
</event>
<event>
 7    1  0.2237500E-009  0.4778726E+02  0.7816164E-02  0.1312668E+00
        -11   -1    0    0    0    0  0.00000000000E+00  0.00000000000E+00  0.45593999997E+02  0.45594000000E+02  0.51100000000E-03 0.  1.
         11   -1    0    0    0    0 -0.00000000000E+00 -0.00000000000E+00 -0.45593999997E+02  0.45594000000E+02  0.51100000000E-03 0. -1.
    9900012    2    1    2    0    0 -0.27154162978E+02 -0.30777712691E+01  0.33716511460E+02  0.47787258209E+02  0.19999941476E+02 0.  0.
         12    1    1    2    0    0  0.27154162978E+02  0.30777712691E+01 -0.33716511460E+02  0.43400741791E+02  0.00000000000E+00 0. -1.
         11    1    3    3    0    0 -0.16818851390E+02  0.46832709355E+01  0.24995862779E+02  0.30489341499E+02  0.51100000000E-03 0. -1.
        -11    1    3    3    0    0  0.61200332163E+00  0.74243664931E-02 -0.67626549471E+00  0.91210660965E+00  0.51100000000E-03 0.  1.
        -12    1    3    3    0    0 -0.10947314910E+02 -0.77684665711E+01  0.93969141759E+01  0.16385810100E+02  0.00000000000E+00 0.  1.
</event>
<event>
 7    1  0.2237500E-009  0.4778727E+02  0.7816164E-02  0.1312668E+00
        -11   -1    0    0    0    0  0.00000000000E+00  0.00000000000E+00  0.45593999997E+02  0.45594000000E+02  0.51100000000E-03 0.  1.
         11   -1    0    0    0    0 -0.00000000000E+00 -0.00000000000E+00 -0.45593999997E+02  0.45594000000E+02  0.51100000000E-03 0. -1.
    9900012    2    1    2    0    0  0.14934145014E+01  0.30130458814E+02  0.31201735511E+02  0.47787272654E+02  0.20000007340E+02 0.  0.
         12    1    1    2    0    0 -0.14934145014E+01 -0.30130458814E+02 -0.31201735511E+02  0.43400727346E+02  0.00000000000E+00 0. -1.
         11    1    3    3    0    0  0.15189282397E+01  0.58244081335E+01  0.98377968613E+01  0.11533131424E+02  0.51100000000E-03 0. -1.
        -11    1    3    3    0    0  0.51631572597E+01  0.86891027749E+01  0.11259177379E+01  0.10169876643E+02  0.51100000000E-03 0.  1.
        -12    1    3    3    0    0 -0.51886709979E+01  0.15616947906E+02  0.20238020912E+02  0.26084264587E+02  0.00000000000E+00 0.  1.
</event>
<event>
 7    1  0.2237500E-009  0.4778727E+02  0.7816164E-02  0.1312668E+00
        -11   -1    0    0    0    0  0.00000000000E+00  0.00000000000E+00  0.45593999997E+02  0.45594000000E+02  0.51100000000E-03 0.  1.
         11   -1    0    0    0    0 -0.00000000000E+00 -0.00000000000E+00 -0.45593999997E+02  0.45594000000E+02  0.51100000000E-03 0. -1.
    9900012    2    1    2    0    0  0.98533259994E+00  0.70913442804E+01  0.42806135980E+02  0.47787270495E+02  0.19999997493E+02 0.  0.
         12    1    1    2    0    0 -0.98533259994E+00 -0.70913442804E+01 -0.42806135980E+02  0.43400729505E+02  0.00000000000E+00 0. -1.
         11    1    3    3    0    0 -0.13992995357E+01 -0.45952160970E+01  0.40795864030E+01  0.63021484947E+01  0.51100000000E-03 0. -1.
        -11    1    3    3    0    0  0.33778214981E+01  0.17294817511E+01  0.48301155872E+01  0.61425403578E+01  0.51100000000E-03 0.  1.
        -12    1    3    3    0    0 -0.99318936248E+00  0.99570786262E+01  0.33896433990E+02  0.35342581642E+02  0.00000000000E+00 0.  1.
</event>
<event>
 7    1  0.2237500E-009  0.4778726E+02  0.7816164E-02  0.1312668E+00
        -11   -1    0    0    0    0  0.00000000000E+00  0.00000000000E+00  0.45593999997E+02  0.45594000000E+02  0.51100000000E-03 0.  1.
         11   -1    0    0    0    0 -0.00000000000E+00 -0.00000000000E+00 -0.45593999997E+02  0.45594000000E+02  0.51100000000E-03 0. -1.
    9900012    2    1    2    0    0  0.40798016396E+02 -0.15680729942E+01  0.14720297494E+02  0.47787260915E+02  0.19999953817E+02 0.  0.
         12    1    1    2    0    0 -0.40798016396E+02  0.15680729942E+01 -0.14720297494E+02  0.43400739085E+02  0.00000000000E+00 0. -1.
         11    1    3    3    0    0  0.13394804303E+00 -0.38743676233E+00 -0.44373133954E+00  0.60410850503E+00  0.51100000000E-03 0. -1.
        -11    1    3    3    0    0  0.39749697661E+02  0.85571227071E+00  0.91920851952E+01  0.40807660287E+02  0.51100000000E-03 0.  1.
        -12    1    3    3    0    0  0.91437069262E+00 -0.20363485026E+01  0.59719436388E+01  0.63754921231E+01  0.00000000000E+00 0.  1.
</event>
<event>
 7    1  0.2237500E-009  0.4778726E+02  0.7816164E-02  0.1312668E+00
        -11   -1    0    0    0    0  0.00000000000E+00  0.00000000000E+00  0.45593999997E+02  0.45594000000E+02  0.51100000000E-03 0.  1.
         11   -1    0    0    0    0 -0.00000000000E+00 -0.00000000000E+00 -0.45593999997E+02  0.45594000000E+02  0.51100000000E-03 0. -1.
    9900012    2    1    2    0    0  0.36947594437E+02  0.11959783818E+02  0.19376861284E+02  0.47787263637E+02  0.19999966226E+02 0.  0.
         12    1    1    2    0    0 -0.36947594437E+02 -0.11959783818E+02 -0.19376861284E+02  0.43400736363E+02  0.00000000000E+00 0. -1.
         11    1    3    3    0    0  0.54496612403E+01  0.99238038774E+00  0.83651013489E+00  0.56020867482E+01  0.51100000000E-03 0. -1.
        -11    1    3    3    0    0  0.18516751983E+02  0.13156884652E+02  0.18046812554E+02  0.29011397094E+02  0.51100000000E-03 0.  1.
        -12    1    3    3    0    0  0.12981181214E+02 -0.21894812218E+01  0.49353859489E+00  0.13173779795E+02  0.00000000000E+00 0.  1.
</event>
<event>
 7    1  0.2237500E-009  0.4778728E+02  0.7816164E-02  0.1312668E+00
        -11   -1    0    0    0    0  0.00000000000E+00  0.00000000000E+00  0.45593999997E+02  0.45594000000E+02  0.51100000000E-03 0.  1.
         11   -1    0    0    0    0 -0.00000000000E+00 -0.00000000000E+00 -0.45593999997E+02  0.45594000000E+02  0.51100000000E-03 0. -1.
    9900012    2    1    2    0    0 -0.13201440074E+02  0.16215377080E+02  0.38031649391E+02  0.47787276167E+02  0.20000023355E+02 0.  0.
         12    1    1    2    0    0  0.13201440074E+02 -0.16215377080E+02 -0.38031649391E+02  0.43400723833E+02  0.00000000000E+00 0. -1.
         11    1    3    3    0    0 -0.51781531015E+01 -0.20857034836E+01  0.62177621559E+01  0.83560753379E+01  0.51100000000E-03 0. -1.
        -11    1    3    3    0    0 -0.44604078285E+01  0.43193887334E+01  0.19492705156E+02  0.20457710321E+02  0.51100000000E-03 0.  1.
         12    1    3    3    0    0 -0.35628791442E+01  0.13981691830E+02  0.12321182079E+02  0.18973490508E+02  0.00000000000E+00 0. -1.
</event>
<event>
 7    1  0.2237500E-009  0.4778726E+02  0.7816164E-02  0.1312668E+00
        -11   -1    0    0    0    0  0.00000000000E+00  0.00000000000E+00  0.45593999997E+02  0.45594000000E+02  0.51100000000E-03 0.  1.
         11   -1    0    0    0    0 -0.00000000000E+00 -0.00000000000E+00 -0.45593999997E+02  0.45594000000E+02  0.51100000000E-03 0. -1.
    9900012    2    1    2    0    0 -0.14801562511E+02  0.30881350569E+02  0.26662328367E+02  0.47787264757E+02  0.19999971331E+02 0.  0.
         12    1    1    2    0    0  0.14801562511E+02 -0.30881350569E+02 -0.26662328367E+02  0.43400735243E+02  0.00000000000E+00 0. -1.
         11    1    3    3    0    0 -0.91223975701E+01  0.59743418346E+01  0.94043630370E+01  0.14399754935E+02  0.51100000000E-03 0. -1.
        -11    1    3    3    0    0 -0.75528265223E+01  0.14377453468E+02  0.15683702233E+02  0.22577308801E+02  0.51100000000E-03 0.  1.
         12    1    3    3    0    0  0.18736615813E+01  0.10529555266E+02  0.15742630975E+01  0.10810201021E+02  0.00000000000E+00 0. -1.
</event>
<event>
 7    1  0.2237500E-009  0.4778727E+02  0.7816164E-02  0.1312668E+00
        -11   -1    0    0    0    0  0.00000000000E+00  0.00000000000E+00  0.45593999997E+02  0.45594000000E+02  0.51100000000E-03 0.  1.
         11   -1    0    0    0    0 -0.00000000000E+00 -0.00000000000E+00 -0.45593999997E+02  0.45594000000E+02  0.51100000000E-03 0. -1.
    9900012    2    1    2    0    0  0.10234810721E+02  0.24989139527E+02  0.33976679801E+02  0.47787271722E+02  0.20000003089E+02 0.  0.
         12    1    1    2    0    0 -0.10234810721E+02 -0.24989139527E+02 -0.33976679801E+02  0.43400728278E+02  0.00000000000E+00 0. -1.
         11    1    3    3    0    0  0.65154597745E+01  0.12944469841E+02  0.19872521221E+02  0.24595276284E+02  0.51100000000E-03 0. -1.
        -11    1    3    3    0    0  0.65242578464E+01  0.13660848359E+02  0.12142305472E+02  0.19406707623E+02  0.51100000000E-03 0.  1.
         12    1    3    3    0    0 -0.28049069003E+01 -0.16161786735E+01  0.19618531079E+01  0.37852878148E+01  0.00000000000E+00 0. -1.
</event>
<event>
 7    1  0.2237500E-009  0.4778727E+02  0.7816164E-02  0.1312668E+00
        -11   -1    0    0    0    0  0.00000000000E+00  0.00000000000E+00  0.45593999997E+02  0.45594000000E+02  0.51100000000E-03 0.  1.
         11   -1    0    0    0    0 -0.00000000000E+00 -0.00000000000E+00 -0.45593999997E+02  0.45594000000E+02  0.51100000000E-03 0. -1.
    9900012    2    1    2    0    0  0.34925343278E+02  0.55624938763E+01  0.25157548021E+02  0.47787272314E+02  0.20000005789E+02 0.  0.
         12    1    1    2    0    0 -0.34925343278E+02 -0.55624938763E+01 -0.25157548021E+02  0.43400727686E+02  0.00000000000E+00 0. -1.
         11    1    3    3    0    0  0.25773749939E+02  0.12509428532E+02  0.14668328164E+02  0.32185895039E+02  0.51100000000E-03 0. -1.
        -11    1    3    3    0    0  0.36701112926E+01 -0.33502929822E+01  0.50188580907E+01  0.70627980830E+01  0.51100000000E-03 0.  1.
         12    1    3    3    0    0  0.54814820467E+01 -0.35966416734E+01  0.54703617667E+01  0.85385791917E+01  0.00000000000E+00 0. -1.
</event>
<event>
 7    1  0.2237500E-009  0.4778727E+02  0.7816164E-02  0.1312668E+00
        -11   -1    0    0    0    0  0.00000000000E+00  0.00000000000E+00  0.45593999997E+02  0.45594000000E+02  0.51100000000E-03 0.  1.
         11   -1    0    0    0    0 -0.00000000000E+00 -0.00000000000E+00 -0.45593999997E+02  0.45594000000E+02  0.51100000000E-03 0. -1.
    9900012    2    1    2    0    0 -0.10022012955E+02 -0.34118619661E+02  0.24881763367E+02  0.47787273054E+02  0.20000009160E+02 0.  0.
         12    1    1    2    0    0  0.10022012955E+02  0.34118619661E+02 -0.24881763367E+02  0.43400726946E+02  0.00000000000E+00 0. -1.
         11    1    3    3    0    0  0.65252203422E+00 -0.22726450110E+02  0.73486976853E+01  0.23893946462E+02  0.51100000000E-03 0. -1.
        -11    1    3    3    0    0  0.26393333714E+00  0.43868322772E-01  0.88248026866E+00  0.92214799349E+00  0.51100000000E-03 0.  1.
        -12    1    3    3    0    0 -0.10938468326E+02 -0.11436037874E+02  0.16650585413E+02  0.22971178598E+02  0.00000000000E+00 0.  1.
</event>
<event>
 7    1  0.2237500E-009  0.4778727E+02  0.7816164E-02  0.1312668E+00
        -11   -1    0    0    0    0  0.00000000000E+00  0.00000000000E+00  0.45593999997E+02  0.45594000000E+02  0.51100000000E-03 0.  1.
         11   -1    0    0    0    0 -0.00000000000E+00 -0.00000000000E+00 -0.45593999997E+02  0.45594000000E+02  0.51100000000E-03 0. -1.
    9900012    2    1    2    0    0  0.75439112326E+01  0.42541650229E+02 -0.41134791956E+01  0.47787270605E+02  0.19999997998E+02 0.  0.
         12    1    1    2    0    0 -0.75439112326E+01 -0.42541650229E+02  0.41134791956E+01  0.43400729395E+02  0.00000000000E+00 0. -1.
         11    1    3    3    0    0 -0.71957970327E+00  0.10565929956E+02  0.63846472122E+00  0.10609632805E+02  0.51100000000E-03 0. -1.
        -11    1    3    3    0    0 -0.12072905419E+01  0.95389313662E+01  0.51269242322E+01  0.10896518453E+02  0.51100000000E-03 0.  1.
         12    1    3    3    0    0  0.94707814777E+01  0.22436788907E+02 -0.98788681490E+01  0.26281119347E+02  0.00000000000E+00 0. -1.
</event>
<event>
 7    1  0.2237500E-009  0.4778727E+02  0.7816164E-02  0.1312668E+00
        -11   -1    0    0    0    0  0.00000000000E+00  0.00000000000E+00  0.45593999997E+02  0.45594000000E+02  0.51100000000E-03 0.  1.
         11   -1    0    0    0    0 -0.00000000000E+00 -0.00000000000E+00 -0.45593999997E+02  0.45594000000E+02  0.51100000000E-03 0. -1.
    9900012    2    1    2    0    0  0.17573833246E+02 -0.14366691994E+02  0.36991643266E+02  0.47787272756E+02  0.20000007802E+02 0.  0.
         12    1    1    2    0    0 -0.17573833246E+02  0.14366691994E+02 -0.36991643266E+02  0.43400727244E+02  0.00000000000E+00 0. -1.
         11    1    3    3    0    0 -0.65765183449E+00  0.15105305049E+01 -0.13702965717E+01  0.21428768741E+01  0.51100000000E-03 0. -1.
        -11    1    3    3    0    0  0.45445274022E+01 -0.45735013213E+01  0.64042404010E+01  0.90875705786E+01  0.51100000000E-03 0.  1.
        -12    1    3    3    0    0  0.13686957678E+02 -0.11303721177E+02  0.31957699437E+02  0.36556825303E+02  0.00000000000E+00 0.  1.
</event>
<event>
 7    1  0.2237500E-009  0.4778727E+02  0.7816164E-02  0.1312668E+00
        -11   -1    0    0    0    0  0.00000000000E+00  0.00000000000E+00  0.45593999997E+02  0.45594000000E+02  0.51100000000E-03 0. -1.
         11   -1    0    0    0    0 -0.00000000000E+00 -0.00000000000E+00 -0.45593999997E+02  0.45594000000E+02  0.51100000000E-03 0.  1.
    9900012    2    1    2    0    0  0.81470974869E+01  0.37434829640E+02  0.20393175352E+02  0.47787271106E+02  0.20000000279E+02 0.  0.
         12    1    1    2    0    0 -0.81470974869E+01 -0.37434829640E+02 -0.20393175352E+02  0.43400728894E+02  0.00000000000E+00 0. -1.
         11    1    3    3    0    0  0.77452514079E+01  0.11932853181E+02  0.11461133593E+02  0.18268538198E+02  0.51100000000E-03 0. -1.
        -11    1    3    3    0    0 -0.47120387943E-01  0.14117561403E+02  0.11052955413E+02  0.17929740208E+02  0.51100000000E-03 0.  1.
         12    1    3    3    0    0  0.44896646697E+00  0.11384415057E+02 -0.21209136541E+01  0.11588992700E+02  0.00000000000E+00 0. -1.
</event>
<event>
 7    1  0.2237500E-009  0.4778727E+02  0.7816164E-02  0.1312668E+00
        -11   -1    0    0    0    0  0.00000000000E+00  0.00000000000E+00  0.45593999997E+02  0.45594000000E+02  0.51100000000E-03 0.  1.
         11   -1    0    0    0    0 -0.00000000000E+00 -0.00000000000E+00 -0.45593999997E+02  0.45594000000E+02  0.51100000000E-03 0. -1.
    9900012    2    1    2    0    0  0.36561186177E+02 -0.21247755440E+02 -0.97691205793E+01  0.47787272324E+02  0.20000005835E+02 0.  0.
         12    1    1    2    0    0 -0.36561186177E+02  0.21247755440E+02  0.97691205793E+01  0.43400727676E+02  0.00000000000E+00 0. -1.
         11    1    3    3    0    0  0.46635913353E+01  0.22734409526E+01 -0.64229393641E+00  0.52278255202E+01  0.51100000000E-03 0. -1.
        -11    1    3    3    0    0  0.24204670263E+02 -0.10453297915E+02 -0.66874441539E+01  0.27200356788E+02  0.51100000000E-03 0.  1.
         12    1    3    3    0    0  0.76929245790E+01 -0.13067898477E+02 -0.24393824890E+01  0.15359090016E+02  0.00000000000E+00 0. -1.
</event>
<event>
 7    1  0.2237500E-009  0.4778727E+02  0.7816164E-02  0.1312668E+00
        -11   -1    0    0    0    0  0.00000000000E+00  0.00000000000E+00  0.45593999997E+02  0.45594000000E+02  0.51100000000E-03 0.  1.
         11   -1    0    0    0    0 -0.00000000000E+00 -0.00000000000E+00 -0.45593999997E+02  0.45594000000E+02  0.51100000000E-03 0. -1.
    9900012    2    1    2    0    0 -0.30920398497E+02  0.81914086150E+01  0.29333482566E+02  0.47787269387E+02  0.19999992444E+02 0.  0.
         12    1    1    2    0    0  0.30920398497E+02 -0.81914086150E+01 -0.29333482566E+02  0.43400730613E+02  0.00000000000E+00 0. -1.
         11    1    3    3    0    0 -0.10373060422E+02  0.50515631763E+01  0.31932808264E+01  0.11971454203E+02  0.51100000000E-03 0. -1.
        -11    1    3    3    0    0 -0.15605619148E+02  0.79226229608E+01  0.20211454494E+02  0.26735859751E+02  0.51100000000E-03 0.  1.
        -12    1    3    3    0    0 -0.49417189270E+01 -0.47827775222E+01  0.59287472449E+01  0.90799554335E+01  0.00000000000E+00 0.  1.
</event>
<event>
 7    1  0.2237500E-009  0.4778727E+02  0.7816164E-02  0.1312668E+00
        -11   -1    0    0    0    0  0.00000000000E+00  0.00000000000E+00  0.45593999997E+02  0.45594000000E+02  0.51100000000E-03 0. -1.
         11   -1    0    0    0    0 -0.00000000000E+00 -0.00000000000E+00 -0.45593999997E+02  0.45594000000E+02  0.51100000000E-03 0.  1.
    9900012    2    1    2    0    0  0.38680872747E+02 -0.38059563520E+01  0.19311348441E+02  0.47787269605E+02  0.19999993436E+02 0.  0.
         12    1    1    2    0    0 -0.38680872747E+02  0.38059563520E+01 -0.19311348441E+02  0.43400730395E+02  0.00000000000E+00 0. -1.
         11    1    3    3    0    0  0.27253301328E+01 -0.31430280017E+01  0.48927136656E+01  0.64222034090E+01  0.51100000000E-03 0. -1.
        -11    1    3    3    0    0  0.69664033452E+01 -0.95782946358E+00  0.97187535440E+01  0.11995931959E+02  0.51100000000E-03 0.  1.
        -12    1    3    3    0    0  0.28989139269E+02  0.29490111325E+00  0.46998812314E+01  0.29369134237E+02  0.00000000000E+00 0.  1.
</event>
<event>
 7    1  0.2237500E-009  0.4778727E+02  0.7816164E-02  0.1312668E+00
        -11   -1    0    0    0    0  0.00000000000E+00  0.00000000000E+00  0.45593999997E+02  0.45594000000E+02  0.51100000000E-03 0. -1.
         11   -1    0    0    0    0 -0.00000000000E+00 -0.00000000000E+00 -0.45593999997E+02  0.45594000000E+02  0.51100000000E-03 0.  1.
    9900012    2    1    2    0    0  0.23244618712E+02 -0.29025766745E+02 -0.22378917659E+02  0.47787269709E+02  0.19999993910E+02 0.  0.
         12    1    1    2    0    0 -0.23244618712E+02  0.29025766745E+02  0.22378917659E+02  0.43400730291E+02  0.00000000000E+00 0. -1.
         11    1    3    3    0    0  0.12326356759E+01  0.26788234325E-01 -0.71099289407E+01  0.72160375638E+01  0.51100000000E-03 0. -1.
        -11    1    3    3    0    0  0.13083158422E+01 -0.14278689777E+01  0.12454733385E+01  0.23025429982E+01  0.51100000000E-03 0.  1.
        -12    1    3    3    0    0  0.20703667194E+02 -0.27624686002E+02 -0.16514462057E+02  0.38268689147E+02  0.00000000000E+00 0.  1.
</event>
<event>
 7    1  0.2237500E-009  0.4778727E+02  0.7816164E-02  0.1312668E+00
        -11   -1    0    0    0    0  0.00000000000E+00  0.00000000000E+00  0.45593999997E+02  0.45594000000E+02  0.51100000000E-03 0. -1.
         11   -1    0    0    0    0 -0.00000000000E+00 -0.00000000000E+00 -0.45593999997E+02  0.45594000000E+02  0.51100000000E-03 0.  1.
    9900012    2    1    2    0    0  0.36414244080E+02 -0.22740182000E+02 -0.63647657261E+01  0.47787270835E+02  0.19999999044E+02 0.  0.
         12    1    1    2    0    0 -0.36414244080E+02  0.22740182000E+02  0.63647657261E+01  0.43400729165E+02  0.00000000000E+00 0. -1.
         11    1    3    3    0    0  0.15235393099E+02 -0.49422865194E+01 -0.41177184653E+01  0.16537805312E+02  0.51100000000E-03 0. -1.
        -11    1    3    3    0    0  0.14672032871E+02 -0.11525233740E+02 -0.82494897559E+01  0.20399844186E+02  0.51100000000E-03 0.  1.
        -12    1    3    3    0    0  0.65068181095E+01 -0.62726617412E+01  0.60024424952E+01  0.10849621336E+02  0.00000000000E+00 0.  1.
</event>
<event>
 7    1  0.2531189E-009  0.4778727E+02  0.7816164E-02  0.1312668E+00
        -11   -1    0    0    0    0  0.00000000000E+00  0.00000000000E+00  0.45593999997E+02  0.45594000000E+02  0.51100000000E-03 0.  1.
         11   -1    0    0    0    0 -0.00000000000E+00 -0.00000000000E+00 -0.45593999997E+02  0.45594000000E+02  0.51100000000E-03 0. -1.
    9900012    2    1    2    0    0 -0.35793632179E+02  0.15888356691E+02  0.18708268886E+02  0.47787270656E+02  0.19999998227E+02 0.  0.
         12    1    1    2    0    0  0.35793632179E+02 -0.15888356691E+02 -0.18708268886E+02  0.43400729344E+02  0.00000000000E+00 0. -1.
         11    1    3    3    0    0  0.12888510124E+01 -0.23683878800E+00  0.17693789464E+01  0.22018019122E+01  0.51100000000E-03 0. -1.
        -11    1    3    3    0    0 -0.48536704331E+01 -0.17351900964E+01  0.32061574680E+00  0.51644744227E+01  0.51100000000E-03 0.  1.
        -12    1    3    3    0    0 -0.32228812758E+02  0.17860385575E+02  0.16618274193E+02  0.40420994321E+02  0.00000000000E+00 0.  1.
</event>
<event>
 7    1  0.2237500E-009  0.4778727E+02  0.7816164E-02  0.1312668E+00
        -11   -1    0    0    0    0  0.00000000000E+00  0.00000000000E+00  0.45593999997E+02  0.45594000000E+02  0.51100000000E-03 0. -1.
         11   -1    0    0    0    0 -0.00000000000E+00 -0.00000000000E+00 -0.45593999997E+02  0.45594000000E+02  0.51100000000E-03 0.  1.
    9900012    2    1    2    0    0 -0.35249530418E+02  0.12179081676E+02 -0.22198291493E+02  0.47787267628E+02  0.19999984424E+02 0.  0.
         12    1    1    2    0    0  0.35249530418E+02 -0.12179081676E+02  0.22198291493E+02  0.43400732372E+02  0.00000000000E+00 0. -1.
         11    1    3    3    0    0 -0.72866314109E+01  0.67790930811E+01 -0.50039050404E+01  0.11139576573E+02  0.51100000000E-03 0. -1.
        -11    1    3    3    0    0 -0.21996247442E+02  0.98918259996E+01 -0.94911975591E+01  0.25918448150E+02  0.51100000000E-03 0.  1.
         12    1    3    3    0    0 -0.59666515652E+01 -0.44918374050E+01 -0.77031888937E+01  0.10729242905E+02  0.00000000000E+00 0. -1.
</event>
<event>
 7    1  0.2237500E-009  0.4778727E+02  0.7816164E-02  0.1312668E+00
        -11   -1    0    0    0    0  0.00000000000E+00  0.00000000000E+00  0.45593999997E+02  0.45594000000E+02  0.51100000000E-03 0. -1.
         11   -1    0    0    0    0 -0.00000000000E+00 -0.00000000000E+00 -0.45593999997E+02  0.45594000000E+02  0.51100000000E-03 0.  1.
    9900012    2    1    2    0    0 -0.42718116135E+02  0.18645844085E+01 -0.74370111747E+01  0.47787271247E+02  0.20000000922E+02 0.  0.
         12    1    1    2    0    0  0.42718116135E+02 -0.18645844085E+01  0.74370111747E+01  0.43400728753E+02  0.00000000000E+00 0. -1.
         11    1    3    3    0    0 -0.28513641549E+02 -0.15907829362E+01 -0.13468587385E+02  0.31574692258E+02  0.51100000000E-03 0.  1.
        -11    1    3    3    0    0 -0.68124325068E+01 -0.70118655081E-01  0.21076724073E+01  0.71313698911E+01  0.51100000000E-03 0. -1.
         12    1    3    3    0    0 -0.73920420786E+01  0.35254859998E+01  0.39239038032E+01  0.90812090981E+01  0.00000000000E+00 0. -1.
</event>
<event>
 7    1  0.2237500E-009  0.4778727E+02  0.7816164E-02  0.1312668E+00
        -11   -1    0    0    0    0  0.00000000000E+00  0.00000000000E+00  0.45593999997E+02  0.45594000000E+02  0.51100000000E-03 0.  1.
         11   -1    0    0    0    0 -0.00000000000E+00 -0.00000000000E+00 -0.45593999997E+02  0.45594000000E+02  0.51100000000E-03 0. -1.
    9900012    2    1    2    0    0  0.21083873483E+02  0.37577514502E+02 -0.51984301861E+01  0.47787274274E+02  0.20000014723E+02 0.  0.
         12    1    1    2    0    0 -0.21083873483E+02 -0.37577514502E+02  0.51984301861E+01  0.43400725726E+02  0.00000000000E+00 0. -1.
         11    1    3    3    0    0 -0.31111077598E+00  0.44377786528E+01  0.24724414795E+01  0.50895615152E+01  0.51100000000E-03 0. -1.
        -11    1    3    3    0    0  0.12046503092E+02  0.25236267243E+02  0.51937646807E+00  0.27968860779E+02  0.51100000000E-03 0.  1.
         12    1    3    3    0    0  0.93484811670E+01  0.79034686061E+01 -0.81902481336E+01  0.14728851979E+02  0.00000000000E+00 0. -1.
</event>
<event>
 7    1  0.2237500E-009  0.4778727E+02  0.7816164E-02  0.1312668E+00
        -11   -1    0    0    0    0  0.00000000000E+00  0.00000000000E+00  0.45593999997E+02  0.45594000000E+02  0.51100000000E-03 0. -1.
         11   -1    0    0    0    0 -0.00000000000E+00 -0.00000000000E+00 -0.45593999997E+02  0.45594000000E+02  0.51100000000E-03 0.  1.
    9900012    2    1    2    0    0 -0.33634658063E+01 -0.42818419302E+02 -0.62364504398E+01  0.47787271345E+02  0.20000001369E+02 0.  0.
         12    1    1    2    0    0  0.33634658063E+01  0.42818419302E+02  0.62364504398E+01  0.43400728655E+02  0.00000000000E+00 0. -1.
         11    1    3    3    0    0 -0.25117863600E+01 -0.30160674314E+02 -0.54620388276E+01  0.30754011352E+02  0.51100000000E-03 0. -1.
        -11    1    3    3    0    0 -0.49556574857E+00 -0.14108417625E+02  0.16214070890E+01  0.14209925915E+02  0.51100000000E-03 0.  1.
         12    1    3    3    0    0 -0.35611369773E+00  0.14506726378E+01 -0.23958187012E+01  0.28233340782E+01  0.00000000000E+00 0. -1.
</event>
<event>
 7    1  0.2237500E-009  0.4778727E+02  0.7816164E-02  0.1312668E+00
        -11   -1    0    0    0    0  0.00000000000E+00  0.00000000000E+00  0.45593999997E+02  0.45594000000E+02  0.51100000000E-03 0. -1.
         11   -1    0    0    0    0 -0.00000000000E+00 -0.00000000000E+00 -0.45593999997E+02  0.45594000000E+02  0.51100000000E-03 0.  1.
    9900012    2    1    2    0    0 -0.23056422470E+02  0.24318587499E+02 -0.27579539723E+02  0.47787270440E+02  0.19999997243E+02 0.  0.
         12    1    1    2    0    0  0.23056422470E+02 -0.24318587499E+02  0.27579539723E+02  0.43400729560E+02  0.00000000000E+00 0. -1.
         11    1    3    3    0    0 -0.26200977594E+01 -0.43125002876E+00 -0.75050902408E+01  0.79609841502E+01  0.51100000000E-03 0.  1.
        -11    1    3    3    0    0 -0.97334002365E+01  0.44604778136E+01 -0.26780650911E+01  0.11036619744E+02  0.51100000000E-03 0. -1.
        -12    1    3    3    0    0 -0.10702924474E+02  0.20289359714E+02 -0.17396384391E+02  0.28789666545E+02  0.00000000000E+00 0.  1.
</event>
<event>
 7    1  0.2237500E-009  0.4778728E+02  0.7816164E-02  0.1312668E+00
        -11   -1    0    0    0    0  0.00000000000E+00  0.00000000000E+00  0.45593999997E+02  0.45594000000E+02  0.51100000000E-03 0.  1.
         11   -1    0    0    0    0 -0.00000000000E+00 -0.00000000000E+00 -0.45593999997E+02  0.45594000000E+02  0.51100000000E-03 0. -1.
    9900012    2    1    2    0    0  0.13814225754E+02  0.30871719755E+02  0.27197919817E+02  0.47787277009E+02  0.20000027194E+02 0.  0.
         12    1    1    2    0    0 -0.13814225754E+02 -0.30871719755E+02 -0.27197919817E+02  0.43400722991E+02  0.00000000000E+00 0. -1.
         11    1    3    3    0    0  0.96256530353E+01  0.66651069579E+01  0.70681927475E+01  0.13676117727E+02  0.51100000000E-03 0.  1.
        -11    1    3    3    0    0 -0.30056686658E+00 -0.97166041073E+00  0.34028705217E+01  0.35516182852E+01  0.51100000000E-03 0. -1.
        -12    1    3    3    0    0  0.44891395854E+01  0.25178273208E+02  0.16726856548E+02  0.30559540996E+02  0.00000000000E+00 0.  1.
</event>
<event>
 7    1  0.2237500E-009  0.4778727E+02  0.7816164E-02  0.1312668E+00
        -11   -1    0    0    0    0  0.00000000000E+00  0.00000000000E+00  0.45593999997E+02  0.45594000000E+02  0.51100000000E-03 0.  1.
         11   -1    0    0    0    0 -0.00000000000E+00 -0.00000000000E+00 -0.45593999997E+02  0.45594000000E+02  0.51100000000E-03 0. -1.
    9900012    2    1    2    0    0 -0.25477548293E+02  0.71496523727E+01  0.34400587979E+02  0.47787269022E+02  0.19999990781E+02 0.  0.
         12    1    1    2    0    0  0.25477548293E+02 -0.71496523727E+01 -0.34400587979E+02  0.43400730978E+02  0.00000000000E+00 0. -1.
         11    1    3    3    0    0 -0.23973672040E+01  0.56825536979E+01  0.58923955232E+01  0.85298951520E+01  0.51100000000E-03 0. -1.
        -11    1    3    3    0    0 -0.30111003844E+01 -0.77882464336E+00  0.14127771522E+02  0.14466071402E+02  0.51100000000E-03 0.  1.
         12    1    3    3    0    0 -0.20069080705E+02  0.22459233182E+01  0.14380420934E+02  0.24791302469E+02  0.00000000000E+00 0. -1.
</event>
<event>
 7    1  0.2237500E-009  0.4778728E+02  0.7816164E-02  0.1312668E+00
        -11   -1    0    0    0    0  0.00000000000E+00  0.00000000000E+00  0.45593999997E+02  0.45594000000E+02  0.51100000000E-03 0. -1.
         11   -1    0    0    0    0 -0.00000000000E+00 -0.00000000000E+00 -0.45593999997E+02  0.45594000000E+02  0.51100000000E-03 0.  1.
    9900012    2    1    2    0    0  0.10470237703E+02  0.37497616299E+02 -0.19181382427E+02  0.47787279528E+02  0.20000038680E+02 0.  0.
         12    1    1    2    0    0 -0.10470237703E+02 -0.37497616299E+02  0.19181382427E+02  0.43400720472E+02  0.00000000000E+00 0. -1.
         11    1    3    3    0    0  0.70489095025E+01  0.79131767916E+01 -0.83098335071E+01  0.13466953081E+02  0.51100000000E-03 0. -1.
        -11    1    3    3    0    0 -0.29142845972E+01  0.34176818505E+01 -0.50813884411E+01  0.67818959514E+01  0.51100000000E-03 0.  1.
        -12    1    3    3    0    0  0.63356127973E+01  0.26166757657E+02 -0.57901604792E+01  0.27538430496E+02  0.00000000000E+00 0.  1.
</event>
<event>
 7    1  0.2237500E-009  0.4778727E+02  0.7816164E-02  0.1312668E+00
        -11   -1    0    0    0    0  0.00000000000E+00  0.00000000000E+00  0.45593999997E+02  0.45594000000E+02  0.51100000000E-03 0. -1.
         11   -1    0    0    0    0 -0.00000000000E+00 -0.00000000000E+00 -0.45593999997E+02  0.45594000000E+02  0.51100000000E-03 0.  1.
    9900012    2    1    2    0    0  0.24194741787E+02 -0.28340556841E+02 -0.22249734926E+02  0.47787269632E+02  0.19999993559E+02 0.  0.
         12    1    1    2    0    0 -0.24194741787E+02  0.28340556841E+02  0.22249734926E+02  0.43400730368E+02  0.00000000000E+00 0. -1.
         11    1    3    3    0    0  0.13066602502E+02 -0.10230068996E+02 -0.12471083030E+02  0.20758572321E+02  0.51100000000E-03 0. -1.
        -11    1    3    3    0    0  0.78564328149E+01 -0.21447754938E+01 -0.64642527078E+01  0.10397603658E+02  0.51100000000E-03 0.  1.
         12    1    3    3    0    0  0.32717064704E+01 -0.15965712351E+02 -0.33143991882E+01  0.16631093653E+02  0.00000000000E+00 0. -1.
</event>
<event>
 7    1  0.2237500E-009  0.4778727E+02  0.7816164E-02  0.1312668E+00
        -11   -1    0    0    0    0  0.00000000000E+00  0.00000000000E+00  0.45593999997E+02  0.45594000000E+02  0.51100000000E-03 0. -1.
         11   -1    0    0    0    0 -0.00000000000E+00 -0.00000000000E+00 -0.45593999997E+02  0.45594000000E+02  0.51100000000E-03 0.  1.
    9900012    2    1    2    0    0  0.21154528047E+02  0.31644987977E+02 -0.20849554313E+02  0.47787271481E+02  0.20000001991E+02 0.  0.
         12    1    1    2    0    0 -0.21154528047E+02 -0.31644987977E+02  0.20849554313E+02  0.43400728519E+02  0.00000000000E+00 0. -1.
         11    1    3    3    0    0  0.43003744124E+01 -0.67804101565E+00 -0.10429258486E+01  0.44766789356E+01  0.51100000000E-03 0. -1.
        -11    1    3    3    0    0  0.33552754554E+01  0.29774553628E+01  0.13651588897E+01  0.46890055315E+01  0.51100000000E-03 0.  1.
        -12    1    3    3    0    0  0.13498878179E+02  0.29345573629E+02 -0.21171787354E+02  0.38621587014E+02  0.00000000000E+00 0.  1.
</event>
<event>
 7    1  0.2237500E-009  0.4778727E+02  0.7816164E-02  0.1312668E+00
        -11   -1    0    0    0    0  0.00000000000E+00  0.00000000000E+00  0.45593999997E+02  0.45594000000E+02  0.51100000000E-03 0.  1.
         11   -1    0    0    0    0 -0.00000000000E+00 -0.00000000000E+00 -0.45593999997E+02  0.45594000000E+02  0.51100000000E-03 0. -1.
    9900012    2    1    2    0    0  0.30712420472E+02 -0.30453510682E+01  0.30513871706E+02  0.47787270733E+02  0.19999998582E+02 0.  0.
         12    1    1    2    0    0 -0.30712420472E+02  0.30453510682E+01 -0.30513871706E+02  0.43400729267E+02  0.00000000000E+00 0. -1.
         11    1    3    3    0    0  0.91768878263E+01  0.65257741877E+01  0.71583855850E+01  0.13343293573E+02  0.51100000000E-03 0. -1.
        -11    1    3    3    0    0  0.90519906914E+01 -0.25837586999E+01  0.36574685265E+01  0.10099080195E+02  0.51100000000E-03 0.  1.
        -12    1    3    3    0    0  0.12483541954E+02 -0.69873665560E+01  0.19698017595E+02  0.24344896966E+02  0.00000000000E+00 0.  1.
</event>
<event>
 7    1  0.2237500E-009  0.4778727E+02  0.7816164E-02  0.1312668E+00
        -11   -1    0    0    0    0  0.00000000000E+00  0.00000000000E+00  0.45593999997E+02  0.45594000000E+02  0.51100000000E-03 0.  1.
         11   -1    0    0    0    0 -0.00000000000E+00 -0.00000000000E+00 -0.45593999997E+02  0.45594000000E+02  0.51100000000E-03 0. -1.
    9900012    2    1    2    0    0  0.30274328832E+02 -0.23219540890E+02  0.20686740831E+02  0.47787270610E+02  0.19999998019E+02 0.  0.
         12    1    1    2    0    0 -0.30274328832E+02  0.23219540890E+02 -0.20686740831E+02  0.43400729390E+02  0.00000000000E+00 0. -1.
         11    1    3    3    0    0  0.16223398130E+02 -0.16724757091E+02  0.84338518156E+01  0.24779951641E+02  0.51100000000E-03 0. -1.
        -11    1    3    3    0    0  0.82804583594E+01 -0.70471321886E+01  0.17532125304E+01  0.11013710418E+02  0.51100000000E-03 0.  1.
         12    1    3    3    0    0  0.57704723430E+01  0.55234838905E+00  0.10499676485E+02  0.11993608552E+02  0.00000000000E+00 0. -1.
</event>
<event>
 7    1  0.2237500E-009  0.4778727E+02  0.7816164E-02  0.1312668E+00
        -11   -1    0    0    0    0  0.00000000000E+00  0.00000000000E+00  0.45593999997E+02  0.45594000000E+02  0.51100000000E-03 0.  1.
         11   -1    0    0    0    0 -0.00000000000E+00 -0.00000000000E+00 -0.45593999997E+02  0.45594000000E+02  0.51100000000E-03 0. -1.
    9900012    2    1    2    0    0  0.37225277529E+02 -0.52816550657E+01  0.21679626275E+02  0.47787270020E+02  0.19999995330E+02 0.  0.
         12    1    1    2    0    0 -0.37225277529E+02  0.52816550657E+01 -0.21679626275E+02  0.43400729980E+02  0.00000000000E+00 0. -1.
         11    1    3    3    0    0  0.63368380773E+01  0.33998328326E+01  0.28938127339E+01  0.77516793347E+01  0.51100000000E-03 0. -1.
        -11    1    3    3    0    0  0.17994306741E+02 -0.15961960334E+01  0.17687265718E+02  0.25282054618E+02  0.51100000000E-03 0.  1.
         12    1    3    3    0    0  0.12894132711E+02 -0.70852918649E+01  0.10985478234E+01  0.14753536068E+02  0.00000000000E+00 0. -1.
</event>
<event>
 7    1  0.2237500E-009  0.4778727E+02  0.7816164E-02  0.1312668E+00
        -11   -1    0    0    0    0  0.00000000000E+00  0.00000000000E+00  0.45593999997E+02  0.45594000000E+02  0.51100000000E-03 0.  1.
         11   -1    0    0    0    0 -0.00000000000E+00 -0.00000000000E+00 -0.45593999997E+02  0.45594000000E+02  0.51100000000E-03 0. -1.
    9900012    2    1    2    0    0 -0.39155336401E+02 -0.18361190893E+02 -0.36537749333E+01  0.47787265318E+02  0.19999973890E+02 0.  0.
         12    1    1    2    0    0  0.39155336401E+02  0.18361190893E+02  0.36537749333E+01  0.43400734682E+02  0.00000000000E+00 0. -1.
         11    1    3    3    0    0 -0.36961996658E+02 -0.12483338955E+02  0.91977175344E+00  0.39023953269E+02  0.51100000000E-03 0.  1.
        -11    1    3    3    0    0  0.28527164560E+00  0.51976624935E+00 -0.19465471424E+00  0.62404133248E+00  0.51100000000E-03 0. -1.
        -12    1    3    3    0    0 -0.24786113885E+01 -0.63976181869E+01 -0.43788919725E+01  0.81392707159E+01  0.00000000000E+00 0.  1.
</event>
<event>
 7    1  0.2237500E-009  0.4778727E+02  0.7816164E-02  0.1312668E+00
        -11   -1    0    0    0    0  0.00000000000E+00  0.00000000000E+00  0.45593999997E+02  0.45594000000E+02  0.51100000000E-03 0. -1.
         11   -1    0    0    0    0 -0.00000000000E+00 -0.00000000000E+00 -0.45593999997E+02  0.45594000000E+02  0.51100000000E-03 0.  1.
    9900012    2    1    2    0    0 -0.58522503602E+01  0.13872750001E+02 -0.40705297581E+02  0.47787270997E+02  0.19999999782E+02 0.  0.
         12    1    1    2    0    0  0.58522503602E+01 -0.13872750001E+02  0.40705297581E+02  0.43400729003E+02  0.00000000000E+00 0. -1.
         11    1    3    3    0    0  0.25370007062E+01  0.10709310490E+00 -0.92084534815E+01  0.95521441205E+01  0.51100000000E-03 0. -1.
        -11    1    3    3    0    0 -0.47655321672E+00  0.34364125514E+01 -0.21627339600E+02  0.21903831917E+02  0.51100000000E-03 0.  1.
         12    1    3    3    0    0 -0.79126978497E+01  0.10329244345E+02 -0.98695044991E+01  0.16331294960E+02  0.00000000000E+00 0. -1.
</event>
<event>
 7    1  0.2237500E-009  0.4778723E+02  0.7816164E-02  0.1312668E+00
        -11   -1    0    0    0    0  0.00000000000E+00  0.00000000000E+00  0.45593999997E+02  0.45594000000E+02  0.51100000000E-03 0. -1.
         11   -1    0    0    0    0 -0.00000000000E+00 -0.00000000000E+00 -0.45593999997E+02  0.45594000000E+02  0.51100000000E-03 0.  1.
    9900012    2    1    2    0    0 -0.20121386769E+02 -0.22732559436E+02 -0.31015914984E+02  0.47787234496E+02  0.19999833362E+02 0.  0.
         12    1    1    2    0    0  0.20121386769E+02  0.22732559436E+02  0.31015914984E+02  0.43400765504E+02  0.00000000000E+00 0. -1.
         11    1    3    3    0    0 -0.12461538415E+01 -0.46401452238E+01 -0.87938623173E+01  0.10020771518E+02  0.51100000000E-03 0. -1.
        -11    1    3    3    0    0 -0.42997825816E+01 -0.10656592417E+02 -0.18539390905E+01  0.11639939115E+02  0.51100000000E-03 0.  1.
         12    1    3    3    0    0 -0.14575450346E+02 -0.74358217956E+01 -0.20368113576E+02  0.26126523864E+02  0.00000000000E+00 0. -1.
</event>
<event>
 7    1  0.2237500E-009  0.4778727E+02  0.7816164E-02  0.1312668E+00
        -11   -1    0    0    0    0  0.00000000000E+00  0.00000000000E+00  0.45593999997E+02  0.45594000000E+02  0.51100000000E-03 0.  1.
         11   -1    0    0    0    0 -0.00000000000E+00 -0.00000000000E+00 -0.45593999997E+02  0.45594000000E+02  0.51100000000E-03 0. -1.
    9900012    2    1    2    0    0  0.16134535173E+02 -0.39914930426E+02  0.54862221801E+01  0.47787268094E+02  0.19999986550E+02 0.  0.
         12    1    1    2    0    0 -0.16134535173E+02  0.39914930426E+02 -0.54862221801E+01  0.43400731906E+02  0.00000000000E+00 0. -1.
         11    1    3    3    0    0  0.11988341411E+02 -0.97094000997E+01  0.34863125151E+01  0.15816041075E+02  0.51100000000E-03 0. -1.
        -11    1    3    3    0    0  0.52805298415E+01 -0.15132627144E+02  0.45071578363E+01  0.16649170301E+02  0.51100000000E-03 0.  1.
        -12    1    3    3    0    0 -0.11343360802E+01 -0.15072903182E+02 -0.25072481713E+01  0.15322056718E+02  0.00000000000E+00 0.  1.
</event>
<event>
 7    1  0.2237500E-009  0.4778727E+02  0.7816164E-02  0.1312668E+00
        -11   -1    0    0    0    0  0.00000000000E+00  0.00000000000E+00  0.45593999997E+02  0.45594000000E+02  0.51100000000E-03 0. -1.
         11   -1    0    0    0    0 -0.00000000000E+00 -0.00000000000E+00 -0.45593999997E+02  0.45594000000E+02  0.51100000000E-03 0.  1.
    9900012    2    1    2    0    0 -0.12796391828E+02 -0.16043242560E+02 -0.38242516324E+02  0.47787270393E+02  0.19999997030E+02 0.  0.
         12    1    1    2    0    0  0.12796391828E+02  0.16043242560E+02  0.38242516324E+02  0.43400729607E+02  0.00000000000E+00 0. -1.
         11    1    3    3    0    0  0.22282715282E+01 -0.84471451530E+00 -0.31533427036E+01  0.39525064305E+01  0.51100000000E-03 0. -1.
        -11    1    3    3    0    0 -0.13760239224E+02 -0.17830898524E+02 -0.33859037463E+02  0.40665950669E+02  0.51100000000E-03 0.  1.
        -12    1    3    3    0    0 -0.12644241318E+01  0.26323704786E+01 -0.12301361574E+01  0.31688132932E+01  0.00000000000E+00 0.  1.
</event>
<event>
 7    1  0.2237500E-009  0.4778727E+02  0.7816164E-02  0.1312668E+00
        -11   -1    0    0    0    0  0.00000000000E+00  0.00000000000E+00  0.45593999997E+02  0.45594000000E+02  0.51100000000E-03 0.  1.
         11   -1    0    0    0    0 -0.00000000000E+00 -0.00000000000E+00 -0.45593999997E+02  0.45594000000E+02  0.51100000000E-03 0. -1.
    9900012    2    1    2    0    0 -0.12035659480E+02  0.31258783076E+02  0.27598087706E+02  0.47787273467E+02  0.20000011047E+02 0.  0.
         12    1    1    2    0    0  0.12035659480E+02 -0.31258783076E+02 -0.27598087706E+02  0.43400726533E+02  0.00000000000E+00 0. -1.
         11    1    3    3    0    0 -0.22452685540E+00 -0.11324422725E+01  0.31414757336E+01  0.33468952561E+01  0.51100000000E-03 0. -1.
        -11    1    3    3    0    0 -0.78472633578E+01  0.63976975107E+01  0.31681782701E+01  0.10608837328E+02  0.51100000000E-03 0.  1.
        -12    1    3    3    0    0 -0.39638692668E+01  0.25993527838E+02  0.21288433702E+02  0.33831540883E+02  0.00000000000E+00 0.  1.
</event>
<event>
 7    1  0.2237500E-009  0.4778727E+02  0.7816164E-02  0.1312668E+00
        -11   -1    0    0    0    0  0.00000000000E+00  0.00000000000E+00  0.45593999997E+02  0.45594000000E+02  0.51100000000E-03 0. -1.
         11   -1    0    0    0    0 -0.00000000000E+00 -0.00000000000E+00 -0.45593999997E+02  0.45594000000E+02  0.51100000000E-03 0.  1.
    9900012    2    1    2    0    0 -0.22007825179E+02  0.33737872933E+02 -0.16156573796E+02  0.47787270559E+02  0.19999997789E+02 0.  0.
         12    1    1    2    0    0  0.22007825179E+02 -0.33737872933E+02  0.16156573796E+02  0.43400729441E+02  0.00000000000E+00 0. -1.
         11    1    3    3    0    0 -0.42074387569E+01 -0.22050843971E+01 -0.22641511314E+01  0.52622541461E+01  0.51100000000E-03 0. -1.
        -11    1    3    3    0    0 -0.40262209445E+01  0.77332885220E+01 -0.41442773775E+01  0.96534574998E+01  0.51100000000E-03 0.  1.
         12    1    3    3    0    0 -0.13774165477E+02  0.28209668808E+02 -0.97481452867E+01  0.32871558914E+02  0.00000000000E+00 0. -1.
</event>
<event>
 7    1  0.2237500E-009  0.4778727E+02  0.7816164E-02  0.1312668E+00
        -11   -1    0    0    0    0  0.00000000000E+00  0.00000000000E+00  0.45593999997E+02  0.45594000000E+02  0.51100000000E-03 0.  1.
         11   -1    0    0    0    0 -0.00000000000E+00 -0.00000000000E+00 -0.45593999997E+02  0.45594000000E+02  0.51100000000E-03 0. -1.
    9900012    2    1    2    0    0  0.26850022693E+02  0.21482947131E+02  0.26479852561E+02  0.47787270424E+02  0.19999997173E+02 0.  0.
         12    1    1    2    0    0 -0.26850022693E+02 -0.21482947131E+02 -0.26479852561E+02  0.43400729576E+02  0.00000000000E+00 0. -1.
         11    1    3    3    0    0  0.93328702462E+01  0.14698990038E+01  0.28951232597E+01  0.98815388004E+01  0.51100000000E-03 0. -1.
        -11    1    3    3    0    0  0.82248491461E+01  0.32510677965E+01  0.20516342575E+01  0.90789200173E+01  0.51100000000E-03 0.  1.
        -12    1    3    3    0    0  0.92923033005E+01  0.16761980331E+02  0.21533095044E+02  0.28826811607E+02  0.00000000000E+00 0.  1.
</event>
<event>
 7    1  0.2237500E-009  0.4778727E+02  0.7816164E-02  0.1312668E+00
        -11   -1    0    0    0    0  0.00000000000E+00  0.00000000000E+00  0.45593999997E+02  0.45594000000E+02  0.51100000000E-03 0.  1.
         11   -1    0    0    0    0 -0.00000000000E+00 -0.00000000000E+00 -0.45593999997E+02  0.45594000000E+02  0.51100000000E-03 0. -1.
    9900012    2    1    2    0    0 -0.11248298616E+02 -0.29760006588E+02  0.29520175206E+02  0.47787274683E+02  0.20000016589E+02 0.  0.
         12    1    1    2    0    0  0.11248298616E+02  0.29760006588E+02 -0.29520175206E+02  0.43400725317E+02  0.00000000000E+00 0. -1.
         11    1    3    3    0    0  0.98882383361E+00 -0.11858181414E+02  0.86872461306E+01  0.14733040576E+02  0.51100000000E-03 0. -1.
        -11    1    3    3    0    0 -0.93265371028E+01 -0.20002561991E+02  0.18094798957E+02  0.28539595829E+02  0.51100000000E-03 0.  1.
         12    1    3    3    0    0 -0.29105853464E+01  0.21007368172E+01  0.27381301184E+01  0.45146382778E+01  0.00000000000E+00 0. -1.
</event>
<event>
 7    1  0.2237500E-009  0.4778727E+02  0.7816164E-02  0.1312668E+00
        -11   -1    0    0    0    0  0.00000000000E+00  0.00000000000E+00  0.45593999997E+02  0.45594000000E+02  0.51100000000E-03 0.  1.
         11   -1    0    0    0    0 -0.00000000000E+00 -0.00000000000E+00 -0.45593999997E+02  0.45594000000E+02  0.51100000000E-03 0. -1.
    9900012    2    1    2    0    0  0.37949042947E+01 -0.41279779949E+02  0.12853079052E+02  0.47787272214E+02  0.20000005331E+02 0.  0.
         12    1    1    2    0    0 -0.37949042947E+01  0.41279779949E+02 -0.12853079052E+02  0.43400727786E+02  0.00000000000E+00 0. -1.
         11    1    3    3    0    0  0.21783199441E+01 -0.41700733626E+01  0.73562176646E+01  0.87320403239E+01  0.51100000000E-03 0. -1.
        -11    1    3    3    0    0  0.23419002399E+01 -0.16517616393E+01 -0.92861599022E+00  0.30124974963E+01  0.51100000000E-03 0.  1.
        -12    1    3    3    0    0 -0.72531588933E+00 -0.35457944947E+02  0.64254773776E+01  0.36042734394E+02  0.00000000000E+00 0.  1.
</event>
<event>
 7    1  0.2237500E-009  0.4778728E+02  0.7816164E-02  0.1312668E+00
        -11   -1    0    0    0    0  0.00000000000E+00  0.00000000000E+00  0.45593999997E+02  0.45594000000E+02  0.51100000000E-03 0.  1.
         11   -1    0    0    0    0 -0.00000000000E+00 -0.00000000000E+00 -0.45593999997E+02  0.45594000000E+02  0.51100000000E-03 0. -1.
    9900012    2    1    2    0    0  0.35972648327E+02 -0.14424396713E+02  0.19532728427E+02  0.47787284246E+02  0.20000060189E+02 0.  0.
         12    1    1    2    0    0 -0.35972648327E+02  0.14424396713E+02 -0.19532728427E+02  0.43400715754E+02  0.00000000000E+00 0. -1.
         11    1    3    3    0    0  0.46965146862E+01 -0.42784136570E+01  0.34724458448E+01  0.72401625689E+01  0.51100000000E-03 0. -1.
        -11    1    3    3    0    0  0.20931809658E+01  0.39516328122E+01  0.38924630229E+01  0.59285813720E+01  0.51100000000E-03 0.  1.
        -12    1    3    3    0    0  0.29182952675E+02 -0.14097615869E+02  0.12167819559E+02  0.34618540305E+02  0.00000000000E+00 0.  1.
</event>
<event>
 7    1  0.2237500E-009  0.4778728E+02  0.7816164E-02  0.1312668E+00
        -11   -1    0    0    0    0  0.00000000000E+00  0.00000000000E+00  0.45593999997E+02  0.45594000000E+02  0.51100000000E-03 0. -1.
         11   -1    0    0    0    0 -0.00000000000E+00 -0.00000000000E+00 -0.45593999997E+02  0.45594000000E+02  0.51100000000E-03 0.  1.
    9900012    2    1    2    0    0  0.36746061088E+01 -0.23453197119E+02 -0.36332734627E+02  0.47787276612E+02  0.20000025384E+02 0.  0.
         12    1    1    2    0    0 -0.36746061088E+01  0.23453197119E+02  0.36332734627E+02  0.43400723388E+02  0.00000000000E+00 0. -1.
         11    1    3    3    0    0 -0.38141010445E+01 -0.82632970585E+01 -0.15513900640E+02  0.17986399262E+02  0.51100000000E-03 0. -1.
        -11    1    3    3    0    0  0.48584648100E+01 -0.14155173746E+02 -0.22105719958E+02  0.26695251997E+02  0.51100000000E-03 0.  1.
         12    1    3    3    0    0  0.26302423433E+01 -0.10347263142E+01  0.12868859712E+01  0.31056253529E+01  0.00000000000E+00 0. -1.
</event>
<event>
 7    1  0.2237500E-009  0.4778727E+02  0.7816164E-02  0.1312668E+00
        -11   -1    0    0    0    0  0.00000000000E+00  0.00000000000E+00  0.45593999997E+02  0.45594000000E+02  0.51100000000E-03 0. -1.
         11   -1    0    0    0    0 -0.00000000000E+00 -0.00000000000E+00 -0.45593999997E+02  0.45594000000E+02  0.51100000000E-03 0.  1.
    9900012    2    1    2    0    0  0.28903382893E+02  0.27695959998E+02 -0.16767575350E+02  0.47787270444E+02  0.19999997262E+02 0.  0.
         12    1    1    2    0    0 -0.28903382893E+02 -0.27695959998E+02  0.16767575350E+02  0.43400729556E+02  0.00000000000E+00 0. -1.
         11    1    3    3    0    0  0.10720832570E+02  0.94264965073E+01 -0.53326676017E+01  0.15239174237E+02  0.51100000000E-03 0. -1.
        -11    1    3    3    0    0  0.16723703387E+02  0.54844760685E+01 -0.69047313448E+01  0.18906005604E+02  0.51100000000E-03 0.  1.
         12    1    3    3    0    0  0.14588469361E+01  0.12784987422E+02 -0.45301764034E+01  0.13642090603E+02  0.00000000000E+00 0. -1.
</event>
<event>
 7    1  0.2237500E-009  0.4778727E+02  0.7816164E-02  0.1312668E+00
        -11   -1    0    0    0    0  0.00000000000E+00  0.00000000000E+00  0.45593999997E+02  0.45594000000E+02  0.51100000000E-03 0.  1.
         11   -1    0    0    0    0 -0.00000000000E+00 -0.00000000000E+00 -0.45593999997E+02  0.45594000000E+02  0.51100000000E-03 0. -1.
    9900012    2    1    2    0    0 -0.28799760009E+02 -0.62679018479E+01  0.31857662410E+02  0.47787269311E+02  0.19999992096E+02 0.  0.
         12    1    1    2    0    0  0.28799760009E+02  0.62679018479E+01 -0.31857662410E+02  0.43400730689E+02  0.00000000000E+00 0. -1.
         11    1    3    3    0    0 -0.55320853734E+01  0.43785960358E+01  0.67799114544E+01  0.97848490746E+01  0.51100000000E-03 0. -1.
        -11    1    3    3    0    0  0.14402970007E+01 -0.11263166157E+01  0.30640902791E+01  0.35681499504E+01  0.51100000000E-03 0.  1.
        -12    1    3    3    0    0 -0.24707971636E+02 -0.95201812679E+01  0.22013660676E+02  0.34434270286E+02  0.00000000000E+00 0.  1.
</event>
<event>
 7    1  0.2237500E-009  0.4778727E+02  0.7816164E-02  0.1312668E+00
        -11   -1    0    0    0    0  0.00000000000E+00  0.00000000000E+00  0.45593999997E+02  0.45594000000E+02  0.51100000000E-03 0. -1.
         11   -1    0    0    0    0 -0.00000000000E+00 -0.00000000000E+00 -0.45593999997E+02  0.45594000000E+02  0.51100000000E-03 0.  1.
    9900012    2    1    2    0    0  0.49606532817E+01 -0.14372354878E+02 -0.40650349709E+02  0.47787267319E+02  0.19999983015E+02 0.  0.
         12    1    1    2    0    0 -0.49606532817E+01  0.14372354878E+02  0.40650349709E+02  0.43400732681E+02  0.00000000000E+00 0. -1.
         11    1    3    3    0    0  0.16095045725E+01  0.31757095384E+01 -0.12438893714E+02  0.12938381396E+02  0.51100000000E-03 0. -1.
        -11    1    3    3    0    0  0.39734458588E+01 -0.17984859403E+01 -0.89831237851E+01  0.99859569832E+01  0.51100000000E-03 0.  1.
        -12    1    3    3    0    0 -0.62229714962E+00 -0.15749578476E+02 -0.19228332210E+02  0.24862928941E+02  0.00000000000E+00 0.  1.
</event>
<event>
 7    1  0.2237500E-009  0.4778727E+02  0.7816164E-02  0.1312668E+00
        -11   -1    0    0    0    0  0.00000000000E+00  0.00000000000E+00  0.45593999997E+02  0.45594000000E+02  0.51100000000E-03 0.  1.
         11   -1    0    0    0    0 -0.00000000000E+00 -0.00000000000E+00 -0.45593999997E+02  0.45594000000E+02  0.51100000000E-03 0. -1.
    9900012    2    1    2    0    0  0.14124730469E+02 -0.33885952571E+02  0.23148592469E+02  0.47787272751E+02  0.20000007779E+02 0.  0.
         12    1    1    2    0    0 -0.14124730469E+02  0.33885952571E+02 -0.23148592469E+02  0.43400727249E+02  0.00000000000E+00 0. -1.
         11    1    3    3    0    0  0.34328846486E+01 -0.37198909493E+01  0.70243137840E+01  0.86581331754E+01  0.51100000000E-03 0. -1.
        -11    1    3    3    0    0  0.51033904313E+01 -0.15129657517E+01  0.64764991026E+01  0.83832392396E+01  0.51100000000E-03 0.  1.
         12    1    3    3    0    0  0.55884553890E+01 -0.28653095870E+02  0.96477795827E+01  0.30745900336E+02  0.00000000000E+00 0. -1.
</event>
<event>
 7    1  0.2237500E-009  0.4778728E+02  0.7816164E-02  0.1312668E+00
        -11   -1    0    0    0    0  0.00000000000E+00  0.00000000000E+00  0.45593999997E+02  0.45594000000E+02  0.51100000000E-03 0.  1.
         11   -1    0    0    0    0 -0.00000000000E+00 -0.00000000000E+00 -0.45593999997E+02  0.45594000000E+02  0.51100000000E-03 0. -1.
    9900012    2    1    2    0    0 -0.39946430156E+01 -0.35047093405E+02  0.25285694670E+02  0.47787282449E+02  0.20000052000E+02 0.  0.
         12    1    1    2    0    0  0.39946430156E+01  0.35047093405E+02 -0.25285694670E+02  0.43400717551E+02  0.00000000000E+00 0. -1.
         11    1    3    3    0    0  0.23575935493E+01 -0.12335028669E+01 -0.13945490876E+01  0.30040878957E+01  0.51100000000E-03 0. -1.
        -11    1    3    3    0    0 -0.62781175229E+01 -0.91271336187E+01  0.61192139274E+01  0.12655595880E+02  0.51100000000E-03 0.  1.
        -12    1    3    3    0    0 -0.74119042002E-01 -0.24686456920E+02  0.20561029830E+02  0.32127598674E+02  0.00000000000E+00 0.  1.
</event>
<event>
 7    1  0.2237500E-009  0.4778727E+02  0.7816164E-02  0.1312668E+00
        -11   -1    0    0    0    0  0.00000000000E+00  0.00000000000E+00  0.45593999997E+02  0.45594000000E+02  0.51100000000E-03 0. -1.
         11   -1    0    0    0    0 -0.00000000000E+00 -0.00000000000E+00 -0.45593999997E+02  0.45594000000E+02  0.51100000000E-03 0.  1.
    9900012    2    1    2    0    0 -0.15404176756E+02  0.39458061345E+02 -0.94549477376E+01  0.47787270705E+02  0.19999998451E+02 0.  0.
         12    1    1    2    0    0  0.15404176756E+02 -0.39458061345E+02  0.94549477376E+01  0.43400729295E+02  0.00000000000E+00 0. -1.
         11    1    3    3    0    0 -0.57847296827E+01  0.15159311494E+02 -0.10108180566E+02  0.19116567085E+02  0.51100000000E-03 0. -1.
        -11    1    3    3    0    0 -0.20473513199E+01  0.18834072235E+02 -0.17578354299E+01  0.19026400343E+02  0.51100000000E-03 0.  1.
        -12    1    3    3    0    0 -0.75720957530E+01  0.54646776166E+01  0.24110682586E+01  0.96443032767E+01  0.00000000000E+00 0.  1.
</event>
<event>
 7    1  0.2237500E-009  0.4778727E+02  0.7816164E-02  0.1312668E+00
        -11   -1    0    0    0    0  0.00000000000E+00  0.00000000000E+00  0.45593999997E+02  0.45594000000E+02  0.51100000000E-03 0.  1.
         11   -1    0    0    0    0 -0.00000000000E+00 -0.00000000000E+00 -0.45593999997E+02  0.45594000000E+02  0.51100000000E-03 0. -1.
    9900012    2    1    2    0    0  0.69512456517E+01 -0.31291617046E+02  0.29259839317E+02  0.47787270624E+02  0.19999998084E+02 0.  0.
         12    1    1    2    0    0 -0.69512456517E+01  0.31291617046E+02 -0.29259839317E+02  0.43400729376E+02  0.00000000000E+00 0. -1.
         11    1    3    3    0    0 -0.16140692544E+01 -0.11692490725E+01  0.26076915465E+01  0.32821362578E+01  0.51100000000E-03 0. -1.
        -11    1    3    3    0    0  0.38686491625E+01 -0.23768462585E+02  0.27505804654E+02  0.36557838419E+02  0.51100000000E-03 0.  1.
         12    1    3    3    0    0  0.46966657437E+01 -0.63539053888E+01 -0.85365688281E+00  0.79472959471E+01  0.00000000000E+00 0. -1.
</event>
<event>
 7    1  0.2237500E-009  0.4778725E+02  0.7816164E-02  0.1312668E+00
        -11   -1    0    0    0    0  0.00000000000E+00  0.00000000000E+00  0.45593999997E+02  0.45594000000E+02  0.51100000000E-03 0.  1.
         11   -1    0    0    0    0 -0.00000000000E+00 -0.00000000000E+00 -0.45593999997E+02  0.45594000000E+02  0.51100000000E-03 0. -1.
    9900012    2    1    2    0    0  0.16117244488E+02  0.38764249979E+02  0.11008729586E+02  0.47787253769E+02  0.19999921235E+02 0.  0.
         12    1    1    2    0    0 -0.16117244488E+02 -0.38764249979E+02 -0.11008729586E+02  0.43400746231E+02  0.00000000000E+00 0. -1.
         11    1    3    3    0    0  0.13163203468E+02  0.18434246250E+02  0.35423228033E+01  0.22926827331E+02  0.51100000000E-03 0. -1.
        -11    1    3    3    0    0  0.20027803334E+01  0.18437439369E+02  0.15900130022E+01  0.18613931373E+02  0.51100000000E-03 0.  1.
         12    1    3    3    0    0  0.95126068579E+00  0.18925643607E+01  0.58763937801E+01  0.62464950661E+01  0.00000000000E+00 0. -1.
</event>
<event>
 7    1  0.2237500E-009  0.4778727E+02  0.7816164E-02  0.1312668E+00
        -11   -1    0    0    0    0  0.00000000000E+00  0.00000000000E+00  0.45593999997E+02  0.45594000000E+02  0.51100000000E-03 0.  1.
         11   -1    0    0    0    0 -0.00000000000E+00 -0.00000000000E+00 -0.45593999997E+02  0.45594000000E+02  0.51100000000E-03 0. -1.
    9900012    2    1    2    0    0  0.79575208898E+01  0.34865651612E+02 -0.24590397663E+02  0.47787268920E+02  0.19999990315E+02 0.  0.
         12    1    1    2    0    0 -0.79575208898E+01 -0.34865651612E+02  0.24590397663E+02  0.43400731080E+02  0.00000000000E+00 0. -1.
         11    1    3    3    0    0  0.19607481648E+00  0.31941016932E+01  0.29291487626E+01  0.43382765812E+01  0.51100000000E-03 0. -1.
        -11    1    3    3    0    0  0.22313177408E+01  0.12607335714E+02 -0.58951380197E+01  0.14095259671E+02  0.51100000000E-03 0.  1.
        -12    1    3    3    0    0  0.55301283325E+01  0.19064214204E+02 -0.21624408406E+02  0.29353732668E+02  0.00000000000E+00 0.  1.
</event>
<event>
 7    1  0.2237500E-009  0.4778728E+02  0.7816164E-02  0.1312668E+00
        -11   -1    0    0    0    0  0.00000000000E+00  0.00000000000E+00  0.45593999997E+02  0.45594000000E+02  0.51100000000E-03 0. -1.
         11   -1    0    0    0    0 -0.00000000000E+00 -0.00000000000E+00 -0.45593999997E+02  0.45594000000E+02  0.51100000000E-03 0.  1.
    9900012    2    1    2    0    0 -0.32231230953E+02 -0.23265554302E+02 -0.17420808239E+02  0.47787276211E+02  0.20000023554E+02 0.  0.
         12    1    1    2    0    0  0.32231230953E+02  0.23265554302E+02  0.17420808239E+02  0.43400723789E+02  0.00000000000E+00 0. -1.
         11    1    3    3    0    0 -0.55665564276E+01 -0.44473817506E+01 -0.44818544809E+01  0.84174090281E+01  0.51100000000E-03 0. -1.
        -11    1    3    3    0    0 -0.93121403828E+01 -0.17397341385E+02 -0.77786311097E+01  0.21210623469E+02  0.51100000000E-03 0.  1.
         12    1    3    3    0    0 -0.17352534143E+02 -0.14208311668E+01 -0.51603226482E+01  0.18159243713E+02  0.00000000000E+00 0. -1.
</event>
<event>
 7    1  0.2237500E-009  0.4778727E+02  0.7816164E-02  0.1312668E+00
        -11   -1    0    0    0    0  0.00000000000E+00  0.00000000000E+00  0.45593999997E+02  0.45594000000E+02  0.51100000000E-03 0.  1.
         11   -1    0    0    0    0 -0.00000000000E+00 -0.00000000000E+00 -0.45593999997E+02  0.45594000000E+02  0.51100000000E-03 0. -1.
    9900012    2    1    2    0    0 -0.17617893087E+02 -0.14669426108E+01  0.39636868711E+02  0.47787269146E+02  0.19999991345E+02 0.  0.
         12    1    1    2    0    0  0.17617893087E+02  0.14669426108E+01 -0.39636868711E+02  0.43400730854E+02  0.00000000000E+00 0. -1.
         11    1    3    3    0    0 -0.14099401606E+02 -0.74908117435E+01  0.18468770054E+02  0.24413128718E+02  0.51100000000E-03 0. -1.
        -11    1    3    3    0    0 -0.32829013719E+01  0.32611690089E+01  0.44236232485E+01  0.64016488211E+01  0.51100000000E-03 0.  1.
        -12    1    3    3    0    0 -0.23559010980E+00  0.27627001237E+01  0.16744475408E+02  0.16972491607E+02  0.00000000000E+00 0.  1.
</event>
<event>
 7    1  0.2237500E-009  0.4778727E+02  0.7816164E-02  0.1312668E+00
        -11   -1    0    0    0    0  0.00000000000E+00  0.00000000000E+00  0.45593999997E+02  0.45594000000E+02  0.51100000000E-03 0.  1.
         11   -1    0    0    0    0 -0.00000000000E+00 -0.00000000000E+00 -0.45593999997E+02  0.45594000000E+02  0.51100000000E-03 0. -1.
    9900012    2    1    2    0    0 -0.37369620667E+01 -0.40126315029E+02  0.16110150612E+02  0.47787274245E+02  0.20000014592E+02 0.  0.
         12    1    1    2    0    0  0.37369620667E+01  0.40126315029E+02 -0.16110150612E+02  0.43400725755E+02  0.00000000000E+00 0. -1.
         11    1    3    3    0    0  0.23826449814E+01 -0.12062104203E+02  0.10770149798E+02  0.16345258696E+02  0.51100000000E-03 0. -1.
        -11    1    3    3    0    0  0.16847715467E+01 -0.98369549100E+01  0.59234179713E+01  0.11605645945E+02  0.51100000000E-03 0.  1.
        -12    1    3    3    0    0 -0.78043785948E+01 -0.18227255917E+02 -0.58341715701E+00  0.19836369605E+02  0.00000000000E+00 0.  1.
</event>
<event>
 7    1  0.2237500E-009  0.4778727E+02  0.7816164E-02  0.1312668E+00
        -11   -1    0    0    0    0  0.00000000000E+00  0.00000000000E+00  0.45593999997E+02  0.45594000000E+02  0.51100000000E-03 0.  1.
         11   -1    0    0    0    0 -0.00000000000E+00 -0.00000000000E+00 -0.45593999997E+02  0.45594000000E+02  0.51100000000E-03 0. -1.
    9900012    2    1    2    0    0  0.22394150411E+02 -0.10987538309E+02  0.35516184439E+02  0.47787270423E+02  0.19999997167E+02 0.  0.
         12    1    1    2    0    0 -0.22394150411E+02  0.10987538309E+02 -0.35516184439E+02  0.43400729577E+02  0.00000000000E+00 0. -1.
         11    1    3    3    0    0  0.12915465429E+02 -0.14107791301E+01  0.12359513903E+02  0.17932014086E+02  0.51100000000E-03 0. -1.
        -11    1    3    3    0    0  0.45056912883E+01  0.19949557501E+01  0.12214303886E+02  0.13170813267E+02  0.51100000000E-03 0.  1.
        -12    1    3    3    0    0  0.49729936941E+01 -0.11571714929E+02  0.10942366649E+02  0.16684443070E+02  0.00000000000E+00 0.  1.
</event>
<event>
 7    1  0.2237500E-009  0.4778727E+02  0.7816164E-02  0.1312668E+00
        -11   -1    0    0    0    0  0.00000000000E+00  0.00000000000E+00  0.45593999997E+02  0.45594000000E+02  0.51100000000E-03 0.  1.
         11   -1    0    0    0    0 -0.00000000000E+00 -0.00000000000E+00 -0.45593999997E+02  0.45594000000E+02  0.51100000000E-03 0. -1.
    9900012    2    1    2    0    0 -0.13774483221E+02 -0.87150329729E+01  0.40223568549E+02  0.47787266659E+02  0.19999980005E+02 0.  0.
         12    1    1    2    0    0  0.13774483221E+02  0.87150329729E+01 -0.40223568549E+02  0.43400733341E+02  0.00000000000E+00 0. -1.
         11    1    3    3    0    0 -0.72634792521E+01 -0.46825181632E+01  0.19949185757E+02  0.21740609923E+02  0.51100000000E-03 0. -1.
        -11    1    3    3    0    0 -0.94099946101E+01 -0.54964146576E+01  0.84656638325E+01  0.13799494086E+02  0.51100000000E-03 0.  1.
         12    1    3    3    0    0  0.28989906413E+01  0.14638998479E+01  0.11808718960E+02  0.12247162650E+02  0.00000000000E+00 0. -1.
</event>
<event>
 7    1  0.2237500E-009  0.4778727E+02  0.7816164E-02  0.1312668E+00
        -11   -1    0    0    0    0  0.00000000000E+00  0.00000000000E+00  0.45593999997E+02  0.45594000000E+02  0.51100000000E-03 0.  1.
         11   -1    0    0    0    0 -0.00000000000E+00 -0.00000000000E+00 -0.45593999997E+02  0.45594000000E+02  0.51100000000E-03 0. -1.
    9900012    2    1    2    0    0  0.88629091844E+01 -0.86290161278E+01  0.41600625123E+02  0.47787273172E+02  0.20000009701E+02 0.  0.
         12    1    1    2    0    0 -0.88629091844E+01  0.86290161278E+01 -0.41600625123E+02  0.43400726828E+02  0.00000000000E+00 0. -1.
         11    1    3    3    0    0  0.69472199441E+01  0.44148096528E+01  0.96680128321E+01  0.12697436025E+02  0.51100000000E-03 0. -1.
        -11    1    3    3    0    0  0.16763699067E+01 -0.22881237401E+01  0.26049313339E+01  0.38511548696E+01  0.51100000000E-03 0.  1.
         12    1    3    3    0    0  0.23931933356E+00 -0.10755702040E+02  0.29327680957E+02  0.31238682278E+02  0.00000000000E+00 0. -1.
</event>
<event>
 7    1  0.2237500E-009  0.4778727E+02  0.7816164E-02  0.1312668E+00
        -11   -1    0    0    0    0  0.00000000000E+00  0.00000000000E+00  0.45593999997E+02  0.45594000000E+02  0.51100000000E-03 0.  1.
         11   -1    0    0    0    0 -0.00000000000E+00 -0.00000000000E+00 -0.45593999997E+02  0.45594000000E+02  0.51100000000E-03 0. -1.
    9900012    2    1    2    0    0  0.38144656402E+02 -0.24163172297E+01  0.20561365892E+02  0.47787272261E+02  0.20000005545E+02 0.  0.
         12    1    1    2    0    0 -0.38144656402E+02  0.24163172297E+01 -0.20561365892E+02  0.43400727739E+02  0.00000000000E+00 0. -1.
         11    1    3    3    0    0  0.38731407053E+01  0.14590362990E+01 -0.13401660214E+01  0.43504081499E+01  0.51100000000E-03 0. -1.
        -11    1    3    3    0    0  0.22790206157E+02 -0.55134596287E+01  0.21530696175E+02  0.31833356905E+02  0.51100000000E-03 0.  1.
         12    1    3    3    0    0  0.11481309539E+02  0.16381061001E+01  0.37083573797E+00  0.11603507206E+02  0.00000000000E+00 0. -1.
</event>
<event>
 7    1  0.2237500E-009  0.4778727E+02  0.7816164E-02  0.1312668E+00
        -11   -1    0    0    0    0  0.00000000000E+00  0.00000000000E+00  0.45593999997E+02  0.45594000000E+02  0.51100000000E-03 0. -1.
         11   -1    0    0    0    0 -0.00000000000E+00 -0.00000000000E+00 -0.45593999997E+02  0.45594000000E+02  0.51100000000E-03 0.  1.
    9900012    2    1    2    0    0 -0.24621809473E+02  0.35249959934E+02  0.59017148760E+01  0.47787269412E+02  0.19999992556E+02 0.  0.
         12    1    1    2    0    0  0.24621809473E+02 -0.35249959934E+02 -0.59017148760E+01  0.43400730588E+02  0.00000000000E+00 0. -1.
         11    1    3    3    0    0 -0.51216519968E+01  0.17039369708E+02 -0.25155559145E+00  0.17794232765E+02  0.51100000000E-03 0. -1.
        -11    1    3    3    0    0 -0.43151121100E+01  0.10149484470E+02  0.64920906616E+01  0.12797635287E+02  0.51100000000E-03 0.  1.
         12    1    3    3    0    0 -0.15185045366E+02  0.80611057568E+01 -0.33882019421E+00  0.17195401360E+02  0.00000000000E+00 0. -1.
</event>
<event>
 7    1  0.2237500E-009  0.4778727E+02  0.7816164E-02  0.1312668E+00
        -11   -1    0    0    0    0  0.00000000000E+00  0.00000000000E+00  0.45593999997E+02  0.45594000000E+02  0.51100000000E-03 0.  1.
         11   -1    0    0    0    0 -0.00000000000E+00 -0.00000000000E+00 -0.45593999997E+02  0.45594000000E+02  0.51100000000E-03 0. -1.
    9900012    2    1    2    0    0  0.11099216664E+02 -0.23511182184E+02  0.34751329485E+02  0.47787271904E+02  0.20000003921E+02 0.  0.
         12    1    1    2    0    0 -0.11099216664E+02  0.23511182184E+02 -0.34751329485E+02  0.43400728096E+02  0.00000000000E+00 0. -1.
         11    1    3    3    0    0  0.21384816620E+01  0.11671429945E+01 -0.13208776997E+00  0.24398307377E+01  0.51100000000E-03 0. -1.
        -11    1    3    3    0    0  0.11667907980E+01  0.63055821550E-03 -0.69019421974E+00  0.13556435689E+01  0.51100000000E-03 0.  1.
        -12    1    3    3    0    0  0.77939442040E+01 -0.24678955737E+02  0.35573611475E+02  0.43991797598E+02  0.00000000000E+00 0.  1.
</event>
<event>
 7    1  0.2237500E-009  0.4778727E+02  0.7816164E-02  0.1312668E+00
        -11   -1    0    0    0    0  0.00000000000E+00  0.00000000000E+00  0.45593999997E+02  0.45594000000E+02  0.51100000000E-03 0. -1.
         11   -1    0    0    0    0 -0.00000000000E+00 -0.00000000000E+00 -0.45593999997E+02  0.45594000000E+02  0.51100000000E-03 0.  1.
    9900012    2    1    2    0    0 -0.90073745621E+01 -0.13585163638E+02 -0.40223546144E+02  0.47787272679E+02  0.20000007455E+02 0.  0.
         12    1    1    2    0    0  0.90073745621E+01  0.13585163638E+02  0.40223546144E+02  0.43400727321E+02  0.00000000000E+00 0. -1.
         11    1    3    3    0    0  0.31752750678E+01 -0.57797756896E+01 -0.21360378095E+02  0.22355176836E+02  0.51100000000E-03 0.  1.
        -11    1    3    3    0    0  0.66358533675E+00 -0.34067282183E+01 -0.35182607691E+01  0.49420948749E+01  0.51100000000E-03 0. -1.
        -12    1    3    3    0    0 -0.12846234967E+02 -0.43986597305E+01 -0.15344907280E+02  0.20490000968E+02  0.00000000000E+00 0.  1.
</event>
<event>
 7    1  0.2237500E-009  0.4778727E+02  0.7816164E-02  0.1312668E+00
        -11   -1    0    0    0    0  0.00000000000E+00  0.00000000000E+00  0.45593999997E+02  0.45594000000E+02  0.51100000000E-03 0.  1.
         11   -1    0    0    0    0 -0.00000000000E+00 -0.00000000000E+00 -0.45593999997E+02  0.45594000000E+02  0.51100000000E-03 0. -1.
    9900012    2    1    2    0    0  0.18643225765E+02  0.22065046569E+02  0.32391159252E+02  0.47787270228E+02  0.19999996280E+02 0.  0.
         12    1    1    2    0    0 -0.18643225765E+02 -0.22065046569E+02 -0.32391159252E+02  0.43400729772E+02  0.00000000000E+00 0. -1.
         11    1    3    3    0    0 -0.14920130900E+01  0.45234753206E+01  0.77208416151E+01  0.90718976815E+01  0.51100000000E-03 0. -1.
        -11    1    3    3    0    0  0.41320110691E+01  0.10690682714E+02  0.14748500322E+02  0.18678395926E+02  0.51100000000E-03 0.  1.
         12    1    3    3    0    0  0.16003227785E+02  0.68508885336E+01  0.99218173156E+01  0.20036976621E+02  0.00000000000E+00 0. -1.
</event>
<event>
 7    1  0.2237500E-009  0.4778727E+02  0.7816164E-02  0.1312668E+00
        -11   -1    0    0    0    0  0.00000000000E+00  0.00000000000E+00  0.45593999997E+02  0.45594000000E+02  0.51100000000E-03 0.  1.
         11   -1    0    0    0    0 -0.00000000000E+00 -0.00000000000E+00 -0.45593999997E+02  0.45594000000E+02  0.51100000000E-03 0. -1.
    9900012    2    1    2    0    0 -0.28715147610E+02  0.63334385925E+01  0.31921015828E+02  0.47787269612E+02  0.19999993471E+02 0.  0.
         12    1    1    2    0    0  0.28715147610E+02 -0.63334385925E+01 -0.31921015828E+02  0.43400730388E+02  0.00000000000E+00 0. -1.
         11    1    3    3    0    0 -0.14072059411E+02  0.32191156542E+01  0.65516049368E+01  0.15852731284E+02  0.51100000000E-03 0. -1.
        -11    1    3    3    0    0 -0.11156116107E+02 -0.35513115448E+00  0.76166336562E+01  0.13512888412E+02  0.51100000000E-03 0.  1.
         12    1    3    3    0    0 -0.34869720923E+01  0.34694540927E+01  0.17752777235E+02  0.18421649916E+02  0.00000000000E+00 0. -1.
</event>
<event>
 7    1  0.2237500E-009  0.4778727E+02  0.7816164E-02  0.1312668E+00
        -11   -1    0    0    0    0  0.00000000000E+00  0.00000000000E+00  0.45593999997E+02  0.45594000000E+02  0.51100000000E-03 0. -1.
         11   -1    0    0    0    0 -0.00000000000E+00 -0.00000000000E+00 -0.45593999997E+02  0.45594000000E+02  0.51100000000E-03 0.  1.
    9900012    2    1    2    0    0  0.39403942879E+02 -0.59535774760E+01 -0.17190330049E+02  0.47787271361E+02  0.20000001443E+02 0.  0.
         12    1    1    2    0    0 -0.39403942879E+02  0.59535774760E+01  0.17190330049E+02  0.43400728639E+02  0.00000000000E+00 0. -1.
         11    1    3    3    0    0  0.51770780804E+01  0.33221484459E+00 -0.10954539133E+02  0.12120826376E+02  0.51100000000E-03 0. -1.
        -11    1    3    3    0    0  0.74568496005E+01  0.42712371263E+00 -0.56021586346E+00  0.74900522498E+01  0.51100000000E-03 0.  1.
         12    1    3    3    0    0  0.26770015199E+02 -0.67129160332E+01 -0.56755750521E+01  0.28176392735E+02  0.00000000000E+00 0. -1.
</event>
<event>
 7    1  0.2237500E-009  0.4778727E+02  0.7816164E-02  0.1312668E+00
        -11   -1    0    0    0    0  0.00000000000E+00  0.00000000000E+00  0.45593999997E+02  0.45594000000E+02  0.51100000000E-03 0.  1.
         11   -1    0    0    0    0 -0.00000000000E+00 -0.00000000000E+00 -0.45593999997E+02  0.45594000000E+02  0.51100000000E-03 0. -1.
    9900012    2    1    2    0    0  0.23387330987E+02 -0.33733167281E+02  0.14097148876E+02  0.47787269224E+02  0.19999991699E+02 0.  0.
         12    1    1    2    0    0 -0.23387330987E+02  0.33733167281E+02 -0.14097148876E+02  0.43400730776E+02  0.00000000000E+00 0. -1.
         11    1    3    3    0    0  0.93203949515E+00  0.12543871776E+00  0.12376289854E+01  0.15543996459E+01  0.51100000000E-03 0. -1.
        -11    1    3    3    0    0  0.47476365474E+01 -0.22908655914E+02  0.89516870375E+01  0.25049536316E+02  0.51100000000E-03 0.  1.
        -12    1    3    3    0    0  0.17707654944E+02 -0.10949950085E+02  0.39078328533E+01  0.21183333262E+02  0.00000000000E+00 0.  1.
</event>
<event>
 7    1  0.2237500E-009  0.4778727E+02  0.7816164E-02  0.1312668E+00
        -11   -1    0    0    0    0  0.00000000000E+00  0.00000000000E+00  0.45593999997E+02  0.45594000000E+02  0.51100000000E-03 0.  1.
         11   -1    0    0    0    0 -0.00000000000E+00 -0.00000000000E+00 -0.45593999997E+02  0.45594000000E+02  0.51100000000E-03 0. -1.
    9900012    2    1    2    0    0  0.30399530652E+02 -0.11071926000E+02  0.28929298078E+02  0.47787270784E+02  0.19999998811E+02 0.  0.
         12    1    1    2    0    0 -0.30399530652E+02  0.11071926000E+02 -0.28929298078E+02  0.43400729216E+02  0.00000000000E+00 0. -1.
         11    1    3    3    0    0  0.45026913231E+01 -0.65132234114E+01  0.17169236209E+01  0.81021068457E+01  0.51100000000E-03 0. -1.
        -11    1    3    3    0    0  0.14195340956E+02 -0.83971313530E+01  0.17010522963E+02  0.23693404389E+02  0.51100000000E-03 0.  1.
         12    1    3    3    0    0  0.11701498373E+02  0.38384287641E+01  0.10201851494E+02  0.15991759549E+02  0.00000000000E+00 0. -1.
</event>
<event>
 7    1  0.2237500E-009  0.4778727E+02  0.7816164E-02  0.1312668E+00
        -11   -1    0    0    0    0  0.00000000000E+00  0.00000000000E+00  0.45593999997E+02  0.45594000000E+02  0.51100000000E-03 0.  1.
         11   -1    0    0    0    0 -0.00000000000E+00 -0.00000000000E+00 -0.45593999997E+02  0.45594000000E+02  0.51100000000E-03 0. -1.
    9900012    2    1    2    0    0  0.13833310360E+02 -0.40142239263E+02 -0.89924046907E+01  0.47787272003E+02  0.20000004370E+02 0.  0.
         12    1    1    2    0    0 -0.13833310360E+02  0.40142239263E+02  0.89924046907E+01  0.43400727997E+02  0.00000000000E+00 0. -1.
         11    1    3    3    0    0  0.28956036436E+01 -0.17630173484E+02 -0.51342642120E+01  0.18589464941E+02  0.51100000000E-03 0. -1.
        -11    1    3    3    0    0  0.78092609081E+01 -0.94902284279E+01 -0.85894584711E+01  0.14994258522E+02  0.51100000000E-03 0.  1.
        -12    1    3    3    0    0  0.31284458078E+01 -0.13021837351E+02  0.47313179924E+01  0.14203548539E+02  0.00000000000E+00 0.  1.
</event>
<event>
 7    1  0.2237500E-009  0.4778727E+02  0.7816164E-02  0.1312668E+00
        -11   -1    0    0    0    0  0.00000000000E+00  0.00000000000E+00  0.45593999997E+02  0.45594000000E+02  0.51100000000E-03 0.  1.
         11   -1    0    0    0    0 -0.00000000000E+00 -0.00000000000E+00 -0.45593999997E+02  0.45594000000E+02  0.51100000000E-03 0. -1.
    9900012    2    1    2    0    0  0.33667356624E+02  0.13845516472E+02  0.23631205710E+02  0.47787272912E+02  0.20000008516E+02 0.  0.
         12    1    1    2    0    0 -0.33667356624E+02 -0.13845516472E+02 -0.23631205710E+02  0.43400727088E+02  0.00000000000E+00 0. -1.
         11    1    3    3    0    0  0.12178999615E+02  0.10673089262E+02  0.78097708864E+01  0.17978748220E+02  0.51100000000E-03 0.  1.
        -11    1    3    3    0    0  0.13378419362E+02  0.26276822863E+01  0.20080290977E+01  0.13781110258E+02  0.51100000000E-03 0. -1.
        -12    1    3    3    0    0  0.81099376468E+01  0.54474492380E+00  0.13813405726E+02  0.16027414434E+02  0.00000000000E+00 0.  1.
</event>
<event>
 7    1  0.2237500E-009  0.4778727E+02  0.7816164E-02  0.1312668E+00
        -11   -1    0    0    0    0  0.00000000000E+00  0.00000000000E+00  0.45593999997E+02  0.45594000000E+02  0.51100000000E-03 0. -1.
         11   -1    0    0    0    0 -0.00000000000E+00 -0.00000000000E+00 -0.45593999997E+02  0.45594000000E+02  0.51100000000E-03 0.  1.
    9900012    2    1    2    0    0  0.24294927004E+02  0.30981699395E+02 -0.18262379742E+02  0.47787266258E+02  0.19999978177E+02 0.  0.
         12    1    1    2    0    0 -0.24294927004E+02 -0.30981699395E+02  0.18262379742E+02  0.43400733742E+02  0.00000000000E+00 0. -1.
         11    1    3    3    0    0  0.83933965584E+01  0.16221636419E+02 -0.39643821463E+01  0.18689754411E+02  0.51100000000E-03 0. -1.
        -11    1    3    3    0    0  0.70724421181E+00  0.86983292528E+01 -0.69865623976E+01  0.11179140421E+02  0.51100000000E-03 0.  1.
        -12    1    3    3    0    0  0.15194286234E+02  0.60617337229E+01 -0.73114351979E+01  0.17918371425E+02  0.00000000000E+00 0.  1.
</event>
<event>
 7    1  0.2237500E-009  0.4778727E+02  0.7816164E-02  0.1312668E+00
        -11   -1    0    0    0    0  0.00000000000E+00  0.00000000000E+00  0.45593999997E+02  0.45594000000E+02  0.51100000000E-03 0.  1.
         11   -1    0    0    0    0 -0.00000000000E+00 -0.00000000000E+00 -0.45593999997E+02  0.45594000000E+02  0.51100000000E-03 0. -1.
    9900012    2    1    2    0    0  0.28781181700E+01 -0.26505224208E+02  0.34246359285E+02  0.47787267301E+02  0.19999982931E+02 0.  0.
         12    1    1    2    0    0 -0.28781181700E+01  0.26505224208E+02 -0.34246359285E+02  0.43400732699E+02  0.00000000000E+00 0. -1.
         11    1    3    3    0    0 -0.46525822543E+01 -0.18288422516E+02  0.20361008960E+02  0.27761188841E+02  0.51100000000E-03 0. -1.
        -11    1    3    3    0    0  0.61416600052E+00 -0.48192124047E+01  0.10578116742E+02  0.11640384965E+02  0.51100000000E-03 0.  1.
        -12    1    3    3    0    0  0.69165344238E+01 -0.33975892882E+01  0.33072335835E+01  0.83856934944E+01  0.00000000000E+00 0.  1.
</event>
<event>
 7    1  0.2237500E-009  0.4778726E+02  0.7816164E-02  0.1312668E+00
        -11   -1    0    0    0    0  0.00000000000E+00  0.00000000000E+00  0.45593999997E+02  0.45594000000E+02  0.51100000000E-03 0.  1.
         11   -1    0    0    0    0 -0.00000000000E+00 -0.00000000000E+00 -0.45593999997E+02  0.45594000000E+02  0.51100000000E-03 0. -1.
    9900012    2    1    2    0    0 -0.37382474578E+02  0.78322807101E+01  0.20611399230E+02  0.47787264927E+02  0.19999972107E+02 0.  0.
         12    1    1    2    0    0  0.37382474578E+02 -0.78322807101E+01 -0.20611399230E+02  0.43400735073E+02  0.00000000000E+00 0. -1.
         11    1    3    3    0    0 -0.49559935560E+01 -0.17543828083E+01  0.11091141962E+02  0.12274084954E+02  0.51100000000E-03 0. -1.
        -11    1    3    3    0    0 -0.20934878892E+02  0.41493607762E+01  0.76053696774E+01  0.22656742865E+02  0.51100000000E-03 0.  1.
        -12    1    3    3    0    0 -0.11491602130E+02  0.54373027422E+01  0.19148875902E+01  0.12856437108E+02  0.00000000000E+00 0.  1.
</event>
<event>
 7    1  0.2237500E-009  0.4778730E+02  0.7816164E-02  0.1312668E+00
        -11   -1    0    0    0    0  0.00000000000E+00  0.00000000000E+00  0.45593999997E+02  0.45594000000E+02  0.51100000000E-03 0.  1.
         11   -1    0    0    0    0 -0.00000000000E+00 -0.00000000000E+00 -0.45593999997E+02  0.45594000000E+02  0.51100000000E-03 0. -1.
    9900012    2    1    2    0    0 -0.22518850290E+02 -0.11983027148E+02  0.35113090267E+02  0.47787301087E+02  0.20000136977E+02 0.  0.
         12    1    1    2    0    0  0.22518850290E+02  0.11983027148E+02 -0.35113090267E+02  0.43400698913E+02  0.00000000000E+00 0. -1.
         11    1    3    3    0    0 -0.97192806091E+01  0.45931665951E+00  0.43693890049E+01  0.10666159004E+02  0.51100000000E-03 0. -1.
        -11    1    3    3    0    0 -0.65527003129E+01  0.24452680429E+00  0.11532647083E+02  0.13266484981E+02  0.51100000000E-03 0.  1.
         12    1    3    3    0    0 -0.62468693685E+01 -0.12686870612E+02  0.19211054178E+02  0.23854657102E+02  0.00000000000E+00 0. -1.
</event>
<event>
 7    1  0.2237500E-009  0.4778727E+02  0.7816164E-02  0.1312668E+00
        -11   -1    0    0    0    0  0.00000000000E+00  0.00000000000E+00  0.45593999997E+02  0.45594000000E+02  0.51100000000E-03 0.  1.
         11   -1    0    0    0    0 -0.00000000000E+00 -0.00000000000E+00 -0.45593999997E+02  0.45594000000E+02  0.51100000000E-03 0. -1.
    9900012    2    1    2    0    0  0.12535542512E+02  0.27984545703E+02  0.30713976353E+02  0.47787274572E+02  0.20000016084E+02 0.  0.
         12    1    1    2    0    0 -0.12535542512E+02 -0.27984545703E+02 -0.30713976353E+02  0.43400725428E+02  0.00000000000E+00 0. -1.
         11    1    3    3    0    0  0.53378187497E+00  0.91383243254E+01  0.43345149843E+01  0.10128273050E+02  0.51100000000E-03 0. -1.
        -11    1    3    3    0    0  0.10696345720E+01  0.14774660840E+02  0.11509184493E+02  0.18758892531E+02  0.51100000000E-03 0.  1.
        -12    1    3    3    0    0  0.10932126065E+02  0.40715605376E+01  0.14870276875E+02  0.18900108991E+02  0.00000000000E+00 0.  1.
</event>
<event>
 7    1  0.2237500E-009  0.4778727E+02  0.7816164E-02  0.1312668E+00
        -11   -1    0    0    0    0  0.00000000000E+00  0.00000000000E+00  0.45593999997E+02  0.45594000000E+02  0.51100000000E-03 0. -1.
         11   -1    0    0    0    0 -0.00000000000E+00 -0.00000000000E+00 -0.45593999997E+02  0.45594000000E+02  0.51100000000E-03 0.  1.
    9900012    2    1    2    0    0  0.20495022375E+02 -0.32117034629E+02 -0.20786379517E+02  0.47787269258E+02  0.19999991854E+02 0.  0.
         12    1    1    2    0    0 -0.20495022375E+02  0.32117034629E+02  0.20786379517E+02  0.43400730742E+02  0.00000000000E+00 0. -1.
         11    1    3    3    0    0  0.11338716601E+02 -0.13474242785E+02 -0.55865787625E+01  0.18475161037E+02  0.51100000000E-03 0. -1.
        -11    1    3    3    0    0  0.59183574403E+01 -0.20302725484E+02 -0.11296197266E+02  0.23975647850E+02  0.51100000000E-03 0.  1.
         12    1    3    3    0    0  0.32379483335E+01  0.16599336403E+01 -0.39036034882E+01  0.53364603713E+01  0.00000000000E+00 0. -1.
</event>
<event>
 7    1  0.2237500E-009  0.4778727E+02  0.7816164E-02  0.1312668E+00
        -11   -1    0    0    0    0  0.00000000000E+00  0.00000000000E+00  0.45593999997E+02  0.45594000000E+02  0.51100000000E-03 0. -1.
         11   -1    0    0    0    0 -0.00000000000E+00 -0.00000000000E+00 -0.45593999997E+02  0.45594000000E+02  0.51100000000E-03 0.  1.
    9900012    2    1    2    0    0  0.18963862330E+02 -0.94588319326E+01 -0.37875132062E+02  0.47787271841E+02  0.20000003634E+02 0.  0.
         12    1    1    2    0    0 -0.18963862330E+02  0.94588319326E+01  0.37875132062E+02  0.43400728159E+02  0.00000000000E+00 0. -1.
         11    1    3    3    0    0  0.17970476694E+02 -0.70726345507E+01 -0.16308540355E+02  0.25277038610E+02  0.51100000000E-03 0. -1.
        -11    1    3    3    0    0  0.23504029633E+01 -0.92266551192E-01 -0.33131449383E+01  0.40632298543E+01  0.51100000000E-03 0.  1.
        -12    1    3    3    0    0 -0.13570173273E+01 -0.22939308308E+01 -0.18253446768E+02  0.18447003377E+02  0.00000000000E+00 0.  1.
</event>
<event>
 7    1  0.2237500E-009  0.4778727E+02  0.7816164E-02  0.1312668E+00
        -11   -1    0    0    0    0  0.00000000000E+00  0.00000000000E+00  0.45593999997E+02  0.45594000000E+02  0.51100000000E-03 0.  1.
         11   -1    0    0    0    0 -0.00000000000E+00 -0.00000000000E+00 -0.45593999997E+02  0.45594000000E+02  0.51100000000E-03 0. -1.
    9900012    2    1    2    0    0 -0.15474436210E+02  0.19432522264E+02  0.35588510124E+02  0.47787272467E+02  0.20000006485E+02 0.  0.
         12    1    1    2    0    0  0.15474436210E+02 -0.19432522264E+02 -0.35588510124E+02  0.43400727533E+02  0.00000000000E+00 0. -1.
         11    1    3    3    0    0 -0.42336477675E+01  0.73419534158E+01  0.17983546426E+01  0.86638405492E+01  0.51100000000E-03 0. -1.
        -11    1    3    3    0    0  0.20788632371E+01  0.17346455054E+01  0.32248578618E+01  0.42107452877E+01  0.51100000000E-03 0.  1.
        -12    1    3    3    0    0 -0.13319651680E+02  0.10355923343E+02  0.30565297619E+02  0.34912686630E+02  0.00000000000E+00 0.  1.
</event>
<event>
 7    1  0.2237500E-009  0.4778727E+02  0.7816164E-02  0.1312668E+00
        -11   -1    0    0    0    0  0.00000000000E+00  0.00000000000E+00  0.45593999997E+02  0.45594000000E+02  0.51100000000E-03 0. -1.
         11   -1    0    0    0    0 -0.00000000000E+00 -0.00000000000E+00 -0.45593999997E+02  0.45594000000E+02  0.51100000000E-03 0.  1.
    9900012    2    1    2    0    0 -0.22186991329E+02 -0.13530383794E+02 -0.34760455571E+02  0.47787272571E+02  0.20000006959E+02 0.  0.
         12    1    1    2    0    0  0.22186991329E+02  0.13530383794E+02  0.34760455571E+02  0.43400727429E+02  0.00000000000E+00 0. -1.
         11    1    3    3    0    0  0.42522760838E+00 -0.85723048878E+00  0.76141612031E+00  0.12228726014E+01  0.51100000000E-03 0. -1.
        -11    1    3    3    0    0 -0.20137231014E+02 -0.16142125772E+02 -0.31265623794E+02  0.40541528447E+02  0.51100000000E-03 0.  1.
         12    1    3    3    0    0 -0.24749879233E+01  0.34689724676E+01 -0.42562478979E+01  0.60228715220E+01  0.00000000000E+00 0. -1.
</event>
<event>
 7    1  0.2237500E-009  0.4778727E+02  0.7816164E-02  0.1312668E+00
        -11   -1    0    0    0    0  0.00000000000E+00  0.00000000000E+00  0.45593999997E+02  0.45594000000E+02  0.51100000000E-03 0. -1.
         11   -1    0    0    0    0 -0.00000000000E+00 -0.00000000000E+00 -0.45593999997E+02  0.45594000000E+02  0.51100000000E-03 0.  1.
    9900012    2    1    2    0    0 -0.19878154608E+02  0.17288753435E+02 -0.34490303457E+02  0.47787273525E+02  0.20000011312E+02 0.  0.
         12    1    1    2    0    0  0.19878154608E+02 -0.17288753435E+02  0.34490303457E+02  0.43400726475E+02  0.00000000000E+00 0. -1.
         11    1    3    3    0    0 -0.30112253953E+01  0.74067120233E+00 -0.12388556171E+02  0.12770763347E+02  0.51100000000E-03 0. -1.
        -11    1    3    3    0    0 -0.27510753308E+01  0.10402890640E+02 -0.13882072296E+02  0.17564181752E+02  0.51100000000E-03 0.  1.
         12    1    3    3    0    0 -0.14115853882E+02  0.61451915931E+01 -0.82196749901E+01  0.17452328426E+02  0.00000000000E+00 0. -1.
</event>
<event>
 7    1  0.2237500E-009  0.4778727E+02  0.7816164E-02  0.1312668E+00
        -11   -1    0    0    0    0  0.00000000000E+00  0.00000000000E+00  0.45593999997E+02  0.45594000000E+02  0.51100000000E-03 0. -1.
         11   -1    0    0    0    0 -0.00000000000E+00 -0.00000000000E+00 -0.45593999997E+02  0.45594000000E+02  0.51100000000E-03 0.  1.
    9900012    2    1    2    0    0 -0.28925200760E+02  0.64948542875E+01 -0.31698154737E+02  0.47787269765E+02  0.19999994166E+02 0.  0.
         12    1    1    2    0    0  0.28925200760E+02 -0.64948542875E+01  0.31698154737E+02  0.43400730235E+02  0.00000000000E+00 0. -1.
         11    1    3    3    0    0  0.10802181134E+01 -0.11944929765E+01 -0.70093862315E+01  0.71920219860E+01  0.51100000000E-03 0. -1.
        -11    1    3    3    0    0 -0.35895041064E+01  0.42470346322E+01 -0.48784848075E+01  0.73973952967E+01  0.51100000000E-03 0.  1.
        -12    1    3    3    0    0 -0.26415914767E+02  0.34423126317E+01 -0.19810283698E+02  0.33197852482E+02  0.00000000000E+00 0.  1.
</event>
<event>
 7    1  0.2237500E-009  0.4778727E+02  0.7816164E-02  0.1312668E+00
        -11   -1    0    0    0    0  0.00000000000E+00  0.00000000000E+00  0.45593999997E+02  0.45594000000E+02  0.51100000000E-03 0.  1.
         11   -1    0    0    0    0 -0.00000000000E+00 -0.00000000000E+00 -0.45593999997E+02  0.45594000000E+02  0.51100000000E-03 0. -1.
    9900012    2    1    2    0    0  0.25174382142E+02 -0.12299695857E+01  0.35332151603E+02  0.47787270994E+02  0.19999999769E+02 0.  0.
         12    1    1    2    0    0 -0.25174382142E+02  0.12299695857E+01 -0.35332151603E+02  0.43400729006E+02  0.00000000000E+00 0. -1.
         11    1    3    3    0    0 -0.11111888710E+01 -0.14185492713E+01 -0.16831302387E+00  0.18097934349E+01  0.51100000000E-03 0. -1.
        -11    1    3    3    0    0  0.28602422065E+01 -0.43958839843E+01  0.79607213332E+01  0.95329882980E+01  0.51100000000E-03 0.  1.
         12    1    3    3    0    0  0.23425328806E+02  0.45844636699E+01  0.27539743293E+02  0.36444489261E+02  0.00000000000E+00 0. -1.
</event>
<event>
 7    1  0.2237500E-009  0.4778728E+02  0.7816164E-02  0.1312668E+00
        -11   -1    0    0    0    0  0.00000000000E+00  0.00000000000E+00  0.45593999997E+02  0.45594000000E+02  0.51100000000E-03 0.  1.
         11   -1    0    0    0    0 -0.00000000000E+00 -0.00000000000E+00 -0.45593999997E+02  0.45594000000E+02  0.51100000000E-03 0. -1.
    9900012    2    1    2    0    0 -0.16484962908E+02 -0.38777853034E+02 -0.10399365350E+02  0.47787277798E+02  0.20000030790E+02 0.  0.
         12    1    1    2    0    0  0.16484962908E+02  0.38777853034E+02  0.10399365350E+02  0.43400722202E+02  0.00000000000E+00 0. -1.
         11    1    3    3    0    0  0.18879730967E+01 -0.52392851091E+01 -0.59287841285E+01  0.81341891035E+01  0.51100000000E-03 0. -1.
        -11    1    3    3    0    0 -0.22110695363E+01 -0.10664549093E+01  0.15237734424E+01  0.28892975501E+01  0.51100000000E-03 0.  1.
        -12    1    3    3    0    0 -0.16161866468E+02 -0.32472113016E+02 -0.59943546636E+01  0.36763791144E+02  0.00000000000E+00 0.  1.
</event>
<event>
 7    1  0.2237500E-009  0.4778730E+02  0.7816164E-02  0.1312668E+00
        -11   -1    0    0    0    0  0.00000000000E+00  0.00000000000E+00  0.45593999997E+02  0.45594000000E+02  0.51100000000E-03 0.  1.
         11   -1    0    0    0    0 -0.00000000000E+00 -0.00000000000E+00 -0.45593999997E+02  0.45594000000E+02  0.51100000000E-03 0. -1.
    9900012    2    1    2    0    0  0.48139379554E+00  0.42056738512E+02 -0.10706073844E+02  0.47787297109E+02  0.20000118841E+02 0.  0.
         12    1    1    2    0    0 -0.48139379554E+00 -0.42056738512E+02  0.10706073844E+02  0.43400702891E+02  0.00000000000E+00 0. -1.
         11    1    3    3    0    0  0.14979333129E+01  0.12814403783E+02  0.77157845271E+00  0.12924708202E+02  0.51100000000E-03 0. -1.
        -11    1    3    3    0    0 -0.35713043103E+01  0.18080447525E+02  0.30536604726E+00  0.18432309835E+02  0.51100000000E-03 0.  1.
         12    1    3    3    0    0  0.25547647930E+01  0.11161887203E+02 -0.11783018344E+02  0.16430279072E+02  0.00000000000E+00 0. -1.
</event>
<event>
 7    1  0.2237500E-009  0.4778727E+02  0.7816164E-02  0.1312668E+00
        -11   -1    0    0    0    0  0.00000000000E+00  0.00000000000E+00  0.45593999997E+02  0.45594000000E+02  0.51100000000E-03 0. -1.
         11   -1    0    0    0    0 -0.00000000000E+00 -0.00000000000E+00 -0.45593999997E+02  0.45594000000E+02  0.51100000000E-03 0.  1.
    9900012    2    1    2    0    0  0.14517794178E+02 -0.19397501914E+02 -0.36008247907E+02  0.47787270218E+02  0.19999996231E+02 0.  0.
         12    1    1    2    0    0 -0.14517794178E+02  0.19397501914E+02  0.36008247907E+02  0.43400729782E+02  0.00000000000E+00 0. -1.
         11    1    3    3    0    0 -0.41478152473E+00 -0.77216551812E+01 -0.46049535309E+01  0.90000888736E+01  0.51100000000E-03 0. -1.
        -11    1    3    3    0    0  0.92525339208E+01 -0.12349332129E+02 -0.15435746271E+02  0.21826077320E+02  0.51100000000E-03 0.  1.
         12    1    3    3    0    0  0.56800417821E+01  0.67348539638E+00 -0.15967548105E+02  0.16961104024E+02  0.00000000000E+00 0. -1.
</event>
<event>
 7    1  0.2237500E-009  0.4778727E+02  0.7816164E-02  0.1312668E+00
        -11   -1    0    0    0    0  0.00000000000E+00  0.00000000000E+00  0.45593999997E+02  0.45594000000E+02  0.51100000000E-03 0.  1.
         11   -1    0    0    0    0 -0.00000000000E+00 -0.00000000000E+00 -0.45593999997E+02  0.45594000000E+02  0.51100000000E-03 0. -1.
    9900012    2    1    2    0    0 -0.31478716136E+02 -0.20880082088E+02 -0.21371391539E+02  0.47787265284E+02  0.19999973738E+02 0.  0.
         12    1    1    2    0    0  0.31478716136E+02  0.20880082088E+02  0.21371391539E+02  0.43400734716E+02  0.00000000000E+00 0. -1.
         11    1    3    3    0    0 -0.18018305615E+02 -0.48714926306E+01 -0.95981508810E+01  0.20988455834E+02  0.51100000000E-03 0. -1.
        -11    1    3    3    0    0 -0.11132581442E+02 -0.46045235219E+01 -0.83796054677E+01  0.14674937631E+02  0.51100000000E-03 0.  1.
         12    1    3    3    0    0 -0.23278290784E+01 -0.11404065936E+02 -0.33936351898E+01  0.12123871819E+02  0.00000000000E+00 0. -1.
</event>
<event>
 7    1  0.2237500E-009  0.4778728E+02  0.7816164E-02  0.1312668E+00
        -11   -1    0    0    0    0  0.00000000000E+00  0.00000000000E+00  0.45593999997E+02  0.45594000000E+02  0.51100000000E-03 0.  1.
         11   -1    0    0    0    0 -0.00000000000E+00 -0.00000000000E+00 -0.45593999997E+02  0.45594000000E+02  0.51100000000E-03 0. -1.
    9900012    2    1    2    0    0  0.66138169003E+01  0.32782246755E+02  0.27662326700E+02  0.47787278868E+02  0.20000035671E+02 0.  0.
         12    1    1    2    0    0 -0.66138169003E+01 -0.32782246755E+02 -0.27662326700E+02  0.43400721132E+02  0.00000000000E+00 0. -1.
         11    1    3    3    0    0  0.21464116994E+01 -0.14412602440E+01  0.34289564600E+01  0.42944216072E+01  0.51100000000E-03 0. -1.
        -11    1    3    3    0    0  0.65610088534E+01  0.12208039831E+02  0.11232794592E+02  0.17839807967E+02  0.51100000000E-03 0.  1.
         12    1    3    3    0    0 -0.20936036526E+01  0.22015467168E+02  0.13000575648E+02  0.25653049293E+02  0.00000000000E+00 0. -1.
</event>
<event>
 7    1  0.2237500E-009  0.4778727E+02  0.7816164E-02  0.1312668E+00
        -11   -1    0    0    0    0  0.00000000000E+00  0.00000000000E+00  0.45593999997E+02  0.45594000000E+02  0.51100000000E-03 0.  1.
         11   -1    0    0    0    0 -0.00000000000E+00 -0.00000000000E+00 -0.45593999997E+02  0.45594000000E+02  0.51100000000E-03 0. -1.
    9900012    2    1    2    0    0 -0.14602782578E+02 -0.39097850967E+02 -0.11905477557E+02  0.47787267228E+02  0.19999982599E+02 0.  0.
         12    1    1    2    0    0  0.14602782578E+02  0.39097850967E+02  0.11905477557E+02  0.43400732772E+02  0.00000000000E+00 0. -1.
         11    1    3    3    0    0  0.16651564650E+00 -0.16845312697E+01 -0.19203060861E+01  0.25598728063E+01  0.51100000000E-03 0. -1.
        -11    1    3    3    0    0  0.29499397309E+01 -0.99462998654E+01  0.17041731408E+01  0.10513573692E+02  0.51100000000E-03 0.  1.
         12    1    3    3    0    0 -0.17719237955E+02 -0.27467019832E+02 -0.11689344612E+02  0.34713820729E+02  0.00000000000E+00 0. -1.
</event>
<event>
 7    1  0.2237500E-009  0.4778727E+02  0.7816164E-02  0.1312668E+00
        -11   -1    0    0    0    0  0.00000000000E+00  0.00000000000E+00  0.45593999997E+02  0.45594000000E+02  0.51100000000E-03 0. -1.
         11   -1    0    0    0    0 -0.00000000000E+00 -0.00000000000E+00 -0.45593999997E+02  0.45594000000E+02  0.51100000000E-03 0.  1.
    9900012    2    1    2    0    0  0.17113802701E+02 -0.30671458052E+02 -0.25495157544E+02  0.47787266825E+02  0.19999980761E+02 0.  0.
         12    1    1    2    0    0 -0.17113802701E+02  0.30671458052E+02  0.25495157544E+02  0.43400733175E+02  0.00000000000E+00 0. -1.
         11    1    3    3    0    0  0.13794788084E+02 -0.84676830310E+01 -0.53273432536E+01  0.17040493555E+02  0.51100000000E-03 0. -1.
        -11    1    3    3    0    0 -0.73106621564E+00 -0.42807973866E+00 -0.90057067955E-01  0.85195106134E+00  0.51100000000E-03 0.  1.
        -12    1    3    3    0    0  0.40500808326E+01 -0.21775695283E+02 -0.20077757222E+02  0.29894822208E+02  0.00000000000E+00 0.  1.
</event>
<event>
 7    1  0.2237500E-009  0.4778727E+02  0.7816164E-02  0.1312668E+00
        -11   -1    0    0    0    0  0.00000000000E+00  0.00000000000E+00  0.45593999997E+02  0.45594000000E+02  0.51100000000E-03 0.  1.
         11   -1    0    0    0    0 -0.00000000000E+00 -0.00000000000E+00 -0.45593999997E+02  0.45594000000E+02  0.51100000000E-03 0. -1.
    9900012    2    1    2    0    0 -0.35981820382E+01 -0.53163160176E+01  0.42923339837E+02  0.47787271519E+02  0.20000002162E+02 0.  0.
         12    1    1    2    0    0  0.35981820382E+01  0.53163160176E+01 -0.42923339837E+02  0.43400728481E+02  0.00000000000E+00 0. -1.
         11    1    3    3    0    0  0.79040081178E+00 -0.24462087292E+01  0.98916070393E+01  0.10220203553E+02  0.51100000000E-03 0.  1.
        -11    1    3    3    0    0 -0.73682371524E+01 -0.31560919366E+01  0.33580415899E+02  0.34523849254E+02  0.51100000000E-03 0. -1.
         12    1    3    3    0    0  0.29796543025E+01  0.28598464820E+00 -0.54868310214E+00  0.30432187118E+01  0.00000000000E+00 0. -1.
</event>
<event>
 7    1  0.2237500E-009  0.4778727E+02  0.7816164E-02  0.1312668E+00
        -11   -1    0    0    0    0  0.00000000000E+00  0.00000000000E+00  0.45593999997E+02  0.45594000000E+02  0.51100000000E-03 0.  1.
         11   -1    0    0    0    0 -0.00000000000E+00 -0.00000000000E+00 -0.45593999997E+02  0.45594000000E+02  0.51100000000E-03 0. -1.
    9900012    2    1    2    0    0  0.21977771833E+02  0.37382250498E+02  0.17799795925E+01  0.47787269195E+02  0.19999991568E+02 0.  0.
         12    1    1    2    0    0 -0.21977771833E+02 -0.37382250498E+02 -0.17799795925E+01  0.43400730805E+02  0.00000000000E+00 0. -1.
         11    1    3    3    0    0  0.23637420490E+01  0.87324366316E+01  0.66033435014E+01  0.11200306766E+02  0.51100000000E-03 0. -1.
        -11    1    3    3    0    0  0.43733692946E+01  0.10103440401E+01 -0.19489676742E+01  0.48934271551E+01  0.51100000000E-03 0.  1.
         12    1    3    3    0    0  0.15240660490E+02  0.27639469826E+02 -0.28743962346E+01  0.31693535274E+02  0.00000000000E+00 0. -1.
</event>
<event>
 7    1  0.2390643E-009  0.4778728E+02  0.7816164E-02  0.1312668E+00
        -11   -1    0    0    0    0  0.00000000000E+00  0.00000000000E+00  0.45593999997E+02  0.45594000000E+02  0.51100000000E-03 0. -1.
         11   -1    0    0    0    0 -0.00000000000E+00 -0.00000000000E+00 -0.45593999997E+02  0.45594000000E+02  0.51100000000E-03 0.  1.
    9900012    2    1    2    0    0 -0.63129457929E+01 -0.86011473228E+01 -0.42068870064E+02  0.47787275947E+02  0.20000022353E+02 0.  0.
         12    1    1    2    0    0  0.63129457929E+01  0.86011473228E+01  0.42068870064E+02  0.43400724053E+02  0.00000000000E+00 0. -1.
         11    1    3    3    0    0 -0.19904667857E+01  0.34364659192E+01 -0.16907854758E+01  0.43162497408E+01  0.51100000000E-03 0. -1.
        -11    1    3    3    0    0 -0.30175535370E+01 -0.62829263829E-02 -0.15675832878E+02  0.15963627580E+02  0.51100000000E-03 0.  1.
        -12    1    3    3    0    0 -0.13049254702E+01 -0.12031330316E+02 -0.24702251710E+02  0.27507398627E+02  0.00000000000E+00 0.  1.
</event>
<event>
 7    1  0.2237500E-009  0.4778729E+02  0.7816164E-02  0.1312668E+00
        -11   -1    0    0    0    0  0.00000000000E+00  0.00000000000E+00  0.45593999997E+02  0.45594000000E+02  0.51100000000E-03 0. -1.
         11   -1    0    0    0    0 -0.00000000000E+00 -0.00000000000E+00 -0.45593999997E+02  0.45594000000E+02  0.51100000000E-03 0.  1.
    9900012    2    1    2    0    0  0.28433872074E+02 -0.30389466628E+02 -0.12313277299E+02  0.47787290779E+02  0.20000089978E+02 0.  0.
         12    1    1    2    0    0 -0.28433872074E+02  0.30389466628E+02  0.12313277299E+02  0.43400709221E+02  0.00000000000E+00 0. -1.
         11    1    3    3    0    0  0.19492270764E+01 -0.32917021055E+01  0.27399214328E+01  0.47055242711E+01  0.51100000000E-03 0. -1.
        -11    1    3    3    0    0  0.17789424397E+02 -0.99600067165E+01 -0.35794413565E+01  0.20699704221E+02  0.51100000000E-03 0.  1.
        -12    1    3    3    0    0  0.86952206004E+01 -0.17137757806E+02 -0.11473757375E+02  0.22382062287E+02  0.00000000000E+00 0.  1.
</event>
<event>
 7    1  0.2237500E-009  0.4778727E+02  0.7816164E-02  0.1312668E+00
        -11   -1    0    0    0    0  0.00000000000E+00  0.00000000000E+00  0.45593999997E+02  0.45594000000E+02  0.51100000000E-03 0.  1.
         11   -1    0    0    0    0 -0.00000000000E+00 -0.00000000000E+00 -0.45593999997E+02  0.45594000000E+02  0.51100000000E-03 0. -1.
    9900012    2    1    2    0    0  0.30883957438E+02 -0.29629915313E+02  0.72022517053E+01  0.47787272609E+02  0.20000007133E+02 0.  0.
         12    1    1    2    0    0 -0.30883957438E+02  0.29629915313E+02 -0.72022517053E+01  0.43400727391E+02  0.00000000000E+00 0. -1.
         11    1    3    3    0    0  0.25291858046E+02 -0.17313347422E+02  0.22415186743E+01  0.30731978274E+02  0.51100000000E-03 0. -1.
        -11    1    3    3    0    0  0.81377539024E+01 -0.97977128578E+01  0.39085893441E+01  0.13322735708E+02  0.51100000000E-03 0.  1.
         12    1    3    3    0    0 -0.25456545110E+01 -0.25188550334E+01  0.10521436870E+01  0.37325586274E+01  0.00000000000E+00 0. -1.
</event>
<event>
 7    1  0.2237500E-009  0.4778726E+02  0.7816164E-02  0.1312668E+00
        -11   -1    0    0    0    0  0.00000000000E+00  0.00000000000E+00  0.45593999997E+02  0.45594000000E+02  0.51100000000E-03 0. -1.
         11   -1    0    0    0    0 -0.00000000000E+00 -0.00000000000E+00 -0.45593999997E+02  0.45594000000E+02  0.51100000000E-03 0.  1.
    9900012    2    1    2    0    0  0.36714858167E+02 -0.21371864163E+02  0.88818037501E+01  0.47787264685E+02  0.19999971004E+02 0.  0.
         12    1    1    2    0    0 -0.36714858167E+02  0.21371864163E+02 -0.88818037501E+01  0.43400735315E+02  0.00000000000E+00 0. -1.
         11    1    3    3    0    0  0.21967132640E+02 -0.13716790191E+02  0.37454644524E+01  0.26167417790E+02  0.51100000000E-03 0. -1.
        -11    1    3    3    0    0  0.13128442407E+02 -0.60460357763E+01  0.90756790338E+01  0.17066883102E+02  0.51100000000E-03 0.  1.
         12    1    3    3    0    0  0.16192831199E+01 -0.16090381957E+01 -0.39393397361E+01  0.45529637923E+01  0.00000000000E+00 0. -1.
</event>
<event>
 7    1  0.2237500E-009  0.4778727E+02  0.7816164E-02  0.1312668E+00
        -11   -1    0    0    0    0  0.00000000000E+00  0.00000000000E+00  0.45593999997E+02  0.45594000000E+02  0.51100000000E-03 0.  1.
         11   -1    0    0    0    0 -0.00000000000E+00 -0.00000000000E+00 -0.45593999997E+02  0.45594000000E+02  0.51100000000E-03 0. -1.
    9900012    2    1    2    0    0  0.17699307666E+02 -0.31808876291E+02  0.23633740246E+02  0.47787265205E+02  0.19999973375E+02 0.  0.
         12    1    1    2    0    0 -0.17699307666E+02  0.31808876291E+02 -0.23633740246E+02  0.43400734795E+02  0.00000000000E+00 0. -1.
         11    1    3    3    0    0 -0.92400704740E+00  0.20953276867E+01 -0.87562397455E-01  0.22916925127E+01  0.51100000000E-03 0. -1.
        -11    1    3    3    0    0  0.48072705505E+01 -0.67295737814E+01  0.39930335453E+01  0.91837536214E+01  0.51100000000E-03 0.  1.
        -12    1    3    3    0    0  0.13816044162E+02 -0.27174630196E+02  0.19728269098E+02  0.36311819071E+02  0.00000000000E+00 0.  1.
</event>
<event>
 7    1  0.2237500E-009  0.4778727E+02  0.7816164E-02  0.1312668E+00
        -11   -1    0    0    0    0  0.00000000000E+00  0.00000000000E+00  0.45593999997E+02  0.45594000000E+02  0.51100000000E-03 0.  1.
         11   -1    0    0    0    0 -0.00000000000E+00 -0.00000000000E+00 -0.45593999997E+02  0.45594000000E+02  0.51100000000E-03 0. -1.
    9900012    2    1    2    0    0  0.26871698801E+02  0.16397510852E+02  0.29877363301E+02  0.47787269633E+02  0.19999993563E+02 0.  0.
         12    1    1    2    0    0 -0.26871698801E+02 -0.16397510852E+02 -0.29877363301E+02  0.43400730367E+02  0.00000000000E+00 0. -1.
         11    1    3    3    0    0  0.27616912276E+01  0.58699618651E+01  0.44182550259E+01  0.78488450405E+01  0.51100000000E-03 0. -1.
        -11    1    3    3    0    0  0.19488046874E+02  0.70566481049E+01  0.91887548106E+01  0.22671865134E+02  0.51100000000E-03 0.  1.
        -12    1    3    3    0    0  0.46219606995E+01  0.34709008821E+01  0.16270353465E+02  0.17266559458E+02  0.00000000000E+00 0.  1.
</event>
<event>
 7    1  0.2237500E-009  0.4778726E+02  0.7816164E-02  0.1312668E+00
        -11   -1    0    0    0    0  0.00000000000E+00  0.00000000000E+00  0.45593999997E+02  0.45594000000E+02  0.51100000000E-03 0.  1.
         11   -1    0    0    0    0 -0.00000000000E+00 -0.00000000000E+00 -0.45593999997E+02  0.45594000000E+02  0.51100000000E-03 0. -1.
    9900012    2    1    2    0    0 -0.86282928608E+01  0.31172386261E+02  0.28938884930E+02  0.47787260790E+02  0.19999953248E+02 0.  0.
         12    1    1    2    0    0  0.86282928608E+01 -0.31172386261E+02 -0.28938884930E+02  0.43400739210E+02  0.00000000000E+00 0. -1.
         11    1    3    3    0    0  0.20020583218E+01 -0.97220607002E+00 -0.10627462257E+00  0.22281644291E+01  0.51100000000E-03 0. -1.
        -11    1    3    3    0    0 -0.39488771553E+01  0.24426147171E+01  0.42637728509E+01  0.63039477020E+01  0.51100000000E-03 0.  1.
        -12    1    3    3    0    0 -0.66814740273E+01  0.29701977614E+02  0.24781386702E+02  0.39255148659E+02  0.00000000000E+00 0.  1.
</event>
<event>
 7    1  0.2237500E-009  0.4778727E+02  0.7816164E-02  0.1312668E+00
        -11   -1    0    0    0    0  0.00000000000E+00  0.00000000000E+00  0.45593999997E+02  0.45594000000E+02  0.51100000000E-03 0.  1.
         11   -1    0    0    0    0 -0.00000000000E+00 -0.00000000000E+00 -0.45593999997E+02  0.45594000000E+02  0.51100000000E-03 0. -1.
    9900012    2    1    2    0    0  0.14929247545E+02 -0.40104432158E+02  0.72370605901E+01  0.47787274695E+02  0.20000016646E+02 0.  0.
         12    1    1    2    0    0 -0.14929247545E+02  0.40104432158E+02 -0.72370605901E+01  0.43400725305E+02  0.00000000000E+00 0. -1.
         11    1    3    3    0    0 -0.24241999242E+00 -0.32619004873E+00  0.19183647675E+01  0.19609413665E+01  0.51100000000E-03 0. -1.
        -11    1    3    3    0    0 -0.23585714344E+01 -0.47307688905E+01  0.39789321169E+01  0.66162628846E+01  0.51100000000E-03 0.  1.
        -12    1    3    3    0    0  0.17530238972E+02 -0.35047473219E+02  0.13397637057E+01  0.39210070444E+02  0.00000000000E+00 0.  1.
</event>
<event>
 7    1  0.2237500E-009  0.4778727E+02  0.7816164E-02  0.1312668E+00
        -11   -1    0    0    0    0  0.00000000000E+00  0.00000000000E+00  0.45593999997E+02  0.45594000000E+02  0.51100000000E-03 0. -1.
         11   -1    0    0    0    0 -0.00000000000E+00 -0.00000000000E+00 -0.45593999997E+02  0.45594000000E+02  0.51100000000E-03 0.  1.
    9900012    2    1    2    0    0 -0.83702999874E+01  0.97018924463E+00 -0.42574875913E+02  0.47787271342E+02  0.20000001356E+02 0.  0.
         12    1    1    2    0    0  0.83702999874E+01 -0.97018924463E+00  0.42574875913E+02  0.43400728658E+02  0.00000000000E+00 0. -1.
         11    1    3    3    0    0 -0.11327252052E+02 -0.61702237226E+01 -0.21202305508E+02  0.24817656194E+02  0.51100000000E-03 0. -1.
        -11    1    3    3    0    0  0.10917579914E+01  0.66106075787E+00 -0.67206765202E+01  0.68407916199E+01  0.51100000000E-03 0.  1.
         12    1    3    3    0    0  0.18651940735E+01  0.64793522094E+01 -0.14651893885E+02  0.16128823528E+02  0.00000000000E+00 0. -1.
</event>
<event>
 7    1  0.2237500E-009  0.4778727E+02  0.7816164E-02  0.1312668E+00
        -11   -1    0    0    0    0  0.00000000000E+00  0.00000000000E+00  0.45593999997E+02  0.45594000000E+02  0.51100000000E-03 0.  1.
         11   -1    0    0    0    0 -0.00000000000E+00 -0.00000000000E+00 -0.45593999997E+02  0.45594000000E+02  0.51100000000E-03 0. -1.
    9900012    2    1    2    0    0 -0.20919483895E+02 -0.27443448942E+02  0.26322151350E+02  0.47787270191E+02  0.19999996108E+02 0.  0.
         12    1    1    2    0    0  0.20919483895E+02  0.27443448942E+02 -0.26322151350E+02  0.43400729809E+02  0.00000000000E+00 0. -1.
         11    1    3    3    0    0 -0.33264168411E+01  0.28116001463E+00  0.75324582259E+01  0.82390549908E+01  0.51100000000E-03 0. -1.
        -11    1    3    3    0    0 -0.43084878606E+00 -0.30409979377E+00 -0.13454191404E+01  0.14450814113E+01  0.51100000000E-03 0.  1.
        -12    1    3    3    0    0 -0.17162218268E+02 -0.27420509163E+02  0.20135112264E+02  0.38103133789E+02  0.00000000000E+00 0.  1.
</event>
<event>
 7    1  0.2237500E-009  0.4778727E+02  0.7816164E-02  0.1312668E+00
        -11   -1    0    0    0    0  0.00000000000E+00  0.00000000000E+00  0.45593999997E+02  0.45594000000E+02  0.51100000000E-03 0.  1.
         11   -1    0    0    0    0 -0.00000000000E+00 -0.00000000000E+00 -0.45593999997E+02  0.45594000000E+02  0.51100000000E-03 0. -1.
    9900012    2    1    2    0    0  0.41619142367E+02 -0.12253513807E+02  0.11496301292E+01  0.47787271188E+02  0.20000000655E+02 0.  0.
         12    1    1    2    0    0 -0.41619142367E+02  0.12253513807E+02 -0.11496301292E+01  0.43400728812E+02  0.00000000000E+00 0. -1.
         11    1    3    3    0    0  0.28021000421E+02 -0.11113181686E+02 -0.20294776999E+01  0.30212547919E+02  0.51100000000E-03 0. -1.
        -11    1    3    3    0    0  0.12274049902E+02 -0.42178986694E+01  0.32725882323E-01  0.12978599363E+02  0.51100000000E-03 0.  1.
         12    1    3    3    0    0  0.13240920444E+01  0.30775665490E+01  0.31463819468E+01  0.45961239061E+01  0.00000000000E+00 0. -1.
</event>
<event>
 7    1  0.2237500E-009  0.4778726E+02  0.7816164E-02  0.1312668E+00
        -11   -1    0    0    0    0  0.00000000000E+00  0.00000000000E+00  0.45593999997E+02  0.45594000000E+02  0.51100000000E-03 0. -1.
         11   -1    0    0    0    0 -0.00000000000E+00 -0.00000000000E+00 -0.45593999997E+02  0.45594000000E+02  0.51100000000E-03 0.  1.
    9900012    2    1    2    0    0 -0.28222898013E+02 -0.27830908081E+02 -0.17678587667E+02  0.47787264076E+02  0.19999968228E+02 0.  0.
         12    1    1    2    0    0  0.28222898013E+02  0.27830908081E+02  0.17678587667E+02  0.43400735924E+02  0.00000000000E+00 0. -1.
         11    1    3    3    0    0 -0.13744641007E+02 -0.58676499109E+01 -0.10571226557E+02  0.18305608514E+02  0.51100000000E-03 0. -1.
        -11    1    3    3    0    0 -0.13836491810E+01  0.12870940554E+01 -0.85810072033E+00  0.20754356822E+01  0.51100000000E-03 0.  1.
         12    1    3    3    0    0 -0.13094607825E+02 -0.23250352225E+02 -0.62492603898E+01  0.27406219880E+02  0.00000000000E+00 0. -1.
</event>
<event>
 7    1  0.2237500E-009  0.4778727E+02  0.7816164E-02  0.1312668E+00
        -11   -1    0    0    0    0  0.00000000000E+00  0.00000000000E+00  0.45593999997E+02  0.45594000000E+02  0.51100000000E-03 0.  1.
         11   -1    0    0    0    0 -0.00000000000E+00 -0.00000000000E+00 -0.45593999997E+02  0.45594000000E+02  0.51100000000E-03 0. -1.
    9900012    2    1    2    0    0  0.14424898966E+02  0.20126282590E+02  0.35643764813E+02  0.47787274994E+02  0.20000018005E+02 0.  0.
         12    1    1    2    0    0 -0.14424898966E+02 -0.20126282590E+02 -0.35643764813E+02  0.43400725006E+02  0.00000000000E+00 0. -1.
         11    1    3    3    0    0  0.36520217735E+01 -0.15375258911E+01  0.54421356094E+01  0.67318711479E+01  0.51100000000E-03 0. -1.
        -11    1    3    3    0    0  0.22118076934E+01 -0.16637906318E+01  0.17244736187E+01  0.32609970963E+01  0.51100000000E-03 0.  1.
        -12    1    3    3    0    0  0.85610694987E+01  0.23327599113E+02  0.28477155584E+02  0.37794406749E+02  0.00000000000E+00 0.  1.
</event>
<event>
 7    1  0.2237500E-009  0.4778728E+02  0.7816164E-02  0.1312668E+00
        -11   -1    0    0    0    0  0.00000000000E+00  0.00000000000E+00  0.45593999997E+02  0.45594000000E+02  0.51100000000E-03 0.  1.
         11   -1    0    0    0    0 -0.00000000000E+00 -0.00000000000E+00 -0.45593999997E+02  0.45594000000E+02  0.51100000000E-03 0. -1.
    9900012    2    1    2    0    0 -0.28668058880E+02  0.18155194056E+02  0.27058346982E+02  0.47787276359E+02  0.20000024232E+02 0.  0.
         12    1    1    2    0    0  0.28668058880E+02 -0.18155194056E+02 -0.27058346982E+02  0.43400723641E+02  0.00000000000E+00 0. -1.
         11    1    3    3    0    0 -0.23093164799E+00  0.86956627924E+00 -0.57669568802E+00  0.10686688532E+01  0.51100000000E-03 0. -1.
        -11    1    3    3    0    0 -0.20319781973E+02  0.20557704503E+02  0.20720834903E+02  0.35564951191E+02  0.51100000000E-03 0.  1.
         12    1    3    3    0    0 -0.81173452591E+01 -0.32720767260E+01  0.69142077668E+01  0.11153656315E+02  0.00000000000E+00 0. -1.
</event>
<event>
 7    1  0.2237500E-009  0.4778726E+02  0.7816164E-02  0.1312668E+00
        -11   -1    0    0    0    0  0.00000000000E+00  0.00000000000E+00  0.45593999997E+02  0.45594000000E+02  0.51100000000E-03 0. -1.
         11   -1    0    0    0    0 -0.00000000000E+00 -0.00000000000E+00 -0.45593999997E+02  0.45594000000E+02  0.51100000000E-03 0.  1.
    9900012    2    1    2    0    0  0.24592070023E+02  0.30269265487E+02 -0.19042729217E+02  0.47787264094E+02  0.19999968310E+02 0.  0.
         12    1    1    2    0    0 -0.24592070023E+02 -0.30269265487E+02  0.19042729217E+02  0.43400735906E+02  0.00000000000E+00 0. -1.
         11    1    3    3    0    0  0.59418509816E+01  0.53399565566E+01  0.23111624979E+01  0.83163815128E+01  0.51100000000E-03 0. -1.
        -11    1    3    3    0    0 -0.32543010422E+00 -0.98322266977E+00 -0.34170241300E+00  0.10905926697E+01  0.51100000000E-03 0.  1.
        -12    1    3    3    0    0  0.18975649146E+02  0.25912531600E+02 -0.21012189301E+02  0.38380289911E+02  0.00000000000E+00 0.  1.
</event>
<event>
 7    1  0.2237500E-009  0.4778727E+02  0.7816164E-02  0.1312668E+00
        -11   -1    0    0    0    0  0.00000000000E+00  0.00000000000E+00  0.45593999997E+02  0.45594000000E+02  0.51100000000E-03 0.  1.
         11   -1    0    0    0    0 -0.00000000000E+00 -0.00000000000E+00 -0.45593999997E+02  0.45594000000E+02  0.51100000000E-03 0. -1.
    9900012    2    1    2    0    0  0.40270673417E+02  0.59372996653E+00  0.16172303173E+02  0.47787273709E+02  0.20000012147E+02 0.  0.
         12    1    1    2    0    0 -0.40270673417E+02 -0.59372996653E+00 -0.16172303173E+02  0.43400726291E+02  0.00000000000E+00 0. -1.
         11    1    3    3    0    0  0.24778329645E+02 -0.38547579489E+01  0.58269222017E+01  0.25744471279E+02  0.51100000000E-03 0. -1.
        -11    1    3    3    0    0  0.14297211501E+02 -0.61897153666E-01  0.55075716410E+01  0.15321469695E+02  0.51100000000E-03 0.  1.
         12    1    3    3    0    0  0.11951322704E+01  0.45103850691E+01  0.48378093301E+01  0.67213327347E+01  0.00000000000E+00 0. -1.
</event>
<event>
 7    1  0.2237500E-009  0.4778727E+02  0.7816164E-02  0.1312668E+00
        -11   -1    0    0    0    0  0.00000000000E+00  0.00000000000E+00  0.45593999997E+02  0.45594000000E+02  0.51100000000E-03 0. -1.
         11   -1    0    0    0    0 -0.00000000000E+00 -0.00000000000E+00 -0.45593999997E+02  0.45594000000E+02  0.51100000000E-03 0.  1.
    9900012    2    1    2    0    0  0.31602193246E+02 -0.28421350304E+02 -0.87835807501E+01  0.47787273488E+02  0.20000011139E+02 0.  0.
         12    1    1    2    0    0 -0.31602193246E+02  0.28421350304E+02  0.87835807501E+01  0.43400726512E+02  0.00000000000E+00 0. -1.
         11    1    3    3    0    0  0.10155387546E+02 -0.13409908244E+02 -0.85572456412E+01  0.18872837321E+02  0.51100000000E-03 0. -1.
        -11    1    3    3    0    0  0.16280740551E+02 -0.88675931388E+01 -0.54665926285E+01  0.19328226929E+02  0.51100000000E-03 0.  1.
        -12    1    3    3    0    0  0.51660651483E+01 -0.61438489208E+01  0.52402575197E+01  0.95862092378E+01  0.00000000000E+00 0.  1.
</event>
<event>
 7    1  0.2237500E-009  0.4778725E+02  0.7816164E-02  0.1312668E+00
        -11   -1    0    0    0    0  0.00000000000E+00  0.00000000000E+00  0.45593999997E+02  0.45594000000E+02  0.51100000000E-03 0. -1.
         11   -1    0    0    0    0 -0.00000000000E+00 -0.00000000000E+00 -0.45593999997E+02  0.45594000000E+02  0.51100000000E-03 0.  1.
    9900012    2    1    2    0    0 -0.14414376076E+02 -0.11479351534E+02 -0.39294725885E+02  0.47787248490E+02  0.19999897163E+02 0.  0.
         12    1    1    2    0    0  0.14414376076E+02  0.11479351534E+02  0.39294725885E+02  0.43400751510E+02  0.00000000000E+00 0. -1.
         11    1    3    3    0    0 -0.26817445493E+01  0.22955664770E+01 -0.11259213336E+01  0.37052771001E+01  0.51100000000E-03 0.  1.
        -11    1    3    3    0    0 -0.35832147793E-03 -0.37322379378E+01 -0.10476690404E+01  0.38764946578E+01  0.51100000000E-03 0. -1.
        -12    1    3    3    0    0 -0.11732273205E+02 -0.10042680073E+02 -0.37121135511E+02  0.40205476732E+02  0.00000000000E+00 0.  1.
</event>
<event>
 7    1  0.2237500E-009  0.4778729E+02  0.7816164E-02  0.1312668E+00
        -11   -1    0    0    0    0  0.00000000000E+00  0.00000000000E+00  0.45593999997E+02  0.45594000000E+02  0.51100000000E-03 0.  1.
         11   -1    0    0    0    0 -0.00000000000E+00 -0.00000000000E+00 -0.45593999997E+02  0.45594000000E+02  0.51100000000E-03 0. -1.
    9900012    2    1    2    0    0 -0.15328200736E+02  0.31411807366E+01  0.40482103869E+02  0.47787291620E+02  0.20000093812E+02 0.  0.
         12    1    1    2    0    0  0.15328200736E+02 -0.31411807366E+01 -0.40482103869E+02  0.43400708380E+02  0.00000000000E+00 0. -1.
         11    1    3    3    0    0 -0.60332698637E+01  0.66081790849E+01  0.12564678514E+02  0.15425288408E+02  0.51100000000E-03 0. -1.
        -11    1    3    3    0    0 -0.66884254159E+01  0.22841536336E+01  0.23791897212E+02  0.24819483588E+02  0.51100000000E-03 0.  1.
         12    1    3    3    0    0 -0.26065054567E+01 -0.57511519818E+01  0.41255281430E+01  0.75425196236E+01  0.00000000000E+00 0. -1.
</event>
<event>
 7    1  0.2237500E-009  0.4778727E+02  0.7816164E-02  0.1312668E+00
        -11   -1    0    0    0    0  0.00000000000E+00  0.00000000000E+00  0.45593999997E+02  0.45594000000E+02  0.51100000000E-03 0.  1.
         11   -1    0    0    0    0 -0.00000000000E+00 -0.00000000000E+00 -0.45593999997E+02  0.45594000000E+02  0.51100000000E-03 0. -1.
    9900012    2    1    2    0    0  0.34239075276E+01 -0.42745216381E+02  0.66893059726E+01  0.47787268663E+02  0.19999989142E+02 0.  0.
         12    1    1    2    0    0 -0.34239075276E+01  0.42745216381E+02 -0.66893059726E+01  0.43400731337E+02  0.00000000000E+00 0. -1.
         11    1    3    3    0    0  0.21511754989E+01 -0.73808963608E+01  0.46272510229E+01  0.89731064524E+01  0.51100000000E-03 0. -1.
        -11    1    3    3    0    0  0.52229067272E+01 -0.32171951491E+02  0.49573325937E+01  0.32967989992E+02  0.51100000000E-03 0.  1.
         12    1    3    3    0    0 -0.39501746985E+01 -0.31923685287E+01 -0.28952776439E+01  0.58461722184E+01  0.00000000000E+00 0. -1.
</event>
<event>
 7    1  0.2532959E-009  0.4778728E+02  0.7816164E-02  0.1312668E+00
        -11   -1    0    0    0    0  0.00000000000E+00  0.00000000000E+00  0.45593999997E+02  0.45594000000E+02  0.51100000000E-03 0. -1.
         11   -1    0    0    0    0 -0.00000000000E+00 -0.00000000000E+00 -0.45593999997E+02  0.45594000000E+02  0.51100000000E-03 0.  1.
    9900012    2    1    2    0    0 -0.17288400587E+02 -0.26356989773E+02 -0.29833586031E+02  0.47787279266E+02  0.20000037487E+02 0.  0.
         12    1    1    2    0    0  0.17288400587E+02  0.26356989773E+02  0.29833586031E+02  0.43400720734E+02  0.00000000000E+00 0. -1.
         11    1    3    3    0    0  0.56280944860E-01 -0.10343899028E+02 -0.45737380971E+01  0.11310105883E+02  0.51100000000E-03 0. -1.
        -11    1    3    3    0    0 -0.10707853256E+02 -0.15065370991E+02 -0.13315391715E+02  0.22779885453E+02  0.51100000000E-03 0.  1.
        -12    1    3    3    0    0 -0.66368282754E+01 -0.94771975401E+00 -0.11944456219E+02  0.13697287930E+02  0.00000000000E+00 0.  1.
</event>
<event>
 7    1  0.2237500E-009  0.4778727E+02  0.7816164E-02  0.1312668E+00
        -11   -1    0    0    0    0  0.00000000000E+00  0.00000000000E+00  0.45593999997E+02  0.45594000000E+02  0.51100000000E-03 0.  1.
         11   -1    0    0    0    0 -0.00000000000E+00 -0.00000000000E+00 -0.45593999997E+02  0.45594000000E+02  0.51100000000E-03 0. -1.
    9900012    2    1    2    0    0  0.22835562970E+02 -0.35924530012E+02  0.84610140875E+01  0.47787267839E+02  0.19999985385E+02 0.  0.
         12    1    1    2    0    0 -0.22835562970E+02  0.35924530012E+02 -0.84610140875E+01  0.43400732161E+02  0.00000000000E+00 0. -1.
         11    1    3    3    0    0  0.34971511898E+01 -0.39495721514E+01 -0.33919216279E+01  0.62717078387E+01  0.51100000000E-03 0. -1.
        -11    1    3    3    0    0 -0.17193406401E+01 -0.65612796571E+01  0.20944228847E+01  0.70988119045E+01  0.51100000000E-03 0.  1.
         12    1    3    3    0    0  0.21057752421E+02 -0.25413678203E+02  0.97585128307E+01  0.34416748096E+02  0.00000000000E+00 0. -1.
</event>
<event>
 7    1  0.2237500E-009  0.4778727E+02  0.7816164E-02  0.1312668E+00
        -11   -1    0    0    0    0  0.00000000000E+00  0.00000000000E+00  0.45593999997E+02  0.45594000000E+02  0.51100000000E-03 0.  1.
         11   -1    0    0    0    0 -0.00000000000E+00 -0.00000000000E+00 -0.45593999997E+02  0.45594000000E+02  0.51100000000E-03 0. -1.
    9900012    2    1    2    0    0  0.17391294328E+01  0.41714278959E+02 -0.11854020115E+02  0.47787269209E+02  0.19999991633E+02 0.  0.
         12    1    1    2    0    0 -0.17391294328E+01 -0.41714278959E+02  0.11854020115E+02  0.43400730791E+02  0.00000000000E+00 0. -1.
         11    1    3    3    0    0 -0.43300944644E+01  0.54584792034E+01 -0.16790759914E+01  0.71668688931E+01  0.51100000000E-03 0. -1.
        -11    1    3    3    0    0 -0.29149294400E+01  0.23508931115E+02 -0.70480153888E+01  0.24715201335E+02  0.51100000000E-03 0.  1.
        -12    1    3    3    0    0  0.89841533373E+01  0.12746868641E+02 -0.31269287347E+01  0.15905198982E+02  0.00000000000E+00 0.  1.
</event>
<event>
 7    1  0.2237500E-009  0.4778727E+02  0.7816164E-02  0.1312668E+00
        -11   -1    0    0    0    0  0.00000000000E+00  0.00000000000E+00  0.45593999997E+02  0.45594000000E+02  0.51100000000E-03 0.  1.
         11   -1    0    0    0    0 -0.00000000000E+00 -0.00000000000E+00 -0.45593999997E+02  0.45594000000E+02  0.51100000000E-03 0. -1.
    9900012    2    1    2    0    0  0.98294654410E+01  0.42213222322E+02 -0.22469822994E+01  0.47787268910E+02  0.19999990269E+02 0.  0.
         12    1    1    2    0    0 -0.98294654410E+01 -0.42213222322E+02  0.22469822994E+01  0.43400731090E+02  0.00000000000E+00 0. -1.
         11    1    3    3    0    0 -0.11520219975E+01  0.15984766367E+02 -0.35035284291E+01  0.16404713414E+02  0.51100000000E-03 0. -1.
        -11    1    3    3    0    0 -0.30882597829E+01  0.50657024882E+01 -0.95647748427E-01  0.59336193793E+01  0.51100000000E-03 0.  1.
         12    1    3    3    0    0  0.14069747221E+02  0.21162753467E+02  0.13521938781E+01  0.25448936117E+02  0.00000000000E+00 0. -1.
</event>
<event>
 7    1  0.2237500E-009  0.4778727E+02  0.7816164E-02  0.1312668E+00
        -11   -1    0    0    0    0  0.00000000000E+00  0.00000000000E+00  0.45593999997E+02  0.45594000000E+02  0.51100000000E-03 0. -1.
         11   -1    0    0    0    0 -0.00000000000E+00 -0.00000000000E+00 -0.45593999997E+02  0.45594000000E+02  0.51100000000E-03 0.  1.
    9900012    2    1    2    0    0  0.10935065556E+02 -0.34091687272E+02 -0.24531702009E+02  0.47787271859E+02  0.20000003712E+02 0.  0.
         12    1    1    2    0    0 -0.10935065556E+02  0.34091687272E+02  0.24531702009E+02  0.43400728141E+02  0.00000000000E+00 0. -1.
         11    1    3    3    0    0  0.10125487667E+01  0.13289979542E+01  0.11008880850E+01  0.20008611656E+01  0.51100000000E-03 0. -1.
        -11    1    3    3    0    0  0.30045802458E+00 -0.16510876312E+02 -0.88590795191E+01  0.18739866643E+02  0.51100000000E-03 0.  1.
        -12    1    3    3    0    0  0.96220587647E+01 -0.18909808914E+02 -0.16773510575E+02  0.27046544050E+02  0.00000000000E+00 0.  1.
</event>
<event>
 7    1  0.2237500E-009  0.4778727E+02  0.7816164E-02  0.1312668E+00
        -11   -1    0    0    0    0  0.00000000000E+00  0.00000000000E+00  0.45593999997E+02  0.45594000000E+02  0.51100000000E-03 0.  1.
         11   -1    0    0    0    0 -0.00000000000E+00 -0.00000000000E+00 -0.45593999997E+02  0.45594000000E+02  0.51100000000E-03 0. -1.
    9900012    2    1    2    0    0 -0.25836375425E+02  0.62553944060E+00  0.34867083033E+02  0.47787273348E+02  0.20000010503E+02 0.  0.
         12    1    1    2    0    0  0.25836375425E+02 -0.62553944060E+00 -0.34867083033E+02  0.43400726652E+02  0.00000000000E+00 0. -1.
         11    1    3    3    0    0 -0.69452714054E+01 -0.99860907238E+00 -0.28795463653E+00  0.70226015911E+01  0.51100000000E-03 0. -1.
        -11    1    3    3    0    0 -0.34563309799E+01 -0.18424862604E+01  0.12747940033E+02  0.13336077190E+02  0.51100000000E-03 0.  1.
        -12    1    3    3    0    0 -0.15434773040E+02  0.34666347734E+01  0.22407097636E+02  0.27428594567E+02  0.00000000000E+00 0.  1.
</event>
<event>
 7    1  0.2237500E-009  0.4778727E+02  0.7816164E-02  0.1312668E+00
        -11   -1    0    0    0    0  0.00000000000E+00  0.00000000000E+00  0.45593999997E+02  0.45594000000E+02  0.51100000000E-03 0. -1.
         11   -1    0    0    0    0 -0.00000000000E+00 -0.00000000000E+00 -0.45593999997E+02  0.45594000000E+02  0.51100000000E-03 0.  1.
    9900012    2    1    2    0    0  0.25972343518E+02 -0.72343240082E+01 -0.34010661445E+02  0.47787272315E+02  0.20000005793E+02 0.  0.
         12    1    1    2    0    0 -0.25972343518E+02  0.72343240082E+01  0.34010661445E+02  0.43400727685E+02  0.00000000000E+00 0. -1.
         11    1    3    3    0    0  0.18131976284E+00 -0.27386454076E+01 -0.67098135446E+01  0.72494588480E+01  0.51100000000E-03 0. -1.
        -11    1    3    3    0    0  0.17046762985E+02 -0.98200535398E+01 -0.19111693949E+02  0.27427767420E+02  0.51100000000E-03 0.  1.
         12    1    3    3    0    0  0.87442607703E+01  0.53243749392E+01 -0.81891539509E+01  0.13110046047E+02  0.00000000000E+00 0. -1.
</event>
<event>
 7    1  0.2237500E-009  0.4778727E+02  0.7816164E-02  0.1312668E+00
        -11   -1    0    0    0    0  0.00000000000E+00  0.00000000000E+00  0.45593999997E+02  0.45594000000E+02  0.51100000000E-03 0. -1.
         11   -1    0    0    0    0 -0.00000000000E+00 -0.00000000000E+00 -0.45593999997E+02  0.45594000000E+02  0.51100000000E-03 0.  1.
    9900012    2    1    2    0    0 -0.64904785912E+01 -0.33040852038E+02 -0.27382463102E+02  0.47787268424E+02  0.19999988053E+02 0.  0.
         12    1    1    2    0    0  0.64904785912E+01  0.33040852038E+02  0.27382463102E+02  0.43400731576E+02  0.00000000000E+00 0. -1.
         11    1    3    3    0    0 -0.18116532559E+00  0.12507930430E+01 -0.17174965382E+01  0.21323927245E+01  0.51100000000E-03 0. -1.
        -11    1    3    3    0    0 -0.59846254090E+01 -0.60739428576E+01 -0.10797364016E+02  0.13758328135E+02  0.51100000000E-03 0.  1.
        -12    1    3    3    0    0 -0.32468785655E+00 -0.28217702224E+02 -0.14867602548E+02  0.31896547564E+02  0.00000000000E+00 0.  1.
</event>
<event>
 7    1  0.2237500E-009  0.4778727E+02  0.7816164E-02  0.1312668E+00
        -11   -1    0    0    0    0  0.00000000000E+00  0.00000000000E+00  0.45593999997E+02  0.45594000000E+02  0.51100000000E-03 0. -1.
         11   -1    0    0    0    0 -0.00000000000E+00 -0.00000000000E+00 -0.45593999997E+02  0.45594000000E+02  0.51100000000E-03 0.  1.
    9900012    2    1    2    0    0 -0.38189605055E+02 -0.17736127121E+02 -0.10516993344E+02  0.47787270876E+02  0.19999999232E+02 0.  0.
         12    1    1    2    0    0  0.38189605055E+02  0.17736127121E+02  0.10516993344E+02  0.43400729124E+02  0.00000000000E+00 0. -1.
         11    1    3    3    0    0 -0.42562826731E+01  0.10433691874E+01 -0.44851972878E+01  0.62706902671E+01  0.51100000000E-03 0. -1.
        -11    1    3    3    0    0 -0.10145932328E+02 -0.79185712128E+01 -0.82269765715E+01  0.15275040315E+02  0.51100000000E-03 0.  1.
         12    1    3    3    0    0 -0.23787390054E+02 -0.10860925095E+02  0.21951805152E+01  0.26241540294E+02  0.00000000000E+00 0. -1.
</event>
<event>
 7    1  0.2237500E-009  0.4778727E+02  0.7816164E-02  0.1312668E+00
        -11   -1    0    0    0    0  0.00000000000E+00  0.00000000000E+00  0.45593999997E+02  0.45594000000E+02  0.51100000000E-03 0.  1.
         11   -1    0    0    0    0 -0.00000000000E+00 -0.00000000000E+00 -0.45593999997E+02  0.45594000000E+02  0.51100000000E-03 0. -1.
    9900012    2    1    2    0    0  0.10127131251E+02 -0.39674084194E+02  0.14388600945E+02  0.47787267504E+02  0.19999983859E+02 0.  0.
         12    1    1    2    0    0 -0.10127131251E+02  0.39674084194E+02 -0.14388600945E+02  0.43400732496E+02  0.00000000000E+00 0. -1.
         11    1    3    3    0    0  0.47819938593E+01 -0.63497008525E+01  0.49370229214E+00  0.79642895729E+01  0.51100000000E-03 0. -1.
        -11    1    3    3    0    0  0.89682634733E+01 -0.10630575457E+02  0.82041534629E+01  0.16147662944E+02  0.51100000000E-03 0.  1.
         12    1    3    3    0    0 -0.36231260813E+01 -0.22693807885E+02  0.56907451903E+01  0.23675314987E+02  0.00000000000E+00 0. -1.
</event>
<event>
 7    1  0.2237500E-009  0.4778728E+02  0.7816164E-02  0.1312668E+00
        -11   -1    0    0    0    0  0.00000000000E+00  0.00000000000E+00  0.45593999997E+02  0.45594000000E+02  0.51100000000E-03 0.  1.
         11   -1    0    0    0    0 -0.00000000000E+00 -0.00000000000E+00 -0.45593999997E+02  0.45594000000E+02  0.51100000000E-03 0. -1.
    9900012    2    1    2    0    0  0.15566583161E+02  0.26067800147E+02  0.31012481743E+02  0.47787277199E+02  0.20000028060E+02 0.  0.
         12    1    1    2    0    0 -0.15566583161E+02 -0.26067800147E+02 -0.31012481743E+02  0.43400722801E+02  0.00000000000E+00 0. -1.
         11    1    3    3    0    0  0.80052442807E+01  0.18702040913E+02  0.14880556338E+02  0.25204785806E+02  0.51100000000E-03 0. -1.
        -11    1    3    3    0    0  0.51314571533E+01  0.81155135618E+01  0.17298594809E+02  0.19784711156E+02  0.51100000000E-03 0.  1.
         12    1    3    3    0    0  0.24298817268E+01 -0.74975432800E+00 -0.11666694042E+01  0.27977802375E+01  0.00000000000E+00 0. -1.
</event>
<event>
 7    1  0.2237500E-009  0.4778727E+02  0.7816164E-02  0.1312668E+00
        -11   -1    0    0    0    0  0.00000000000E+00  0.00000000000E+00  0.45593999997E+02  0.45594000000E+02  0.51100000000E-03 0.  1.
         11   -1    0    0    0    0 -0.00000000000E+00 -0.00000000000E+00 -0.45593999997E+02  0.45594000000E+02  0.51100000000E-03 0. -1.
    9900012    2    1    2    0    0  0.10465137116E+02 -0.37264753409E+02  0.19632691584E+02  0.47787268205E+02  0.19999987055E+02 0.  0.
         12    1    1    2    0    0 -0.10465137116E+02  0.37264753409E+02 -0.19632691584E+02  0.43400731795E+02  0.00000000000E+00 0. -1.
         11    1    3    3    0    0  0.33048491688E+01 -0.25114877945E+02  0.10889180749E+02  0.27572692649E+02  0.51100000000E-03 0.  1.
        -11    1    3    3    0    0  0.73439566830E+01 -0.13525418681E+02  0.49371221509E+01  0.16163100744E+02  0.51100000000E-03 0. -1.
         12    1    3    3    0    0 -0.18366873619E+00  0.13755432174E+01  0.38063886835E+01  0.40514748126E+01  0.00000000000E+00 0. -1.
</event>
<event>
 7    1  0.2237500E-009  0.4778725E+02  0.7816164E-02  0.1312668E+00
        -11   -1    0    0    0    0  0.00000000000E+00  0.00000000000E+00  0.45593999997E+02  0.45594000000E+02  0.51100000000E-03 0. -1.
         11   -1    0    0    0    0 -0.00000000000E+00 -0.00000000000E+00 -0.45593999997E+02  0.45594000000E+02  0.51100000000E-03 0.  1.
    9900012    2    1    2    0    0  0.14729015447E+02  0.35364681232E+02 -0.20396571419E+02  0.47787254611E+02  0.19999925074E+02 0.  0.
         12    1    1    2    0    0 -0.14729015447E+02 -0.35364681232E+02  0.20396571419E+02  0.43400745389E+02  0.00000000000E+00 0. -1.
         11    1    3    3    0    0  0.12914510265E+01  0.84436295991E+01 -0.88702237621E+01  0.12314365449E+02  0.51100000000E-03 0. -1.
        -11    1    3    3    0    0  0.66604941836E+00  0.16850238378E+02 -0.86625756445E+01  0.18958227034E+02  0.51100000000E-03 0.  1.
        -12    1    3    3    0    0  0.12771515002E+02  0.10070813255E+02 -0.28637720123E+01  0.16514662128E+02  0.00000000000E+00 0.  1.
</event>
<event>
 7    1  0.2237500E-009  0.4778728E+02  0.7816164E-02  0.1312668E+00
        -11   -1    0    0    0    0  0.00000000000E+00  0.00000000000E+00  0.45593999997E+02  0.45594000000E+02  0.51100000000E-03 0.  1.
         11   -1    0    0    0    0 -0.00000000000E+00 -0.00000000000E+00 -0.45593999997E+02  0.45594000000E+02  0.51100000000E-03 0. -1.
    9900012    2    1    2    0    0  0.38380129458E+02 -0.42683034332E+01  0.19808331599E+02  0.47787277055E+02  0.20000027403E+02 0.  0.
         12    1    1    2    0    0 -0.38380129458E+02  0.42683034332E+01 -0.19808331599E+02  0.43400722945E+02  0.00000000000E+00 0. -1.
         11    1    3    3    0    0  0.80178192073E+01  0.17258485158E+00  0.10251514188E+02  0.13015711805E+02  0.51100000000E-03 0.  1.
        -11    1    3    3    0    0  0.17494226916E+02  0.33273929149E+01  0.84183644044E+01  0.19697420606E+02  0.51100000000E-03 0. -1.
        -12    1    3    3    0    0  0.12868083335E+02 -0.77682811998E+01  0.11384530063E+01  0.15074144644E+02  0.00000000000E+00 0.  1.
</event>
<event>
 7    1  0.2237500E-009  0.4778722E+02  0.7816164E-02  0.1312668E+00
        -11   -1    0    0    0    0  0.00000000000E+00  0.00000000000E+00  0.45593999997E+02  0.45594000000E+02  0.51100000000E-03 0.  1.
         11   -1    0    0    0    0 -0.00000000000E+00 -0.00000000000E+00 -0.45593999997E+02  0.45594000000E+02  0.51100000000E-03 0. -1.
    9900012    2    1    2    0    0  0.16824478997E+02  0.21167734873E+02  0.33948370870E+02  0.47787216851E+02  0.19999752910E+02 0.  0.
         12    1    1    2    0    0 -0.16824478997E+02 -0.21167734873E+02 -0.33948370870E+02  0.43400783149E+02  0.00000000000E+00 0. -1.
         11    1    3    3    0    0  0.49383754128E+01  0.13833642081E+01  0.18701370005E+01  0.54588149732E+01  0.51100000000E-03 0. -1.
        -11    1    3    3    0    0  0.65359586516E+01  0.71003860734E+01  0.25106699792E+02  0.26897594922E+02  0.51100000000E-03 0.  1.
         12    1    3    3    0    0  0.53501449327E+01  0.12683984592E+02  0.69715340781E+01  0.15430806956E+02  0.00000000000E+00 0. -1.
</event>
<event>
 7    1  0.2237500E-009  0.4778727E+02  0.7816164E-02  0.1312668E+00
        -11   -1    0    0    0    0  0.00000000000E+00  0.00000000000E+00  0.45593999997E+02  0.45594000000E+02  0.51100000000E-03 0. -1.
         11   -1    0    0    0    0 -0.00000000000E+00 -0.00000000000E+00 -0.45593999997E+02  0.45594000000E+02  0.51100000000E-03 0.  1.
    9900012    2    1    2    0    0  0.33030990437E+02 -0.14912955664E+02 -0.23878451418E+02  0.47787273992E+02  0.20000013437E+02 0.  0.
         12    1    1    2    0    0 -0.33030990437E+02  0.14912955664E+02  0.23878451418E+02  0.43400726008E+02  0.00000000000E+00 0. -1.
         11    1    3    3    0    0  0.13820304081E+02 -0.14713626621E+02 -0.16472352890E+02  0.26054366683E+02  0.51100000000E-03 0. -1.
        -11    1    3    3    0    0  0.38673788981E+01 -0.23603819777E+01  0.64506683503E-01  0.45312453030E+01  0.51100000000E-03 0.  1.
         12    1    3    3    0    0  0.15343307458E+02  0.21610529345E+01 -0.74706052115E+01  0.17201662006E+02  0.00000000000E+00 0. -1.
</event>
<event>
 7    1  0.2237500E-009  0.4778727E+02  0.7816164E-02  0.1312668E+00
        -11   -1    0    0    0    0  0.00000000000E+00  0.00000000000E+00  0.45593999997E+02  0.45594000000E+02  0.51100000000E-03 0.  1.
         11   -1    0    0    0    0 -0.00000000000E+00 -0.00000000000E+00 -0.45593999997E+02  0.45594000000E+02  0.51100000000E-03 0. -1.
    9900012    2    1    2    0    0  0.19048181348E+02 -0.38239877816E+02 -0.76486478207E+01  0.47787270956E+02  0.19999999599E+02 0.  0.
         12    1    1    2    0    0 -0.19048181348E+02  0.38239877816E+02  0.76486478207E+01  0.43400729044E+02  0.00000000000E+00 0. -1.
         11    1    3    3    0    0  0.47258784342E+01 -0.36596313889E+01 -0.52602257537E+00  0.60002940668E+01  0.51100000000E-03 0. -1.
        -11    1    3    3    0    0  0.11392862823E+02 -0.76944229857E+01  0.26797504777E+00  0.13750391968E+02  0.51100000000E-03 0.  1.
         12    1    3    3    0    0  0.29294400901E+01 -0.26885823441E+02 -0.73906002931E+01  0.28036584921E+02  0.00000000000E+00 0. -1.
</event>
<event>
 7    1  0.2237500E-009  0.4778727E+02  0.7816164E-02  0.1312668E+00
        -11   -1    0    0    0    0  0.00000000000E+00  0.00000000000E+00  0.45593999997E+02  0.45594000000E+02  0.51100000000E-03 0. -1.
         11   -1    0    0    0    0 -0.00000000000E+00 -0.00000000000E+00 -0.45593999997E+02  0.45594000000E+02  0.51100000000E-03 0.  1.
    9900012    2    1    2    0    0 -0.31584580174E+02 -0.20687515722E+02 -0.21402436082E+02  0.47787270954E+02  0.19999999587E+02 0.  0.
         12    1    1    2    0    0  0.31584580174E+02  0.20687515722E+02  0.21402436082E+02  0.43400729046E+02  0.00000000000E+00 0. -1.
         11    1    3    3    0    0 -0.30090981306E+01 -0.72191117714E+01  0.47976920481E+00  0.78358423337E+01  0.51100000000E-03 0. -1.
        -11    1    3    3    0    0 -0.39428800118E+00  0.85798619806E+00 -0.29612306732E+01  0.31081329934E+01  0.51100000000E-03 0.  1.
         12    1    3    3    0    0 -0.28181194042E+02 -0.14326390148E+02 -0.18920974613E+02  0.36843295627E+02  0.00000000000E+00 0. -1.
</event>
<event>
 7    1  0.2237500E-009  0.4778727E+02  0.7816164E-02  0.1312668E+00
        -11   -1    0    0    0    0  0.00000000000E+00  0.00000000000E+00  0.45593999997E+02  0.45594000000E+02  0.51100000000E-03 0.  1.
         11   -1    0    0    0    0 -0.00000000000E+00 -0.00000000000E+00 -0.45593999997E+02  0.45594000000E+02  0.51100000000E-03 0. -1.
    9900012    2    1    2    0    0 -0.23246814400E+02  0.18842945044E+02  0.31434891794E+02  0.47787269825E+02  0.19999994438E+02 0.  0.
         12    1    1    2    0    0  0.23246814400E+02 -0.18842945044E+02 -0.31434891794E+02  0.43400730175E+02  0.00000000000E+00 0. -1.
         11    1    3    3    0    0 -0.16144957711E+02  0.79282757134E+01  0.10831074952E+02  0.20995937707E+02  0.51100000000E-03 0. -1.
        -11    1    3    3    0    0 -0.85616045495E+01  0.11871488090E+02  0.15152048211E+02  0.21066985242E+02  0.51100000000E-03 0.  1.
         12    1    3    3    0    0  0.14597478612E+01 -0.95681875953E+00  0.54517686304E+01  0.57243468760E+01  0.00000000000E+00 0. -1.
</event>
<event>
 7    1  0.2237500E-009  0.4778728E+02  0.7816164E-02  0.1312668E+00
        -11   -1    0    0    0    0  0.00000000000E+00  0.00000000000E+00  0.45593999997E+02  0.45594000000E+02  0.51100000000E-03 0.  1.
         11   -1    0    0    0    0 -0.00000000000E+00 -0.00000000000E+00 -0.45593999997E+02  0.45594000000E+02  0.51100000000E-03 0. -1.
    9900012    2    1    2    0    0  0.20146641304E+02 -0.37835262642E+02  0.67991516574E+01  0.47787277445E+02  0.20000029184E+02 0.  0.
         12    1    1    2    0    0 -0.20146641304E+02  0.37835262642E+02 -0.67991516574E+01  0.43400722555E+02  0.00000000000E+00 0. -1.
         11    1    3    3    0    0  0.93055210200E+01 -0.26863343914E+02 -0.26459463548E+01  0.28552285374E+02  0.51100000000E-03 0. -1.
        -11    1    3    3    0    0  0.90486253881E+01 -0.93953459449E+01  0.45960288486E+01  0.13830170942E+02  0.51100000000E-03 0.  1.
        -12    1    3    3    0    0  0.17924948963E+01 -0.15765727833E+01  0.48490691636E+01  0.54048211300E+01  0.00000000000E+00 0.  1.
</event>
<event>
 7    1  0.2237500E-009  0.4778727E+02  0.7816164E-02  0.1312668E+00
        -11   -1    0    0    0    0  0.00000000000E+00  0.00000000000E+00  0.45593999997E+02  0.45594000000E+02  0.51100000000E-03 0.  1.
         11   -1    0    0    0    0 -0.00000000000E+00 -0.00000000000E+00 -0.45593999997E+02  0.45594000000E+02  0.51100000000E-03 0. -1.
    9900012    2    1    2    0    0 -0.11807940798E+02  0.96226576549E+01  0.40639884958E+02  0.47787271255E+02  0.20000000960E+02 0.  0.
         12    1    1    2    0    0  0.11807940798E+02 -0.96226576549E+01 -0.40639884958E+02  0.43400728745E+02  0.00000000000E+00 0. -1.
         11    1    3    3    0    0  0.94945602331E-01 -0.69679835687E+00  0.65910876335E+00  0.96382946655E+00  0.51100000000E-03 0. -1.
        -11    1    3    3    0    0 -0.15858558499E+02  0.31546826913E+01  0.27386214833E+02  0.31803312149E+02  0.51100000000E-03 0.  1.
         12    1    3    3    0    0  0.39556720984E+01  0.71647733204E+01  0.12594561362E+02  0.15020129639E+02  0.00000000000E+00 0. -1.
</event>
<event>
 7    1  0.2237500E-009  0.4778727E+02  0.7816164E-02  0.1312668E+00
        -11   -1    0    0    0    0  0.00000000000E+00  0.00000000000E+00  0.45593999997E+02  0.45594000000E+02  0.51100000000E-03 0.  1.
         11   -1    0    0    0    0 -0.00000000000E+00 -0.00000000000E+00 -0.45593999997E+02  0.45594000000E+02  0.51100000000E-03 0. -1.
    9900012    2    1    2    0    0 -0.25361965305E+02 -0.97378461292E+01  0.33846252270E+02  0.47787265858E+02  0.19999976351E+02 0.  0.
         12    1    1    2    0    0  0.25361965305E+02  0.97378461292E+01 -0.33846252270E+02  0.43400734142E+02  0.00000000000E+00 0. -1.
         11    1    3    3    0    0  0.81044012124E-01 -0.43454724367E+01  0.45586304884E+01  0.62984768810E+01  0.51100000000E-03 0. -1.
        -11    1    3    3    0    0 -0.72336055580E+01 -0.78553017466E+01  0.78483390818E+01  0.13252442850E+02  0.51100000000E-03 0.  1.
        -12    1    3    3    0    0 -0.18209403759E+02  0.24629280541E+01  0.21439282700E+02  0.28236346126E+02  0.00000000000E+00 0.  1.
</event>
<event>
 7    1  0.2237500E-009  0.4778727E+02  0.7816164E-02  0.1312668E+00
        -11   -1    0    0    0    0  0.00000000000E+00  0.00000000000E+00  0.45593999997E+02  0.45594000000E+02  0.51100000000E-03 0. -1.
         11   -1    0    0    0    0 -0.00000000000E+00 -0.00000000000E+00 -0.45593999997E+02  0.45594000000E+02  0.51100000000E-03 0.  1.
    9900012    2    1    2    0    0  0.37370693125E+02  0.18589351746E+02  0.11894972711E+02  0.47787273292E+02  0.20000010246E+02 0.  0.
         12    1    1    2    0    0 -0.37370693125E+02 -0.18589351746E+02 -0.11894972711E+02  0.43400726708E+02  0.00000000000E+00 0. -1.
         11    1    3    3    0    0  0.22434565422E+02  0.11158022433E+02  0.10645165005E+02  0.27223716288E+02  0.51100000000E-03 0. -1.
        -11    1    3    3    0    0  0.34536148027E+01  0.79573414699E+01  0.24304113876E+01  0.90085314146E+01  0.51100000000E-03 0.  1.
        -12    1    3    3    0    0  0.11482512901E+02 -0.52601215668E+00 -0.11806036816E+01  0.11555025589E+02  0.00000000000E+00 0.  1.
</event>
<event>
 7    1  0.2237500E-009  0.4778726E+02  0.7816164E-02  0.1312668E+00
        -11   -1    0    0    0    0  0.00000000000E+00  0.00000000000E+00  0.45593999997E+02  0.45594000000E+02  0.51100000000E-03 0. -1.
         11   -1    0    0    0    0 -0.00000000000E+00 -0.00000000000E+00 -0.45593999997E+02  0.45594000000E+02  0.51100000000E-03 0.  1.
    9900012    2    1    2    0    0 -0.38661106577E+02 -0.54714773935E+01 -0.18947451520E+02  0.47787261001E+02  0.19999954206E+02 0.  0.
         12    1    1    2    0    0  0.38661106577E+02  0.54714773935E+01  0.18947451520E+02  0.43400738999E+02  0.00000000000E+00 0. -1.
         11    1    3    3    0    0 -0.12350030754E+02 -0.69912255478E+01 -0.32632108787E+01  0.14561903714E+02  0.51100000000E-03 0. -1.
        -11    1    3    3    0    0 -0.19105943452E+02 -0.39491936911E+01 -0.14027592148E+02  0.24029285211E+02  0.51100000000E-03 0.  1.
         12    1    3    3    0    0 -0.72051323711E+01  0.54689418455E+01 -0.16566484931E+01  0.91960720759E+01  0.00000000000E+00 0. -1.
</event>
<event>
 7    1  0.2237500E-009  0.4778727E+02  0.7816164E-02  0.1312668E+00
        -11   -1    0    0    0    0  0.00000000000E+00  0.00000000000E+00  0.45593999997E+02  0.45594000000E+02  0.51100000000E-03 0.  1.
         11   -1    0    0    0    0 -0.00000000000E+00 -0.00000000000E+00 -0.45593999997E+02  0.45594000000E+02  0.51100000000E-03 0. -1.
    9900012    2    1    2    0    0  0.33372217271E+02  0.27520233580E+02 -0.35432995860E+01  0.47787272888E+02  0.20000008405E+02 0.  0.
         12    1    1    2    0    0 -0.33372217271E+02 -0.27520233580E+02  0.35432995860E+01  0.43400727112E+02  0.00000000000E+00 0. -1.
         11    1    3    3    0    0  0.26267861206E+01  0.10100132882E+02  0.19798552290E+01  0.10622265133E+02  0.51100000000E-03 0. -1.
        -11    1    3    3    0    0  0.20720929951E+01  0.60926114603E+00 -0.31805415336E+01  0.38445563115E+01  0.51100000000E-03 0.  1.
        -12    1    3    3    0    0  0.28673338156E+02  0.16810839552E+02 -0.23426132815E+01  0.33320451444E+02  0.00000000000E+00 0.  1.
</event>
<event>
 7    1  0.2237500E-009  0.4778727E+02  0.7816164E-02  0.1312668E+00
        -11   -1    0    0    0    0  0.00000000000E+00  0.00000000000E+00  0.45593999997E+02  0.45594000000E+02  0.51100000000E-03 0.  1.
         11   -1    0    0    0    0 -0.00000000000E+00 -0.00000000000E+00 -0.45593999997E+02  0.45594000000E+02  0.51100000000E-03 0. -1.
    9900012    2    1    2    0    0  0.10397336370E+02 -0.33502870085E+02  0.25555356416E+02  0.47787272482E+02  0.20000006553E+02 0.  0.
         12    1    1    2    0    0 -0.10397336370E+02  0.33502870085E+02 -0.25555356416E+02  0.43400727518E+02  0.00000000000E+00 0. -1.
         11    1    3    3    0    0 -0.51682812843E+01 -0.10033578019E+02  0.59540597213E+01  0.12760667957E+02  0.51100000000E-03 0.  1.
        -11    1    3    3    0    0  0.22457827432E+01 -0.22377412560E+01 -0.60552005890E-01  0.31709135695E+01  0.51100000000E-03 0. -1.
         12    1    3    3    0    0  0.13319834911E+02 -0.21231550811E+02  0.19661848701E+02  0.31855690955E+02  0.00000000000E+00 0. -1.
</event>
<event>
 7    1  0.2237500E-009  0.4778728E+02  0.7816164E-02  0.1312668E+00
        -11   -1    0    0    0    0  0.00000000000E+00  0.00000000000E+00  0.45593999997E+02  0.45594000000E+02  0.51100000000E-03 0. -1.
         11   -1    0    0    0    0 -0.00000000000E+00 -0.00000000000E+00 -0.45593999997E+02  0.45594000000E+02  0.51100000000E-03 0.  1.
    9900012    2    1    2    0    0 -0.29250620294E+02  0.23625629802E+02 -0.21676103897E+02  0.47787278217E+02  0.20000032703E+02 0.  0.
         12    1    1    2    0    0  0.29250620294E+02 -0.23625629802E+02  0.21676103897E+02  0.43400721783E+02  0.00000000000E+00 0. -1.
         11    1    3    3    0    0 -0.19008107721E+02  0.60593471034E+01 -0.13093265738E+02  0.23863307701E+02  0.51100000000E-03 0. -1.
        -11    1    3    3    0    0  0.97541579599E+00 -0.15758815478E+00 -0.14777509385E+01  0.17776439742E+01  0.51100000000E-03 0.  1.
        -12    1    3    3    0    0 -0.11217928369E+02  0.17723870853E+02 -0.71050872205E+01  0.22146326542E+02  0.00000000000E+00 0.  1.
</event>
<event>
 7    1  0.2237500E-009  0.4778727E+02  0.7816164E-02  0.1312668E+00
        -11   -1    0    0    0    0  0.00000000000E+00  0.00000000000E+00  0.45593999997E+02  0.45594000000E+02  0.51100000000E-03 0.  1.
         11   -1    0    0    0    0 -0.00000000000E+00 -0.00000000000E+00 -0.45593999997E+02  0.45594000000E+02  0.51100000000E-03 0. -1.
    9900012    2    1    2    0    0  0.43083923757E+01  0.42389666629E+02 -0.82569344329E+01  0.47787273646E+02  0.20000011862E+02 0.  0.
         12    1    1    2    0    0 -0.43083923757E+01 -0.42389666629E+02  0.82569344329E+01  0.43400726354E+02  0.00000000000E+00 0. -1.
         11    1    3    3    0    0 -0.12915017819E+01  0.15635517070E+02 -0.59733404978E+01  0.16787440778E+02  0.51100000000E-03 0. -1.
        -11    1    3    3    0    0 -0.38260618503E+01  0.16607935112E+02 -0.18628731381E+01  0.17144461337E+02  0.51100000000E-03 0.  1.
         12    1    3    3    0    0  0.94259560079E+01  0.10146214448E+02 -0.42072079699E+00  0.13855371531E+02  0.00000000000E+00 0. -1.
</event>
<event>
 7    1  0.2237500E-009  0.4778727E+02  0.7816164E-02  0.1312668E+00
        -11   -1    0    0    0    0  0.00000000000E+00  0.00000000000E+00  0.45593999997E+02  0.45594000000E+02  0.51100000000E-03 0. -1.
         11   -1    0    0    0    0 -0.00000000000E+00 -0.00000000000E+00 -0.45593999997E+02  0.45594000000E+02  0.51100000000E-03 0.  1.
    9900012    2    1    2    0    0  0.62592562815E+01 -0.33870575123E+02 -0.26405097268E+02  0.47787270627E+02  0.19999998096E+02 0.  0.
         12    1    1    2    0    0 -0.62592562815E+01  0.33870575123E+02  0.26405097268E+02  0.43400729373E+02  0.00000000000E+00 0. -1.
         11    1    3    3    0    0 -0.35197827060E+00 -0.14757750596E+02 -0.10792562017E+02  0.18286456369E+02  0.51100000000E-03 0.  1.
        -11    1    3    3    0    0 -0.31256425321E+01 -0.27668620480E+00  0.51932633677E-01  0.31382947207E+01  0.51100000000E-03 0. -1.
         12    1    3    3    0    0  0.97368770842E+01 -0.18836138322E+02 -0.15664467885E+02  0.26362519538E+02  0.00000000000E+00 0. -1.
</event>
<event>
 7    1  0.2237500E-009  0.4778728E+02  0.7816164E-02  0.1312668E+00
        -11   -1    0    0    0    0  0.00000000000E+00  0.00000000000E+00  0.45593999997E+02  0.45594000000E+02  0.51100000000E-03 0.  1.
         11   -1    0    0    0    0 -0.00000000000E+00 -0.00000000000E+00 -0.45593999997E+02  0.45594000000E+02  0.51100000000E-03 0. -1.
    9900012    2    1    2    0    0  0.31724502575E+02  0.11649581362E+00  0.29616976284E+02  0.47787275132E+02  0.20000018636E+02 0.  0.
         12    1    1    2    0    0 -0.31724502575E+02 -0.11649581362E+00 -0.29616976284E+02  0.43400724868E+02  0.00000000000E+00 0. -1.
         11    1    3    3    0    0  0.99577699087E+01 -0.41766183909E+01  0.11175182784E+02  0.15539820889E+02  0.51100000000E-03 0.  1.
        -11    1    3    3    0    0  0.12986540911E+02 -0.42791444453E+01  0.65557849286E+01  0.15163760691E+02  0.51100000000E-03 0. -1.
         12    1    3    3    0    0  0.87801917551E+01  0.85722586498E+01  0.11886008571E+02  0.17083693552E+02  0.00000000000E+00 0. -1.
</event>
<event>
 7    1  0.2237500E-009  0.4778727E+02  0.7816164E-02  0.1312668E+00
        -11   -1    0    0    0    0  0.00000000000E+00  0.00000000000E+00  0.45593999997E+02  0.45594000000E+02  0.51100000000E-03 0.  1.
         11   -1    0    0    0    0 -0.00000000000E+00 -0.00000000000E+00 -0.45593999997E+02  0.45594000000E+02  0.51100000000E-03 0. -1.
    9900012    2    1    2    0    0  0.28835887125E+02 -0.20999672956E+02  0.24721015494E+02  0.47787271232E+02  0.20000000855E+02 0.  0.
         12    1    1    2    0    0 -0.28835887125E+02  0.20999672956E+02 -0.24721015494E+02  0.43400728768E+02  0.00000000000E+00 0. -1.
         11    1    3    3    0    0  0.24218364916E+02 -0.19506411232E+02  0.18526706384E+02  0.36197626000E+02  0.51100000000E-03 0. -1.
        -11    1    3    3    0    0  0.69183969946E+01 -0.31883143383E+00  0.56769113854E+01  0.89550652481E+01  0.51100000000E-03 0.  1.
         12    1    3    3    0    0 -0.23008747855E+01 -0.11744302904E+01  0.51739772451E+00  0.26345799838E+01  0.00000000000E+00 0. -1.
</event>
<event>
 7    1  0.2237500E-009  0.4778727E+02  0.7816164E-02  0.1312668E+00
        -11   -1    0    0    0    0  0.00000000000E+00  0.00000000000E+00  0.45593999997E+02  0.45594000000E+02  0.51100000000E-03 0.  1.
         11   -1    0    0    0    0 -0.00000000000E+00 -0.00000000000E+00 -0.45593999997E+02  0.45594000000E+02  0.51100000000E-03 0. -1.
    9900012    2    1    2    0    0  0.29262154548E+01  0.31115447652E+02  0.30114605415E+02  0.47787270988E+02  0.19999999743E+02 0.  0.
         12    1    1    2    0    0 -0.29262154548E+01 -0.31115447652E+02 -0.30114605415E+02  0.43400729012E+02  0.00000000000E+00 0. -1.
         11    1    3    3    0    0 -0.41788173289E+01  0.12079212043E+00  0.39708436420E+01  0.57658221005E+01  0.51100000000E-03 0. -1.
        -11    1    3    3    0    0  0.93443509543E+00 -0.18582846848E+00  0.15768710439E+00  0.96569490590E+00  0.51100000000E-03 0.  1.
        -12    1    3    3    0    0  0.61705976883E+01  0.31180484000E+02  0.25986074668E+02  0.41055753982E+02  0.00000000000E+00 0.  1.
</event>
<event>
 7    1  0.2237500E-009  0.4778727E+02  0.7816164E-02  0.1312668E+00
        -11   -1    0    0    0    0  0.00000000000E+00  0.00000000000E+00  0.45593999997E+02  0.45594000000E+02  0.51100000000E-03 0.  1.
         11   -1    0    0    0    0 -0.00000000000E+00 -0.00000000000E+00 -0.45593999997E+02  0.45594000000E+02  0.51100000000E-03 0. -1.
    9900012    2    1    2    0    0 -0.27282661652E+02  0.21199641705E+02  0.26265083710E+02  0.47787273537E+02  0.20000011363E+02 0.  0.
         12    1    1    2    0    0  0.27282661652E+02 -0.21199641705E+02 -0.26265083710E+02  0.43400726463E+02  0.00000000000E+00 0. -1.
         11    1    3    3    0    0 -0.15389089500E+01  0.22865420757E+01 -0.92352690434E+00  0.29067881973E+01  0.51100000000E-03 0. -1.
        -11    1    3    3    0    0 -0.13765992186E+02  0.86823866738E+00  0.13237766395E+02  0.19117919307E+02  0.51100000000E-03 0.  1.
        -12    1    3    3    0    0 -0.11977760517E+02  0.18044860962E+02  0.13950844219E+02  0.25762566032E+02  0.00000000000E+00 0.  1.
</event>
<event>
 7    1  0.2237500E-009  0.4778728E+02  0.7816164E-02  0.1312668E+00
        -11   -1    0    0    0    0  0.00000000000E+00  0.00000000000E+00  0.45593999997E+02  0.45594000000E+02  0.51100000000E-03 0.  1.
         11   -1    0    0    0    0 -0.00000000000E+00 -0.00000000000E+00 -0.45593999997E+02  0.45594000000E+02  0.51100000000E-03 0. -1.
    9900012    2    1    2    0    0 -0.11944387247E+02  0.28858046949E+02  0.30135812575E+02  0.47787280421E+02  0.20000042751E+02 0.  0.
         12    1    1    2    0    0  0.11944387247E+02 -0.28858046949E+02 -0.30135812575E+02  0.43400719579E+02  0.00000000000E+00 0. -1.
         11    1    3    3    0    0 -0.35020546392E+01  0.20783511907E+02  0.16824819496E+02  0.26968376021E+02  0.51100000000E-03 0. -1.
        -11    1    3    3    0    0 -0.56796011740E+00  0.77675577877E+01  0.87488636892E+01  0.11713246723E+02  0.51100000000E-03 0.  1.
         12    1    3    3    0    0 -0.78743724907E+01  0.30697725472E+00  0.45621293900E+01  0.91056576769E+01  0.00000000000E+00 0. -1.
</event>
<event>
 7    1  0.2237500E-009  0.4778727E+02  0.7816164E-02  0.1312668E+00
        -11   -1    0    0    0    0  0.00000000000E+00  0.00000000000E+00  0.45593999997E+02  0.45594000000E+02  0.51100000000E-03 0.  1.
         11   -1    0    0    0    0 -0.00000000000E+00 -0.00000000000E+00 -0.45593999997E+02  0.45594000000E+02  0.51100000000E-03 0. -1.
    9900012    2    1    2    0    0  0.59704898911E+00 -0.35767369969E+02  0.24575635225E+02  0.47787273408E+02  0.20000010777E+02 0.  0.
         12    1    1    2    0    0 -0.59704898911E+00  0.35767369969E+02 -0.24575635225E+02  0.43400726592E+02  0.00000000000E+00 0. -1.
         11    1    3    3    0    0 -0.26419374595E+00 -0.14903994627E+02  0.10848894718E+02  0.18436305786E+02  0.51100000000E-03 0. -1.
        -11    1    3    3    0    0  0.54022852325E+01 -0.15971998237E+02  0.14986879809E+02  0.22558722926E+02  0.51100000000E-03 0.  1.
         12    1    3    3    0    0 -0.45410424975E+01 -0.48913771055E+01 -0.12601393011E+01  0.67922446960E+01  0.00000000000E+00 0. -1.
</event>
<event>
 7    1  0.2237500E-009  0.4778727E+02  0.7816164E-02  0.1312668E+00
        -11   -1    0    0    0    0  0.00000000000E+00  0.00000000000E+00  0.45593999997E+02  0.45594000000E+02  0.51100000000E-03 0. -1.
         11   -1    0    0    0    0 -0.00000000000E+00 -0.00000000000E+00 -0.45593999997E+02  0.45594000000E+02  0.51100000000E-03 0.  1.
    9900012    2    1    2    0    0  0.35449950569E+01 -0.43097316766E+02 -0.36982811975E+01  0.47787274358E+02  0.20000015110E+02 0.  0.
         12    1    1    2    0    0 -0.35449950569E+01  0.43097316766E+02  0.36982811975E+01  0.43400725642E+02  0.00000000000E+00 0. -1.
         11    1    3    3    0    0 -0.27687455730E+00 -0.78657363905E+01  0.59211333349E+01  0.98491770578E+01  0.51100000000E-03 0. -1.
        -11    1    3    3    0    0 -0.31151778272E+01 -0.11922173016E+02 -0.22488488561E+01  0.12525967578E+02  0.51100000000E-03 0.  1.
         12    1    3    3    0    0  0.69370474414E+01 -0.23309407360E+02 -0.73705656762E+01  0.25412129723E+02  0.00000000000E+00 0. -1.
</event>
<event>
 7    1  0.2237500E-009  0.4778727E+02  0.7816164E-02  0.1312668E+00
        -11   -1    0    0    0    0  0.00000000000E+00  0.00000000000E+00  0.45593999997E+02  0.45594000000E+02  0.51100000000E-03 0. -1.
         11   -1    0    0    0    0 -0.00000000000E+00 -0.00000000000E+00 -0.45593999997E+02  0.45594000000E+02  0.51100000000E-03 0.  1.
    9900012    2    1    2    0    0  0.37421459329E+02  0.21867479420E+02  0.22518811726E+01  0.47787271396E+02  0.20000001605E+02 0.  0.
         12    1    1    2    0    0 -0.37421459329E+02 -0.21867479420E+02 -0.22518811726E+01  0.43400728604E+02  0.00000000000E+00 0. -1.
         11    1    3    3    0    0  0.39370516498E+01 -0.16179940071E+01  0.27326242336E+01  0.50582127045E+01  0.51100000000E-03 0. -1.
        -11    1    3    3    0    0  0.13571515397E+02  0.25108938933E+01  0.80153045522E-01  0.13802066624E+02  0.51100000000E-03 0.  1.
         12    1    3    3    0    0  0.19912892282E+02  0.20974579534E+02 -0.56089610650E+00  0.28926992068E+02  0.00000000000E+00 0. -1.
</event>
<event>
 7    1  0.2237500E-009  0.4778732E+02  0.7816164E-02  0.1312668E+00
        -11   -1    0    0    0    0  0.00000000000E+00  0.00000000000E+00  0.45593999997E+02  0.45594000000E+02  0.51100000000E-03 0.  1.
         11   -1    0    0    0    0 -0.00000000000E+00 -0.00000000000E+00 -0.45593999997E+02  0.45594000000E+02  0.51100000000E-03 0. -1.
    9900012    2    1    2    0    0 -0.25201991881E+02  0.27699511712E+01  0.35225079461E+02  0.47787317433E+02  0.20000211504E+02 0.  0.
         12    1    1    2    0    0  0.25201991881E+02 -0.27699511712E+01 -0.35225079461E+02  0.43400682567E+02  0.00000000000E+00 0. -1.
         11    1    3    3    0    0 -0.30719703551E+01 -0.41033270651E+01  0.34142861211E+01  0.61588671721E+01  0.51100000000E-03 0. -1.
        -11    1    3    3    0    0 -0.22978559732E+02  0.79809386221E+01  0.32026037877E+02  0.40216622074E+02  0.51100000000E-03 0.  1.
        -12    1    3    3    0    0  0.84853820660E+00 -0.11076603858E+01 -0.21524453799E+00  0.14118281870E+01  0.00000000000E+00 0.  1.
</event>
<event>
 7    1  0.2237500E-009  0.4778727E+02  0.7816164E-02  0.1312668E+00
        -11   -1    0    0    0    0  0.00000000000E+00  0.00000000000E+00  0.45593999997E+02  0.45594000000E+02  0.51100000000E-03 0. -1.
         11   -1    0    0    0    0 -0.00000000000E+00 -0.00000000000E+00 -0.45593999997E+02  0.45594000000E+02  0.51100000000E-03 0.  1.
    9900012    2    1    2    0    0  0.19798072509E+02  0.33512373866E+02 -0.19198453809E+02  0.47787268372E+02  0.19999987814E+02 0.  0.
         12    1    1    2    0    0 -0.19798072509E+02 -0.33512373866E+02  0.19198453809E+02  0.43400731628E+02  0.00000000000E+00 0. -1.
         11    1    3    3    0    0  0.24979960189E+01  0.62711525737E+01 -0.51127720342E+01  0.84680444524E+01  0.51100000000E-03 0. -1.
        -11    1    3    3    0    0 -0.12016613065E+01  0.13531852898E+02 -0.66169965342E+01  0.15110912485E+02  0.51100000000E-03 0.  1.
         12    1    3    3    0    0  0.18501737797E+02  0.13709368395E+02 -0.74686852402E+01  0.24208311434E+02  0.00000000000E+00 0. -1.
</event>
<event>
 7    1  0.2237500E-009  0.4778727E+02  0.7816164E-02  0.1312668E+00
        -11   -1    0    0    0    0  0.00000000000E+00  0.00000000000E+00  0.45593999997E+02  0.45594000000E+02  0.51100000000E-03 0.  1.
         11   -1    0    0    0    0 -0.00000000000E+00 -0.00000000000E+00 -0.45593999997E+02  0.45594000000E+02  0.51100000000E-03 0. -1.
    9900012    2    1    2    0    0  0.29065794815E+02  0.10413960909E+02  0.30501671468E+02  0.47787274518E+02  0.20000015835E+02 0.  0.
         12    1    1    2    0    0 -0.29065794815E+02 -0.10413960909E+02 -0.30501671468E+02  0.43400725482E+02  0.00000000000E+00 0. -1.
         11    1    3    3    0    0  0.12459226292E+01 -0.58507225807E+00 -0.56365571522E+00  0.14873939530E+01  0.51100000000E-03 0. -1.
        -11    1    3    3    0    0  0.61776951556E+01  0.85347549492E+01  0.18122727261E+02  0.20962805230E+02  0.51100000000E-03 0.  1.
         12    1    3    3    0    0  0.21642177031E+02  0.24642782176E+01  0.12942599922E+02  0.25337075334E+02  0.00000000000E+00 0. -1.
</event>
<event>
 7    1  0.2237500E-009  0.4778727E+02  0.7816164E-02  0.1312668E+00
        -11   -1    0    0    0    0  0.00000000000E+00  0.00000000000E+00  0.45593999997E+02  0.45594000000E+02  0.51100000000E-03 0.  1.
         11   -1    0    0    0    0 -0.00000000000E+00 -0.00000000000E+00 -0.45593999997E+02  0.45594000000E+02  0.51100000000E-03 0. -1.
    9900012    2    1    2    0    0 -0.41865072323E+02  0.11085610587E+02 -0.28369430693E+01  0.47787270874E+02  0.19999999223E+02 0.  0.
         12    1    1    2    0    0  0.41865072323E+02 -0.11085610587E+02  0.28369430693E+01  0.43400729126E+02  0.00000000000E+00 0. -1.
         11    1    3    3    0    0 -0.42484220000E+01  0.44789643054E+00  0.32069412464E+01  0.53417387732E+01  0.51100000000E-03 0. -1.
        -11    1    3    3    0    0 -0.13350689230E+02 -0.20394078807E+01  0.25631383083E+01  0.13746627429E+02  0.51100000000E-03 0.  1.
         12    1    3    3    0    0 -0.24265961092E+02  0.12677122038E+02 -0.86070226241E+01  0.28698904672E+02  0.00000000000E+00 0. -1.
</event>
<event>
 7    1  0.2237500E-009  0.4778728E+02  0.7816164E-02  0.1312668E+00
        -11   -1    0    0    0    0  0.00000000000E+00  0.00000000000E+00  0.45593999997E+02  0.45594000000E+02  0.51100000000E-03 0.  1.
         11   -1    0    0    0    0 -0.00000000000E+00 -0.00000000000E+00 -0.45593999997E+02  0.45594000000E+02  0.51100000000E-03 0. -1.
    9900012    2    1    2    0    0 -0.13942064722E+02 -0.80638292534E+01  0.40301558816E+02  0.47787283946E+02  0.20000058825E+02 0.  0.
         12    1    1    2    0    0  0.13942064722E+02  0.80638292534E+01 -0.40301558816E+02  0.43400716054E+02  0.00000000000E+00 0. -1.
         11    1    3    3    0    0  0.10296154620E+01  0.20292248720E+01  0.13318003076E+01  0.26365799630E+01  0.51100000000E-03 0. -1.
        -11    1    3    3    0    0 -0.40039499788E+01 -0.78691645465E+01  0.69647521234E+01  0.11245583066E+02  0.51100000000E-03 0.  1.
        -12    1    3    3    0    0 -0.10967730205E+02 -0.22238895789E+01  0.32005006385E+02  0.33905120918E+02  0.00000000000E+00 0.  1.
</event>
<event>
 7    1  0.2237500E-009  0.4778727E+02  0.7816164E-02  0.1312668E+00
        -11   -1    0    0    0    0  0.00000000000E+00  0.00000000000E+00  0.45593999997E+02  0.45594000000E+02  0.51100000000E-03 0.  1.
         11   -1    0    0    0    0 -0.00000000000E+00 -0.00000000000E+00 -0.45593999997E+02  0.45594000000E+02  0.51100000000E-03 0. -1.
    9900012    2    1    2    0    0 -0.30727950051E+02 -0.30503401602E+02  0.29931421902E+01  0.47787270470E+02  0.19999997379E+02 0.  0.
         12    1    1    2    0    0  0.30727950051E+02  0.30503401602E+02 -0.29931421902E+01  0.43400729530E+02  0.00000000000E+00 0. -1.
         11    1    3    3    0    0 -0.11891002591E+01 -0.80295393978E+00 -0.14679659402E+01  0.20527100911E+01  0.51100000000E-03 0. -1.
        -11    1    3    3    0    0 -0.18284867390E+02 -0.63311620499E+01  0.41742332365E+01  0.19795055234E+02  0.51100000000E-03 0.  1.
         12    1    3    3    0    0 -0.11253982402E+02 -0.23369285612E+02  0.28687489383E+00  0.25939505144E+02  0.00000000000E+00 0. -1.
</event>
<event>
 7    1  0.2237500E-009  0.4778727E+02  0.7816164E-02  0.1312668E+00
        -11   -1    0    0    0    0  0.00000000000E+00  0.00000000000E+00  0.45593999997E+02  0.45594000000E+02  0.51100000000E-03 0.  1.
         11   -1    0    0    0    0 -0.00000000000E+00 -0.00000000000E+00 -0.45593999997E+02  0.45594000000E+02  0.51100000000E-03 0. -1.
    9900012    2    1    2    0    0 -0.22188960465E+02  0.18051794998E+02  0.32640555682E+02  0.47787272536E+02  0.20000006802E+02 0.  0.
         12    1    1    2    0    0  0.22188960465E+02 -0.18051794998E+02 -0.32640555682E+02  0.43400727464E+02  0.00000000000E+00 0. -1.
         11    1    3    3    0    0 -0.77580881949E+01  0.71089564301E+01  0.19390745522E+02  0.22061872226E+02  0.51100000000E-03 0.  1.
        -11    1    3    3    0    0  0.11545327536E+01  0.53524447439E+01  0.28541326688E+01  0.61747618714E+01  0.51100000000E-03 0. -1.
         12    1    3    3    0    0 -0.15585405024E+02  0.55903938236E+01  0.10395677490E+02  0.19550638439E+02  0.00000000000E+00 0. -1.
</event>
<event>
 7    1  0.2237500E-009  0.4778727E+02  0.7816164E-02  0.1312668E+00
        -11   -1    0    0    0    0  0.00000000000E+00  0.00000000000E+00  0.45593999997E+02  0.45594000000E+02  0.51100000000E-03 0.  1.
         11   -1    0    0    0    0 -0.00000000000E+00 -0.00000000000E+00 -0.45593999997E+02  0.45594000000E+02  0.51100000000E-03 0. -1.
    9900012    2    1    2    0    0  0.17529096357E+02 -0.21081941809E+02  0.33643812659E+02  0.47787267060E+02  0.19999981834E+02 0.  0.
         12    1    1    2    0    0 -0.17529096357E+02  0.21081941809E+02 -0.33643812659E+02  0.43400732940E+02  0.00000000000E+00 0. -1.
         11    1    3    3    0    0  0.67432742548E+01 -0.40416842180E+01  0.20164542205E+01  0.81162212191E+01  0.51100000000E-03 0. -1.
        -11    1    3    3    0    0  0.85405611589E+01 -0.23327055764E+01  0.14447330814E+02  0.16944263575E+02  0.51100000000E-03 0.  1.
        -12    1    3    3    0    0  0.22452609428E+01 -0.14707552014E+02  0.17180027625E+02  0.22726782265E+02  0.00000000000E+00 0.  1.
</event>
<event>
 7    1  0.2237500E-009  0.4778727E+02  0.7816164E-02  0.1312668E+00
        -11   -1    0    0    0    0  0.00000000000E+00  0.00000000000E+00  0.45593999997E+02  0.45594000000E+02  0.51100000000E-03 0. -1.
         11   -1    0    0    0    0 -0.00000000000E+00 -0.00000000000E+00 -0.45593999997E+02  0.45594000000E+02  0.51100000000E-03 0.  1.
    9900012    2    1    2    0    0  0.36893072512E+02  0.18224631060E+02 -0.13798090404E+02  0.47787271026E+02  0.19999999916E+02 0.  0.
         12    1    1    2    0    0 -0.36893072512E+02 -0.18224631060E+02  0.13798090404E+02  0.43400728974E+02  0.00000000000E+00 0. -1.
         11    1    3    3    0    0  0.77541693769E+01  0.73120613168E+01  0.40897376313E+01  0.11415749541E+02  0.51100000000E-03 0. -1.
        -11    1    3    3    0    0  0.46324934360E+01 -0.23110952781E+00 -0.15991145214E+01  0.49061771841E+01  0.51100000000E-03 0.  1.
        -12    1    3    3    0    0  0.24506409700E+02  0.11143679271E+02 -0.16288713514E+02  0.31465344301E+02  0.00000000000E+00 0.  1.
</event>
<event>
 7    1  0.2237500E-009  0.4778727E+02  0.7816164E-02  0.1312668E+00
        -11   -1    0    0    0    0  0.00000000000E+00  0.00000000000E+00  0.45593999997E+02  0.45594000000E+02  0.51100000000E-03 0.  1.
         11   -1    0    0    0    0 -0.00000000000E+00 -0.00000000000E+00 -0.45593999997E+02  0.45594000000E+02  0.51100000000E-03 0. -1.
    9900012    2    1    2    0    0 -0.39409913959E+02  0.36846182347E+01  0.17801835681E+02  0.47787273238E+02  0.20000010002E+02 0.  0.
         12    1    1    2    0    0  0.39409913959E+02 -0.36846182347E+01 -0.17801835681E+02  0.43400726762E+02  0.00000000000E+00 0. -1.
         11    1    3    3    0    0 -0.18821389376E+02  0.66262521982E+01  0.38760554773E+01  0.20326724345E+02  0.51100000000E-03 0. -1.
        -11    1    3    3    0    0 -0.60781698724E+01 -0.32899333395E+01 -0.58552082344E+00  0.69361837686E+01  0.51100000000E-03 0.  1.
        -12    1    3    3    0    0 -0.14510354711E+02  0.34829937595E+00  0.14511301027E+02  0.20524365125E+02  0.00000000000E+00 0.  1.
</event>
<event>
 7    1  0.2237500E-009  0.4778727E+02  0.7816164E-02  0.1312668E+00
        -11   -1    0    0    0    0  0.00000000000E+00  0.00000000000E+00  0.45593999997E+02  0.45594000000E+02  0.51100000000E-03 0. -1.
         11   -1    0    0    0    0 -0.00000000000E+00 -0.00000000000E+00 -0.45593999997E+02  0.45594000000E+02  0.51100000000E-03 0.  1.
    9900012    2    1    2    0    0 -0.38991826870E+02 -0.87194301728E+01  0.16947919522E+02  0.47787274184E+02  0.20000014315E+02 0.  0.
         12    1    1    2    0    0  0.38991826870E+02  0.87194301728E+01 -0.16947919522E+02  0.43400725816E+02  0.00000000000E+00 0. -1.
         11    1    3    3    0    0 -0.10895077010E+02 -0.94544086797E+01 -0.68378147626E+00  0.14441471667E+02  0.51100000000E-03 0. -1.
        -11    1    3    3    0    0 -0.39860966520E+01  0.11668189293E+01  0.31955760654E+01  0.52404331484E+01  0.51100000000E-03 0.  1.
         12    1    3    3    0    0 -0.24110653208E+02 -0.43184042241E+00  0.14436124933E+02  0.28105369369E+02  0.00000000000E+00 0. -1.
</event>
<event>
 7    1  0.2237500E-009  0.4778724E+02  0.7816164E-02  0.1312668E+00
        -11   -1    0    0    0    0  0.00000000000E+00  0.00000000000E+00  0.45593999997E+02  0.45594000000E+02  0.51100000000E-03 0.  1.
         11   -1    0    0    0    0 -0.00000000000E+00 -0.00000000000E+00 -0.45593999997E+02  0.45594000000E+02  0.51100000000E-03 0. -1.
    9900012    2    1    2    0    0 -0.34485359219E+02  0.23725471366E+02  0.11466839217E+02  0.47787235103E+02  0.19999836127E+02 0.  0.
         12    1    1    2    0    0  0.34485359219E+02 -0.23725471366E+02 -0.11466839217E+02  0.43400764897E+02  0.00000000000E+00 0. -1.
         11    1    3    3    0    0 -0.67235060404E+01 -0.11109227739E+01  0.28253860351E+01  0.73771599816E+01  0.51100000000E-03 0. -1.
        -11    1    3    3    0    0 -0.17777605503E+02  0.86784275018E+01  0.62163330911E+00  0.19792543787E+02  0.51100000000E-03 0.  1.
        -12    1    3    3    0    0 -0.99842476760E+01  0.16157966638E+02  0.80198198725E+01  0.20617531334E+02  0.00000000000E+00 0.  1.
</event>
<event>
 7    1  0.2237500E-009  0.4778727E+02  0.7816164E-02  0.1312668E+00
        -11   -1    0    0    0    0  0.00000000000E+00  0.00000000000E+00  0.45593999997E+02  0.45594000000E+02  0.51100000000E-03 0.  1.
         11   -1    0    0    0    0 -0.00000000000E+00 -0.00000000000E+00 -0.45593999997E+02  0.45594000000E+02  0.51100000000E-03 0. -1.
    9900012    2    1    2    0    0  0.33999322858E+01 -0.72912858825E+01  0.42648574528E+02  0.47787270759E+02  0.19999998700E+02 0.  0.
         12    1    1    2    0    0 -0.33999322858E+01  0.72912858825E+01 -0.42648574528E+02  0.43400729241E+02  0.00000000000E+00 0. -1.
         11    1    3    3    0    0  0.92491281863E-01  0.13498767892E+01 -0.82389319201E+00  0.15841471637E+01  0.51100000000E-03 0. -1.
        -11    1    3    3    0    0  0.32695327941E+01  0.49431846493E+00  0.22965895155E+01  0.40259805141E+01  0.51100000000E-03 0.  1.
        -12    1    3    3    0    0  0.37908209778E-01 -0.91354811366E+01  0.41175878204E+02  0.42177143082E+02  0.00000000000E+00 0.  1.
</event>
<event>
 7    1  0.2237500E-009  0.4778727E+02  0.7816164E-02  0.1312668E+00
        -11   -1    0    0    0    0  0.00000000000E+00  0.00000000000E+00  0.45593999997E+02  0.45594000000E+02  0.51100000000E-03 0.  1.
         11   -1    0    0    0    0 -0.00000000000E+00 -0.00000000000E+00 -0.45593999997E+02  0.45594000000E+02  0.51100000000E-03 0. -1.
    9900012    2    1    2    0    0 -0.38553141148E+02  0.74563875012E+01  0.18484617712E+02  0.47787268452E+02  0.19999988181E+02 0.  0.
         12    1    1    2    0    0  0.38553141148E+02 -0.74563875012E+01 -0.18484617712E+02  0.43400731548E+02  0.00000000000E+00 0. -1.
         11    1    3    3    0    0  0.84738894842E+00  0.32186135223E+01  0.86883111817E+00  0.34398268574E+01  0.51100000000E-03 0. -1.
        -11    1    3    3    0    0  0.30654835529E+00 -0.26789955807E+00  0.97992007823E+00  0.10611247279E+01  0.51100000000E-03 0.  1.
        -12    1    3    3    0    0 -0.39707078452E+02  0.45056735370E+01  0.16635866515E+02  0.43286316867E+02  0.00000000000E+00 0.  1.
</event>
<event>
 7    1  0.2237500E-009  0.4778727E+02  0.7816164E-02  0.1312668E+00
        -11   -1    0    0    0    0  0.00000000000E+00  0.00000000000E+00  0.45593999997E+02  0.45594000000E+02  0.51100000000E-03 0.  1.
         11   -1    0    0    0    0 -0.00000000000E+00 -0.00000000000E+00 -0.45593999997E+02  0.45594000000E+02  0.51100000000E-03 0. -1.
    9900012    2    1    2    0    0  0.10781009425E+02 -0.98271823358E+01  0.40875658491E+02  0.47787272656E+02  0.20000007349E+02 0.  0.
         12    1    1    2    0    0 -0.10781009425E+02  0.98271823358E+01 -0.40875658491E+02  0.43400727344E+02  0.00000000000E+00 0. -1.
         11    1    3    3    0    0  0.98724668037E+01 -0.75331887010E+00  0.11584870366E+02  0.15239498409E+02  0.51100000000E-03 0.  1.
        -11    1    3    3    0    0  0.11347598553E+01  0.23458376236E+01  0.75857385999E+01  0.80208518533E+01  0.51100000000E-03 0. -1.
         12    1    3    3    0    0 -0.22621723438E+00 -0.11419701089E+02  0.21705049526E+02  0.24526922394E+02  0.00000000000E+00 0. -1.
</event>
<event>
 7    1  0.2237500E-009  0.4778727E+02  0.7816164E-02  0.1312668E+00
        -11   -1    0    0    0    0  0.00000000000E+00  0.00000000000E+00  0.45593999997E+02  0.45594000000E+02  0.51100000000E-03 0.  1.
         11   -1    0    0    0    0 -0.00000000000E+00 -0.00000000000E+00 -0.45593999997E+02  0.45594000000E+02  0.51100000000E-03 0. -1.
    9900012    2    1    2    0    0 -0.26979682151E+02 -0.16219288768E+02  0.29877335490E+02  0.47787265524E+02  0.19999974828E+02 0.  0.
         12    1    1    2    0    0  0.26979682151E+02  0.16219288768E+02 -0.29877335490E+02  0.43400734476E+02  0.00000000000E+00 0. -1.
         11    1    3    3    0    0 -0.12756872710E+02 -0.27428713361E+01  0.89405077359E+01  0.15817516346E+02  0.51100000000E-03 0. -1.
        -11    1    3    3    0    0 -0.14421497785E+01  0.22965249271E+01  0.65460154394E+01  0.70854880649E+01  0.51100000000E-03 0.  1.
         12    1    3    3    0    0 -0.12780659662E+02 -0.15772942359E+02  0.14390812315E+02  0.24884261113E+02  0.00000000000E+00 0. -1.
</event>
<event>
 7    1  0.2237500E-009  0.4778727E+02  0.7816164E-02  0.1312668E+00
        -11   -1    0    0    0    0  0.00000000000E+00  0.00000000000E+00  0.45593999997E+02  0.45594000000E+02  0.51100000000E-03 0.  1.
         11   -1    0    0    0    0 -0.00000000000E+00 -0.00000000000E+00 -0.45593999997E+02  0.45594000000E+02  0.51100000000E-03 0. -1.
    9900012    2    1    2    0    0  0.14853389935E+02 -0.26349690617E+02  0.31123843447E+02  0.47787273980E+02  0.20000013383E+02 0.  0.
         12    1    1    2    0    0 -0.14853389935E+02  0.26349690617E+02 -0.31123843447E+02  0.43400726020E+02  0.00000000000E+00 0. -1.
         11    1    3    3    0    0  0.51279349954E+01 -0.59073605826E+01  0.48959413102E+01  0.92283729847E+01  0.51100000000E-03 0. -1.
        -11    1    3    3    0    0 -0.34753112525E+01 -0.12192484356E+02  0.11056508567E+02  0.16822034509E+02  0.51100000000E-03 0.  1.
        -12    1    3    3    0    0  0.13200766192E+02 -0.82498456789E+01  0.15171393569E+02  0.21736866486E+02  0.00000000000E+00 0.  1.
</event>
<event>
 7    1  0.2237500E-009  0.4778727E+02  0.7816164E-02  0.1312668E+00
        -11   -1    0    0    0    0  0.00000000000E+00  0.00000000000E+00  0.45593999997E+02  0.45594000000E+02  0.51100000000E-03 0.  1.
         11   -1    0    0    0    0 -0.00000000000E+00 -0.00000000000E+00 -0.45593999997E+02  0.45594000000E+02  0.51100000000E-03 0. -1.
    9900012    2    1    2    0    0  0.32927540333E+01 -0.24650022939E+02  0.35569055854E+02  0.47787267352E+02  0.19999983166E+02 0.  0.
         12    1    1    2    0    0 -0.32927540333E+01  0.24650022939E+02 -0.35569055854E+02  0.43400732648E+02  0.00000000000E+00 0. -1.
         11    1    3    3    0    0 -0.15064497147E+01 -0.53245932495E+01  0.17322521345E+01  0.57983947549E+01  0.51100000000E-03 0. -1.
        -11    1    3    3    0    0 -0.30443998845E+01 -0.13159993430E+02  0.12365149416E+02  0.18312583599E+02  0.51100000000E-03 0.  1.
        -12    1    3    3    0    0  0.78436036325E+01 -0.61654362597E+01  0.21471654303E+02  0.23676288998E+02  0.00000000000E+00 0.  1.
</event>
<event>
 7    1  0.2237500E-009  0.4778727E+02  0.7816164E-02  0.1312668E+00
        -11   -1    0    0    0    0  0.00000000000E+00  0.00000000000E+00  0.45593999997E+02  0.45594000000E+02  0.51100000000E-03 0.  1.
         11   -1    0    0    0    0 -0.00000000000E+00 -0.00000000000E+00 -0.45593999997E+02  0.45594000000E+02  0.51100000000E-03 0. -1.
    9900012    2    1    2    0    0 -0.62554342205E+00  0.10052572470E+02  0.42215851696E+02  0.47787266685E+02  0.19999980125E+02 0.  0.
         12    1    1    2    0    0  0.62554342205E+00 -0.10052572470E+02 -0.42215851696E+02  0.43400733315E+02  0.00000000000E+00 0. -1.
         11    1    3    3    0    0  0.33108978300E+01 -0.56358600060E+00  0.86483901789E+01  0.92776250500E+01  0.51100000000E-03 0. -1.
        -11    1    3    3    0    0 -0.46407475263E+01  0.17739572485E+01  0.14291672694E+01  0.51697177164E+01  0.51100000000E-03 0.  1.
         12    1    3    3    0    0  0.70430627430E+00  0.88422012224E+01  0.32138294247E+02  0.33339923919E+02  0.00000000000E+00 0. -1.
</event>
<event>
 7    1  0.2237500E-009  0.4778727E+02  0.7816164E-02  0.1312668E+00
        -11   -1    0    0    0    0  0.00000000000E+00  0.00000000000E+00  0.45593999997E+02  0.45594000000E+02  0.51100000000E-03 0.  1.
         11   -1    0    0    0    0 -0.00000000000E+00 -0.00000000000E+00 -0.45593999997E+02  0.45594000000E+02  0.51100000000E-03 0. -1.
    9900012    2    1    2    0    0 -0.61534652557E+01 -0.36521571298E+02  0.22625945101E+02  0.47787266176E+02  0.19999977803E+02 0.  0.
         12    1    1    2    0    0  0.61534652557E+01  0.36521571298E+02 -0.22625945101E+02  0.43400733824E+02  0.00000000000E+00 0. -1.
         11    1    3    3    0    0  0.76985505505E+00 -0.11718669085E+02  0.10756017145E+02  0.15925193469E+02  0.51100000000E-03 0. -1.
        -11    1    3    3    0    0 -0.73428557559E+01 -0.23655609020E+02  0.14683828322E+02  0.28794447090E+02  0.51100000000E-03 0.  1.
         12    1    3    3    0    0  0.41953544516E+00 -0.11472931935E+01 -0.28139003659E+01  0.30676256178E+01  0.00000000000E+00 0. -1.
</event>
<event>
 7    1  0.2237500E-009  0.4778728E+02  0.7816164E-02  0.1312668E+00
        -11   -1    0    0    0    0  0.00000000000E+00  0.00000000000E+00  0.45593999997E+02  0.45594000000E+02  0.51100000000E-03 0.  1.
         11   -1    0    0    0    0 -0.00000000000E+00 -0.00000000000E+00 -0.45593999997E+02  0.45594000000E+02  0.51100000000E-03 0. -1.
    9900012    2    1    2    0    0  0.37438554450E+02 -0.16016506627E+02  0.15014946841E+02  0.47787280277E+02  0.20000042095E+02 0.  0.
         12    1    1    2    0    0 -0.37438554450E+02  0.16016506627E+02 -0.15014946841E+02  0.43400719723E+02  0.00000000000E+00 0. -1.
         11    1    3    3    0    0  0.10606976082E+02 -0.10648435618E+02  0.50493689408E+01  0.15855385510E+02  0.51100000000E-03 0. -1.
        -11    1    3    3    0    0  0.12500408815E+02 -0.35602087169E+01 -0.20308052466E+01  0.13155207215E+02  0.51100000000E-03 0.  1.
         12    1    3    3    0    0  0.14331169553E+02 -0.18078622913E+01  0.11996383147E+02  0.18776687552E+02  0.00000000000E+00 0. -1.
</event>
<event>
 7    1  0.2237500E-009  0.4778727E+02  0.7816164E-02  0.1312668E+00
        -11   -1    0    0    0    0  0.00000000000E+00  0.00000000000E+00  0.45593999997E+02  0.45594000000E+02  0.51100000000E-03 0.  1.
         11   -1    0    0    0    0 -0.00000000000E+00 -0.00000000000E+00 -0.45593999997E+02  0.45594000000E+02  0.51100000000E-03 0. -1.
    9900012    2    1    2    0    0 -0.74658015383E+01  0.19469260575E+02  0.38063539942E+02  0.47787269904E+02  0.19999994800E+02 0.  0.
         12    1    1    2    0    0  0.74658015383E+01 -0.19469260575E+02 -0.38063539942E+02  0.43400730096E+02  0.00000000000E+00 0. -1.
         11    1    3    3    0    0 -0.48462996725E+01 -0.53503501057E+00  0.23382495800E+01  0.54074295500E+01  0.51100000000E-03 0. -1.
        -11    1    3    3    0    0 -0.36683546090E+01  0.19532242544E+01  0.10917999744E+02  0.11682235625E+02  0.51100000000E-03 0.  1.
        -12    1    3    3    0    0  0.10488527432E+01  0.18051071331E+02  0.24807290618E+02  0.30697604729E+02  0.00000000000E+00 0.  1.
</event>
<event>
 7    1  0.2237500E-009  0.4778727E+02  0.7816164E-02  0.1312668E+00
        -11   -1    0    0    0    0  0.00000000000E+00  0.00000000000E+00  0.45593999997E+02  0.45594000000E+02  0.51100000000E-03 0. -1.
         11   -1    0    0    0    0 -0.00000000000E+00 -0.00000000000E+00 -0.45593999997E+02  0.45594000000E+02  0.51100000000E-03 0.  1.
    9900012    2    1    2    0    0  0.96579934366E+01 -0.38954902868E+02 -0.16518548650E+02  0.47787265626E+02  0.19999975294E+02 0.  0.
         12    1    1    2    0    0 -0.96579934366E+01  0.38954902868E+02  0.16518548650E+02  0.43400734374E+02  0.00000000000E+00 0. -1.
         11    1    3    3    0    0  0.97072162403E+00 -0.10286615898E+02 -0.83949120121E+01  0.13312825210E+02  0.51100000000E-03 0. -1.
        -11    1    3    3    0    0 -0.20573751816E+01 -0.18770364468E+02 -0.50388540364E+01  0.19543526426E+02  0.51100000000E-03 0.  1.
         12    1    3    3    0    0  0.10744646994E+02 -0.98979225024E+01 -0.30847826015E+01  0.14930913991E+02  0.00000000000E+00 0. -1.
</event>
<event>
 7    1  0.2237500E-009  0.4778727E+02  0.7816164E-02  0.1312668E+00
        -11   -1    0    0    0    0  0.00000000000E+00  0.00000000000E+00  0.45593999997E+02  0.45594000000E+02  0.51100000000E-03 0. -1.
         11   -1    0    0    0    0 -0.00000000000E+00 -0.00000000000E+00 -0.45593999997E+02  0.45594000000E+02  0.51100000000E-03 0.  1.
    9900012    2    1    2    0    0 -0.29418805146E+02  0.31650147910E+02 -0.40528535296E+01  0.47787267510E+02  0.19999983886E+02 0.  0.
         12    1    1    2    0    0  0.29418805146E+02 -0.31650147910E+02  0.40528535296E+01  0.43400732490E+02  0.00000000000E+00 0. -1.
         11    1    3    3    0    0 -0.12369911768E+02  0.60241710119E+01  0.22190420401E+01  0.13936624461E+02  0.51100000000E-03 0. -1.
        -11    1    3    3    0    0 -0.17898256503E+01  0.67257235681E+01  0.33489968021E+01  0.77236398941E+01  0.51100000000E-03 0.  1.
        -12    1    3    3    0    0 -0.15259067728E+02  0.18900253330E+02 -0.96208923718E+01  0.26127003155E+02  0.00000000000E+00 0.  1.
</event>
<event>
 7    1  0.2237500E-009  0.4778727E+02  0.7816164E-02  0.1312668E+00
        -11   -1    0    0    0    0  0.00000000000E+00  0.00000000000E+00  0.45593999997E+02  0.45594000000E+02  0.51100000000E-03 0.  1.
         11   -1    0    0    0    0 -0.00000000000E+00 -0.00000000000E+00 -0.45593999997E+02  0.45594000000E+02  0.51100000000E-03 0. -1.
    9900012    2    1    2    0    0  0.57482975175E+01 -0.35437084690E+01  0.42872163920E+02  0.47787271512E+02  0.20000002132E+02 0.  0.
         12    1    1    2    0    0 -0.57482975175E+01  0.35437084690E+01 -0.42872163920E+02  0.43400728488E+02  0.00000000000E+00 0. -1.
         11    1    3    3    0    0  0.37150762236E+01 -0.80757952909E+00  0.24461386688E+01  0.45207931485E+01  0.51100000000E-03 0. -1.
        -11    1    3    3    0    0  0.10688779056E+01  0.48513361790E+01  0.50908463767E+01  0.71129937292E+01  0.51100000000E-03 0.  1.
        -12    1    3    3    0    0  0.96434338826E+00 -0.75874651189E+01  0.35335178875E+02  0.36153484635E+02  0.00000000000E+00 0.  1.
</event>
<event>
 7    1  0.2237500E-009  0.4778727E+02  0.7816164E-02  0.1312668E+00
        -11   -1    0    0    0    0  0.00000000000E+00  0.00000000000E+00  0.45593999997E+02  0.45594000000E+02  0.51100000000E-03 0.  1.
         11   -1    0    0    0    0 -0.00000000000E+00 -0.00000000000E+00 -0.45593999997E+02  0.45594000000E+02  0.51100000000E-03 0. -1.
    9900012    2    1    2    0    0  0.29189180493E+02 -0.12387576520E+02  0.29633813182E+02  0.47787271969E+02  0.20000004218E+02 0.  0.
         12    1    1    2    0    0 -0.29189180493E+02  0.12387576520E+02 -0.29633813182E+02  0.43400728031E+02  0.00000000000E+00 0. -1.
         11    1    3    3    0    0  0.41878423909E+01 -0.38494685553E+01  0.59004606865E+01  0.81958445949E+01  0.51100000000E-03 0. -1.
        -11    1    3    3    0    0  0.41821458204E+01 -0.37419827262E+01 -0.21677830370E+01  0.60159838715E+01  0.51100000000E-03 0.  1.
        -12    1    3    3    0    0  0.20819192282E+02 -0.47961252382E+01  0.25901135532E+02  0.33575443503E+02  0.00000000000E+00 0.  1.
</event>
<event>
 7    1  0.2237500E-009  0.4778726E+02  0.7816164E-02  0.1312668E+00
        -11   -1    0    0    0    0  0.00000000000E+00  0.00000000000E+00  0.45593999997E+02  0.45594000000E+02  0.51100000000E-03 0.  1.
         11   -1    0    0    0    0 -0.00000000000E+00 -0.00000000000E+00 -0.45593999997E+02  0.45594000000E+02  0.51100000000E-03 0. -1.
    9900012    2    1    2    0    0 -0.36733903552E+02 -0.20741901241E+02  0.10198910105E+02  0.47787263778E+02  0.19999966870E+02 0.  0.
         12    1    1    2    0    0  0.36733903552E+02  0.20741901241E+02 -0.10198910105E+02  0.43400736222E+02  0.00000000000E+00 0. -1.
         11    1    3    3    0    0 -0.64847909687E+01 -0.23019300961E+01  0.67875676076E+01  0.96655300095E+01  0.51100000000E-03 0. -1.
        -11    1    3    3    0    0 -0.11981315998E+02 -0.11478572465E+01  0.47320392829E+01  0.12932969703E+02  0.51100000000E-03 0.  1.
        -12    1    3    3    0    0 -0.18267796585E+02 -0.17292113899E+02 -0.13206967854E+01  0.25188764066E+02  0.00000000000E+00 0.  1.
</event>
<event>
 7    1  0.2237500E-009  0.4778727E+02  0.7816164E-02  0.1312668E+00
        -11   -1    0    0    0    0  0.00000000000E+00  0.00000000000E+00  0.45593999997E+02  0.45594000000E+02  0.51100000000E-03 0. -1.
         11   -1    0    0    0    0 -0.00000000000E+00 -0.00000000000E+00 -0.45593999997E+02  0.45594000000E+02  0.51100000000E-03 0.  1.
    9900012    2    1    2    0    0  0.23972431405E+02  0.35822870816E+02  0.50663429803E+01  0.47787269912E+02  0.19999994838E+02 0.  0.
         12    1    1    2    0    0 -0.23972431405E+02 -0.35822870816E+02 -0.50663429803E+01  0.43400730088E+02  0.00000000000E+00 0. -1.
         11    1    3    3    0    0  0.10713338972E+02  0.77984538083E+01 -0.11930735716E+01  0.13304696108E+02  0.51100000000E-03 0. -1.
        -11    1    3    3    0    0  0.11225503165E+02  0.14978011965E+02  0.93480327530E+01  0.20922200658E+02  0.51100000000E-03 0.  1.
         12    1    3    3    0    0  0.20335892682E+01  0.13046405042E+02 -0.30886162011E+01  0.13560373147E+02  0.00000000000E+00 0. -1.
</event>
<event>
 7    1  0.2237500E-009  0.4778727E+02  0.7816164E-02  0.1312668E+00
        -11   -1    0    0    0    0  0.00000000000E+00  0.00000000000E+00  0.45593999997E+02  0.45594000000E+02  0.51100000000E-03 0. -1.
         11   -1    0    0    0    0 -0.00000000000E+00 -0.00000000000E+00 -0.45593999997E+02  0.45594000000E+02  0.51100000000E-03 0.  1.
    9900012    2    1    2    0    0 -0.34552810697E+02  0.25477759966E+02 -0.63726031346E+01  0.47787273616E+02  0.20000011727E+02 0.  0.
         12    1    1    2    0    0  0.34552810697E+02 -0.25477759966E+02  0.63726031346E+01  0.43400726384E+02  0.00000000000E+00 0. -1.
         11    1    3    3    0    0 -0.12016730016E+02  0.41686296716E+01 -0.49378104093E+01  0.13644091963E+02  0.51100000000E-03 0. -1.
        -11    1    3    3    0    0 -0.63680151266E+01  0.91292123503E+01 -0.70009163724E+01  0.13149409306E+02  0.51100000000E-03 0.  1.
        -12    1    3    3    0    0 -0.16168065554E+02  0.12179917944E+02  0.55661236471E+01  0.20993772347E+02  0.00000000000E+00 0.  1.
</event>
<event>
 7    1  0.2237500E-009  0.4778726E+02  0.7816164E-02  0.1312668E+00
        -11   -1    0    0    0    0  0.00000000000E+00  0.00000000000E+00  0.45593999997E+02  0.45594000000E+02  0.51100000000E-03 0.  1.
         11   -1    0    0    0    0 -0.00000000000E+00 -0.00000000000E+00 -0.45593999997E+02  0.45594000000E+02  0.51100000000E-03 0. -1.
    9900012    2    1    2    0    0 -0.12992781763E+02 -0.14772574031E+02  0.38685688793E+02  0.47787264536E+02  0.19999970326E+02 0.  0.
         12    1    1    2    0    0  0.12992781763E+02  0.14772574031E+02 -0.38685688793E+02  0.43400735464E+02  0.00000000000E+00 0. -1.
         11    1    3    3    0    0 -0.23239175280E+01 -0.68455135154E+01  0.28740401192E+02  0.29635659414E+02  0.51100000000E-03 0. -1.
        -11    1    3    3    0    0 -0.57745571026E+01 -0.45513145309E+01  0.97385527822E+01  0.12202433538E+02  0.51100000000E-03 0.  1.
         12    1    3    3    0    0 -0.48943071320E+01 -0.33757459846E+01  0.20673481866E+00  0.59491715843E+01  0.00000000000E+00 0. -1.
</event>
<event>
 7    1  0.2237500E-009  0.4778726E+02  0.7816164E-02  0.1312668E+00
        -11   -1    0    0    0    0  0.00000000000E+00  0.00000000000E+00  0.45593999997E+02  0.45594000000E+02  0.51100000000E-03 0. -1.
         11   -1    0    0    0    0 -0.00000000000E+00 -0.00000000000E+00 -0.45593999997E+02  0.45594000000E+02  0.51100000000E-03 0.  1.
    9900012    2    1    2    0    0 -0.19409206757E+02 -0.65672221009E+01 -0.38259362562E+02  0.47787256496E+02  0.19999933668E+02 0.  0.
         12    1    1    2    0    0  0.19409206757E+02  0.65672221009E+01  0.38259362562E+02  0.43400743504E+02  0.00000000000E+00 0. -1.
         11    1    3    3    0    0  0.17071919716E+01 -0.32261739677E+01 -0.99538427019E+01  0.10601966218E+02  0.51100000000E-03 0. -1.
        -11    1    3    3    0    0 -0.10270506490E+02 -0.49345972672E+01 -0.74193952672E+01  0.13597094548E+02  0.51100000000E-03 0.  1.
        -12    1    3    3    0    0 -0.10845892239E+02  0.15935491341E+01 -0.20886124593E+02  0.23588195730E+02  0.00000000000E+00 0.  1.
</event>
<event>
 7    1  0.2237500E-009  0.4778727E+02  0.7816164E-02  0.1312668E+00
        -11   -1    0    0    0    0  0.00000000000E+00  0.00000000000E+00  0.45593999997E+02  0.45594000000E+02  0.51100000000E-03 0.  1.
         11   -1    0    0    0    0 -0.00000000000E+00 -0.00000000000E+00 -0.45593999997E+02  0.45594000000E+02  0.51100000000E-03 0. -1.
    9900012    2    1    2    0    0 -0.23313743284E+02 -0.36241548330E+02  0.51616642851E+01  0.47787271556E+02  0.20000002332E+02 0.  0.
         12    1    1    2    0    0  0.23313743284E+02  0.36241548330E+02 -0.51616642851E+01  0.43400728444E+02  0.00000000000E+00 0. -1.
         11    1    3    3    0    0 -0.23305111660E+01 -0.13929880188E+01 -0.29897846042E+00  0.27314989102E+01  0.51100000000E-03 0. -1.
        -11    1    3    3    0    0 -0.14823563764E+02 -0.17973121164E+02  0.11659142334E+02  0.26052000447E+02  0.51100000000E-03 0.  1.
         12    1    3    3    0    0 -0.61596683538E+01 -0.16875439147E+02 -0.61984995887E+01  0.19003772199E+02  0.00000000000E+00 0. -1.
</event>
<event>
 7    1  0.2237500E-009  0.4778727E+02  0.7816164E-02  0.1312668E+00
        -11   -1    0    0    0    0  0.00000000000E+00  0.00000000000E+00  0.45593999997E+02  0.45594000000E+02  0.51100000000E-03 0.  1.
         11   -1    0    0    0    0 -0.00000000000E+00 -0.00000000000E+00 -0.45593999997E+02  0.45594000000E+02  0.51100000000E-03 0. -1.
    9900012    2    1    2    0    0 -0.29736627031E+02  0.82713032230E+01  0.30511334953E+02  0.47787274144E+02  0.20000014133E+02 0.  0.
         12    1    1    2    0    0  0.29736627031E+02 -0.82713032230E+01 -0.30511334953E+02  0.43400725856E+02  0.00000000000E+00 0. -1.
         11    1    3    3    0    0 -0.10109234783E+02 -0.18261680574E+01  0.17346448659E+02  0.20160128943E+02  0.51100000000E-03 0. -1.
        -11    1    3    3    0    0 -0.41885172941E+01 -0.11392487414E+01 -0.15811362771E+00  0.43435659311E+01  0.51100000000E-03 0.  1.
        -12    1    3    3    0    0 -0.15438874954E+02  0.11236720022E+02  0.13322999922E+02  0.23283579270E+02  0.00000000000E+00 0.  1.
</event>
<event>
 7    1  0.2237500E-009  0.4778727E+02  0.7816164E-02  0.1312668E+00
        -11   -1    0    0    0    0  0.00000000000E+00  0.00000000000E+00  0.45593999997E+02  0.45594000000E+02  0.51100000000E-03 0.  1.
         11   -1    0    0    0    0 -0.00000000000E+00 -0.00000000000E+00 -0.45593999997E+02  0.45594000000E+02  0.51100000000E-03 0. -1.
    9900012    2    1    2    0    0 -0.22497406433E+02 -0.20509261734E+02  0.30933164004E+02  0.47787265577E+02  0.19999975073E+02 0.  0.
         12    1    1    2    0    0  0.22497406433E+02  0.20509261734E+02 -0.30933164004E+02  0.43400734423E+02  0.00000000000E+00 0. -1.
         11    1    3    3    0    0 -0.22498443895E+01 -0.32558200579E+01  0.32791688378E+00  0.39711073733E+01  0.51100000000E-03 0. -1.
        -11    1    3    3    0    0 -0.26367238581E+01 -0.11715105936E+02  0.17303613464E+02  0.21062076322E+02  0.51100000000E-03 0.  1.
         12    1    3    3    0    0 -0.17610838186E+02 -0.55383357401E+01  0.13301633656E+02  0.22754081882E+02  0.00000000000E+00 0. -1.
</event>
<event>
 7    1  0.2237500E-009  0.4778728E+02  0.7816164E-02  0.1312668E+00
        -11   -1    0    0    0    0  0.00000000000E+00  0.00000000000E+00  0.45593999997E+02  0.45594000000E+02  0.51100000000E-03 0.  1.
         11   -1    0    0    0    0 -0.00000000000E+00 -0.00000000000E+00 -0.45593999997E+02  0.45594000000E+02  0.51100000000E-03 0. -1.
    9900012    2    1    2    0    0  0.37410721565E+02 -0.20147438678E+02  0.88397657519E+01  0.47787276137E+02  0.20000023218E+02 0.  0.
         12    1    1    2    0    0 -0.37410721565E+02  0.20147438678E+02 -0.88397657519E+01  0.43400723863E+02  0.00000000000E+00 0. -1.
         11    1    3    3    0    0  0.24108584770E+02 -0.19904386370E+02  0.67174429056E+01  0.31977062026E+02  0.51100000000E-03 0. -1.
        -11    1    3    3    0    0  0.10297354595E+02 -0.36997388266E+01  0.24692456888E+01  0.11216985049E+02  0.51100000000E-03 0.  1.
        -12    1    3    3    0    0  0.30047821996E+01  0.34566865187E+01 -0.34692284249E+00  0.45932290618E+01  0.00000000000E+00 0.  1.
</event>
<event>
 7    1  0.2237500E-009  0.4778727E+02  0.7816164E-02  0.1312668E+00
        -11   -1    0    0    0    0  0.00000000000E+00  0.00000000000E+00  0.45593999997E+02  0.45594000000E+02  0.51100000000E-03 0.  1.
         11   -1    0    0    0    0 -0.00000000000E+00 -0.00000000000E+00 -0.45593999997E+02  0.45594000000E+02  0.51100000000E-03 0. -1.
    9900012    2    1    2    0    0  0.62089800821E+01 -0.27287907028E+02  0.33172906803E+02  0.47787273630E+02  0.20000011790E+02 0.  0.
         12    1    1    2    0    0 -0.62089800821E+01  0.27287907028E+02 -0.33172906803E+02  0.43400726370E+02  0.00000000000E+00 0. -1.
         11    1    3    3    0    0  0.62984451113E+01 -0.83947113252E+01  0.14716081071E+02  0.18074972515E+02  0.51100000000E-03 0. -1.
        -11    1    3    3    0    0  0.23527325033E+01 -0.18250483663E+02  0.19648532837E+02  0.26919887576E+02  0.51100000000E-03 0.  1.
        -12    1    3    3    0    0 -0.24421975325E+01 -0.64271203955E+00 -0.11917071049E+01  0.27924135399E+01  0.00000000000E+00 0.  1.
</event>
<event>
 7    1  0.2237500E-009  0.4778727E+02  0.7816164E-02  0.1312668E+00
        -11   -1    0    0    0    0  0.00000000000E+00  0.00000000000E+00  0.45593999997E+02  0.45594000000E+02  0.51100000000E-03 0.  1.
         11   -1    0    0    0    0 -0.00000000000E+00 -0.00000000000E+00 -0.45593999997E+02  0.45594000000E+02  0.51100000000E-03 0. -1.
    9900012    2    1    2    0    0  0.15984668910E+02  0.14618774418E+02  0.37608575112E+02  0.47787272730E+02  0.20000007685E+02 0.  0.
         12    1    1    2    0    0 -0.15984668910E+02 -0.14618774418E+02 -0.37608575112E+02  0.43400727270E+02  0.00000000000E+00 0. -1.
         11    1    3    3    0    0 -0.40986998868E+00  0.41045282585E+01  0.45992911953E+01  0.61780761887E+01  0.51100000000E-03 0. -1.
        -11    1    3    3    0    0  0.13054713913E+02  0.12012303401E+02  0.33508488613E+02  0.37914902054E+02  0.51100000000E-03 0.  1.
         12    1    3    3    0    0  0.33398249853E+01 -0.14980572412E+01 -0.49920469698E+00  0.36942944875E+01  0.00000000000E+00 0. -1.
</event>
<event>
 7    1  0.2237500E-009  0.4778727E+02  0.7816164E-02  0.1312668E+00
        -11   -1    0    0    0    0  0.00000000000E+00  0.00000000000E+00  0.45593999997E+02  0.45594000000E+02  0.51100000000E-03 0.  1.
         11   -1    0    0    0    0 -0.00000000000E+00 -0.00000000000E+00 -0.45593999997E+02  0.45594000000E+02  0.51100000000E-03 0. -1.
    9900012    2    1    2    0    0 -0.17551287775E+02 -0.36986044948E+02  0.14408611750E+02  0.47787270559E+02  0.19999997788E+02 0.  0.
         12    1    1    2    0    0  0.17551287775E+02  0.36986044948E+02 -0.14408611750E+02  0.43400729441E+02  0.00000000000E+00 0. -1.
         11    1    3    3    0    0  0.10229341583E+01 -0.13570554505E+02  0.22176429560E+01  0.13788556284E+02  0.51100000000E-03 0. -1.
        -11    1    3    3    0    0  0.36674390917E+00 -0.43403526878E+00 -0.12135875792E+01  0.13400308888E+01  0.51100000000E-03 0.  1.
        -12    1    3    3    0    0 -0.18940965842E+02 -0.22981455174E+02  0.13404556373E+02  0.32658683386E+02  0.00000000000E+00 0.  1.
</event>
<event>
 7    1  0.2237500E-009  0.4778727E+02  0.7816164E-02  0.1312668E+00
        -11   -1    0    0    0    0  0.00000000000E+00  0.00000000000E+00  0.45593999997E+02  0.45594000000E+02  0.51100000000E-03 0.  1.
         11   -1    0    0    0    0 -0.00000000000E+00 -0.00000000000E+00 -0.45593999997E+02  0.45594000000E+02  0.51100000000E-03 0. -1.
    9900012    2    1    2    0    0 -0.65403013824E+01 -0.26988031765E+02  0.33354064724E+02  0.47787273804E+02  0.20000012583E+02 0.  0.
         12    1    1    2    0    0  0.65403013824E+01  0.26988031765E+02 -0.33354064724E+02  0.43400726196E+02  0.00000000000E+00 0. -1.
         11    1    3    3    0    0  0.32280958574E+01 -0.88604686887E+00  0.20743637100E+01  0.39381044908E+01  0.51100000000E-03 0. -1.
        -11    1    3    3    0    0 -0.97103311548E+00 -0.18577632128E+02  0.23174634841E+02  0.29717587739E+02  0.51100000000E-03 0.  1.
        -12    1    3    3    0    0 -0.87973641243E+01 -0.75243527682E+01  0.81050661734E+01  0.14131581574E+02  0.00000000000E+00 0.  1.
</event>
<event>
 7    1  0.2237500E-009  0.4778727E+02  0.7816164E-02  0.1312668E+00
        -11   -1    0    0    0    0  0.00000000000E+00  0.00000000000E+00  0.45593999997E+02  0.45594000000E+02  0.51100000000E-03 0.  1.
         11   -1    0    0    0    0 -0.00000000000E+00 -0.00000000000E+00 -0.45593999997E+02  0.45594000000E+02  0.51100000000E-03 0. -1.
    9900012    2    1    2    0    0 -0.11661020921E+02  0.27812087278E+02  0.31211084460E+02  0.47787269581E+02  0.19999993329E+02 0.  0.
         12    1    1    2    0    0  0.11661020921E+02 -0.27812087278E+02 -0.31211084460E+02  0.43400730419E+02  0.00000000000E+00 0. -1.
         11    1    3    3    0    0 -0.45150413049E+01  0.37693877135E+01  0.32488956906E+01  0.67193158275E+01  0.51100000000E-03 0. -1.
        -11    1    3    3    0    0  0.49344862412E+01  0.50655721356E+01  0.36993268845E+01  0.79808643132E+01  0.51100000000E-03 0.  1.
        -12    1    3    3    0    0 -0.12080465858E+02  0.18977127429E+02  0.24262861885E+02  0.33087089441E+02  0.00000000000E+00 0.  1.
</event>
<event>
 7    1  0.2237500E-009  0.4778727E+02  0.7816164E-02  0.1312668E+00
        -11   -1    0    0    0    0  0.00000000000E+00  0.00000000000E+00  0.45593999997E+02  0.45594000000E+02  0.51100000000E-03 0.  1.
         11   -1    0    0    0    0 -0.00000000000E+00 -0.00000000000E+00 -0.45593999997E+02  0.45594000000E+02  0.51100000000E-03 0. -1.
    9900012    2    1    2    0    0 -0.37522594499E+02 -0.14228512535E+02  0.16529594247E+02  0.47787272439E+02  0.20000006359E+02 0.  0.
         12    1    1    2    0    0  0.37522594499E+02  0.14228512535E+02 -0.16529594247E+02  0.43400727561E+02  0.00000000000E+00 0. -1.
         11    1    3    3    0    0 -0.76721679496E+01  0.60305294842E+00 -0.11458862527E+01  0.77806741013E+01  0.51100000000E-03 0. -1.
        -11    1    3    3    0    0 -0.66544270279E+01 -0.59789433712E+01 -0.91132959761E+00  0.89922013324E+01  0.51100000000E-03 0.  1.
        -12    1    3    3    0    0 -0.23195999521E+02 -0.88526221117E+01  0.18586810097E+02  0.31014397005E+02  0.00000000000E+00 0.  1.
</event>
<event>
 7    1  0.2237500E-009  0.4778727E+02  0.7816164E-02  0.1312668E+00
        -11   -1    0    0    0    0  0.00000000000E+00  0.00000000000E+00  0.45593999997E+02  0.45594000000E+02  0.51100000000E-03 0.  1.
         11   -1    0    0    0    0 -0.00000000000E+00 -0.00000000000E+00 -0.45593999997E+02  0.45594000000E+02  0.51100000000E-03 0. -1.
    9900012    2    1    2    0    0  0.16073891293E+02 -0.32284858633E+01  0.40184948754E+02  0.47787271796E+02  0.20000003425E+02 0.  0.
         12    1    1    2    0    0 -0.16073891293E+02  0.32284858633E+01 -0.40184948754E+02  0.43400728204E+02  0.00000000000E+00 0. -1.
         11    1    3    3    0    0  0.40300417654E+01 -0.67664440715E+01  0.21724396817E+02  0.23107908155E+02  0.51100000000E-03 0. -1.
        -11    1    3    3    0    0  0.94445192582E+01 -0.37551623795E+00  0.17492141640E+02  0.19882529414E+02  0.51100000000E-03 0.  1.
        -12    1    3    3    0    0  0.25993302698E+01  0.39134744461E+01  0.96841029719E+00  0.47968342264E+01  0.00000000000E+00 0.  1.
</event>
<event>
 7    1  0.2237500E-009  0.4778727E+02  0.7816164E-02  0.1312668E+00
        -11   -1    0    0    0    0  0.00000000000E+00  0.00000000000E+00  0.45593999997E+02  0.45594000000E+02  0.51100000000E-03 0. -1.
         11   -1    0    0    0    0 -0.00000000000E+00 -0.00000000000E+00 -0.45593999997E+02  0.45594000000E+02  0.51100000000E-03 0.  1.
    9900012    2    1    2    0    0  0.80292550549E+01 -0.31154115897E+02 -0.29130322468E+02  0.47787267734E+02  0.19999984908E+02 0.  0.
         12    1    1    2    0    0 -0.80292550549E+01  0.31154115897E+02  0.29130322468E+02  0.43400732266E+02  0.00000000000E+00 0. -1.
         11    1    3    3    0    0  0.35535089742E+01 -0.38405176001E+01 -0.46546116260E+00  0.52529663830E+01  0.51100000000E-03 0. -1.
        -11    1    3    3    0    0  0.96022542698E+01 -0.22039974322E+02 -0.22706950287E+02  0.33069160055E+02  0.51100000000E-03 0.  1.
        -12    1    3    3    0    0 -0.51265081891E+01 -0.52736239757E+01 -0.59579110185E+01  0.94651412961E+01  0.00000000000E+00 0.  1.
</event>
<event>
 7    1  0.2237500E-009  0.4778727E+02  0.7816164E-02  0.1312668E+00
        -11   -1    0    0    0    0  0.00000000000E+00  0.00000000000E+00  0.45593999997E+02  0.45594000000E+02  0.51100000000E-03 0.  1.
         11   -1    0    0    0    0 -0.00000000000E+00 -0.00000000000E+00 -0.45593999997E+02  0.45594000000E+02  0.51100000000E-03 0. -1.
    9900012    2    1    2    0    0 -0.35015105182E+02 -0.19635451321E+02  0.16492870661E+02  0.47787270488E+02  0.19999997464E+02 0.  0.
         12    1    1    2    0    0  0.35015105182E+02  0.19635451321E+02 -0.16492870661E+02  0.43400729512E+02  0.00000000000E+00 0. -1.
         11    1    3    3    0    0 -0.15740719938E+02 -0.84972118321E+00  0.34200292223E+00  0.15767347796E+02  0.51100000000E-03 0. -1.
        -11    1    3    3    0    0 -0.90736500928E+00  0.13061215150E+00  0.17542055539E+01  0.19792948696E+01  0.51100000000E-03 0.  1.
        -12    1    3    3    0    0 -0.18367020235E+02 -0.18916342289E+02  0.14396662185E+02  0.30040627823E+02  0.00000000000E+00 0.  1.
</event>
<event>
 7    1  0.2237500E-009  0.4778726E+02  0.7816164E-02  0.1312668E+00
        -11   -1    0    0    0    0  0.00000000000E+00  0.00000000000E+00  0.45593999997E+02  0.45594000000E+02  0.51100000000E-03 0. -1.
         11   -1    0    0    0    0 -0.00000000000E+00 -0.00000000000E+00 -0.45593999997E+02  0.45594000000E+02  0.51100000000E-03 0.  1.
    9900012    2    1    2    0    0  0.42981885618E+02  0.28205664326E+01  0.53128165641E+01  0.47787261457E+02  0.19999956285E+02 0.  0.
         12    1    1    2    0    0 -0.42981885618E+02 -0.28205664326E+01 -0.53128165641E+01  0.43400738543E+02  0.00000000000E+00 0. -1.
         11    1    3    3    0    0  0.22597714930E+02 -0.26702728586E+01  0.32928973113E+01  0.22991960555E+02  0.51100000000E-03 0. -1.
        -11    1    3    3    0    0  0.21132159237E+02  0.34177374647E+01 -0.54485762724E+00  0.21413686126E+02  0.51100000000E-03 0.  1.
        -12    1    3    3    0    0 -0.74798854852E+00  0.20731018264E+01  0.25647768800E+01  0.33816147764E+01  0.00000000000E+00 0.  1.
</event>
<event>
 7    1  0.2237500E-009  0.4778727E+02  0.7816164E-02  0.1312668E+00
        -11   -1    0    0    0    0  0.00000000000E+00  0.00000000000E+00  0.45593999997E+02  0.45594000000E+02  0.51100000000E-03 0. -1.
         11   -1    0    0    0    0 -0.00000000000E+00 -0.00000000000E+00 -0.45593999997E+02  0.45594000000E+02  0.51100000000E-03 0.  1.
    9900012    2    1    2    0    0  0.85418712334E+01  0.23899903008E+02 -0.35205880406E+02  0.47787274855E+02  0.20000017373E+02 0.  0.
         12    1    1    2    0    0 -0.85418712334E+01 -0.23899903008E+02  0.35205880406E+02  0.43400725145E+02  0.00000000000E+00 0. -1.
         11    1    3    3    0    0  0.14245883815E+01  0.11440193622E+02 -0.26949066976E+02  0.29311425986E+02  0.51100000000E-03 0. -1.
        -11    1    3    3    0    0  0.69441716377E+00  0.62635893522E+01 -0.70730556368E+01  0.94732720362E+01  0.51100000000E-03 0.  1.
        -12    1    3    3    0    0  0.64228656881E+01  0.61961200335E+01 -0.11837577931E+01  0.90025768327E+01  0.00000000000E+00 0.  1.
</event>
<event>
 7    1  0.2237500E-009  0.4778727E+02  0.7816164E-02  0.1312668E+00
        -11   -1    0    0    0    0  0.00000000000E+00  0.00000000000E+00  0.45593999997E+02  0.45594000000E+02  0.51100000000E-03 0.  1.
         11   -1    0    0    0    0 -0.00000000000E+00 -0.00000000000E+00 -0.45593999997E+02  0.45594000000E+02  0.51100000000E-03 0. -1.
    9900012    2    1    2    0    0  0.14360578872E+02 -0.20670239386E+02  0.35357291538E+02  0.47787273201E+02  0.20000009831E+02 0.  0.
         12    1    1    2    0    0 -0.14360578872E+02  0.20670239386E+02 -0.35357291538E+02  0.43400726799E+02  0.00000000000E+00 0. -1.
         11    1    3    3    0    0  0.82352264919E+01 -0.39183430071E+01  0.51138219911E+01  0.10455789923E+02  0.51100000000E-03 0. -1.
        -11    1    3    3    0    0  0.49263646019E+01 -0.12157085731E+02  0.98805983956E+01  0.16422241825E+02  0.51100000000E-03 0.  1.
        -12    1    3    3    0    0  0.11989877786E+01 -0.45948106479E+01  0.20362871151E+02  0.20909241452E+02  0.00000000000E+00 0.  1.
</event>
<event>
 7    1  0.2237500E-009  0.4778727E+02  0.7816164E-02  0.1312668E+00
        -11   -1    0    0    0    0  0.00000000000E+00  0.00000000000E+00  0.45593999997E+02  0.45594000000E+02  0.51100000000E-03 0.  1.
         11   -1    0    0    0    0 -0.00000000000E+00 -0.00000000000E+00 -0.45593999997E+02  0.45594000000E+02  0.51100000000E-03 0. -1.
    9900012    2    1    2    0    0 -0.20230160820E+02  0.32153656610E+02  0.20988251687E+02  0.47787265570E+02  0.19999975038E+02 0.  0.
         12    1    1    2    0    0  0.20230160820E+02 -0.32153656610E+02 -0.20988251687E+02  0.43400734430E+02  0.00000000000E+00 0. -1.
         11    1    3    3    0    0  0.17633943448E+01  0.86774394619E+01 -0.19081213162E+00  0.88568574992E+01  0.51100000000E-03 0. -1.
        -11    1    3    3    0    0 -0.32345628859E+01  0.13506298582E+01  0.35346648188E+01  0.49779969585E+01  0.51100000000E-03 0.  1.
         12    1    3    3    0    0 -0.18758992279E+02  0.22125587290E+02  0.17644399000E+02  0.33952411112E+02  0.00000000000E+00 0. -1.
</event>
<event>
 7    1  0.2237500E-009  0.4778727E+02  0.7816164E-02  0.1312668E+00
        -11   -1    0    0    0    0  0.00000000000E+00  0.00000000000E+00  0.45593999997E+02  0.45594000000E+02  0.51100000000E-03 0.  1.
         11   -1    0    0    0    0 -0.00000000000E+00 -0.00000000000E+00 -0.45593999997E+02  0.45594000000E+02  0.51100000000E-03 0. -1.
    9900012    2    1    2    0    0 -0.11479356821E+01  0.21934718155E+01  0.43330059106E+02  0.47787273082E+02  0.20000009288E+02 0.  0.
         12    1    1    2    0    0  0.11479356821E+01 -0.21934718155E+01 -0.43330059106E+02  0.43400726918E+02  0.00000000000E+00 0. -1.
         11    1    3    3    0    0  0.41100664828E+01  0.22536852803E+01  0.23124162494E+01  0.52267593217E+01  0.51100000000E-03 0. -1.
        -11    1    3    3    0    0  0.29005989737E+01 -0.15074961445E+00  0.15513456106E+02  0.15783013668E+02  0.51100000000E-03 0.  1.
         12    1    3    3    0    0 -0.81586011386E+01  0.90536149694E-01  0.25504186751E+02  0.26777500092E+02  0.00000000000E+00 0. -1.
</event>
<event>
 7    1  0.2237500E-009  0.4778727E+02  0.7816164E-02  0.1312668E+00
        -11   -1    0    0    0    0  0.00000000000E+00  0.00000000000E+00  0.45593999997E+02  0.45594000000E+02  0.51100000000E-03 0.  1.
         11   -1    0    0    0    0 -0.00000000000E+00 -0.00000000000E+00 -0.45593999997E+02  0.45594000000E+02  0.51100000000E-03 0. -1.
    9900012    2    1    2    0    0  0.26975421753E+02  0.17784380473E+02  0.28976985675E+02  0.47787271131E+02  0.20000000396E+02 0.  0.
         12    1    1    2    0    0 -0.26975421753E+02 -0.17784380473E+02 -0.28976985675E+02  0.43400728869E+02  0.00000000000E+00 0. -1.
         11    1    3    3    0    0  0.48064270566E+00  0.60093796992E+01  0.59841227809E+01  0.84943150105E+01  0.51100000000E-03 0. -1.
        -11    1    3    3    0    0  0.20006864698E+02  0.13068159501E+02  0.22222593542E+02  0.32632730376E+02  0.51100000000E-03 0.  1.
         12    1    3    3    0    0  0.64879143492E+01 -0.12931587274E+01  0.77026935147E+00  0.66602257447E+01  0.00000000000E+00 0. -1.
</event>
<event>
 7    1  0.2237500E-009  0.4778727E+02  0.7816164E-02  0.1312668E+00
        -11   -1    0    0    0    0  0.00000000000E+00  0.00000000000E+00  0.45593999997E+02  0.45594000000E+02  0.51100000000E-03 0.  1.
         11   -1    0    0    0    0 -0.00000000000E+00 -0.00000000000E+00 -0.45593999997E+02  0.45594000000E+02  0.51100000000E-03 0. -1.
    9900012    2    1    2    0    0 -0.25676208529E+02 -0.44020020334E+01  0.34712791563E+02  0.47787271845E+02  0.20000003650E+02 0.  0.
         12    1    1    2    0    0  0.25676208529E+02  0.44020020334E+01 -0.34712791563E+02  0.43400728155E+02  0.00000000000E+00 0. -1.
         11    1    3    3    0    0 -0.30068318772E+01  0.14653608501E+01  0.58506608272E+01  0.67393288045E+01  0.51100000000E-03 0. -1.
        -11    1    3    3    0    0 -0.54773437842E+01 -0.42479664903E+01 -0.53721143070E+00  0.69523456916E+01  0.51100000000E-03 0.  1.
        -12    1    3    3    0    0 -0.17192032867E+02 -0.16193963933E+01  0.29399342166E+02  0.34095597349E+02  0.00000000000E+00 0.  1.
</event>
<event>
 7    1  0.2237500E-009  0.4778727E+02  0.7816164E-02  0.1312668E+00
        -11   -1    0    0    0    0  0.00000000000E+00  0.00000000000E+00  0.45593999997E+02  0.45594000000E+02  0.51100000000E-03 0.  1.
         11   -1    0    0    0    0 -0.00000000000E+00 -0.00000000000E+00 -0.45593999997E+02  0.45594000000E+02  0.51100000000E-03 0. -1.
    9900012    2    1    2    0    0 -0.26486901687E+02  0.12052843148E+02  0.32199319024E+02  0.47787272649E+02  0.20000007317E+02 0.  0.
         12    1    1    2    0    0  0.26486901687E+02 -0.12052843148E+02 -0.32199319024E+02  0.43400727351E+02  0.00000000000E+00 0. -1.
         11    1    3    3    0    0 -0.14308343848E+02  0.12669054955E+02  0.17240729964E+02  0.25738617428E+02  0.51100000000E-03 0. -1.
        -11    1    3    3    0    0 -0.12274507914E+02  0.10854517635E+01  0.15888689481E+02  0.20107018768E+02  0.51100000000E-03 0.  1.
         12    1    3    3    0    0  0.95950074862E-01 -0.17016635699E+01 -0.93010042159E+00  0.19416364531E+01  0.00000000000E+00 0. -1.
</event>
<event>
 7    1  0.2237500E-009  0.4778727E+02  0.7816164E-02  0.1312668E+00
        -11   -1    0    0    0    0  0.00000000000E+00  0.00000000000E+00  0.45593999997E+02  0.45594000000E+02  0.51100000000E-03 0.  1.
         11   -1    0    0    0    0 -0.00000000000E+00 -0.00000000000E+00 -0.45593999997E+02  0.45594000000E+02  0.51100000000E-03 0. -1.
    9900012    2    1    2    0    0 -0.25717592422E+02 -0.10521512648E+02  0.33339561945E+02  0.47787272137E+02  0.20000004980E+02 0.  0.
         12    1    1    2    0    0  0.25717592422E+02  0.10521512648E+02 -0.33339561945E+02  0.43400727863E+02  0.00000000000E+00 0. -1.
         11    1    3    3    0    0 -0.11632378463E+02 -0.81541155973E+01  0.21655289700E+02  0.25898907354E+02  0.51100000000E-03 0. -1.
        -11    1    3    3    0    0 -0.12501398651E+02 -0.52056443468E+01  0.12615139446E+02  0.18507442957E+02  0.51100000000E-03 0.  1.
         12    1    3    3    0    0 -0.15838153088E+01  0.28382472966E+01 -0.93086720090E+00  0.33809218262E+01  0.00000000000E+00 0. -1.
</event>
<event>
 7    1  0.2237500E-009  0.4778727E+02  0.7816164E-02  0.1312668E+00
        -11   -1    0    0    0    0  0.00000000000E+00  0.00000000000E+00  0.45593999997E+02  0.45594000000E+02  0.51100000000E-03 0.  1.
         11   -1    0    0    0    0 -0.00000000000E+00 -0.00000000000E+00 -0.45593999997E+02  0.45594000000E+02  0.51100000000E-03 0. -1.
    9900012    2    1    2    0    0 -0.55368999723E+01 -0.42966438494E+02  0.26174770934E+01  0.47787270922E+02  0.19999999444E+02 0.  0.
         12    1    1    2    0    0  0.55368999723E+01  0.42966438494E+02 -0.26174770934E+01  0.43400729078E+02  0.00000000000E+00 0. -1.
         11    1    3    3    0    0  0.89435767156E+00 -0.64083141840E+01 -0.42201763179E+01  0.77250407599E+01  0.51100000000E-03 0. -1.
        -11    1    3    3    0    0  0.33997032232E+01 -0.80832561853E+01  0.44766359662E+01  0.98456732831E+01  0.51100000000E-03 0.  1.
        -12    1    3    3    0    0 -0.98309608671E+01 -0.28474868124E+02  0.23610174451E+01  0.30216556879E+02  0.00000000000E+00 0.  1.
</event>
<event>
 7    1  0.2237500E-009  0.4778727E+02  0.7816164E-02  0.1312668E+00
        -11   -1    0    0    0    0  0.00000000000E+00  0.00000000000E+00  0.45593999997E+02  0.45594000000E+02  0.51100000000E-03 0. -1.
         11   -1    0    0    0    0 -0.00000000000E+00 -0.00000000000E+00 -0.45593999997E+02  0.45594000000E+02  0.51100000000E-03 0.  1.
    9900012    2    1    2    0    0 -0.53159497478E+01 -0.40261807966E+02 -0.15308521363E+02  0.47787270413E+02  0.19999997121E+02 0.  0.
         12    1    1    2    0    0  0.53159497478E+01  0.40261807966E+02  0.15308521363E+02  0.43400729587E+02  0.00000000000E+00 0. -1.
         11    1    3    3    0    0  0.26219636374E+00  0.63732959341E-01  0.17411791169E+00  0.32113257629E+00  0.51100000000E-03 0. -1.
        -11    1    3    3    0    0 -0.83262860375E+01 -0.16146620117E+02 -0.14269962035E+02  0.23101346219E+02  0.51100000000E-03 0.  1.
        -12    1    3    3    0    0  0.27481399260E+01 -0.24178920808E+02 -0.12126772391E+01  0.24364791618E+02  0.00000000000E+00 0.  1.
</event>
<event>
 7    1  0.2237500E-009  0.4778727E+02  0.7816164E-02  0.1312668E+00
        -11   -1    0    0    0    0  0.00000000000E+00  0.00000000000E+00  0.45593999997E+02  0.45594000000E+02  0.51100000000E-03 0.  1.
         11   -1    0    0    0    0 -0.00000000000E+00 -0.00000000000E+00 -0.45593999997E+02  0.45594000000E+02  0.51100000000E-03 0. -1.
    9900012    2    1    2    0    0  0.17502223153E+01  0.31009724418E+02  0.30314301226E+02  0.47787272524E+02  0.20000006744E+02 0.  0.
         12    1    1    2    0    0 -0.17502223153E+01 -0.31009724418E+02 -0.30314301226E+02  0.43400727476E+02  0.00000000000E+00 0. -1.
         11    1    3    3    0    0 -0.23333321047E+01  0.15981780387E+02  0.71530429175E+01  0.17664307694E+02  0.51100000000E-03 0. -1.
        -11    1    3    3    0    0 -0.34303825523E+01  0.14160422027E+01  0.43560211066E+01  0.57225536360E+01  0.51100000000E-03 0.  1.
         12    1    3    3    0    0  0.75139369723E+01  0.13611901829E+02  0.18805237202E+02  0.24400411194E+02  0.00000000000E+00 0. -1.
</event>
<event>
 7    1  0.2237500E-009  0.4778727E+02  0.7816164E-02  0.1312668E+00
        -11   -1    0    0    0    0  0.00000000000E+00  0.00000000000E+00  0.45593999997E+02  0.45594000000E+02  0.51100000000E-03 0.  1.
         11   -1    0    0    0    0 -0.00000000000E+00 -0.00000000000E+00 -0.45593999997E+02  0.45594000000E+02  0.51100000000E-03 0. -1.
    9900012    2    1    2    0    0  0.38289985447E+02  0.20425962750E+02 -0.52917888418E+00  0.47787274544E+02  0.20000015957E+02 0.  0.
         12    1    1    2    0    0 -0.38289985447E+02 -0.20425962750E+02  0.52917888418E+00  0.43400725456E+02  0.00000000000E+00 0. -1.
         11    1    3    3    0    0  0.20265585094E+02  0.55986411669E+01  0.44204677526E+01  0.21484395675E+02  0.51100000000E-03 0. -1.
        -11    1    3    3    0    0  0.19835449116E+01  0.42952655844E+00  0.27468621761E+01  0.34152885027E+01  0.51100000000E-03 0.  1.
        -12    1    3    3    0    0  0.16040855441E+02  0.14397795025E+02 -0.76965088129E+01  0.22887590366E+02  0.00000000000E+00 0.  1.
</event>
<event>
 7    1  0.2237500E-009  0.4778727E+02  0.7816164E-02  0.1312668E+00
        -11   -1    0    0    0    0  0.00000000000E+00  0.00000000000E+00  0.45593999997E+02  0.45594000000E+02  0.51100000000E-03 0.  1.
         11   -1    0    0    0    0 -0.00000000000E+00 -0.00000000000E+00 -0.45593999997E+02  0.45594000000E+02  0.51100000000E-03 0. -1.
    9900012    2    1    2    0    0 -0.95227346386E+01 -0.14412454305E+02  0.39814843597E+02  0.47787273223E+02  0.20000009933E+02 0.  0.
         12    1    1    2    0    0  0.95227346386E+01  0.14412454305E+02 -0.39814843597E+02  0.43400726777E+02  0.00000000000E+00 0. -1.
         11    1    3    3    0    0  0.27730221969E+01 -0.74029719607E+01  0.12399120422E+02  0.14704823476E+02  0.51100000000E-03 0. -1.
        -11    1    3    3    0    0 -0.13956748446E+00  0.46140277641E+00  0.12250869351E+02  0.12260349576E+02  0.51100000000E-03 0.  1.
         12    1    3    3    0    0 -0.12156189351E+02 -0.74708851211E+01  0.15164853825E+02  0.20822100171E+02  0.00000000000E+00 0. -1.
</event>
<event>
 7    1  0.2237500E-009  0.4778727E+02  0.7816164E-02  0.1312668E+00
        -11   -1    0    0    0    0  0.00000000000E+00  0.00000000000E+00  0.45593999997E+02  0.45594000000E+02  0.51100000000E-03 0.  1.
         11   -1    0    0    0    0 -0.00000000000E+00 -0.00000000000E+00 -0.45593999997E+02  0.45594000000E+02  0.51100000000E-03 0. -1.
    9900012    2    1    2    0    0  0.94967204392E+01  0.21780443408E+01  0.42292926354E+02  0.47787271943E+02  0.20000004099E+02 0.  0.
         12    1    1    2    0    0 -0.94967204392E+01 -0.21780443408E+01 -0.42292926354E+02  0.43400728057E+02  0.00000000000E+00 0. -1.
         11    1    3    3    0    0  0.58798420120E+01  0.14123507455E+01  0.79056352631E+01  0.99532078190E+01  0.51100000000E-03 0. -1.
        -11    1    3    3    0    0  0.77095953941E+01  0.49572769459E+01  0.26273414911E+02  0.27826332622E+02  0.51100000000E-03 0.  1.
         12    1    3    3    0    0 -0.40927169669E+01 -0.41915833506E+01  0.81138761803E+01  0.10007731502E+02  0.00000000000E+00 0. -1.
</event>
<event>
 7    1  0.2237500E-009  0.4778727E+02  0.7816164E-02  0.1312668E+00
        -11   -1    0    0    0    0  0.00000000000E+00  0.00000000000E+00  0.45593999997E+02  0.45594000000E+02  0.51100000000E-03 0.  1.
         11   -1    0    0    0    0 -0.00000000000E+00 -0.00000000000E+00 -0.45593999997E+02  0.45594000000E+02  0.51100000000E-03 0. -1.
    9900012    2    1    2    0    0  0.37887275766E+01 -0.43181725409E+02  0.21464357752E+01  0.47787273595E+02  0.20000011627E+02 0.  0.
         12    1    1    2    0    0 -0.37887275766E+01  0.43181725409E+02 -0.21464357752E+01  0.43400726405E+02  0.00000000000E+00 0. -1.
         11    1    3    3    0    0  0.58450135424E+01 -0.99553818659E+01 -0.94053734045E+00  0.11582677676E+02  0.51100000000E-03 0. -1.
        -11    1    3    3    0    0  0.11045015838E+01 -0.31939858248E+02  0.56967178120E+00  0.31964026574E+02  0.51100000000E-03 0.  1.
         12    1    3    3    0    0 -0.31607875497E+01 -0.12864852954E+01  0.25173013344E+01  0.42405693436E+01  0.00000000000E+00 0. -1.
</event>
<event>
 7    1  0.2237500E-009  0.4778727E+02  0.7816164E-02  0.1312668E+00
        -11   -1    0    0    0    0  0.00000000000E+00  0.00000000000E+00  0.45593999997E+02  0.45594000000E+02  0.51100000000E-03 0.  1.
         11   -1    0    0    0    0 -0.00000000000E+00 -0.00000000000E+00 -0.45593999997E+02  0.45594000000E+02  0.51100000000E-03 0. -1.
    9900012    2    1    2    0    0  0.85604277338E+01  0.35054605631E+02  0.24114668708E+02  0.47787267911E+02  0.19999985715E+02 0.  0.
         12    1    1    2    0    0 -0.85604277338E+01 -0.35054605631E+02 -0.24114668708E+02  0.43400732089E+02  0.00000000000E+00 0. -1.
         11    1    3    3    0    0  0.51888521093E+01  0.79631430735E+01  0.50979574689E+01  0.10785407013E+02  0.51100000000E-03 0. -1.
        -11    1    3    3    0    0  0.67151284137E+01  0.26398081140E+02  0.19573441489E+02  0.33542081770E+02  0.51100000000E-03 0.  1.
         12    1    3    3    0    0 -0.33435527892E+01  0.69338141719E+00 -0.55673024983E+00  0.34597791281E+01  0.00000000000E+00 0. -1.
</event>
<event>
 7    1  0.2237500E-009  0.4778728E+02  0.7816164E-02  0.1312668E+00
        -11   -1    0    0    0    0  0.00000000000E+00  0.00000000000E+00  0.45593999997E+02  0.45594000000E+02  0.51100000000E-03 0. -1.
         11   -1    0    0    0    0 -0.00000000000E+00 -0.00000000000E+00 -0.45593999997E+02  0.45594000000E+02  0.51100000000E-03 0.  1.
    9900012    2    1    2    0    0  0.31482585887E+00 -0.28324643698E+02 -0.32882189021E+02  0.47787275227E+02  0.20000019072E+02 0.  0.
         12    1    1    2    0    0 -0.31482585887E+00  0.28324643698E+02  0.32882189021E+02  0.43400724773E+02  0.00000000000E+00 0. -1.
         11    1    3    3    0    0 -0.66146550028E+01 -0.10945202601E+02 -0.13859870311E+02  0.18858608806E+02  0.51100000000E-03 0. -1.
        -11    1    3    3    0    0  0.22724893573E+01 -0.12161473628E+02 -0.18027294400E+02  0.21864331509E+02  0.51100000000E-03 0.  1.
        -12    1    3    3    0    0  0.46569915043E+01 -0.52179674698E+01 -0.99502430989E+00  0.70643349131E+01  0.00000000000E+00 0.  1.
</event>
<event>
 7    1  0.2237500E-009  0.4778727E+02  0.7816164E-02  0.1312668E+00
        -11   -1    0    0    0    0  0.00000000000E+00  0.00000000000E+00  0.45593999997E+02  0.45594000000E+02  0.51100000000E-03 0.  1.
         11   -1    0    0    0    0 -0.00000000000E+00 -0.00000000000E+00 -0.45593999997E+02  0.45594000000E+02  0.51100000000E-03 0. -1.
    9900012    2    1    2    0    0 -0.31154806892E+02 -0.21554338775E+02  0.21175736667E+02  0.47787270330E+02  0.19999996741E+02 0.  0.
         12    1    1    2    0    0  0.31154806892E+02  0.21554338775E+02 -0.21175736667E+02  0.43400729670E+02  0.00000000000E+00 0. -1.
         11    1    3    3    0    0 -0.22074325208E+02 -0.60520002877E+01  0.18457622661E+02  0.29403849670E+02  0.51100000000E-03 0. -1.
        -11    1    3    3    0    0 -0.41103221457E+01 -0.57574222917E+01  0.22913006368E+01  0.74359073728E+01  0.51100000000E-03 0.  1.
         12    1    3    3    0    0 -0.49701595388E+01 -0.97449161960E+01  0.42681336885E+00  0.10947513287E+02  0.00000000000E+00 0. -1.
</event>
<event>
 7    1  0.2237500E-009  0.4778727E+02  0.7816164E-02  0.1312668E+00
        -11   -1    0    0    0    0  0.00000000000E+00  0.00000000000E+00  0.45593999997E+02  0.45594000000E+02  0.51100000000E-03 0.  1.
         11   -1    0    0    0    0 -0.00000000000E+00 -0.00000000000E+00 -0.45593999997E+02  0.45594000000E+02  0.51100000000E-03 0. -1.
    9900012    2    1    2    0    0  0.42361661509E+02  0.80190506693E+01 -0.49807810193E+01  0.47787265916E+02  0.19999976619E+02 0.  0.
         12    1    1    2    0    0 -0.42361661509E+02 -0.80190506693E+01  0.49807810193E+01  0.43400734084E+02  0.00000000000E+00 0. -1.
         11    1    3    3    0    0  0.29561777056E+02 -0.80675686621E+00 -0.90220625799E+01  0.30918394732E+02  0.51100000000E-03 0. -1.
        -11    1    3    3    0    0  0.34347608945E+01  0.16606723748E+00  0.19198503858E+01  0.39383989761E+01  0.51100000000E-03 0.  1.
         12    1    3    3    0    0  0.93651235586E+01  0.86597402980E+01  0.21214311749E+01  0.12930472208E+02  0.00000000000E+00 0. -1.
</event>
<event>
 7    1  0.2237500E-009  0.4778727E+02  0.7816164E-02  0.1312668E+00
        -11   -1    0    0    0    0  0.00000000000E+00  0.00000000000E+00  0.45593999997E+02  0.45594000000E+02  0.51100000000E-03 0.  1.
         11   -1    0    0    0    0 -0.00000000000E+00 -0.00000000000E+00 -0.45593999997E+02  0.45594000000E+02  0.51100000000E-03 0. -1.
    9900012    2    1    2    0    0  0.28448855095E+02  0.22909570820E+02  0.23440082912E+02  0.47787270994E+02  0.19999999768E+02 0.  0.
         12    1    1    2    0    0 -0.28448855095E+02 -0.22909570820E+02 -0.23440082912E+02  0.43400729006E+02  0.00000000000E+00 0. -1.
         11    1    3    3    0    0  0.87714783137E+01  0.56908138922E+01  0.14401353100E+02  0.17796717842E+02  0.51100000000E-03 0. -1.
        -11    1    3    3    0    0 -0.83506671223E+00 -0.75497118081E+00 -0.29650388733E+00  0.11641446276E+01  0.51100000000E-03 0.  1.
        -12    1    3    3    0    0  0.20512443493E+02  0.17973728108E+02  0.93352336994E+01  0.28826408524E+02  0.00000000000E+00 0.  1.
</event>
<event>
 7    1  0.2237500E-009  0.4778727E+02  0.7816164E-02  0.1312668E+00
        -11   -1    0    0    0    0  0.00000000000E+00  0.00000000000E+00  0.45593999997E+02  0.45594000000E+02  0.51100000000E-03 0.  1.
         11   -1    0    0    0    0 -0.00000000000E+00 -0.00000000000E+00 -0.45593999997E+02  0.45594000000E+02  0.51100000000E-03 0. -1.
    9900012    2    1    2    0    0  0.32721692021E+02 -0.18673669319E+02  0.21545486267E+02  0.47787273819E+02  0.20000012650E+02 0.  0.
         12    1    1    2    0    0 -0.32721692021E+02  0.18673669319E+02 -0.21545486267E+02  0.43400726181E+02  0.00000000000E+00 0. -1.
         11    1    3    3    0    0  0.14852178677E+02 -0.10757334381E+02  0.16735839131E+02  0.24827318947E+02  0.51100000000E-03 0. -1.
        -11    1    3    3    0    0  0.12406412707E+02 -0.70769653699E+01  0.82062078838E+01  0.16472533599E+02  0.51100000000E-03 0.  1.
         12    1    3    3    0    0  0.54631006377E+01 -0.83936956819E+00 -0.33965607479E+01  0.64874212723E+01  0.00000000000E+00 0. -1.
</event>
<event>
 7    1  0.2237500E-009  0.4778727E+02  0.7816164E-02  0.1312668E+00
        -11   -1    0    0    0    0  0.00000000000E+00  0.00000000000E+00  0.45593999997E+02  0.45594000000E+02  0.51100000000E-03 0.  1.
         11   -1    0    0    0    0 -0.00000000000E+00 -0.00000000000E+00 -0.45593999997E+02  0.45594000000E+02  0.51100000000E-03 0. -1.
    9900012    2    1    2    0    0  0.28204634539E+02 -0.37265574941E+01  0.32775519881E+02  0.47787270240E+02  0.19999996332E+02 0.  0.
         12    1    1    2    0    0 -0.28204634539E+02  0.37265574941E+01 -0.32775519881E+02  0.43400729760E+02  0.00000000000E+00 0. -1.
         11    1    3    3    0    0  0.27233752975E+02 -0.29193384508E+01  0.20030573289E+02  0.33932634803E+02  0.51100000000E-03 0.  1.
        -11    1    3    3    0    0  0.75702380757E+00  0.94583285078E+00  0.25191534528E+00  0.12373950174E+01  0.51100000000E-03 0. -1.
        -12    1    3    3    0    0  0.21385775646E+00 -0.17530518940E+01  0.12493031247E+02  0.12617240420E+02  0.00000000000E+00 0.  1.
</event>
<event>
 7    1  0.2237500E-009  0.4778727E+02  0.7816164E-02  0.1312668E+00
        -11   -1    0    0    0    0  0.00000000000E+00  0.00000000000E+00  0.45593999997E+02  0.45594000000E+02  0.51100000000E-03 0.  1.
         11   -1    0    0    0    0 -0.00000000000E+00 -0.00000000000E+00 -0.45593999997E+02  0.45594000000E+02  0.51100000000E-03 0. -1.
    9900012    2    1    2    0    0  0.15364945537E+02 -0.29417954026E+01  0.40483173890E+02  0.47787273280E+02  0.20000010195E+02 0.  0.
         12    1    1    2    0    0 -0.15364945537E+02  0.29417954026E+01 -0.40483173890E+02  0.43400726720E+02  0.00000000000E+00 0. -1.
         11    1    3    3    0    0 -0.43868197340E+00  0.86640581955E+00 -0.11247429187E+01  0.14859837860E+01  0.51100000000E-03 0. -1.
        -11    1    3    3    0    0 -0.89867584156E+00  0.18120035273E+01  0.91201010026E+01  0.93416924382E+01  0.51100000000E-03 0.  1.
        -12    1    3    3    0    0  0.16702303352E+02 -0.56202047495E+01  0.32487815806E+02  0.36959597056E+02  0.00000000000E+00 0.  1.
</event>
<event>
 7    1  0.2237500E-009  0.4778727E+02  0.7816164E-02  0.1312668E+00
        -11   -1    0    0    0    0  0.00000000000E+00  0.00000000000E+00  0.45593999997E+02  0.45594000000E+02  0.51100000000E-03 0. -1.
         11   -1    0    0    0    0 -0.00000000000E+00 -0.00000000000E+00 -0.45593999997E+02  0.45594000000E+02  0.51100000000E-03 0.  1.
    9900012    2    1    2    0    0  0.24792583802E+02  0.35613668161E+02  0.78590064064E+00  0.47787271766E+02  0.20000003288E+02 0.  0.
         12    1    1    2    0    0 -0.24792583802E+02 -0.35613668161E+02 -0.78590064064E+00  0.43400728234E+02  0.00000000000E+00 0. -1.
         11    1    3    3    0    0  0.14228883298E+02  0.10927103891E+02 -0.38844540379E+01  0.18356244245E+02  0.51100000000E-03 0. -1.
        -11    1    3    3    0    0  0.91090913464E+01  0.84522717908E+01  0.42268997853E+01  0.13125666674E+02  0.51100000000E-03 0.  1.
         12    1    3    3    0    0  0.14546091581E+01  0.16234292479E+02  0.44345489322E+00  0.16305360847E+02  0.00000000000E+00 0. -1.
</event>
<event>
 7    1  0.2237500E-009  0.4778727E+02  0.7816164E-02  0.1312668E+00
        -11   -1    0    0    0    0  0.00000000000E+00  0.00000000000E+00  0.45593999997E+02  0.45594000000E+02  0.51100000000E-03 0.  1.
         11   -1    0    0    0    0 -0.00000000000E+00 -0.00000000000E+00 -0.45593999997E+02  0.45594000000E+02  0.51100000000E-03 0. -1.
    9900012    2    1    2    0    0  0.23757950949E+02  0.36216342949E+02 -0.27494938316E+01  0.47787269059E+02  0.19999990946E+02 0.  0.
         12    1    1    2    0    0 -0.23757950949E+02 -0.36216342949E+02  0.27494938316E+01  0.43400730941E+02  0.00000000000E+00 0. -1.
         11    1    3    3    0    0  0.84031309119E+01  0.10667943113E+01 -0.10725185270E+01  0.85382056356E+01  0.51100000000E-03 0. -1.
        -11    1    3    3    0    0  0.18244092967E+01  0.72538747249E+01  0.26697516241E+01  0.79419608285E+01  0.51100000000E-03 0.  1.
        -12    1    3    3    0    0  0.13530410741E+02  0.27895673913E+02 -0.43467269287E+01  0.31307102594E+02  0.00000000000E+00 0.  1.
</event>
<event>
 7    1  0.2237500E-009  0.4778727E+02  0.7816164E-02  0.1312668E+00
        -11   -1    0    0    0    0  0.00000000000E+00  0.00000000000E+00  0.45593999997E+02  0.45594000000E+02  0.51100000000E-03 0.  1.
         11   -1    0    0    0    0 -0.00000000000E+00 -0.00000000000E+00 -0.45593999997E+02  0.45594000000E+02  0.51100000000E-03 0. -1.
    9900012    2    1    2    0    0  0.22031201222E+02 -0.27365148317E+02  0.25483286874E+02  0.47787273283E+02  0.20000010205E+02 0.  0.
         12    1    1    2    0    0 -0.22031201222E+02  0.27365148317E+02 -0.25483286874E+02  0.43400726717E+02  0.00000000000E+00 0. -1.
         11    1    3    3    0    0  0.64948743314E+01 -0.12523570633E+02  0.48211689909E+01  0.14908617799E+02  0.51100000000E-03 0.  1.
        -11    1    3    3    0    0  0.11709097317E+02 -0.70362271985E+01  0.42500575823E+01  0.14306447598E+02  0.51100000000E-03 0. -1.
         12    1    3    3    0    0  0.38272295734E+01 -0.78053504854E+01  0.16412060301E+02  0.18572207885E+02  0.00000000000E+00 0. -1.
</event>
<event>
 7    1  0.2237500E-009  0.4778727E+02  0.7816164E-02  0.1312668E+00
        -11   -1    0    0    0    0  0.00000000000E+00  0.00000000000E+00  0.45593999997E+02  0.45594000000E+02  0.51100000000E-03 0.  1.
         11   -1    0    0    0    0 -0.00000000000E+00 -0.00000000000E+00 -0.45593999997E+02  0.45594000000E+02  0.51100000000E-03 0. -1.
    9900012    2    1    2    0    0 -0.28935121375E+02  0.12766712200E+02  0.29721930495E+02  0.47787270263E+02  0.19999996436E+02 0.  0.
         12    1    1    2    0    0  0.28935121375E+02 -0.12766712200E+02 -0.29721930495E+02  0.43400729737E+02  0.00000000000E+00 0. -1.
         11    1    3    3    0    0 -0.78249355171E+01  0.18339015021E+01  0.35870704385E+01  0.88011297660E+01  0.51100000000E-03 0. -1.
        -11    1    3    3    0    0 -0.13382035101E+02  0.10208841713E+01  0.48556975465E+01  0.14272311196E+02  0.51100000000E-03 0.  1.
         12    1    3    3    0    0 -0.77281507564E+01  0.99119265268E+01  0.21279162510E+02  0.24713829301E+02  0.00000000000E+00 0. -1.
</event>
<event>
 7    1  0.2237500E-009  0.4778728E+02  0.7816164E-02  0.1312668E+00
        -11   -1    0    0    0    0  0.00000000000E+00  0.00000000000E+00  0.45593999997E+02  0.45594000000E+02  0.51100000000E-03 0. -1.
         11   -1    0    0    0    0 -0.00000000000E+00 -0.00000000000E+00 -0.45593999997E+02  0.45594000000E+02  0.51100000000E-03 0.  1.
    9900012    2    1    2    0    0 -0.27460777077E+02  0.32920883547E+01 -0.33446835050E+02  0.47787275371E+02  0.20000019728E+02 0.  0.
         12    1    1    2    0    0  0.27460777077E+02 -0.32920883547E+01  0.33446835050E+02  0.43400724629E+02  0.00000000000E+00 0. -1.
         11    1    3    3    0    0 -0.63252861478E+01  0.11777099918E+01 -0.24014699241E+01  0.68675544216E+01  0.51100000000E-03 0. -1.
        -11    1    3    3    0    0 -0.20626495734E+02  0.49661564708E+01 -0.31509062442E+02  0.37985998112E+02  0.51100000000E-03 0.  1.
         12    1    3    3    0    0 -0.50899519534E+00 -0.28517781080E+01  0.46369731572E+00  0.29337228374E+01  0.00000000000E+00 0. -1.
</event>
<event>
 7    1  0.2237500E-009  0.4778733E+02  0.7816164E-02  0.1312667E+00
        -11   -1    0    0    0    0  0.00000000000E+00  0.00000000000E+00  0.45593999997E+02  0.45594000000E+02  0.51100000000E-03 0.  1.
         11   -1    0    0    0    0 -0.00000000000E+00 -0.00000000000E+00 -0.45593999997E+02  0.45594000000E+02  0.51100000000E-03 0. -1.
    9900012    2    1    2    0    0 -0.51404729788E+01 -0.25561746244E+02  0.34695683230E+02  0.47787334471E+02  0.20000289186E+02 0.  0.
         12    1    1    2    0    0  0.51404729788E+01  0.25561746244E+02 -0.34695683230E+02  0.43400665529E+02  0.00000000000E+00 0. -1.
         11    1    3    3    0    0  0.28932813609E+01 -0.36278757834E+01 -0.80679359868E-01  0.46410202707E+01  0.51100000000E-03 0. -1.
        -11    1    3    3    0    0 -0.18841590296E+01 -0.12322817531E+02  0.10410940963E+02  0.16241600264E+02  0.51100000000E-03 0.  1.
        -12    1    3    3    0    0 -0.61495953101E+01 -0.96110529299E+01  0.24365421628E+02  0.26904713936E+02  0.00000000000E+00 0.  1.
</event>
<event>
 7    1  0.2237500E-009  0.4778727E+02  0.7816164E-02  0.1312668E+00
        -11   -1    0    0    0    0  0.00000000000E+00  0.00000000000E+00  0.45593999997E+02  0.45594000000E+02  0.51100000000E-03 0.  1.
         11   -1    0    0    0    0 -0.00000000000E+00 -0.00000000000E+00 -0.45593999997E+02  0.45594000000E+02  0.51100000000E-03 0. -1.
    9900012    2    1    2    0    0  0.27865047149E+02 -0.10389510859E+02  0.31610447352E+02  0.47787272238E+02  0.20000005441E+02 0.  0.
         12    1    1    2    0    0 -0.27865047149E+02  0.10389510859E+02 -0.31610447352E+02  0.43400727762E+02  0.00000000000E+00 0. -1.
         11    1    3    3    0    0  0.95495549463E+01  0.15506024864E+00  0.27032327214E+01  0.99260017510E+01  0.51100000000E-03 0. -1.
        -11    1    3    3    0    0  0.27744135806E+01  0.26483896087E+01  0.66675660970E+01  0.76920592922E+01  0.51100000000E-03 0.  1.
        -12    1    3    3    0    0  0.15541078622E+02 -0.13192960716E+02  0.22239648534E+02  0.30169211195E+02  0.00000000000E+00 0.  1.
</event>
<event>
 7    1  0.2237500E-009  0.4778727E+02  0.7816164E-02  0.1312668E+00
        -11   -1    0    0    0    0  0.00000000000E+00  0.00000000000E+00  0.45593999997E+02  0.45594000000E+02  0.51100000000E-03 0.  1.
         11   -1    0    0    0    0 -0.00000000000E+00 -0.00000000000E+00 -0.45593999997E+02  0.45594000000E+02  0.51100000000E-03 0. -1.
    9900012    2    1    2    0    0 -0.31413511617E+02  0.27662487619E+02  0.11471756165E+02  0.47787272784E+02  0.20000007931E+02 0.  0.
         12    1    1    2    0    0  0.31413511617E+02 -0.27662487619E+02 -0.11471756165E+02  0.43400727216E+02  0.00000000000E+00 0. -1.
         11    1    3    3    0    0 -0.10309029752E+02  0.12804409734E+02 -0.85396962755E+00  0.16460810049E+02  0.51100000000E-03 0. -1.
        -11    1    3    3    0    0 -0.10883160538E+02  0.14986907726E+02  0.70008725115E+01  0.19800575816E+02  0.51100000000E-03 0.  1.
         12    1    3    3    0    0 -0.10221321327E+02 -0.12882984144E+00  0.53248532807E+01  0.11525886919E+02  0.00000000000E+00 0. -1.
</event>
<event>
 7    1  0.2237500E-009  0.4778726E+02  0.7816164E-02  0.1312668E+00
        -11   -1    0    0    0    0  0.00000000000E+00  0.00000000000E+00  0.45593999997E+02  0.45594000000E+02  0.51100000000E-03 0.  1.
         11   -1    0    0    0    0 -0.00000000000E+00 -0.00000000000E+00 -0.45593999997E+02  0.45594000000E+02  0.51100000000E-03 0. -1.
    9900012    2    1    2    0    0  0.41044685816E+02  0.11892415107E+02 -0.75847564814E+01  0.47787259203E+02  0.19999946011E+02 0.  0.
         12    1    1    2    0    0 -0.41044685816E+02 -0.11892415107E+02  0.75847564814E+01  0.43400740797E+02  0.00000000000E+00 0. -1.
         11    1    3    3    0    0  0.15797137946E+02  0.80461836759E+01  0.46641290537E+00  0.17734378486E+02  0.51100000000E-03 0. -1.
        -11    1    3    3    0    0  0.22651626918E+02  0.76141946501E+01 -0.46344993119E+01  0.24342365258E+02  0.51100000000E-03 0.  1.
         12    1    3    3    0    0  0.25959209524E+01 -0.37679632191E+01 -0.34166700749E+01  0.57105154594E+01  0.00000000000E+00 0. -1.
</event>
<event>
 7    1  0.2237500E-009  0.4778727E+02  0.7816164E-02  0.1312668E+00
        -11   -1    0    0    0    0  0.00000000000E+00  0.00000000000E+00  0.45593999997E+02  0.45594000000E+02  0.51100000000E-03 0.  1.
         11   -1    0    0    0    0 -0.00000000000E+00 -0.00000000000E+00 -0.45593999997E+02  0.45594000000E+02  0.51100000000E-03 0. -1.
    9900012    2    1    2    0    0  0.51835790174E+01 -0.22428891920E+02  0.36792643049E+02  0.47787271127E+02  0.20000000376E+02 0.  0.
         12    1    1    2    0    0 -0.51835790174E+01  0.22428891920E+02 -0.36792643049E+02  0.43400728873E+02  0.00000000000E+00 0. -1.
         11    1    3    3    0    0 -0.12590076691E+01 -0.16413769664E+02  0.32126662122E+02  0.36098744497E+02  0.51100000000E-03 0. -1.
        -11    1    3    3    0    0  0.25656531357E+01 -0.49083697782E+01  0.52298437071E+01  0.76174756550E+01  0.51100000000E-03 0.  1.
         12    1    3    3    0    0  0.38769335508E+01 -0.11067524773E+01 -0.56386278013E+00  0.40710509746E+01  0.00000000000E+00 0. -1.
</event>
<event>
 7    1  0.2237500E-009  0.4778727E+02  0.7816164E-02  0.1312668E+00
        -11   -1    0    0    0    0  0.00000000000E+00  0.00000000000E+00  0.45593999997E+02  0.45594000000E+02  0.51100000000E-03 0.  1.
         11   -1    0    0    0    0 -0.00000000000E+00 -0.00000000000E+00 -0.45593999997E+02  0.45594000000E+02  0.51100000000E-03 0. -1.
    9900012    2    1    2    0    0 -0.70770277500E+01  0.89539580004E+01  0.41873209892E+02  0.47787269680E+02  0.19999993781E+02 0.  0.
         12    1    1    2    0    0  0.70770277500E+01 -0.89539580004E+01 -0.41873209892E+02  0.43400730320E+02  0.00000000000E+00 0. -1.
         11    1    3    3    0    0  0.31501744256E+00  0.50817989816E+01  0.12683964500E+02  0.13667731070E+02  0.51100000000E-03 0. -1.
        -11    1    3    3    0    0  0.76797039011E+00 -0.10927761571E+01  0.22306188631E+02  0.22346140377E+02  0.51100000000E-03 0.  1.
         12    1    3    3    0    0 -0.81600155827E+01  0.49649351760E+01  0.68830567604E+01  0.11773398234E+02  0.00000000000E+00 0. -1.
</event>
<event>
 7    1  0.2237500E-009  0.4778727E+02  0.7816164E-02  0.1312668E+00
        -11   -1    0    0    0    0  0.00000000000E+00  0.00000000000E+00  0.45593999997E+02  0.45594000000E+02  0.51100000000E-03 0.  1.
         11   -1    0    0    0    0 -0.00000000000E+00 -0.00000000000E+00 -0.45593999997E+02  0.45594000000E+02  0.51100000000E-03 0. -1.
    9900012    2    1    2    0    0  0.11839298649E+02  0.36899316826E+02  0.19542119780E+02  0.47787273967E+02  0.20000013325E+02 0.  0.
         12    1    1    2    0    0 -0.11839298649E+02 -0.36899316826E+02 -0.19542119780E+02  0.43400726033E+02  0.00000000000E+00 0. -1.
         11    1    3    3    0    0  0.96278108720E+00 -0.22970519835E+00  0.27452826713E+01  0.29182681690E+01  0.51100000000E-03 0. -1.
        -11    1    3    3    0    0  0.56523735315E+01  0.84759755323E+01  0.11326738615E+02  0.15234385307E+02  0.51100000000E-03 0.  1.
        -12    1    3    3    0    0  0.52241440303E+01  0.28653046492E+02  0.54700984935E+01  0.29634620491E+02  0.00000000000E+00 0.  1.
</event>
<event>
 7    1  0.2237500E-009  0.4778727E+02  0.7816164E-02  0.1312668E+00
        -11   -1    0    0    0    0  0.00000000000E+00  0.00000000000E+00  0.45593999997E+02  0.45594000000E+02  0.51100000000E-03 0.  1.
         11   -1    0    0    0    0 -0.00000000000E+00 -0.00000000000E+00 -0.45593999997E+02  0.45594000000E+02  0.51100000000E-03 0. -1.
    9900012    2    1    2    0    0 -0.16718586692E+02  0.33899597923E+02  0.21329070899E+02  0.47787272521E+02  0.20000006732E+02 0.  0.
         12    1    1    2    0    0  0.16718586692E+02 -0.33899597923E+02 -0.21329070899E+02  0.43400727479E+02  0.00000000000E+00 0. -1.
         11    1    3    3    0    0 -0.79103126115E+01  0.13949274863E+02  0.15760463812E+02  0.22484384240E+02  0.51100000000E-03 0.  1.
        -11    1    3    3    0    0 -0.55244557149E+01  0.12929630459E+01  0.20627326905E+01  0.60370713759E+01  0.51100000000E-03 0. -1.
         12    1    3    3    0    0 -0.32838183660E+01  0.18657360014E+02  0.35058743964E+01  0.19265816905E+02  0.00000000000E+00 0. -1.
</event>
<event>
 7    1  0.2237500E-009  0.4778726E+02  0.7816164E-02  0.1312668E+00
        -11   -1    0    0    0    0  0.00000000000E+00  0.00000000000E+00  0.45593999997E+02  0.45594000000E+02  0.51100000000E-03 0. -1.
         11   -1    0    0    0    0 -0.00000000000E+00 -0.00000000000E+00 -0.45593999997E+02  0.45594000000E+02  0.51100000000E-03 0.  1.
    9900012    2    1    2    0    0  0.21690876123E+02 -0.34771251913E+02 -0.14286000663E+02  0.47787264044E+02  0.19999968081E+02 0.  0.
         12    1    1    2    0    0 -0.21690876123E+02  0.34771251913E+02  0.14286000663E+02  0.43400735956E+02  0.00000000000E+00 0. -1.
         11    1    3    3    0    0 -0.29097366604E+01 -0.56689510711E+01 -0.55264043099E+01  0.84347328670E+01  0.51100000000E-03 0. -1.
        -11    1    3    3    0    0  0.64964464144E+01 -0.63827863914E+01 -0.38603298995E+01  0.98917099294E+01  0.51100000000E-03 0.  1.
        -12    1    3    3    0    0  0.18104166369E+02 -0.22719514451E+02 -0.48992664539E+01  0.29460821247E+02  0.00000000000E+00 0.  1.
</event>
<event>
 7    1  0.2237500E-009  0.4778727E+02  0.7816164E-02  0.1312668E+00
        -11   -1    0    0    0    0  0.00000000000E+00  0.00000000000E+00  0.45593999997E+02  0.45594000000E+02  0.51100000000E-03 0.  1.
         11   -1    0    0    0    0 -0.00000000000E+00 -0.00000000000E+00 -0.45593999997E+02  0.45594000000E+02  0.51100000000E-03 0. -1.
    9900012    2    1    2    0    0  0.26053528719E+02 -0.28192196338E+02  0.20249367869E+02  0.47787271986E+02  0.20000004293E+02 0.  0.
         12    1    1    2    0    0 -0.26053528719E+02  0.28192196338E+02 -0.20249367869E+02  0.43400728014E+02  0.00000000000E+00 0. -1.
         11    1    3    3    0    0  0.20052027196E+01 -0.11769938171E+02  0.64330969505E+01  0.13562338262E+02  0.51100000000E-03 0. -1.
        -11    1    3    3    0    0  0.10217023400E+02 -0.13711884830E+02  0.90465643125E+01  0.19345378747E+02  0.51100000000E-03 0.  1.
         12    1    3    3    0    0  0.13831302599E+02 -0.27103733371E+01  0.47697066062E+01  0.14879554977E+02  0.00000000000E+00 0. -1.
</event>
<event>
 7    1  0.2237500E-009  0.4778727E+02  0.7816164E-02  0.1312668E+00
        -11   -1    0    0    0    0  0.00000000000E+00  0.00000000000E+00  0.45593999997E+02  0.45594000000E+02  0.51100000000E-03 0.  1.
         11   -1    0    0    0    0 -0.00000000000E+00 -0.00000000000E+00 -0.45593999997E+02  0.45594000000E+02  0.51100000000E-03 0. -1.
    9900012    2    1    2    0    0 -0.25813228413E+01 -0.11101569467E+02  0.41877384487E+02  0.47787269549E+02  0.19999993182E+02 0.  0.
         12    1    1    2    0    0  0.25813228413E+01  0.11101569467E+02 -0.41877384487E+02  0.43400730451E+02  0.00000000000E+00 0. -1.
         11    1    3    3    0    0 -0.13087621315E+01 -0.86800919097E+01  0.15186190014E+02  0.17540730352E+02  0.51100000000E-03 0. -1.
        -11    1    3    3    0    0 -0.21496854875E+01 -0.25491471545E+01  0.28253881821E+02  0.28449976048E+02  0.51100000000E-03 0.  1.
         12    1    3    3    0    0  0.87712477767E+00  0.12766959725E+00 -0.15626873482E+01  0.17965631494E+01  0.00000000000E+00 0. -1.
</event>
<event>
 7    1  0.2237500E-009  0.4778727E+02  0.7816164E-02  0.1312668E+00
        -11   -1    0    0    0    0  0.00000000000E+00  0.00000000000E+00  0.45593999997E+02  0.45594000000E+02  0.51100000000E-03 0. -1.
         11   -1    0    0    0    0 -0.00000000000E+00 -0.00000000000E+00 -0.45593999997E+02  0.45594000000E+02  0.51100000000E-03 0.  1.
    9900012    2    1    2    0    0 -0.17271880425E+02  0.34733555499E+02 -0.19464983876E+02  0.47787270417E+02  0.19999997139E+02 0.  0.
         12    1    1    2    0    0  0.17271880425E+02 -0.34733555499E+02  0.19464983876E+02  0.43400729583E+02  0.00000000000E+00 0. -1.
         11    1    3    3    0    0 -0.31697051180E+00  0.19160241900E+00 -0.55968925448E+01  0.56091343549E+01  0.51100000000E-03 0. -1.
        -11    1    3    3    0    0 -0.13722167587E+02  0.16316632629E+02 -0.77026912971E+01  0.22668520841E+02  0.51100000000E-03 0.  1.
        -12    1    3    3    0    0 -0.32327423264E+01  0.18225320452E+02 -0.61654000342E+01  0.19509615221E+02  0.00000000000E+00 0.  1.
</event>
<event>
 7    1  0.2237500E-009  0.4778727E+02  0.7816164E-02  0.1312668E+00
        -11   -1    0    0    0    0  0.00000000000E+00  0.00000000000E+00  0.45593999997E+02  0.45594000000E+02  0.51100000000E-03 0. -1.
         11   -1    0    0    0    0 -0.00000000000E+00 -0.00000000000E+00 -0.45593999997E+02  0.45594000000E+02  0.51100000000E-03 0.  1.
    9900012    2    1    2    0    0  0.23355205159E+02  0.35641094485E+02 -0.82383399543E+01  0.47787268793E+02  0.19999989735E+02 0.  0.
         12    1    1    2    0    0 -0.23355205159E+02 -0.35641094485E+02  0.82383399543E+01  0.43400731207E+02  0.00000000000E+00 0. -1.
         11    1    3    3    0    0  0.20996103582E+01  0.21253710099E+01  0.13227356106E+01  0.32672917444E+01  0.51100000000E-03 0. -1.
        -11    1    3    3    0    0  0.10590039077E+01  0.10218353298E+02  0.37504217210E+01  0.10936265210E+02  0.51100000000E-03 0.  1.
         12    1    3    3    0    0  0.20196590893E+02  0.23297370177E+02 -0.13311497286E+02  0.33583711839E+02  0.00000000000E+00 0. -1.
</event>
<event>
 7    1  0.2237500E-009  0.4778727E+02  0.7816164E-02  0.1312668E+00
        -11   -1    0    0    0    0  0.00000000000E+00  0.00000000000E+00  0.45593999997E+02  0.45594000000E+02  0.51100000000E-03 0. -1.
         11   -1    0    0    0    0 -0.00000000000E+00 -0.00000000000E+00 -0.45593999997E+02  0.45594000000E+02  0.51100000000E-03 0.  1.
    9900012    2    1    2    0    0  0.15315576848E+02  0.36985432908E+02  0.16767052887E+02  0.47787271848E+02  0.20000003663E+02 0.  0.
         12    1    1    2    0    0 -0.15315576848E+02 -0.36985432908E+02 -0.16767052887E+02  0.43400728152E+02  0.00000000000E+00 0. -1.
         11    1    3    3    0    0  0.22812643960E+01 -0.79498854071E+00 -0.40966761317E+00  0.24503064785E+01  0.51100000000E-03 0. -1.
        -11    1    3    3    0    0  0.11934628764E+02  0.21505563391E+02  0.53011843792E+01  0.25160031331E+02  0.51100000000E-03 0.  1.
         12    1    3    3    0    0  0.10996836887E+01  0.16274858058E+02  0.11875536121E+02  0.20176934039E+02  0.00000000000E+00 0. -1.
</event>
<event>
 7    1  0.2237500E-009  0.4778724E+02  0.7816164E-02  0.1312668E+00
        -11   -1    0    0    0    0  0.00000000000E+00  0.00000000000E+00  0.45593999997E+02  0.45594000000E+02  0.51100000000E-03 0. -1.
         11   -1    0    0    0    0 -0.00000000000E+00 -0.00000000000E+00 -0.45593999997E+02  0.45594000000E+02  0.51100000000E-03 0.  1.
    9900012    2    1    2    0    0 -0.37508678667E+02 -0.10979558381E+01 -0.21806400105E+02  0.47787244616E+02  0.19999879500E+02 0.  0.
         12    1    1    2    0    0  0.37508678667E+02  0.10979558381E+01  0.21806400105E+02  0.43400755384E+02  0.00000000000E+00 0. -1.
         11    1    3    3    0    0 -0.88294277242E+01  0.20474610768E+01 -0.63176567982E+01  0.11048243230E+02  0.51100000000E-03 0. -1.
        -11    1    3    3    0    0 -0.17545354376E+02 -0.96440434113E+01 -0.12159515390E+02  0.23424364416E+02  0.51100000000E-03 0.  1.
        -12    1    3    3    0    0 -0.11133896567E+02  0.64986264965E+01 -0.33292279169E+01  0.13314636970E+02  0.00000000000E+00 0.  1.
</event>
<event>
 7    1  0.2237500E-009  0.4778727E+02  0.7816164E-02  0.1312668E+00
        -11   -1    0    0    0    0  0.00000000000E+00  0.00000000000E+00  0.45593999997E+02  0.45594000000E+02  0.51100000000E-03 0.  1.
         11   -1    0    0    0    0 -0.00000000000E+00 -0.00000000000E+00 -0.45593999997E+02  0.45594000000E+02  0.51100000000E-03 0. -1.
    9900012    2    1    2    0    0 -0.24041025707E+02 -0.95381212149E+01  0.34852208309E+02  0.47787273078E+02  0.20000009272E+02 0.  0.
         12    1    1    2    0    0  0.24041025707E+02  0.95381212149E+01 -0.34852208309E+02  0.43400726922E+02  0.00000000000E+00 0. -1.
         11    1    3    3    0    0 -0.26783184557E+01  0.24793349152E+01  0.11047309348E+01  0.38132560983E+01  0.51100000000E-03 0.  1.
        -11    1    3    3    0    0 -0.13691280407E+01  0.21578025765E+01  0.39664727872E+00  0.25861076690E+01  0.51100000000E-03 0. -1.
        -12    1    3    3    0    0 -0.19993579210E+02 -0.14175258707E+02  0.33350830096E+02  0.41387909311E+02  0.00000000000E+00 0.  1.
</event>
<event>
 7    1  0.2237500E-009  0.4778727E+02  0.7816164E-02  0.1312668E+00
        -11   -1    0    0    0    0  0.00000000000E+00  0.00000000000E+00  0.45593999997E+02  0.45594000000E+02  0.51100000000E-03 0. -1.
         11   -1    0    0    0    0 -0.00000000000E+00 -0.00000000000E+00 -0.45593999997E+02  0.45594000000E+02  0.51100000000E-03 0.  1.
    9900012    2    1    2    0    0 -0.41169996483E+02  0.10006372653E+02 -0.94088973032E+01  0.47787268986E+02  0.19999990615E+02 0.  0.
         12    1    1    2    0    0  0.41169996483E+02 -0.10006372653E+02  0.94088973032E+01  0.43400731014E+02  0.00000000000E+00 0. -1.
         11    1    3    3    0    0 -0.86340745187E+01  0.29448160968E+01 -0.54140302068E+01  0.10608058634E+02  0.51100000000E-03 0. -1.
        -11    1    3    3    0    0 -0.24443286880E+02  0.84735674844E+01 -0.91960556870E+01  0.27456202576E+02  0.51100000000E-03 0.  1.
         12    1    3    3    0    0 -0.80926350839E+01 -0.14120109279E+01  0.52011885906E+01  0.97230077763E+01  0.00000000000E+00 0. -1.
</event>
<event>
 7    1  0.2237500E-009  0.4778727E+02  0.7816164E-02  0.1312668E+00
        -11   -1    0    0    0    0  0.00000000000E+00  0.00000000000E+00  0.45593999997E+02  0.45594000000E+02  0.51100000000E-03 0.  1.
         11   -1    0    0    0    0 -0.00000000000E+00 -0.00000000000E+00 -0.45593999997E+02  0.45594000000E+02  0.51100000000E-03 0. -1.
    9900012    2    1    2    0    0 -0.40156405985E+02  0.30981885894E+01  0.16170589545E+02  0.47787266361E+02  0.19999978647E+02 0.  0.
         12    1    1    2    0    0  0.40156405985E+02 -0.30981885894E+01 -0.16170589545E+02  0.43400733639E+02  0.00000000000E+00 0. -1.
         11    1    3    3    0    0 -0.25619136003E+02  0.20065798060E+01  0.56600141801E+01  0.26313537444E+02  0.51100000000E-03 0. -1.
        -11    1    3    3    0    0 -0.16267301808E+02 -0.57752226600E+00  0.96343828540E+01  0.18915072649E+02  0.51100000000E-03 0.  1.
        -12    1    3    3    0    0  0.17300318263E+01  0.16691310495E+01  0.87619251120E+00  0.25586562678E+01  0.00000000000E+00 0.  1.
</event>
<event>
 7    1  0.2237500E-009  0.4778727E+02  0.7816164E-02  0.1312668E+00
        -11   -1    0    0    0    0  0.00000000000E+00  0.00000000000E+00  0.45593999997E+02  0.45594000000E+02  0.51100000000E-03 0.  1.
         11   -1    0    0    0    0 -0.00000000000E+00 -0.00000000000E+00 -0.45593999997E+02  0.45594000000E+02  0.51100000000E-03 0. -1.
    9900012    2    1    2    0    0  0.19799201524E+02 -0.90850522048E+01  0.37537667166E+02  0.47787274075E+02  0.20000013820E+02 0.  0.
         12    1    1    2    0    0 -0.19799201524E+02  0.90850522048E+01 -0.37537667166E+02  0.43400725925E+02  0.00000000000E+00 0. -1.
         11    1    3    3    0    0 -0.24232074845E+00  0.25536072979E+00 -0.76993774169E+00  0.84660075281E+00  0.51100000000E-03 0. -1.
        -11    1    3    3    0    0  0.14920062609E+02 -0.52139475828E+01  0.12057189008E+02  0.19878866282E+02  0.51100000000E-03 0.  1.
         12    1    3    3    0    0  0.51214596635E+01 -0.41264653518E+01  0.26250415900E+02  0.27061807040E+02  0.00000000000E+00 0. -1.
</event>
<event>
 7    1  0.2237500E-009  0.4778726E+02  0.7816164E-02  0.1312668E+00
        -11   -1    0    0    0    0  0.00000000000E+00  0.00000000000E+00  0.45593999997E+02  0.45594000000E+02  0.51100000000E-03 0.  1.
         11   -1    0    0    0    0 -0.00000000000E+00 -0.00000000000E+00 -0.45593999997E+02  0.45594000000E+02  0.51100000000E-03 0. -1.
    9900012    2    1    2    0    0  0.33758195819E+02 -0.11111017313E+00  0.27276291527E+02  0.47787260261E+02  0.19999950836E+02 0.  0.
         12    1    1    2    0    0 -0.33758195819E+02  0.11111017313E+00 -0.27276291527E+02  0.43400739739E+02  0.00000000000E+00 0. -1.
         11    1    3    3    0    0  0.15792447783E+02 -0.46518975848E+01  0.78378009540E+01  0.18233833447E+02  0.51100000000E-03 0. -1.
        -11    1    3    3    0    0  0.17057513784E+02  0.10689105395E+01  0.10846881638E+02  0.20242435322E+02  0.51100000000E-03 0.  1.
         12    1    3    3    0    0  0.90823425106E+00  0.34718768722E+01  0.85916089353E+01  0.93109914921E+01  0.00000000000E+00 0. -1.
</event>
<event>
 7    1  0.2237500E-009  0.4778727E+02  0.7816164E-02  0.1312668E+00
        -11   -1    0    0    0    0  0.00000000000E+00  0.00000000000E+00  0.45593999997E+02  0.45594000000E+02  0.51100000000E-03 0.  1.
         11   -1    0    0    0    0 -0.00000000000E+00 -0.00000000000E+00 -0.45593999997E+02  0.45594000000E+02  0.51100000000E-03 0. -1.
    9900012    2    1    2    0    0  0.39059101533E+02 -0.81550035849E+01  0.17073534466E+02  0.47787273333E+02  0.20000010435E+02 0.  0.
         12    1    1    2    0    0 -0.39059101533E+02  0.81550035849E+01 -0.17073534466E+02  0.43400726667E+02  0.00000000000E+00 0. -1.
         11    1    3    3    0    0  0.13935283370E+01 -0.25996285666E+01 -0.17364234501E+01  0.34227410901E+01  0.51100000000E-03 0. -1.
        -11    1    3    3    0    0  0.19098604835E+02 -0.89665735534E+01  0.76980434094E+01  0.22459207923E+02  0.51100000000E-03 0.  1.
        -12    1    3    3    0    0  0.18566968362E+02  0.34111985351E+01  0.11111914506E+02  0.21905324321E+02  0.00000000000E+00 0.  1.
</event>
<event>
 7    1  0.2237500E-009  0.4778726E+02  0.7816164E-02  0.1312668E+00
        -11   -1    0    0    0    0  0.00000000000E+00  0.00000000000E+00  0.45593999997E+02  0.45594000000E+02  0.51100000000E-03 0.  1.
         11   -1    0    0    0    0 -0.00000000000E+00 -0.00000000000E+00 -0.45593999997E+02  0.45594000000E+02  0.51100000000E-03 0. -1.
    9900012    2    1    2    0    0  0.10047953648E+02 -0.42174877612E+02  0.19854867612E+01  0.47787264617E+02  0.19999970696E+02 0.  0.
         12    1    1    2    0    0 -0.10047953648E+02  0.42174877612E+02 -0.19854867612E+01  0.43400735383E+02  0.00000000000E+00 0. -1.
         11    1    3    3    0    0  0.64769907693E+01 -0.67015779981E+01 -0.12180595893E+01  0.93992673393E+01  0.51100000000E-03 0. -1.
        -11    1    3    3    0    0  0.75709521176E+01 -0.14158657897E+02  0.44637496410E+01  0.16664692333E+02  0.51100000000E-03 0.  1.
         12    1    3    3    0    0 -0.39999892392E+01 -0.21314641716E+02 -0.12602032905E+01  0.21723304945E+02  0.00000000000E+00 0. -1.
</event>
<event>
 7    1  0.2237500E-009  0.4778728E+02  0.7816164E-02  0.1312668E+00
        -11   -1    0    0    0    0  0.00000000000E+00  0.00000000000E+00  0.45593999997E+02  0.45594000000E+02  0.51100000000E-03 0.  1.
         11   -1    0    0    0    0 -0.00000000000E+00 -0.00000000000E+00 -0.45593999997E+02  0.45594000000E+02  0.51100000000E-03 0. -1.
    9900012    2    1    2    0    0 -0.34764312801E+02 -0.20400204283E+02  0.16090277347E+02  0.47787276453E+02  0.20000024658E+02 0.  0.
         12    1    1    2    0    0  0.34764312801E+02  0.20400204283E+02 -0.16090277347E+02  0.43400723547E+02  0.00000000000E+00 0. -1.
         11    1    3    3    0    0 -0.13861334662E+01 -0.96417971725E+00  0.33445826009E+01  0.37466306928E+01  0.51100000000E-03 0. -1.
        -11    1    3    3    0    0 -0.23999231004E+02 -0.18227990732E+02  0.15897549625E+02  0.34072787078E+02  0.51100000000E-03 0.  1.
         12    1    3    3    0    0 -0.93789483308E+01 -0.12080338342E+01 -0.31518548784E+01  0.99678586823E+01  0.00000000000E+00 0. -1.
</event>
<event>
 7    1  0.2237500E-009  0.4778727E+02  0.7816164E-02  0.1312668E+00
        -11   -1    0    0    0    0  0.00000000000E+00  0.00000000000E+00  0.45593999997E+02  0.45594000000E+02  0.51100000000E-03 0. -1.
         11   -1    0    0    0    0 -0.00000000000E+00 -0.00000000000E+00 -0.45593999997E+02  0.45594000000E+02  0.51100000000E-03 0.  1.
    9900012    2    1    2    0    0  0.10849116050E+02  0.37992106779E+02 -0.17958837116E+02  0.47787270431E+02  0.19999997201E+02 0.  0.
         12    1    1    2    0    0 -0.10849116050E+02 -0.37992106779E+02  0.17958837116E+02  0.43400729569E+02  0.00000000000E+00 0. -1.
         11    1    3    3    0    0  0.40921441084E+00  0.19723591727E+02 -0.94781019291E+01  0.21886569934E+02  0.51100000000E-03 0. -1.
        -11    1    3    3    0    0 -0.26803994504E+01  0.45276938091E+01 -0.32903218945E+01  0.62057047040E+01  0.51100000000E-03 0.  1.
        -12    1    3    3    0    0  0.13120301089E+02  0.13740821244E+02 -0.51904132927E+01  0.19694995793E+02  0.00000000000E+00 0.  1.
</event>
<event>
 7    1  0.2237500E-009  0.4778727E+02  0.7816164E-02  0.1312668E+00
        -11   -1    0    0    0    0  0.00000000000E+00  0.00000000000E+00  0.45593999997E+02  0.45594000000E+02  0.51100000000E-03 0.  1.
         11   -1    0    0    0    0 -0.00000000000E+00 -0.00000000000E+00 -0.45593999997E+02  0.45594000000E+02  0.51100000000E-03 0. -1.
    9900012    2    1    2    0    0  0.58089845267E+01  0.35137837888E+02 -0.24803459165E+02  0.47787267988E+02  0.19999986063E+02 0.  0.
         12    1    1    2    0    0 -0.58089845267E+01 -0.35137837888E+02  0.24803459165E+02  0.43400732012E+02  0.00000000000E+00 0. -1.
         11    1    3    3    0    0  0.36145305836E+01  0.15934868568E+02 -0.12864048525E+02  0.20795879696E+02  0.51100000000E-03 0. -1.
        -11    1    3    3    0    0 -0.10688632381E+01  0.63945396668E+01  0.29144187358E+01  0.71081954814E+01  0.51100000000E-03 0.  1.
        -12    1    3    3    0    0  0.32633171813E+01  0.12808429653E+02 -0.14853829376E+02  0.19883192810E+02  0.00000000000E+00 0.  1.
</event>
<event>
 7    1  0.2237500E-009  0.4778727E+02  0.7816164E-02  0.1312668E+00
        -11   -1    0    0    0    0  0.00000000000E+00  0.00000000000E+00  0.45593999997E+02  0.45594000000E+02  0.51100000000E-03 0.  1.
         11   -1    0    0    0    0 -0.00000000000E+00 -0.00000000000E+00 -0.45593999997E+02  0.45594000000E+02  0.51100000000E-03 0. -1.
    9900012    2    1    2    0    0 -0.62972040837E+01 -0.22822700290E+02  0.36374344349E+02  0.47787270114E+02  0.19999995757E+02 0.  0.
         12    1    1    2    0    0  0.62972040837E+01  0.22822700290E+02 -0.36374344349E+02  0.43400729886E+02  0.00000000000E+00 0. -1.
         11    1    3    3    0    0 -0.81514573057E+01 -0.17300142353E+02  0.17341450812E+02  0.25816024058E+02  0.51100000000E-03 0. -1.
        -11    1    3    3    0    0 -0.26494444619E+01 -0.47765516807E+01  0.14681062486E+02  0.15664245845E+02  0.51100000000E-03 0.  1.
         12    1    3    3    0    0  0.45036976839E+01 -0.74600625703E+00  0.43518310520E+01  0.63070002115E+01  0.00000000000E+00 0. -1.
</event>
<event>
 7    1  0.2237500E-009  0.4778728E+02  0.7816164E-02  0.1312668E+00
        -11   -1    0    0    0    0  0.00000000000E+00  0.00000000000E+00  0.45593999997E+02  0.45594000000E+02  0.51100000000E-03 0.  1.
         11   -1    0    0    0    0 -0.00000000000E+00 -0.00000000000E+00 -0.45593999997E+02  0.45594000000E+02  0.51100000000E-03 0. -1.
    9900012    2    1    2    0    0 -0.19601208157E+02  0.33857378302E+02 -0.18790778890E+02  0.47787276527E+02  0.20000024997E+02 0.  0.
         12    1    1    2    0    0  0.19601208157E+02 -0.33857378302E+02  0.18790778890E+02  0.43400723473E+02  0.00000000000E+00 0. -1.
         11    1    3    3    0    0 -0.10238485295E+02  0.13508557255E+02 -0.13541825163E+02  0.21695361929E+02  0.51100000000E-03 0.  1.
        -11    1    3    3    0    0  0.19537899717E+00  0.22656786102E+01 -0.51589525421E+01  0.56379308359E+01  0.51100000000E-03 0. -1.
        -12    1    3    3    0    0 -0.95581018593E+01  0.18083142436E+02 -0.90001185766E-01  0.20453983762E+02  0.00000000000E+00 0.  1.
</event>
<event>
 7    1  0.2237500E-009  0.4778728E+02  0.7816164E-02  0.1312668E+00
        -11   -1    0    0    0    0  0.00000000000E+00  0.00000000000E+00  0.45593999997E+02  0.45594000000E+02  0.51100000000E-03 0.  1.
         11   -1    0    0    0    0 -0.00000000000E+00 -0.00000000000E+00 -0.45593999997E+02  0.45594000000E+02  0.51100000000E-03 0. -1.
    9900012    2    1    2    0    0 -0.14752404571E+02  0.39390390169E+02  0.10695148967E+02  0.47787280079E+02  0.20000041190E+02 0.  0.
         12    1    1    2    0    0  0.14752404571E+02 -0.39390390169E+02 -0.10695148967E+02  0.43400719921E+02  0.00000000000E+00 0. -1.
         11    1    3    3    0    0 -0.73858981821E+01  0.17240251024E+02  0.23049754540E+01  0.18896842578E+02  0.51100000000E-03 0.  1.
        -11    1    3    3    0    0 -0.53510054024E+01  0.23246436733E+02  0.43550578207E+01  0.24248641374E+02  0.51100000000E-03 0. -1.
         12    1    3    3    0    0 -0.20155009863E+01 -0.10962975883E+01  0.40351156922E+01  0.46417961262E+01  0.00000000000E+00 0. -1.
</event>
<event>
 7    1  0.2237500E-009  0.4778727E+02  0.7816164E-02  0.1312668E+00
        -11   -1    0    0    0    0  0.00000000000E+00  0.00000000000E+00  0.45593999997E+02  0.45594000000E+02  0.51100000000E-03 0.  1.
         11   -1    0    0    0    0 -0.00000000000E+00 -0.00000000000E+00 -0.45593999997E+02  0.45594000000E+02  0.51100000000E-03 0. -1.
    9900012    2    1    2    0    0  0.17587304012E+02  0.39677515205E+02  0.67653518507E-01  0.47787273598E+02  0.20000011642E+02 0.  0.
         12    1    1    2    0    0 -0.17587304012E+02 -0.39677515205E+02 -0.67653518507E-01  0.43400726402E+02  0.00000000000E+00 0. -1.
         11    1    3    3    0    0 -0.24914842219E+00  0.88150335113E+00 -0.27426865029E+01  0.28916176457E+01  0.51100000000E-03 0. -1.
        -11    1    3    3    0    0  0.31646935842E+01  0.15680782779E+02 -0.43860059276E+01  0.16587322940E+02  0.51100000000E-03 0.  1.
         12    1    3    3    0    0  0.14671758850E+02  0.23115229074E+02  0.71963459490E+01  0.28308333012E+02  0.00000000000E+00 0. -1.
</event>
<event>
 7    1  0.2237500E-009  0.4778727E+02  0.7816164E-02  0.1312668E+00
        -11   -1    0    0    0    0  0.00000000000E+00  0.00000000000E+00  0.45593999997E+02  0.45594000000E+02  0.51100000000E-03 0.  1.
         11   -1    0    0    0    0 -0.00000000000E+00 -0.00000000000E+00 -0.45593999997E+02  0.45594000000E+02  0.51100000000E-03 0. -1.
    9900012    2    1    2    0    0 -0.41993115088E+01 -0.21139690602E+02  0.37670979756E+02  0.47787268996E+02  0.19999990661E+02 0.  0.
         12    1    1    2    0    0  0.41993115088E+01  0.21139690602E+02 -0.37670979756E+02  0.43400731004E+02  0.00000000000E+00 0. -1.
         11    1    3    3    0    0 -0.14461206319E+01  0.61881805677E+00 -0.12451473395E+01  0.20061387857E+01  0.51100000000E-03 0. -1.
        -11    1    3    3    0    0  0.60672367095E+00 -0.10395199710E+02  0.96087522626E+01  0.14168853550E+02  0.51100000000E-03 0.  1.
        -12    1    3    3    0    0 -0.33599145478E+01 -0.11363308949E+02  0.29307374833E+02  0.31612276660E+02  0.00000000000E+00 0.  1.
</event>
<event>
 7    1  0.2237500E-009  0.4778727E+02  0.7816164E-02  0.1312668E+00
        -11   -1    0    0    0    0  0.00000000000E+00  0.00000000000E+00  0.45593999997E+02  0.45594000000E+02  0.51100000000E-03 0.  1.
         11   -1    0    0    0    0 -0.00000000000E+00 -0.00000000000E+00 -0.45593999997E+02  0.45594000000E+02  0.51100000000E-03 0. -1.
    9900012    2    1    2    0    0 -0.80615498049E+01 -0.16643349149E+02  0.39263642256E+02  0.47787271212E+02  0.20000000765E+02 0.  0.
         12    1    1    2    0    0  0.80615498049E+01  0.16643349149E+02 -0.39263642256E+02  0.43400728788E+02  0.00000000000E+00 0. -1.
         11    1    3    3    0    0 -0.47091942919E+01 -0.47161176026E+01  0.76426309484E+01  0.10140418344E+02  0.51100000000E-03 0. -1.
        -11    1    3    3    0    0  0.22852279460E+01 -0.61340116634E+01  0.18562836658E+01  0.68039808319E+01  0.51100000000E-03 0.  1.
        -12    1    3    3    0    0 -0.56375834590E+01 -0.57932198828E+01  0.29764727641E+02  0.30842872036E+02  0.00000000000E+00 0.  1.
</event>
<event>
 7    1  0.2237500E-009  0.4778727E+02  0.7816164E-02  0.1312668E+00
        -11   -1    0    0    0    0  0.00000000000E+00  0.00000000000E+00  0.45593999997E+02  0.45594000000E+02  0.51100000000E-03 0.  1.
         11   -1    0    0    0    0 -0.00000000000E+00 -0.00000000000E+00 -0.45593999997E+02  0.45594000000E+02  0.51100000000E-03 0. -1.
    9900012    2    1    2    0    0 -0.67357091093E+01 -0.26642054708E+02  0.33592472954E+02  0.47787273100E+02  0.20000009373E+02 0.  0.
         12    1    1    2    0    0  0.67357091093E+01  0.26642054708E+02 -0.33592472954E+02  0.43400726900E+02  0.00000000000E+00 0. -1.
         11    1    3    3    0    0  0.69791642179E+00  0.11497051016E+01  0.14231623019E+01  0.19581369592E+01  0.51100000000E-03 0. -1.
        -11    1    3    3    0    0 -0.93903343896E+01 -0.15162946145E+02  0.26273552825E+02  0.31755202629E+02  0.51100000000E-03 0.  1.
         12    1    3    3    0    0  0.19567088585E+01 -0.12628813664E+02  0.58957578277E+01  0.14073933512E+02  0.00000000000E+00 0. -1.
</event>
<event>
 7    1  0.2237500E-009  0.4778727E+02  0.7816164E-02  0.1312668E+00
        -11   -1    0    0    0    0  0.00000000000E+00  0.00000000000E+00  0.45593999997E+02  0.45594000000E+02  0.51100000000E-03 0. -1.
         11   -1    0    0    0    0 -0.00000000000E+00 -0.00000000000E+00 -0.45593999997E+02  0.45594000000E+02  0.51100000000E-03 0.  1.
    9900012    2    1    2    0    0  0.12619184817E+01  0.42770291883E+02  0.72617623644E+01  0.47787268455E+02  0.19999988192E+02 0.  0.
         12    1    1    2    0    0 -0.12619184817E+01 -0.42770291883E+02 -0.72617623644E+01  0.43400731545E+02  0.00000000000E+00 0. -1.
         11    1    3    3    0    0 -0.21173223604E+01  0.35245044219E+01  0.20581698409E+01  0.45979613692E+01  0.51100000000E-03 0. -1.
        -11    1    3    3    0    0  0.51609980634E+01  0.40415089961E+02  0.49147228848E+01  0.41038639096E+02  0.51100000000E-03 0.  1.
        -12    1    3    3    0    0 -0.17817572213E+01 -0.11693024996E+01  0.28886963872E+00  0.21506679891E+01  0.00000000000E+00 0.  1.
</event>
<event>
 7    1  0.2237500E-009  0.4778727E+02  0.7816164E-02  0.1312668E+00
        -11   -1    0    0    0    0  0.00000000000E+00  0.00000000000E+00  0.45593999997E+02  0.45594000000E+02  0.51100000000E-03 0.  1.
         11   -1    0    0    0    0 -0.00000000000E+00 -0.00000000000E+00 -0.45593999997E+02  0.45594000000E+02  0.51100000000E-03 0. -1.
    9900012    2    1    2    0    0 -0.43077520510E+02  0.30898426977E+01  0.42899238974E+01  0.47787270188E+02  0.19999996096E+02 0.  0.
         12    1    1    2    0    0  0.43077520510E+02 -0.30898426977E+01 -0.42899238974E+01  0.43400729812E+02  0.00000000000E+00 0. -1.
         11    1    3    3    0    0 -0.92097134085E+01 -0.34123611282E+01 -0.12733476565E+01  0.99037590869E+01  0.51100000000E-03 0. -1.
        -11    1    3    3    0    0 -0.13903365890E+02 -0.13059116995E+01  0.83430701877E+01  0.16267015979E+02  0.51100000000E-03 0.  1.
        -12    1    3    3    0    0 -0.19964441211E+02  0.78081155254E+01 -0.27797986338E+01  0.21616495122E+02  0.00000000000E+00 0.  1.
</event>
<event>
 7    1  0.2237500E-009  0.4778727E+02  0.7816164E-02  0.1312668E+00
        -11   -1    0    0    0    0  0.00000000000E+00  0.00000000000E+00  0.45593999997E+02  0.45594000000E+02  0.51100000000E-03 0.  1.
         11   -1    0    0    0    0 -0.00000000000E+00 -0.00000000000E+00 -0.45593999997E+02  0.45594000000E+02  0.51100000000E-03 0. -1.
    9900012    2    1    2    0    0  0.24586615187E+02 -0.34659219346E+01  0.35596470043E+02  0.47787274882E+02  0.20000017499E+02 0.  0.
         12    1    1    2    0    0 -0.24586615187E+02  0.34659219346E+01 -0.35596470043E+02  0.43400725118E+02  0.00000000000E+00 0. -1.
         11    1    3    3    0    0  0.33780044427E+01 -0.37773547988E+01  0.64296676914E+01  0.81865713320E+01  0.51100000000E-03 0.  1.
        -11    1    3    3    0    0  0.10567527630E+02  0.34767890732E+01  0.35431579559E+01  0.11675387404E+02  0.51100000000E-03 0. -1.
         12    1    3    3    0    0  0.10641083115E+02 -0.31653562090E+01  0.25623644396E+02  0.27925316147E+02  0.00000000000E+00 0. -1.
</event>
<event>
 7    1  0.2237500E-009  0.4778727E+02  0.7816164E-02  0.1312668E+00
        -11   -1    0    0    0    0  0.00000000000E+00  0.00000000000E+00  0.45593999997E+02  0.45594000000E+02  0.51100000000E-03 0. -1.
         11   -1    0    0    0    0 -0.00000000000E+00 -0.00000000000E+00 -0.45593999997E+02  0.45594000000E+02  0.51100000000E-03 0.  1.
    9900012    2    1    2    0    0  0.37325679648E+02  0.21800934220E+02 -0.38905140162E+01  0.47787271972E+02  0.20000004228E+02 0.  0.
         12    1    1    2    0    0 -0.37325679648E+02 -0.21800934220E+02  0.38905140162E+01  0.43400728028E+02  0.00000000000E+00 0. -1.
         11    1    3    3    0    0 -0.69041452593E+00  0.18641777956E+01 -0.17541660496E+01  0.26512129039E+01  0.51100000000E-03 0. -1.
        -11    1    3    3    0    0  0.10430862636E+02  0.11297829736E+00 -0.38602949666E+01  0.11122838528E+02  0.51100000000E-03 0.  1.
        -12    1    3    3    0    0  0.27585231538E+02  0.19823778127E+02  0.17239470000E+01  0.34013220540E+02  0.00000000000E+00 0.  1.
</event>
<event>
 7    1  0.2237500E-009  0.4778727E+02  0.7816164E-02  0.1312668E+00
        -11   -1    0    0    0    0  0.00000000000E+00  0.00000000000E+00  0.45593999997E+02  0.45594000000E+02  0.51100000000E-03 0.  1.
         11   -1    0    0    0    0 -0.00000000000E+00 -0.00000000000E+00 -0.45593999997E+02  0.45594000000E+02  0.51100000000E-03 0. -1.
    9900012    2    1    2    0    0  0.29269215288E+02 -0.32006306230E+02  0.15914277381E+01  0.47787271385E+02  0.20000001553E+02 0.  0.
         12    1    1    2    0    0 -0.29269215288E+02  0.32006306230E+02 -0.15914277381E+01  0.43400728615E+02  0.00000000000E+00 0. -1.
         11    1    3    3    0    0  0.80332926876E+01 -0.86421668790E+01 -0.37641233335E+01  0.12385050040E+02  0.51100000000E-03 0. -1.
        -11    1    3    3    0    0  0.13957357570E+02 -0.46548296874E+01  0.37270585276E+00  0.14717818442E+02  0.51100000000E-03 0.  1.
         12    1    3    3    0    0  0.72785650304E+01 -0.18709309663E+02  0.49828452189E+01  0.20684402903E+02  0.00000000000E+00 0. -1.
</event>
<event>
 7    1  0.2237500E-009  0.4778727E+02  0.7816164E-02  0.1312668E+00
        -11   -1    0    0    0    0  0.00000000000E+00  0.00000000000E+00  0.45593999997E+02  0.45594000000E+02  0.51100000000E-03 0. -1.
         11   -1    0    0    0    0 -0.00000000000E+00 -0.00000000000E+00 -0.45593999997E+02  0.45594000000E+02  0.51100000000E-03 0.  1.
    9900012    2    1    2    0    0 -0.35072904189E+02 -0.22145230692E+02  0.12771197118E+02  0.47787270438E+02  0.19999997236E+02 0.  0.
         12    1    1    2    0    0  0.35072904189E+02  0.22145230692E+02 -0.12771197118E+02  0.43400729562E+02  0.00000000000E+00 0. -1.
         11    1    3    3    0    0 -0.12150397373E+02 -0.13065547406E+02  0.10606742599E+02  0.20756774175E+02  0.51100000000E-03 0. -1.
        -11    1    3    3    0    0 -0.12849135360E+02 -0.30346885899E+01  0.62303053120E+01  0.14598846492E+02  0.51100000000E-03 0.  1.
        -12    1    3    3    0    0 -0.10073371456E+02 -0.60449946964E+01 -0.40658507928E+01  0.12431649771E+02  0.00000000000E+00 0.  1.
</event>
<event>
 7    1  0.2237500E-009  0.4778727E+02  0.7816164E-02  0.1312668E+00
        -11   -1    0    0    0    0  0.00000000000E+00  0.00000000000E+00  0.45593999997E+02  0.45594000000E+02  0.51100000000E-03 0.  1.
         11   -1    0    0    0    0 -0.00000000000E+00 -0.00000000000E+00 -0.45593999997E+02  0.45594000000E+02  0.51100000000E-03 0. -1.
    9900012    2    1    2    0    0  0.28389393379E+02  0.20758411014E+02  0.25431362888E+02  0.47787268410E+02  0.19999987988E+02 0.  0.
         12    1    1    2    0    0 -0.28389393379E+02 -0.20758411014E+02 -0.25431362888E+02  0.43400731590E+02  0.00000000000E+00 0. -1.
         11    1    3    3    0    0 -0.18907897789E+00  0.24510066854E+01  0.68676037648E+00  0.25524154653E+01  0.51100000000E-03 0. -1.
        -11    1    3    3    0    0  0.43495639240E+01  0.11916386486E+02  0.10070263350E+02  0.16196579189E+02  0.51100000000E-03 0.  1.
         12    1    3    3    0    0  0.24228908433E+02  0.63910178423E+01  0.14674339161E+02  0.29038273756E+02  0.00000000000E+00 0. -1.
</event>
<event>
 7    1  0.2237500E-009  0.4778727E+02  0.7816164E-02  0.1312668E+00
        -11   -1    0    0    0    0  0.00000000000E+00  0.00000000000E+00  0.45593999997E+02  0.45594000000E+02  0.51100000000E-03 0. -1.
         11   -1    0    0    0    0 -0.00000000000E+00 -0.00000000000E+00 -0.45593999997E+02  0.45594000000E+02  0.51100000000E-03 0.  1.
    9900012    2    1    2    0    0 -0.27858732892E+02 -0.31294763512E+02 -0.11320434486E+02  0.47787268917E+02  0.19999990300E+02 0.  0.
         12    1    1    2    0    0  0.27858732892E+02  0.31294763512E+02  0.11320434486E+02  0.43400731083E+02  0.00000000000E+00 0. -1.
         11    1    3    3    0    0  0.12146868599E+01 -0.26405602671E+01 -0.51772172843E+01  0.59373059347E+01  0.51100000000E-03 0. -1.
        -11    1    3    3    0    0 -0.77215973738E+01 -0.39677654073E+01 -0.23307748027E+01  0.89888119222E+01  0.51100000000E-03 0.  1.
        -12    1    3    3    0    0 -0.21351822378E+02 -0.24686437837E+02 -0.38124423989E+01  0.32861151060E+02  0.00000000000E+00 0.  1.
</event>
<event>
 7    1  0.2237500E-009  0.4778727E+02  0.7816164E-02  0.1312668E+00
        -11   -1    0    0    0    0  0.00000000000E+00  0.00000000000E+00  0.45593999997E+02  0.45594000000E+02  0.51100000000E-03 0.  1.
         11   -1    0    0    0    0 -0.00000000000E+00 -0.00000000000E+00 -0.45593999997E+02  0.45594000000E+02  0.51100000000E-03 0. -1.
    9900012    2    1    2    0    0 -0.19824099603E+01 -0.14542624822E+01  0.43331033088E+02  0.47787271238E+02  0.20000000883E+02 0.  0.
         12    1    1    2    0    0  0.19824099603E+01  0.14542624822E+01 -0.43331033088E+02  0.43400728762E+02  0.00000000000E+00 0. -1.
         11    1    3    3    0    0 -0.95138549050E+00  0.44810231659E+01  0.25233734078E+02  0.25646170060E+02  0.51100000000E-03 0. -1.
        -11    1    3    3    0    0 -0.19043955424E+01 -0.41463891659E+01  0.19288753385E+02  0.19821081527E+02  0.51100000000E-03 0.  1.
         12    1    3    3    0    0  0.87337107263E+00 -0.17888964822E+01 -0.11914543749E+01  0.23200196512E+01  0.00000000000E+00 0. -1.
</event>
<event>
 7    1  0.2237500E-009  0.4778727E+02  0.7816164E-02  0.1312668E+00
        -11   -1    0    0    0    0  0.00000000000E+00  0.00000000000E+00  0.45593999997E+02  0.45594000000E+02  0.51100000000E-03 0. -1.
         11   -1    0    0    0    0 -0.00000000000E+00 -0.00000000000E+00 -0.45593999997E+02  0.45594000000E+02  0.51100000000E-03 0.  1.
    9900012    2    1    2    0    0  0.15882405632E+02  0.23442036179E+02 -0.32891387080E+02  0.47787271747E+02  0.20000003202E+02 0.  0.
         12    1    1    2    0    0 -0.15882405632E+02 -0.23442036179E+02  0.32891387080E+02  0.43400728253E+02  0.00000000000E+00 0. -1.
         11    1    3    3    0    0  0.25055321372E+01  0.37527878607E+00  0.13346986071E+01  0.28635547997E+01  0.51100000000E-03 0. -1.
        -11    1    3    3    0    0  0.63478234777E+01  0.33398189318E+01 -0.41873290009E+01  0.83055991851E+01  0.51100000000E-03 0.  1.
        -12    1    3    3    0    0  0.70290500174E+01  0.19726938461E+02 -0.30038756686E+02  0.36618117762E+02  0.00000000000E+00 0.  1.
</event>
<event>
 7    1  0.2237500E-009  0.4778726E+02  0.7816164E-02  0.1312668E+00
        -11   -1    0    0    0    0  0.00000000000E+00  0.00000000000E+00  0.45593999997E+02  0.45594000000E+02  0.51100000000E-03 0.  1.
         11   -1    0    0    0    0 -0.00000000000E+00 -0.00000000000E+00 -0.45593999997E+02  0.45594000000E+02  0.51100000000E-03 0. -1.
    9900012    2    1    2    0    0 -0.82016555456E+01 -0.42329301334E+02  0.49585633450E+01  0.47787259735E+02  0.19999948437E+02 0.  0.
         12    1    1    2    0    0  0.82016555456E+01  0.42329301334E+02 -0.49585633450E+01  0.43400740265E+02  0.00000000000E+00 0. -1.
         11    1    3    3    0    0 -0.59057574948E+01 -0.10042186983E+02  0.39341944734E+01  0.12296396928E+02  0.51100000000E-03 0.  1.
        -11    1    3    3    0    0  0.60452003939E+00 -0.20546262284E+01  0.44385634618E+01  0.49282633129E+01  0.51100000000E-03 0. -1.
        -12    1    3    3    0    0 -0.29004180902E+01 -0.30232488122E+02 -0.34141945901E+01  0.30562599494E+02  0.00000000000E+00 0.  1.
</event>
<event>
 7    1  0.3069221E-009  0.4778727E+02  0.7816164E-02  0.1312668E+00
        -11   -1    0    0    0    0  0.00000000000E+00  0.00000000000E+00  0.45593999997E+02  0.45594000000E+02  0.51100000000E-03 0. -1.
         11   -1    0    0    0    0 -0.00000000000E+00 -0.00000000000E+00 -0.45593999997E+02  0.45594000000E+02  0.51100000000E-03 0.  1.
    9900012    2    1    2    0    0 -0.21033595575E+02  0.99388378118E+01 -0.36639197654E+02  0.47787269078E+02  0.19999991033E+02 0.  0.
         12    1    1    2    0    0  0.21033595575E+02 -0.99388378118E+01  0.36639197654E+02  0.43400730922E+02  0.00000000000E+00 0. -1.
         11    1    3    3    0    0  0.64560539981E+00 -0.24069767073E+01 -0.41803074879E+01  0.48667560198E+01  0.51100000000E-03 0. -1.
        -11    1    3    3    0    0 -0.12281986235E+02  0.43531575292E+01 -0.25794324066E+02  0.28898863656E+02  0.51100000000E-03 0.  1.
        -12    1    3    3    0    0 -0.93972147404E+01  0.79926569899E+01 -0.66645660998E+01  0.14021649401E+02  0.00000000000E+00 0.  1.
</event>
<event>
 7    1  0.2237500E-009  0.4778727E+02  0.7816164E-02  0.1312668E+00
        -11   -1    0    0    0    0  0.00000000000E+00  0.00000000000E+00  0.45593999997E+02  0.45594000000E+02  0.51100000000E-03 0.  1.
         11   -1    0    0    0    0 -0.00000000000E+00 -0.00000000000E+00 -0.45593999997E+02  0.45594000000E+02  0.51100000000E-03 0. -1.
    9900012    2    1    2    0    0  0.31765282267E+01  0.63087089574E+01  0.42822109353E+02  0.47787272014E+02  0.20000004419E+02 0.  0.
         12    1    1    2    0    0 -0.31765282267E+01 -0.63087089574E+01 -0.42822109353E+02  0.43400727986E+02  0.00000000000E+00 0. -1.
         11    1    3    3    0    0  0.74481532720E+01 -0.66795253901E+00  0.13523267565E+02  0.15453152224E+02  0.51100000000E-03 0. -1.
        -11    1    3    3    0    0  0.62684124277E+00  0.81620532011E+00  0.20511725968E+02  0.20537527201E+02  0.51100000000E-03 0.  1.
        -12    1    3    3    0    0 -0.48984662881E+01  0.61604561762E+01  0.87871158203E+01  0.11796592589E+02  0.00000000000E+00 0.  1.
</event>
<event>
 7    1  0.2237500E-009  0.4778727E+02  0.7816164E-02  0.1312668E+00
        -11   -1    0    0    0    0  0.00000000000E+00  0.00000000000E+00  0.45593999997E+02  0.45594000000E+02  0.51100000000E-03 0. -1.
         11   -1    0    0    0    0 -0.00000000000E+00 -0.00000000000E+00 -0.45593999997E+02  0.45594000000E+02  0.51100000000E-03 0.  1.
    9900012    2    1    2    0    0 -0.42668367986E+02 -0.54131068519E+01 -0.58078961987E+01  0.47787274077E+02  0.20000013825E+02 0.  0.
         12    1    1    2    0    0  0.42668367986E+02  0.54131068519E+01  0.58078961987E+01  0.43400725923E+02  0.00000000000E+00 0. -1.
         11    1    3    3    0    0 -0.11597173739E+02  0.27061306617E+00 -0.32407281907E-01  0.11600375884E+02  0.51100000000E-03 0. -1.
        -11    1    3    3    0    0 -0.11869868811E+02  0.59442798018E+01 -0.20889071919E+01  0.13438444161E+02  0.51100000000E-03 0.  1.
         12    1    3    3    0    0 -0.19201325437E+02 -0.11627999720E+02 -0.36865817248E+01  0.22748454032E+02  0.00000000000E+00 0. -1.
</event>
<event>
 7    1  0.2237500E-009  0.4778727E+02  0.7816164E-02  0.1312668E+00
        -11   -1    0    0    0    0  0.00000000000E+00  0.00000000000E+00  0.45593999997E+02  0.45594000000E+02  0.51100000000E-03 0.  1.
         11   -1    0    0    0    0 -0.00000000000E+00 -0.00000000000E+00 -0.45593999997E+02  0.45594000000E+02  0.51100000000E-03 0. -1.
    9900012    2    1    2    0    0 -0.73510818537E+01  0.40686736983E+02  0.13197508012E+02  0.47787272028E+02  0.20000004486E+02 0.  0.
         12    1    1    2    0    0  0.73510818537E+01 -0.40686736983E+02 -0.13197508012E+02  0.43400727972E+02  0.00000000000E+00 0. -1.
         11    1    3    3    0    0 -0.66217670820E+01  0.26464712240E+02  0.77295296511E+01  0.28354442723E+02  0.51100000000E-03 0. -1.
        -11    1    3    3    0    0 -0.20209919760E+01  0.16114878094E+02  0.54815560584E+01  0.17141212374E+02  0.51100000000E-03 0.  1.
         12    1    3    3    0    0  0.12916772043E+01 -0.18928533510E+01 -0.13577697490E-01  0.22916169318E+01  0.00000000000E+00 0. -1.
</event>
<event>
 7    1  0.2237500E-009  0.4778727E+02  0.7816164E-02  0.1312668E+00
        -11   -1    0    0    0    0  0.00000000000E+00  0.00000000000E+00  0.45593999997E+02  0.45594000000E+02  0.51100000000E-03 0.  1.
         11   -1    0    0    0    0 -0.00000000000E+00 -0.00000000000E+00 -0.45593999997E+02  0.45594000000E+02  0.51100000000E-03 0. -1.
    9900012    2    1    2    0    0 -0.28079619210E+02  0.30126522558E+02 -0.13694934611E+02  0.47787267167E+02  0.19999982323E+02 0.  0.
         12    1    1    2    0    0  0.28079619210E+02 -0.30126522558E+02  0.13694934611E+02  0.43400732833E+02  0.00000000000E+00 0. -1.
         11    1    3    3    0    0 -0.26128184957E+01  0.18884200349E+01 -0.46877386493E+01  0.56892745254E+01  0.51100000000E-03 0. -1.
        -11    1    3    3    0    0 -0.19439326248E+02  0.12563297869E+02 -0.10132878091E+02  0.25266560450E+02  0.51100000000E-03 0.  1.
        -12    1    3    3    0    0 -0.60274744663E+01  0.15674804654E+02  0.11256821286E+01  0.16831432192E+02  0.00000000000E+00 0.  1.
</event>
<event>
 7    1  0.2237500E-009  0.4778727E+02  0.7816164E-02  0.1312668E+00
        -11   -1    0    0    0    0  0.00000000000E+00  0.00000000000E+00  0.45593999997E+02  0.45594000000E+02  0.51100000000E-03 0.  1.
         11   -1    0    0    0    0 -0.00000000000E+00 -0.00000000000E+00 -0.45593999997E+02  0.45594000000E+02  0.51100000000E-03 0. -1.
    9900012    2    1    2    0    0  0.19707220111E+02  0.91213176700E+00  0.38657685908E+02  0.47787272026E+02  0.20000004477E+02 0.  0.
         12    1    1    2    0    0 -0.19707220111E+02 -0.91213176700E+00 -0.38657685908E+02  0.43400727974E+02  0.00000000000E+00 0. -1.
         11    1    3    3    0    0  0.84422992848E+01 -0.75686241706E+00  0.95550913236E+01  0.12772823822E+02  0.51100000000E-03 0. -1.
        -11    1    3    3    0    0  0.10628785627E+02  0.48839603782E+01  0.29479666150E+02  0.31715530414E+02  0.51100000000E-03 0.  1.
         12    1    3    3    0    0  0.63613519912E+00 -0.32149661942E+01 -0.37707156513E+00  0.32989177902E+01  0.00000000000E+00 0. -1.
</event>
<event>
 7    1  0.2237500E-009  0.4778727E+02  0.7816164E-02  0.1312668E+00
        -11   -1    0    0    0    0  0.00000000000E+00  0.00000000000E+00  0.45593999997E+02  0.45594000000E+02  0.51100000000E-03 0.  1.
         11   -1    0    0    0    0 -0.00000000000E+00 -0.00000000000E+00 -0.45593999997E+02  0.45594000000E+02  0.51100000000E-03 0. -1.
    9900012    2    1    2    0    0 -0.15450554538E+02  0.31410596479E+02  0.25656925445E+02  0.47787273853E+02  0.20000012808E+02 0.  0.
         12    1    1    2    0    0  0.15450554538E+02 -0.31410596479E+02 -0.25656925445E+02  0.43400726147E+02  0.00000000000E+00 0. -1.
         11    1    3    3    0    0  0.22575049073E+01  0.46678034864E+01  0.13954359494E+01  0.53695399751E+01  0.51100000000E-03 0. -1.
        -11    1    3    3    0    0 -0.25156522579E+01  0.38804912823E+01 -0.14094695419E+01  0.48345965215E+01  0.51100000000E-03 0.  1.
        -12    1    3    3    0    0 -0.15192407188E+02  0.22862301711E+02  0.25670959038E+02  0.37583137357E+02  0.00000000000E+00 0.  1.
</event>
<event>
 7    1  0.2237500E-009  0.4778727E+02  0.7816164E-02  0.1312668E+00
        -11   -1    0    0    0    0  0.00000000000E+00  0.00000000000E+00  0.45593999997E+02  0.45594000000E+02  0.51100000000E-03 0.  1.
         11   -1    0    0    0    0 -0.00000000000E+00 -0.00000000000E+00 -0.45593999997E+02  0.45594000000E+02  0.51100000000E-03 0. -1.
    9900012    2    1    2    0    0 -0.40817365524E+02  0.13852475899E+02  0.50670420461E+01  0.47787270375E+02  0.19999996950E+02 0.  0.
         12    1    1    2    0    0  0.40817365524E+02 -0.13852475899E+02 -0.50670420461E+01  0.43400729625E+02  0.00000000000E+00 0. -1.
         11    1    3    3    0    0 -0.30125122185E+01  0.45247254639E+00  0.17839700173E+01  0.35302281167E+01  0.51100000000E-03 0. -1.
        -11    1    3    3    0    0 -0.26672317537E+02  0.54539035168E+01 -0.58040496663E+01  0.27836030234E+02  0.51100000000E-03 0.  1.
         12    1    3    3    0    0 -0.11132535768E+02  0.79460998357E+01  0.90871216951E+01  0.16421012025E+02  0.00000000000E+00 0. -1.
</event>
<event>
 7    1  0.2237500E-009  0.4778726E+02  0.7816164E-02  0.1312668E+00
        -11   -1    0    0    0    0  0.00000000000E+00  0.00000000000E+00  0.45593999997E+02  0.45594000000E+02  0.51100000000E-03 0.  1.
         11   -1    0    0    0    0 -0.00000000000E+00 -0.00000000000E+00 -0.45593999997E+02  0.45594000000E+02  0.51100000000E-03 0. -1.
    9900012    2    1    2    0    0 -0.11270013777E+02 -0.46667597851E+01  0.41651314941E+02  0.47787263903E+02  0.19999967440E+02 0.  0.
         12    1    1    2    0    0  0.11270013777E+02  0.46667597851E+01 -0.41651314941E+02  0.43400736097E+02  0.00000000000E+00 0. -1.
         11    1    3    3    0    0 -0.36770025754E+01 -0.22831081800E+01  0.53641800110E+01  0.68925581864E+01  0.51100000000E-03 0. -1.
        -11    1    3    3    0    0 -0.12725773549E+02  0.60291104797E+00  0.22000618723E+02  0.25423139826E+02  0.51100000000E-03 0.  1.
         12    1    3    3    0    0  0.51327623467E+01 -0.29865626530E+01  0.14286516207E+02  0.15471565891E+02  0.00000000000E+00 0. -1.
</event>
<event>
 7    1  0.2237500E-009  0.4778728E+02  0.7816164E-02  0.1312668E+00
        -11   -1    0    0    0    0  0.00000000000E+00  0.00000000000E+00  0.45593999997E+02  0.45594000000E+02  0.51100000000E-03 0.  1.
         11   -1    0    0    0    0 -0.00000000000E+00 -0.00000000000E+00 -0.45593999997E+02  0.45594000000E+02  0.51100000000E-03 0. -1.
    9900012    2    1    2    0    0  0.13458197055E+02  0.11687192616E+02  0.39571564791E+02  0.47787282503E+02  0.20000052246E+02 0.  0.
         12    1    1    2    0    0 -0.13458197055E+02 -0.11687192616E+02 -0.39571564791E+02  0.43400717497E+02  0.00000000000E+00 0. -1.
         11    1    3    3    0    0  0.73396313780E+01  0.78219766623E+01  0.10826692211E+02  0.15240432151E+02  0.51100000000E-03 0. -1.
        -11    1    3    3    0    0  0.73637412924E+01  0.86148810729E+00  0.59090771357E+01  0.94807194051E+01  0.51100000000E-03 0.  1.
         12    1    3    3    0    0 -0.12451756152E+01  0.30037278463E+01  0.22835795445E+02  0.23066130947E+02  0.00000000000E+00 0. -1.
</event>
<event>
 7    1  0.2237500E-009  0.4778727E+02  0.7816164E-02  0.1312668E+00
        -11   -1    0    0    0    0  0.00000000000E+00  0.00000000000E+00  0.45593999997E+02  0.45594000000E+02  0.51100000000E-03 0. -1.
         11   -1    0    0    0    0 -0.00000000000E+00 -0.00000000000E+00 -0.45593999997E+02  0.45594000000E+02  0.51100000000E-03 0.  1.
    9900012    2    1    2    0    0  0.19349709389E+02  0.25165815136E+01 -0.38766985970E+02  0.47787266860E+02  0.19999980921E+02 0.  0.
         12    1    1    2    0    0 -0.19349709389E+02 -0.25165815136E+01  0.38766985970E+02  0.43400733140E+02  0.00000000000E+00 0. -1.
         11    1    3    3    0    0  0.14575870820E+01  0.66009498475E+00  0.38553357877E+00  0.16458802788E+01  0.51100000000E-03 0. -1.
        -11    1    3    3    0    0  0.16077220766E+00 -0.23453130213E+01 -0.18293092786E+02  0.18443524197E+02  0.51100000000E-03 0.  1.
        -12    1    3    3    0    0  0.17731350099E+02  0.42017995501E+01 -0.20859426763E+02  0.27697862384E+02  0.00000000000E+00 0.  1.
</event>
<event>
 7    1  0.2237500E-009  0.4778729E+02  0.7816164E-02  0.1312668E+00
        -11   -1    0    0    0    0  0.00000000000E+00  0.00000000000E+00  0.45593999997E+02  0.45594000000E+02  0.51100000000E-03 0. -1.
         11   -1    0    0    0    0 -0.00000000000E+00 -0.00000000000E+00 -0.45593999997E+02  0.45594000000E+02  0.51100000000E-03 0.  1.
    9900012    2    1    2    0    0  0.23890850152E+02  0.33745722230E+02 -0.13193768307E+02  0.47787285583E+02  0.20000066286E+02 0.  0.
         12    1    1    2    0    0 -0.23890850152E+02 -0.33745722230E+02  0.13193768307E+02  0.43400714417E+02  0.00000000000E+00 0. -1.
         11    1    3    3    0    0  0.93615527770E+01  0.52985089116E+01 -0.13630613882E+01  0.10843007133E+02  0.51100000000E-03 0. -1.
        -11    1    3    3    0    0  0.15496760895E+02  0.26586257353E+02 -0.68304675121E+01  0.31521960043E+02  0.51100000000E-03 0.  1.
        -12    1    3    3    0    0 -0.96746352087E+00  0.18609559655E+01 -0.50002394072E+01  0.54223184063E+01  0.00000000000E+00 0.  1.
</event>
<event>
 7    1  0.2237500E-009  0.4778728E+02  0.7816164E-02  0.1312668E+00
        -11   -1    0    0    0    0  0.00000000000E+00  0.00000000000E+00  0.45593999997E+02  0.45594000000E+02  0.51100000000E-03 0.  1.
         11   -1    0    0    0    0 -0.00000000000E+00 -0.00000000000E+00 -0.45593999997E+02  0.45594000000E+02  0.51100000000E-03 0. -1.
    9900012    2    1    2    0    0  0.24516412928E+02  0.65758716088E+00  0.35806917613E+02  0.47787282579E+02  0.20000052591E+02 0.  0.
         12    1    1    2    0    0 -0.24516412928E+02 -0.65758716088E+00 -0.35806917613E+02  0.43400717421E+02  0.00000000000E+00 0. -1.
         11    1    3    3    0    0 -0.23678263261E+00 -0.14176410914E+01  0.13219995386E+02  0.13297896470E+02  0.51100000000E-03 0. -1.
        -11    1    3    3    0    0  0.27444243977E+01 -0.22226054266E+01  0.42230968470E+01  0.55051237404E+01  0.51100000000E-03 0.  1.
        -12    1    3    3    0    0  0.22008771163E+02  0.42978336789E+01  0.18363825380E+02  0.28984262368E+02  0.00000000000E+00 0.  1.
</event>
<event>
 7    1  0.2406252E-009  0.4778727E+02  0.7816164E-02  0.1312668E+00
        -11   -1    0    0    0    0  0.00000000000E+00  0.00000000000E+00  0.45593999997E+02  0.45594000000E+02  0.51100000000E-03 0.  1.
         11   -1    0    0    0    0 -0.00000000000E+00 -0.00000000000E+00 -0.45593999997E+02  0.45594000000E+02  0.51100000000E-03 0. -1.
    9900012    2    1    2    0    0  0.12151618016E+02  0.38801390603E+02  0.15179385192E+02  0.47787268808E+02  0.19999989805E+02 0.  0.
         12    1    1    2    0    0 -0.12151618016E+02 -0.38801390603E+02 -0.15179385192E+02  0.43400731192E+02  0.00000000000E+00 0. -1.
         11    1    3    3    0    0  0.24622395319E+01  0.63745534361E+01 -0.30969689345E+01  0.75025843457E+01  0.51100000000E-03 0. -1.
        -11    1    3    3    0    0  0.55838167165E+01  0.34272696467E+01  0.42596807443E+01  0.78147339468E+01  0.51100000000E-03 0.  1.
        -12    1    3    3    0    0  0.41055617675E+01  0.28999567520E+02  0.14016673383E+02  0.32469950516E+02  0.00000000000E+00 0.  1.
</event>
<event>
 7    1  0.2237500E-009  0.4778727E+02  0.7816164E-02  0.1312668E+00
        -11   -1    0    0    0    0  0.00000000000E+00  0.00000000000E+00  0.45593999997E+02  0.45594000000E+02  0.51100000000E-03 0.  1.
         11   -1    0    0    0    0 -0.00000000000E+00 -0.00000000000E+00 -0.45593999997E+02  0.45594000000E+02  0.51100000000E-03 0. -1.
    9900012    2    1    2    0    0 -0.74409033022E+01  0.22992884455E+02  0.36049743587E+02  0.47787265096E+02  0.19999972879E+02 0.  0.
         12    1    1    2    0    0  0.74409033022E+01 -0.22992884455E+02 -0.36049743587E+02  0.43400734904E+02  0.00000000000E+00 0. -1.
         11    1    3    3    0    0 -0.32078262109E+00 -0.17123267076E+00 -0.90003661930E+00  0.97071535207E+00  0.51100000000E-03 0. -1.
        -11    1    3    3    0    0  0.29656864450E+01  0.10368805070E+02  0.22861912541E+02  0.25277944140E+02  0.51100000000E-03 0.  1.
         12    1    3    3    0    0 -0.10085807126E+02  0.12795312056E+02  0.14087867666E+02  0.21538605604E+02  0.00000000000E+00 0. -1.
</event>
<event>
 7    1  0.2237500E-009  0.4778727E+02  0.7816164E-02  0.1312668E+00
        -11   -1    0    0    0    0  0.00000000000E+00  0.00000000000E+00  0.45593999997E+02  0.45594000000E+02  0.51100000000E-03 0. -1.
         11   -1    0    0    0    0 -0.00000000000E+00 -0.00000000000E+00 -0.45593999997E+02  0.45594000000E+02  0.51100000000E-03 0.  1.
    9900012    2    1    2    0    0 -0.11808132728E+02 -0.32640530573E+02 -0.26053550632E+02  0.47787265731E+02  0.19999975772E+02 0.  0.
         12    1    1    2    0    0  0.11808132728E+02  0.32640530573E+02  0.26053550632E+02  0.43400734269E+02  0.00000000000E+00 0. -1.
         11    1    3    3    0    0  0.27464230962E+01 -0.30214263881E+01 -0.44987950385E+01  0.60754435477E+01  0.51100000000E-03 0. -1.
        -11    1    3    3    0    0  0.14645373031E+00 -0.14923947208E+02 -0.90225699588E+01  0.17439966109E+02  0.51100000000E-03 0.  1.
        -12    1    3    3    0    0 -0.14701009554E+02 -0.14695156977E+02 -0.12532185634E+02  0.24271856074E+02  0.00000000000E+00 0.  1.
</event>
<event>
 7    1  0.2237500E-009  0.4778727E+02  0.7816164E-02  0.1312668E+00
        -11   -1    0    0    0    0  0.00000000000E+00  0.00000000000E+00  0.45593999997E+02  0.45594000000E+02  0.51100000000E-03 0. -1.
         11   -1    0    0    0    0 -0.00000000000E+00 -0.00000000000E+00 -0.45593999997E+02  0.45594000000E+02  0.51100000000E-03 0.  1.
    9900012    2    1    2    0    0  0.37686752047E+02  0.20961026140E+02  0.48956581564E+01  0.47787269989E+02  0.19999995187E+02 0.  0.
         12    1    1    2    0    0 -0.37686752047E+02 -0.20961026140E+02 -0.48956581564E+01  0.43400730011E+02  0.00000000000E+00 0. -1.
         11    1    3    3    0    0 -0.83532361487E+00 -0.60884367846E+00 -0.14333192312E+01  0.17671616921E+01  0.51100000000E-03 0. -1.
        -11    1    3    3    0    0  0.46019719516E+01  0.46472358113E+01  0.47444463416E+01  0.80798959076E+01  0.51100000000E-03 0.  1.
        -12    1    3    3    0    0  0.33920103711E+02  0.16922634007E+02  0.15845310460E+01  0.37940212389E+02  0.00000000000E+00 0.  1.
</event>
<event>
 7    1  0.2237500E-009  0.4778726E+02  0.7816164E-02  0.1312668E+00
        -11   -1    0    0    0    0  0.00000000000E+00  0.00000000000E+00  0.45593999997E+02  0.45594000000E+02  0.51100000000E-03 0.  1.
         11   -1    0    0    0    0 -0.00000000000E+00 -0.00000000000E+00 -0.45593999997E+02  0.45594000000E+02  0.51100000000E-03 0. -1.
    9900012    2    1    2    0    0 -0.39574183837E+02  0.84625856517E+01  0.15680964753E+02  0.47787262243E+02  0.19999959871E+02 0.  0.
         12    1    1    2    0    0  0.39574183837E+02 -0.84625856517E+01 -0.15680964753E+02  0.43400737757E+02  0.00000000000E+00 0. -1.
         11    1    3    3    0    0 -0.74512680429E+01 -0.24037073746E+01 -0.18638767517E+01  0.80481824903E+01  0.51100000000E-03 0. -1.
        -11    1    3    3    0    0 -0.11418178636E+02  0.70460701892E+01  0.11917697694E+02  0.17945847070E+02  0.51100000000E-03 0.  1.
         12    1    3    3    0    0 -0.20704737158E+02  0.38202228371E+01  0.56271438107E+01  0.21793232683E+02  0.00000000000E+00 0. -1.
</event>
<event>
 7    1  0.2237500E-009  0.4778727E+02  0.7816164E-02  0.1312668E+00
        -11   -1    0    0    0    0  0.00000000000E+00  0.00000000000E+00  0.45593999997E+02  0.45594000000E+02  0.51100000000E-03 0. -1.
         11   -1    0    0    0    0 -0.00000000000E+00 -0.00000000000E+00 -0.45593999997E+02  0.45594000000E+02  0.51100000000E-03 0.  1.
    9900012    2    1    2    0    0 -0.20305730746E+02  0.18051546480E+02 -0.33844384059E+02  0.47787270009E+02  0.19999995278E+02 0.  0.
         12    1    1    2    0    0  0.20305730746E+02 -0.18051546480E+02  0.33844384059E+02  0.43400729991E+02  0.00000000000E+00 0. -1.
         11    1    3    3    0    0 -0.97061923554E+01  0.11401211586E+02 -0.67122542953E+01  0.16408904706E+02  0.51100000000E-03 0. -1.
        -11    1    3    3    0    0 -0.60745001202E+01  0.76270067202E+01 -0.11510030579E+02  0.15084813138E+02  0.51100000000E-03 0.  1.
        -12    1    3    3    0    0 -0.45250382702E+01 -0.97667182631E+00 -0.15622099185E+02  0.16293552164E+02  0.00000000000E+00 0.  1.
</event>
<event>
 7    1  0.2237500E-009  0.4778727E+02  0.7816164E-02  0.1312668E+00
        -11   -1    0    0    0    0  0.00000000000E+00  0.00000000000E+00  0.45593999997E+02  0.45594000000E+02  0.51100000000E-03 0.  1.
         11   -1    0    0    0    0 -0.00000000000E+00 -0.00000000000E+00 -0.45593999997E+02  0.45594000000E+02  0.51100000000E-03 0. -1.
    9900012    2    1    2    0    0 -0.26650320071E+02 -0.15660458179E+02  0.30465288013E+02  0.47787270928E+02  0.19999999468E+02 0.  0.
         12    1    1    2    0    0  0.26650320071E+02  0.15660458179E+02 -0.30465288013E+02  0.43400729072E+02  0.00000000000E+00 0. -1.
         11    1    3    3    0    0 -0.14176924344E+02 -0.33698163886E+01  0.64983540068E+01  0.15955232728E+02  0.51100000000E-03 0. -1.
        -11    1    3    3    0    0 -0.13162077151E+02 -0.80017498848E+01  0.13434577638E+02  0.20439083950E+02  0.51100000000E-03 0.  1.
        -12    1    3    3    0    0  0.68868142303E+00 -0.42888919056E+01  0.10532356368E+02  0.11392954250E+02  0.00000000000E+00 0.  1.
</event>
<event>
 7    1  0.2237500E-009  0.4778727E+02  0.7816164E-02  0.1312668E+00
        -11   -1    0    0    0    0  0.00000000000E+00  0.00000000000E+00  0.45593999997E+02  0.45594000000E+02  0.51100000000E-03 0.  1.
         11   -1    0    0    0    0 -0.00000000000E+00 -0.00000000000E+00 -0.45593999997E+02  0.45594000000E+02  0.51100000000E-03 0. -1.
    9900012    2    1    2    0    0  0.30945511637E+01 -0.32323084699E+02  0.28796960065E+02  0.47787274657E+02  0.20000016470E+02 0.  0.
         12    1    1    2    0    0 -0.30945511637E+01  0.32323084699E+02 -0.28796960065E+02  0.43400725343E+02  0.00000000000E+00 0. -1.
         11    1    3    3    0    0  0.25547520087E+01 -0.44135737415E+01  0.12685550039E+02  0.13672218951E+02  0.51100000000E-03 0. -1.
        -11    1    3    3    0    0  0.37924049700E+01 -0.70099224113E+01  0.81347673982E+00  0.80114350985E+01  0.51100000000E-03 0.  1.
        -12    1    3    3    0    0 -0.32526058150E+01 -0.20899588546E+02  0.15297933286E+02  0.26103620607E+02  0.00000000000E+00 0.  1.
</event>
<event>
 7    1  0.2237500E-009  0.4778727E+02  0.7816164E-02  0.1312668E+00
        -11   -1    0    0    0    0  0.00000000000E+00  0.00000000000E+00  0.45593999997E+02  0.45594000000E+02  0.51100000000E-03 0.  1.
         11   -1    0    0    0    0 -0.00000000000E+00 -0.00000000000E+00 -0.45593999997E+02  0.45594000000E+02  0.51100000000E-03 0. -1.
    9900012    2    1    2    0    0  0.26726907500E+02  0.20961094852E+02  0.27017179723E+02  0.47787273254E+02  0.20000010076E+02 0.  0.
         12    1    1    2    0    0 -0.26726907500E+02 -0.20961094852E+02 -0.27017179723E+02  0.43400726746E+02  0.00000000000E+00 0. -1.
         11    1    3    3    0    0  0.27073566902E+01 -0.10520056631E+01  0.39236313496E+01  0.48817393818E+01  0.51100000000E-03 0. -1.
        -11    1    3    3    0    0  0.97755173625E+01  0.73490253818E+01  0.22559818267E+00  0.12231917616E+02  0.51100000000E-03 0.  1.
         12    1    3    3    0    0  0.14244033447E+02  0.14664075133E+02  0.22867950191E+02  0.30673616257E+02  0.00000000000E+00 0. -1.
</event>
<event>
 7    1  0.2237500E-009  0.4778727E+02  0.7816164E-02  0.1312668E+00
        -11   -1    0    0    0    0  0.00000000000E+00  0.00000000000E+00  0.45593999997E+02  0.45594000000E+02  0.51100000000E-03 0.  1.
         11   -1    0    0    0    0 -0.00000000000E+00 -0.00000000000E+00 -0.45593999997E+02  0.45594000000E+02  0.51100000000E-03 0. -1.
    9900012    2    1    2    0    0 -0.40934715432E+02 -0.10373102874E+00  0.14420875003E+02  0.47787270473E+02  0.19999997393E+02 0.  0.
         12    1    1    2    0    0  0.40934715432E+02  0.10373102874E+00 -0.14420875003E+02  0.43400729527E+02  0.00000000000E+00 0. -1.
         11    1    3    3    0    0 -0.28838729173E+01 -0.10235354749E+01  0.91420394253E-01  0.30614875177E+01  0.51100000000E-03 0. -1.
        -11    1    3    3    0    0 -0.19055798928E+02  0.26066568966E+01  0.16748028579E+02  0.25503227139E+02  0.51100000000E-03 0.  1.
        -12    1    3    3    0    0 -0.18995043587E+02 -0.16868524504E+01 -0.24185739699E+01  0.19222555816E+02  0.00000000000E+00 0.  1.
</event>
<event>
 7    1  0.2837749E-009  0.4778732E+02  0.7816164E-02  0.1312668E+00
        -11   -1    0    0    0    0  0.00000000000E+00  0.00000000000E+00  0.45593999997E+02  0.45594000000E+02  0.51100000000E-03 0. -1.
         11   -1    0    0    0    0 -0.00000000000E+00 -0.00000000000E+00 -0.45593999997E+02  0.45594000000E+02  0.51100000000E-03 0.  1.
    9900012    2    1    2    0    0  0.34266335676E+02  0.23760697919E+02 -0.12036032068E+02  0.47787324957E+02  0.20000245806E+02 0.  0.
         12    1    1    2    0    0 -0.34266335676E+02 -0.23760697919E+02  0.12036032068E+02  0.43400675043E+02  0.00000000000E+00 0. -1.
         11    1    3    3    0    0 -0.28434920251E+00 -0.10120608915E+01  0.75997600569E+00  0.12971836830E+01  0.51100000000E-03 0. -1.
        -11    1    3    3    0    0  0.19451644139E+02  0.57078935760E+01 -0.42498872623E+01  0.20712509525E+02  0.51100000000E-03 0.  1.
        -12    1    3    3    0    0  0.15099040739E+02  0.19064865235E+02 -0.85461208118E+01  0.25777631749E+02  0.00000000000E+00 0.  1.
</event>
<event>
 7    1  0.2237500E-009  0.4778727E+02  0.7816164E-02  0.1312668E+00
        -11   -1    0    0    0    0  0.00000000000E+00  0.00000000000E+00  0.45593999997E+02  0.45594000000E+02  0.51100000000E-03 0.  1.
         11   -1    0    0    0    0 -0.00000000000E+00 -0.00000000000E+00 -0.45593999997E+02  0.45594000000E+02  0.51100000000E-03 0. -1.
    9900012    2    1    2    0    0 -0.23400453203E+02 -0.11295381722E+01  0.36534453167E+02  0.47787270342E+02  0.19999996799E+02 0.  0.
         12    1    1    2    0    0  0.23400453203E+02  0.11295381722E+01 -0.36534453167E+02  0.43400729658E+02  0.00000000000E+00 0. -1.
         11    1    3    3    0    0 -0.38990724729E+01  0.51212008382E+01  0.48773197362E+01  0.80757484015E+01  0.51100000000E-03 0. -1.
        -11    1    3    3    0    0 -0.55235931230E+01  0.20732266846E+00  0.13084370272E+01  0.56802351530E+01  0.51100000000E-03 0.  1.
        -12    1    3    3    0    0 -0.13977787607E+02 -0.64580616789E+01  0.30348696404E+02  0.34031286788E+02  0.00000000000E+00 0.  1.
</event>
<event>
 7    1  0.2237500E-009  0.4778727E+02  0.7816164E-02  0.1312668E+00
        -11   -1    0    0    0    0  0.00000000000E+00  0.00000000000E+00  0.45593999997E+02  0.45594000000E+02  0.51100000000E-03 0. -1.
         11   -1    0    0    0    0 -0.00000000000E+00 -0.00000000000E+00 -0.45593999997E+02  0.45594000000E+02  0.51100000000E-03 0.  1.
    9900012    2    1    2    0    0 -0.16152984131E+02  0.39360648256E+02 -0.85699258241E+01  0.47787272402E+02  0.20000006188E+02 0.  0.
         12    1    1    2    0    0  0.16152984131E+02 -0.39360648256E+02  0.85699258241E+01  0.43400727598E+02  0.00000000000E+00 0. -1.
         11    1    3    3    0    0  0.37250396702E+00 -0.33818277760E+00  0.15725456728E+01  0.16510684270E+01  0.51100000000E-03 0. -1.
        -11    1    3    3    0    0 -0.99701182444E+01  0.86270594164E+01 -0.41310247729E+01  0.13816467635E+02  0.51100000000E-03 0.  1.
        -12    1    3    3    0    0 -0.65553698537E+01  0.31071771617E+02 -0.60114467240E+01  0.32319736339E+02  0.00000000000E+00 0.  1.
</event>
<event>
 7    1  0.2237500E-009  0.4778724E+02  0.7816164E-02  0.1312668E+00
        -11   -1    0    0    0    0  0.00000000000E+00  0.00000000000E+00  0.45593999997E+02  0.45594000000E+02  0.51100000000E-03 0.  1.
         11   -1    0    0    0    0 -0.00000000000E+00 -0.00000000000E+00 -0.45593999997E+02  0.45594000000E+02  0.51100000000E-03 0. -1.
    9900012    2    1    2    0    0 -0.27685385874E+02  0.18422675861E+02  0.27888182528E+02  0.47787236163E+02  0.19999840961E+02 0.  0.
         12    1    1    2    0    0  0.27685385874E+02 -0.18422675861E+02 -0.27888182528E+02  0.43400763837E+02  0.00000000000E+00 0. -1.
         11    1    3    3    0    0 -0.50309877007E+01 -0.20744698256E+01  0.64896073318E+00  0.54804573346E+01  0.51100000000E-03 0. -1.
        -11    1    3    3    0    0 -0.46588978204E+01  0.67016643812E+01  0.20508686648E+01  0.84156816076E+01  0.51100000000E-03 0.  1.
        -12    1    3    3    0    0 -0.17995500353E+02  0.13795481306E+02  0.25188353130E+02  0.33891097221E+02  0.00000000000E+00 0.  1.
</event>
<event>
 7    1  0.2237500E-009  0.4778722E+02  0.7816164E-02  0.1312668E+00
        -11   -1    0    0    0    0  0.00000000000E+00  0.00000000000E+00  0.45593999997E+02  0.45594000000E+02  0.51100000000E-03 0. -1.
         11   -1    0    0    0    0 -0.00000000000E+00 -0.00000000000E+00 -0.45593999997E+02  0.45594000000E+02  0.51100000000E-03 0.  1.
    9900012    2    1    2    0    0  0.39235155236E+02  0.18342856909E+02  0.27874798868E+01  0.47787218324E+02  0.19999759623E+02 0.  0.
         12    1    1    2    0    0 -0.39235155236E+02 -0.18342856909E+02 -0.27874798868E+01  0.43400781676E+02  0.00000000000E+00 0. -1.
         11    1    3    3    0    0  0.26840807423E+02  0.20095922012E+02  0.41242906130E+01  0.33782906890E+02  0.51100000000E-03 0.  1.
        -11    1    3    3    0    0  0.77233957981E+01 -0.22308473589E+01  0.19507978898E+01  0.82724322458E+01  0.51100000000E-03 0. -1.
        -12    1    3    3    0    0  0.46709520149E+01  0.47778225632E+00 -0.32876086160E+01  0.57318791877E+01  0.00000000000E+00 0.  1.
</event>
<event>
 7    1  0.2237500E-009  0.4778731E+02  0.7816164E-02  0.1312668E+00
        -11   -1    0    0    0    0  0.00000000000E+00  0.00000000000E+00  0.45593999997E+02  0.45594000000E+02  0.51100000000E-03 0.  1.
         11   -1    0    0    0    0 -0.00000000000E+00 -0.00000000000E+00 -0.45593999997E+02  0.45594000000E+02  0.51100000000E-03 0. -1.
    9900012    2    1    2    0    0 -0.43244623345E+02  0.35234109240E+01  0.10528123593E+01  0.47787305459E+02  0.20000156909E+02 0.  0.
         12    1    1    2    0    0  0.43244623345E+02 -0.35234109240E+01 -0.10528123593E+01  0.43400694541E+02  0.00000000000E+00 0. -1.
         11    1    3    3    0    0 -0.18243842426E+02 -0.52073975710E+01  0.17517960381E+01  0.19053177309E+02  0.51100000000E-03 0. -1.
        -11    1    3    3    0    0 -0.20290318665E+02  0.25815655818E+01  0.19523871943E+01  0.20546856898E+02  0.51100000000E-03 0.  1.
         12    1    3    3    0    0 -0.47104622536E+01  0.61492429132E+01 -0.26513708730E+01  0.81872712520E+01  0.00000000000E+00 0. -1.
</event>
<event>
 7    1  0.2237500E-009  0.4778728E+02  0.7816164E-02  0.1312668E+00
        -11   -1    0    0    0    0  0.00000000000E+00  0.00000000000E+00  0.45593999997E+02  0.45594000000E+02  0.51100000000E-03 0.  1.
         11   -1    0    0    0    0 -0.00000000000E+00 -0.00000000000E+00 -0.45593999997E+02  0.45594000000E+02  0.51100000000E-03 0. -1.
    9900012    2    1    2    0    0 -0.34944382449E+02  0.25521868476E+02 -0.33387418376E+01  0.47787276131E+02  0.20000023193E+02 0.  0.
         12    1    1    2    0    0  0.34944382449E+02 -0.25521868476E+02  0.33387418376E+01  0.43400723869E+02  0.00000000000E+00 0. -1.
         11    1    3    3    0    0 -0.17761538652E+02  0.40228411152E+01  0.10309041928E+00  0.18211703211E+02  0.51100000000E-03 0. -1.
        -11    1    3    3    0    0 -0.67954920309E+01  0.52310792871E+01 -0.54640993966E+01  0.10168543894E+02  0.51100000000E-03 0.  1.
        -12    1    3    3    0    0 -0.10387351766E+02  0.16267948074E+02  0.20222671397E+01  0.19407029026E+02  0.00000000000E+00 0.  1.
</event>
<event>
 7    1  0.2237500E-009  0.4778727E+02  0.7816164E-02  0.1312668E+00
        -11   -1    0    0    0    0  0.00000000000E+00  0.00000000000E+00  0.45593999997E+02  0.45594000000E+02  0.51100000000E-03 0.  1.
         11   -1    0    0    0    0 -0.00000000000E+00 -0.00000000000E+00 -0.45593999997E+02  0.45594000000E+02  0.51100000000E-03 0. -1.
    9900012    2    1    2    0    0 -0.17342443754E+02 -0.36820305751E+02  0.15070767995E+02  0.47787270525E+02  0.19999997634E+02 0.  0.
         12    1    1    2    0    0  0.17342443754E+02  0.36820305751E+02 -0.15070767995E+02  0.43400729475E+02  0.00000000000E+00 0. -1.
         11    1    3    3    0    0 -0.17547393899E+01 -0.12563034222E+00 -0.14831033713E+01  0.23009757018E+01  0.51100000000E-03 0. -1.
        -11    1    3    3    0    0 -0.94360406130E+01 -0.98209241116E+01  0.10658122338E+02  0.17294073693E+02  0.51100000000E-03 0.  1.
         12    1    3    3    0    0 -0.61516637507E+01 -0.26873751297E+02  0.58957490283E+01  0.28192221131E+02  0.00000000000E+00 0. -1.
</event>
<event>
 7    1  0.2237500E-009  0.4778727E+02  0.7816164E-02  0.1312668E+00
        -11   -1    0    0    0    0  0.00000000000E+00  0.00000000000E+00  0.45593999997E+02  0.45594000000E+02  0.51100000000E-03 0. -1.
         11   -1    0    0    0    0 -0.00000000000E+00 -0.00000000000E+00 -0.45593999997E+02  0.45594000000E+02  0.51100000000E-03 0.  1.
    9900012    2    1    2    0    0  0.37003532471E+02  0.71429173287E+01  0.21525351164E+02  0.47787269292E+02  0.19999992008E+02 0.  0.
         12    1    1    2    0    0 -0.37003532471E+02 -0.71429173287E+01 -0.21525351164E+02  0.43400730708E+02  0.00000000000E+00 0. -1.
         11    1    3    3    0    0  0.56191490675E+01  0.39472547379E+01  0.26301913497E+00  0.68720328532E+01  0.51100000000E-03 0. -1.
        -11    1    3    3    0    0  0.17540168755E+02  0.28827731439E+01  0.30484537466E+01  0.18034992971E+02  0.51100000000E-03 0.  1.
        -12    1    3    3    0    0  0.13844214648E+02  0.31288944692E+00  0.18213878283E+02  0.22880243467E+02  0.00000000000E+00 0.  1.
</event>
<event>
 7    1  0.2237500E-009  0.4778725E+02  0.7816164E-02  0.1312668E+00
        -11   -1    0    0    0    0  0.00000000000E+00  0.00000000000E+00  0.45593999997E+02  0.45594000000E+02  0.51100000000E-03 0.  1.
         11   -1    0    0    0    0 -0.00000000000E+00 -0.00000000000E+00 -0.45593999997E+02  0.45594000000E+02  0.51100000000E-03 0. -1.
    9900012    2    1    2    0    0  0.13600726439E+02  0.11679790392E+02  0.39525024064E+02  0.47787253572E+02  0.19999920336E+02 0.  0.
         12    1    1    2    0    0 -0.13600726439E+02 -0.11679790392E+02 -0.39525024064E+02  0.43400746428E+02  0.00000000000E+00 0. -1.
         11    1    3    3    0    0 -0.24065347057E+01  0.58889060689E+01  0.73688000973E+01  0.97349801804E+01  0.51100000000E-03 0. -1.
        -11    1    3    3    0    0  0.95164109020E+01  0.89571460863E+01  0.22026653817E+02  0.25611833615E+02  0.51100000000E-03 0.  1.
         12    1    3    3    0    0  0.64908502430E+01 -0.31662617633E+01  0.10129570149E+02  0.12440439777E+02  0.00000000000E+00 0. -1.
</event>
<event>
 7    1  0.2237500E-009  0.4778727E+02  0.7816164E-02  0.1312668E+00
        -11   -1    0    0    0    0  0.00000000000E+00  0.00000000000E+00  0.45593999997E+02  0.45594000000E+02  0.51100000000E-03 0.  1.
         11   -1    0    0    0    0 -0.00000000000E+00 -0.00000000000E+00 -0.45593999997E+02  0.45594000000E+02  0.51100000000E-03 0. -1.
    9900012    2    1    2    0    0  0.14537835225E+02  0.39558524664E+02  0.10363288539E+02  0.47787271021E+02  0.19999999892E+02 0.  0.
         12    1    1    2    0    0 -0.14537835225E+02 -0.39558524664E+02 -0.10363288539E+02  0.43400728979E+02  0.00000000000E+00 0. -1.
         11    1    3    3    0    0  0.45481380457E+01  0.18803172532E+02  0.10057172809E+02  0.21803476376E+02  0.51100000000E-03 0.  1.
        -11    1    3    3    0    0  0.10887350287E+02  0.12446369673E+02  0.37310312478E+01  0.16951905756E+02  0.51100000000E-03 0. -1.
         12    1    3    3    0    0 -0.89765310768E+00  0.83089824586E+01 -0.34249155173E+01  0.90318888888E+01  0.00000000000E+00 0. -1.
</event>
<event>
 7    1  0.2237500E-009  0.4778727E+02  0.7816164E-02  0.1312668E+00
        -11   -1    0    0    0    0  0.00000000000E+00  0.00000000000E+00  0.45593999997E+02  0.45594000000E+02  0.51100000000E-03 0.  1.
         11   -1    0    0    0    0 -0.00000000000E+00 -0.00000000000E+00 -0.45593999997E+02  0.45594000000E+02  0.51100000000E-03 0. -1.
    9900012    2    1    2    0    0 -0.17289428202E+02 -0.11801610262E+02  0.38018691089E+02  0.47787271844E+02  0.20000003646E+02 0.  0.
         12    1    1    2    0    0  0.17289428202E+02  0.11801610262E+02 -0.38018691089E+02  0.43400728156E+02  0.00000000000E+00 0. -1.
         11    1    3    3    0    0  0.19077464894E+01  0.14648874005E+01  0.65354259463E+01  0.69639919819E+01  0.51100000000E-03 0. -1.
        -11    1    3    3    0    0 -0.40318888963E+01 -0.80306982128E+01  0.63401868020E+01  0.10997554765E+02  0.51100000000E-03 0.  1.
        -12    1    3    3    0    0 -0.15165285795E+02 -0.52357994500E+01  0.25143078341E+02  0.29825725097E+02  0.00000000000E+00 0.  1.
</event>
<event>
 7    1  0.2237500E-009  0.4778727E+02  0.7816164E-02  0.1312668E+00
        -11   -1    0    0    0    0  0.00000000000E+00  0.00000000000E+00  0.45593999997E+02  0.45594000000E+02  0.51100000000E-03 0. -1.
         11   -1    0    0    0    0 -0.00000000000E+00 -0.00000000000E+00 -0.45593999997E+02  0.45594000000E+02  0.51100000000E-03 0.  1.
    9900012    2    1    2    0    0  0.17185055075E+02 -0.29863536859E+02 -0.26390647116E+02  0.47787271817E+02  0.20000003522E+02 0.  0.
         12    1    1    2    0    0 -0.17185055075E+02  0.29863536859E+02  0.26390647116E+02  0.43400728183E+02  0.00000000000E+00 0. -1.
         11    1    3    3    0    0  0.71420865922E+01  0.22586283743E+00 -0.43458165304E+01  0.83634045991E+01  0.51100000000E-03 0. -1.
        -11    1    3    3    0    0  0.19948524099E+01 -0.48306572066E+01 -0.47597881972E+00  0.52479749697E+01  0.51100000000E-03 0.  1.
        -12    1    3    3    0    0  0.80481160726E+01 -0.25258742489E+02 -0.21568851766E+02  0.34175892248E+02  0.00000000000E+00 0.  1.
</event>
<event>
 7    1  0.2237500E-009  0.4778727E+02  0.7816164E-02  0.1312668E+00
        -11   -1    0    0    0    0  0.00000000000E+00  0.00000000000E+00  0.45593999997E+02  0.45594000000E+02  0.51100000000E-03 0. -1.
         11   -1    0    0    0    0 -0.00000000000E+00 -0.00000000000E+00 -0.45593999997E+02  0.45594000000E+02  0.51100000000E-03 0.  1.
    9900012    2    1    2    0    0 -0.43053729462E+02  0.41692810199E+01 -0.35519883671E+01  0.47787272515E+02  0.20000006707E+02 0.  0.
         12    1    1    2    0    0  0.43053729462E+02 -0.41692810199E+01  0.35519883671E+01  0.43400727485E+02  0.00000000000E+00 0. -1.
         11    1    3    3    0    0 -0.13567057583E+02 -0.81398343109E-01  0.50370778072E+01  0.14472174344E+02  0.51100000000E-03 0. -1.
        -11    1    3    3    0    0 -0.12430862063E+02  0.45038689001E+01  0.17986251227E+01  0.13343396093E+02  0.51100000000E-03 0.  1.
         12    1    3    3    0    0 -0.17055809816E+02 -0.25318953713E+00 -0.10387691297E+02  0.19971702078E+02  0.00000000000E+00 0. -1.
</event>
<event>
 7    1  0.2237500E-009  0.4778727E+02  0.7816164E-02  0.1312668E+00
        -11   -1    0    0    0    0  0.00000000000E+00  0.00000000000E+00  0.45593999997E+02  0.45594000000E+02  0.51100000000E-03 0.  1.
         11   -1    0    0    0    0 -0.00000000000E+00 -0.00000000000E+00 -0.45593999997E+02  0.45594000000E+02  0.51100000000E-03 0. -1.
    9900012    2    1    2    0    0  0.30103543739E+02 -0.31093665378E+02 -0.32533050036E+01  0.47787269986E+02  0.19999995175E+02 0.  0.
         12    1    1    2    0    0 -0.30103543739E+02  0.31093665378E+02  0.32533050036E+01  0.43400730014E+02  0.00000000000E+00 0. -1.
         11    1    3    3    0    0  0.10384346196E+02 -0.10378847312E+02 -0.63150716965E+01  0.15982341763E+02  0.51100000000E-03 0. -1.
        -11    1    3    3    0    0  0.52400733299E+01 -0.11112563522E+02 -0.41865445427E+01  0.12979776269E+02  0.51100000000E-03 0.  1.
        -12    1    3    3    0    0  0.14479124214E+02 -0.96022545437E+01  0.72483112355E+01  0.18825151954E+02  0.00000000000E+00 0.  1.
</event>
<event>
 7    1  0.2237500E-009  0.4778727E+02  0.7816164E-02  0.1312668E+00
        -11   -1    0    0    0    0  0.00000000000E+00  0.00000000000E+00  0.45593999997E+02  0.45594000000E+02  0.51100000000E-03 0.  1.
         11   -1    0    0    0    0 -0.00000000000E+00 -0.00000000000E+00 -0.45593999997E+02  0.45594000000E+02  0.51100000000E-03 0. -1.
    9900012    2    1    2    0    0  0.10516197925E+02  0.19515005205E+02  0.37312164756E+02  0.47787268603E+02  0.19999988871E+02 0.  0.
         12    1    1    2    0    0 -0.10516197925E+02 -0.19515005205E+02 -0.37312164756E+02  0.43400731397E+02  0.00000000000E+00 0. -1.
         11    1    3    3    0    0 -0.15722053030E+01  0.68153240009E+01  0.23878193682E+02  0.24881491204E+02  0.51100000000E-03 0. -1.
        -11    1    3    3    0    0  0.39794368899E+01  0.18780846982E+01  0.95017749004E+00  0.45017727194E+01  0.51100000000E-03 0.  1.
        -12    1    3    3    0    0  0.81089663384E+01  0.10821596506E+02  0.12483793584E+02  0.18404004680E+02  0.00000000000E+00 0.  1.
</event>
<event>
 7    1  0.2237500E-009  0.4778727E+02  0.7816164E-02  0.1312668E+00
        -11   -1    0    0    0    0  0.00000000000E+00  0.00000000000E+00  0.45593999997E+02  0.45594000000E+02  0.51100000000E-03 0.  1.
         11   -1    0    0    0    0 -0.00000000000E+00 -0.00000000000E+00 -0.45593999997E+02  0.45594000000E+02  0.51100000000E-03 0. -1.
    9900012    2    1    2    0    0 -0.34126165184E+02  0.13324517080E+02  0.23269845891E+02  0.47787266903E+02  0.19999981117E+02 0.  0.
         12    1    1    2    0    0  0.34126165184E+02 -0.13324517080E+02 -0.23269845891E+02  0.43400733097E+02  0.00000000000E+00 0. -1.
         11    1    3    3    0    0 -0.22741651066E+01  0.17245883189E+01 -0.14377738678E+01  0.31958137865E+01  0.51100000000E-03 0. -1.
        -11    1    3    3    0    0 -0.10564157668E+02 -0.25379367730E+01  0.35970900500E+01  0.11444719629E+02  0.51100000000E-03 0.  1.
        -12    1    3    3    0    0 -0.21287842410E+02  0.14137865534E+02  0.21110529708E+02  0.33146733488E+02  0.00000000000E+00 0.  1.
</event>
<event>
 7    1  0.2237500E-009  0.4778727E+02  0.7816164E-02  0.1312668E+00
        -11   -1    0    0    0    0  0.00000000000E+00  0.00000000000E+00  0.45593999997E+02  0.45594000000E+02  0.51100000000E-03 0.  1.
         11   -1    0    0    0    0 -0.00000000000E+00 -0.00000000000E+00 -0.45593999997E+02  0.45594000000E+02  0.51100000000E-03 0. -1.
    9900012    2    1    2    0    0 -0.22169961671E+02 -0.36630598079E+02 -0.70933297544E+01  0.47787271399E+02  0.20000001616E+02 0.  0.
         12    1    1    2    0    0  0.22169961671E+02  0.36630598079E+02  0.70933297544E+01  0.43400728601E+02  0.00000000000E+00 0. -1.
         11    1    3    3    0    0 -0.15854004777E+02 -0.21928542358E+02  0.60520627543E+00  0.27066154369E+02  0.51100000000E-03 0. -1.
        -11    1    3    3    0    0 -0.90505697047E+01 -0.12997344468E+02 -0.52903740993E+01  0.16698258399E+02  0.51100000000E-03 0.  1.
        -12    1    3    3    0    0  0.27346128109E+01 -0.17047112535E+01 -0.24081619305E+01  0.40228586313E+01  0.00000000000E+00 0.  1.
</event>
<event>
 7    1  0.2237500E-009  0.4778727E+02  0.7816164E-02  0.1312668E+00
        -11   -1    0    0    0    0  0.00000000000E+00  0.00000000000E+00  0.45593999997E+02  0.45594000000E+02  0.51100000000E-03 0.  1.
         11   -1    0    0    0    0 -0.00000000000E+00 -0.00000000000E+00 -0.45593999997E+02  0.45594000000E+02  0.51100000000E-03 0. -1.
    9900012    2    1    2    0    0  0.26617065620E+02 -0.34058014995E+02  0.38995490628E+01  0.47787273618E+02  0.20000011733E+02 0.  0.
         12    1    1    2    0    0 -0.26617065620E+02  0.34058014995E+02 -0.38995490628E+01  0.43400726382E+02  0.00000000000E+00 0. -1.
         11    1    3    3    0    0  0.12415391608E+02 -0.10906331904E+02  0.54245632855E+01  0.17392984548E+02  0.51100000000E-03 0.  1.
        -11    1    3    3    0    0  0.15357337110E+02 -0.22055978839E+02  0.15614220894E+01  0.26921219231E+02  0.51100000000E-03 0. -1.
         12    1    3    3    0    0 -0.11556630975E+01 -0.10957042511E+01 -0.30864363120E+01  0.34730698394E+01  0.00000000000E+00 0. -1.
</event>
<event>
 7    1  0.2237500E-009  0.4778727E+02  0.7816164E-02  0.1312668E+00
        -11   -1    0    0    0    0  0.00000000000E+00  0.00000000000E+00  0.45593999997E+02  0.45594000000E+02  0.51100000000E-03 0.  1.
         11   -1    0    0    0    0 -0.00000000000E+00 -0.00000000000E+00 -0.45593999997E+02  0.45594000000E+02  0.51100000000E-03 0. -1.
    9900012    2    1    2    0    0  0.17781121699E+02  0.48089095746E+01  0.39297955476E+02  0.47787271840E+02  0.20000003628E+02 0.  0.
         12    1    1    2    0    0 -0.17781121699E+02 -0.48089095746E+01 -0.39297955476E+02  0.43400728160E+02  0.00000000000E+00 0. -1.
         11    1    3    3    0    0  0.56760283243E+01  0.17600529277E+00  0.61048849185E+01  0.83377392338E+01  0.51100000000E-03 0. -1.
        -11    1    3    3    0    0  0.16151454875E+02  0.21816144971E+01  0.28200949291E+02  0.32571804948E+02  0.51100000000E-03 0.  1.
         12    1    3    3    0    0 -0.40463615003E+01  0.24512897847E+01  0.49921212668E+01  0.68777276584E+01  0.00000000000E+00 0. -1.
</event>
<event>
 7    1  0.2237500E-009  0.4778727E+02  0.7816164E-02  0.1312668E+00
        -11   -1    0    0    0    0  0.00000000000E+00  0.00000000000E+00  0.45593999997E+02  0.45594000000E+02  0.51100000000E-03 0.  1.
         11   -1    0    0    0    0 -0.00000000000E+00 -0.00000000000E+00 -0.45593999997E+02  0.45594000000E+02  0.51100000000E-03 0. -1.
    9900012    2    1    2    0    0  0.32066202588E+02 -0.17654355938E+02  0.23317502064E+02  0.47787268042E+02  0.19999986311E+02 0.  0.
         12    1    1    2    0    0 -0.32066202588E+02  0.17654355938E+02 -0.23317502064E+02  0.43400731958E+02  0.00000000000E+00 0. -1.
         11    1    3    3    0    0  0.13728313544E+02 -0.74368312097E+01  0.17841845272E+02  0.23708742990E+02  0.51100000000E-03 0. -1.
        -11    1    3    3    0    0  0.37750292141E+01  0.20974773339E+01  0.16725602930E+01  0.46311677716E+01  0.51100000000E-03 0.  1.
         12    1    3    3    0    0  0.14562859830E+02 -0.12315002062E+02  0.38030964987E+01  0.19447357281E+02  0.00000000000E+00 0. -1.
</event>
<event>
 7    1  0.2237500E-009  0.4778727E+02  0.7816164E-02  0.1312668E+00
        -11   -1    0    0    0    0  0.00000000000E+00  0.00000000000E+00  0.45593999997E+02  0.45594000000E+02  0.51100000000E-03 0.  1.
         11   -1    0    0    0    0 -0.00000000000E+00 -0.00000000000E+00 -0.45593999997E+02  0.45594000000E+02  0.51100000000E-03 0. -1.
    9900012    2    1    2    0    0  0.52065531319E+01  0.98377819421E+01  0.41949172750E+02  0.47787271395E+02  0.20000001599E+02 0.  0.
         12    1    1    2    0    0 -0.52065531319E+01 -0.98377819421E+01 -0.41949172750E+02  0.43400728605E+02  0.00000000000E+00 0. -1.
         11    1    3    3    0    0 -0.36874735439E+01  0.49898438475E+01  0.17623852747E+02  0.18684115946E+02  0.51100000000E-03 0. -1.
        -11    1    3    3    0    0  0.39941210847E+01  0.84614416702E+01  0.18213847058E+02  0.20476650685E+02  0.51100000000E-03 0.  1.
         12    1    3    3    0    0  0.48999055911E+01 -0.36135035756E+01  0.61114729441E+01  0.86265047637E+01  0.00000000000E+00 0. -1.
</event>
<event>
 7    1  0.2237500E-009  0.4778727E+02  0.7816164E-02  0.1312668E+00
        -11   -1    0    0    0    0  0.00000000000E+00  0.00000000000E+00  0.45593999997E+02  0.45594000000E+02  0.51100000000E-03 0.  1.
         11   -1    0    0    0    0 -0.00000000000E+00 -0.00000000000E+00 -0.45593999997E+02  0.45594000000E+02  0.51100000000E-03 0. -1.
    9900012    2    1    2    0    0  0.21332902357E+02 -0.28663277945E+02  0.24636297382E+02  0.47787269888E+02  0.19999994728E+02 0.  0.
         12    1    1    2    0    0 -0.21332902357E+02  0.28663277945E+02 -0.24636297382E+02  0.43400730112E+02  0.00000000000E+00 0. -1.
         11    1    3    3    0    0 -0.15588731860E+01 -0.83460129661E+00 -0.97571670807E+00  0.20195713134E+01  0.51100000000E-03 0.  1.
        -11    1    3    3    0    0  0.25479012355E+01 -0.75358242177E+01  0.11632067509E+01  0.80394961006E+01  0.51100000000E-03 0. -1.
        -12    1    3    3    0    0  0.20343874307E+02 -0.20292852431E+02  0.24448807339E+02  0.37728202474E+02  0.00000000000E+00 0.  1.
</event>
<event>
 7    1  0.2237500E-009  0.4778727E+02  0.7816164E-02  0.1312668E+00
        -11   -1    0    0    0    0  0.00000000000E+00  0.00000000000E+00  0.45593999997E+02  0.45594000000E+02  0.51100000000E-03 0.  1.
         11   -1    0    0    0    0 -0.00000000000E+00 -0.00000000000E+00 -0.45593999997E+02  0.45594000000E+02  0.51100000000E-03 0. -1.
    9900012    2    1    2    0    0 -0.50557999806E+01 -0.23921255445E+02  0.35858557679E+02  0.47787265740E+02  0.19999975814E+02 0.  0.
         12    1    1    2    0    0  0.50557999806E+01  0.23921255445E+02 -0.35858557679E+02  0.43400734260E+02  0.00000000000E+00 0. -1.
         11    1    3    3    0    0 -0.16058155176E+01 -0.13466617716E+02  0.11479119655E+02  0.17767909964E+02  0.51100000000E-03 0. -1.
        -11    1    3    3    0    0 -0.54139806278E+01 -0.12838649757E+02  0.22302431212E+02  0.26297158631E+02  0.51100000000E-03 0.  1.
        -12    1    3    3    0    0  0.19639961647E+01  0.23840120281E+01  0.20770068114E+01  0.37221971441E+01  0.00000000000E+00 0.  1.
</event>
<event>
 7    1  0.2237500E-009  0.4778727E+02  0.7816164E-02  0.1312668E+00
        -11   -1    0    0    0    0  0.00000000000E+00  0.00000000000E+00  0.45593999997E+02  0.45594000000E+02  0.51100000000E-03 0.  1.
         11   -1    0    0    0    0 -0.00000000000E+00 -0.00000000000E+00 -0.45593999997E+02  0.45594000000E+02  0.51100000000E-03 0. -1.
    9900012    2    1    2    0    0 -0.18123053990E+02  0.63064316434E+01  0.38928228544E+02  0.47787272545E+02  0.20000006843E+02 0.  0.
         12    1    1    2    0    0  0.18123053990E+02 -0.63064316434E+01 -0.38928228544E+02  0.43400727455E+02  0.00000000000E+00 0. -1.
         11    1    3    3    0    0 -0.38804685850E+01 -0.42275281153E+01  0.11671328076E+02  0.13005765250E+02  0.51100000000E-03 0. -1.
        -11    1    3    3    0    0  0.22783026688E+01  0.18874892656E+01  0.36475636911E+01  0.46965945024E+01  0.51100000000E-03 0.  1.
         12    1    3    3    0    0 -0.16520888074E+02  0.86464704931E+01  0.23609336777E+02  0.30084912793E+02  0.00000000000E+00 0. -1.
</event>
<event>
 7    1  0.2237500E-009  0.4778727E+02  0.7816164E-02  0.1312668E+00
        -11   -1    0    0    0    0  0.00000000000E+00  0.00000000000E+00  0.45593999997E+02  0.45594000000E+02  0.51100000000E-03 0. -1.
         11   -1    0    0    0    0 -0.00000000000E+00 -0.00000000000E+00 -0.45593999997E+02  0.45594000000E+02  0.51100000000E-03 0.  1.
    9900012    2    1    2    0    0  0.15897115400E+02  0.20489154698E+02 -0.34800853268E+02  0.47787272743E+02  0.20000007744E+02 0.  0.
         12    1    1    2    0    0 -0.15897115400E+02 -0.20489154698E+02  0.34800853268E+02  0.43400727257E+02  0.00000000000E+00 0. -1.
         11    1    3    3    0    0  0.18354061210E+02  0.13620560860E+02 -0.17525115451E+02  0.28801404703E+02  0.51100000000E-03 0. -1.
        -11    1    3    3    0    0 -0.64121042282E+00  0.22236394950E+01 -0.25746459511E+01  0.34618673349E+01  0.51100000000E-03 0.  1.
         12    1    3    3    0    0 -0.18157353868E+01  0.46449543424E+01 -0.14701091866E+02  0.15524000705E+02  0.00000000000E+00 0. -1.
</event>
<event>
 7    1  0.2237500E-009  0.4778727E+02  0.7816164E-02  0.1312668E+00
        -11   -1    0    0    0    0  0.00000000000E+00  0.00000000000E+00  0.45593999997E+02  0.45594000000E+02  0.51100000000E-03 0. -1.
         11   -1    0    0    0    0 -0.00000000000E+00 -0.00000000000E+00 -0.45593999997E+02  0.45594000000E+02  0.51100000000E-03 0.  1.
    9900012    2    1    2    0    0 -0.25962292108E+02  0.18832870042E+02 -0.29238772613E+02  0.47787269253E+02  0.19999991831E+02 0.  0.
         12    1    1    2    0    0  0.25962292108E+02 -0.18832870042E+02  0.29238772613E+02  0.43400730747E+02  0.00000000000E+00 0. -1.
         11    1    3    3    0    0 -0.91025739429E+01  0.26249747099E+01 -0.24355103716E+01  0.97815671364E+01  0.51100000000E-03 0. -1.
        -11    1    3    3    0    0 -0.11227554684E+02  0.49187661661E+01 -0.59319541104E+01  0.13617647543E+02  0.51100000000E-03 0.  1.
        -12    1    3    3    0    0 -0.56321634811E+01  0.11289129166E+02 -0.20871308131E+02  0.24388054573E+02  0.00000000000E+00 0.  1.
</event>
<event>
 7    1  0.2237500E-009  0.4778727E+02  0.7816164E-02  0.1312668E+00
        -11   -1    0    0    0    0  0.00000000000E+00  0.00000000000E+00  0.45593999997E+02  0.45594000000E+02  0.51100000000E-03 0.  1.
         11   -1    0    0    0    0 -0.00000000000E+00 -0.00000000000E+00 -0.45593999997E+02  0.45594000000E+02  0.51100000000E-03 0. -1.
    9900012    2    1    2    0    0  0.42570023271E+02  0.68924627859E+01  0.48898237615E+01  0.47787270733E+02  0.19999998578E+02 0.  0.
         12    1    1    2    0    0 -0.42570023271E+02 -0.68924627859E+01 -0.48898237615E+01  0.43400729267E+02  0.00000000000E+00 0. -1.
         11    1    3    3    0    0  0.37324285555E-01  0.47293254781E+00 -0.14137681908E+01  0.14912407772E+01  0.51100000000E-03 0. -1.
        -11    1    3    3    0    0  0.41089189437E+01 -0.31563440698E+01  0.41501369266E+01  0.66384756943E+01  0.51100000000E-03 0.  1.
        -12    1    3    3    0    0  0.38423780041E+02  0.95758743079E+01  0.21534550257E+01  0.39657554261E+02  0.00000000000E+00 0.  1.
</event>
<event>
 7    1  0.2237500E-009  0.4778726E+02  0.7816164E-02  0.1312668E+00
        -11   -1    0    0    0    0  0.00000000000E+00  0.00000000000E+00  0.45593999997E+02  0.45594000000E+02  0.51100000000E-03 0.  1.
         11   -1    0    0    0    0 -0.00000000000E+00 -0.00000000000E+00 -0.45593999997E+02  0.45594000000E+02  0.51100000000E-03 0. -1.
    9900012    2    1    2    0    0  0.15370017832E+02 -0.17223631467E+02  0.36752318908E+02  0.47787264128E+02  0.19999968466E+02 0.  0.
         12    1    1    2    0    0 -0.15370017832E+02  0.17223631467E+02 -0.36752318908E+02  0.43400735872E+02  0.00000000000E+00 0. -1.
         11    1    3    3    0    0  0.18513266246E+01  0.24322220107E+01  0.71034152329E+01  0.77331508722E+01  0.51100000000E-03 0. -1.
        -11    1    3    3    0    0  0.97184953080E+01 -0.10188627711E+02  0.25320981455E+02  0.28972562672E+02  0.51100000000E-03 0.  1.
         12    1    3    3    0    0  0.38001958995E+01 -0.94672257667E+01  0.43279222205E+01  0.11081550584E+02  0.00000000000E+00 0. -1.
</event>
<event>
 7    1  0.2237500E-009  0.4778727E+02  0.7816164E-02  0.1312668E+00
        -11   -1    0    0    0    0  0.00000000000E+00  0.00000000000E+00  0.45593999997E+02  0.45594000000E+02  0.51100000000E-03 0.  1.
         11   -1    0    0    0    0 -0.00000000000E+00 -0.00000000000E+00 -0.45593999997E+02  0.45594000000E+02  0.51100000000E-03 0. -1.
    9900012    2    1    2    0    0  0.12817335357E+02 -0.50314117131E+01  0.41158521673E+02  0.47787273096E+02  0.20000009354E+02 0.  0.
         12    1    1    2    0    0 -0.12817335357E+02  0.50314117131E+01 -0.41158521673E+02  0.43400726904E+02  0.00000000000E+00 0. -1.
         11    1    3    3    0    0 -0.15997462512E+01  0.12004710449E+01  0.59747128322E+01  0.63005962008E+01  0.51100000000E-03 0. -1.
        -11    1    3    3    0    0  0.38920044396E+01 -0.97599403664E+01  0.20938028558E+02  0.23426591187E+02  0.51100000000E-03 0.  1.
         12    1    3    3    0    0  0.10525077169E+02  0.35280576084E+01  0.14245780283E+02  0.18060085708E+02  0.00000000000E+00 0. -1.
</event>
<event>
 7    1  0.2237500E-009  0.4778727E+02  0.7816164E-02  0.1312668E+00
        -11   -1    0    0    0    0  0.00000000000E+00  0.00000000000E+00  0.45593999997E+02  0.45594000000E+02  0.51100000000E-03 0.  1.
         11   -1    0    0    0    0 -0.00000000000E+00 -0.00000000000E+00 -0.45593999997E+02  0.45594000000E+02  0.51100000000E-03 0. -1.
    9900012    2    1    2    0    0  0.94562483787E+01  0.28623998558E+02  0.31222896776E+02  0.47787271781E+02  0.20000003357E+02 0.  0.
         12    1    1    2    0    0 -0.94562483787E+01 -0.28623998558E+02 -0.31222896776E+02  0.43400728219E+02  0.00000000000E+00 0. -1.
         11    1    3    3    0    0 -0.18469974986E+01  0.28001175178E+01  0.85153834262E+01  0.91522572642E+01  0.51100000000E-03 0. -1.
        -11    1    3    3    0    0  0.41240305447E+01  0.11278164469E+01  0.78358608298E+01  0.89263829784E+01  0.51100000000E-03 0.  1.
         12    1    3    3    0    0  0.71792153326E+01  0.24696064593E+02  0.14871652520E+02  0.29708631538E+02  0.00000000000E+00 0. -1.
</event>
<event>
 7    1  0.2237500E-009  0.4778726E+02  0.7816164E-02  0.1312668E+00
        -11   -1    0    0    0    0  0.00000000000E+00  0.00000000000E+00  0.45593999997E+02  0.45594000000E+02  0.51100000000E-03 0.  1.
         11   -1    0    0    0    0 -0.00000000000E+00 -0.00000000000E+00 -0.45593999997E+02  0.45594000000E+02  0.51100000000E-03 0. -1.
    9900012    2    1    2    0    0 -0.40413620478E+02  0.13301835335E+02  0.85688016751E+01  0.47787263767E+02  0.19999966821E+02 0.  0.
         12    1    1    2    0    0  0.40413620478E+02 -0.13301835335E+02 -0.85688016751E+01  0.43400736233E+02  0.00000000000E+00 0. -1.
         11    1    3    3    0    0 -0.10795242504E+01  0.21650276886E+01 -0.66246326039E+00  0.25083012842E+01  0.51100000000E-03 0. -1.
        -11    1    3    3    0    0 -0.14552520876E+02 -0.21183452182E+01  0.88679817788E+01  0.17172779373E+02  0.51100000000E-03 0.  1.
         12    1    3    3    0    0 -0.24781575351E+02  0.13255152865E+02  0.36328315670E+00  0.28106183110E+02  0.00000000000E+00 0. -1.
</event>
<event>
 7    1  0.2237500E-009  0.4778727E+02  0.7816164E-02  0.1312668E+00
        -11   -1    0    0    0    0  0.00000000000E+00  0.00000000000E+00  0.45593999997E+02  0.45594000000E+02  0.51100000000E-03 0.  1.
         11   -1    0    0    0    0 -0.00000000000E+00 -0.00000000000E+00 -0.45593999997E+02  0.45594000000E+02  0.51100000000E-03 0. -1.
    9900012    2    1    2    0    0  0.11303658158E+02 -0.37960692368E+02  0.17743642606E+02  0.47787266069E+02  0.19999977314E+02 0.  0.
         12    1    1    2    0    0 -0.11303658158E+02  0.37960692368E+02 -0.17743642606E+02  0.43400733931E+02  0.00000000000E+00 0. -1.
         11    1    3    3    0    0  0.38133512566E+01 -0.20786305246E+01 -0.14630320826E+01  0.45828829136E+01  0.51100000000E-03 0. -1.
        -11    1    3    3    0    0  0.39067504731E+00 -0.13734309824E+02  0.12029014621E+01  0.13792420583E+02  0.51100000000E-03 0.  1.
         12    1    3    3    0    0  0.70996318545E+01 -0.22147752019E+02  0.18003773227E+02  0.29411962573E+02  0.00000000000E+00 0. -1.
</event>
<event>
 7    1  0.2237500E-009  0.4778727E+02  0.7816164E-02  0.1312668E+00
        -11   -1    0    0    0    0  0.00000000000E+00  0.00000000000E+00  0.45593999997E+02  0.45594000000E+02  0.51100000000E-03 0. -1.
         11   -1    0    0    0    0 -0.00000000000E+00 -0.00000000000E+00 -0.45593999997E+02  0.45594000000E+02  0.51100000000E-03 0.  1.
    9900012    2    1    2    0    0  0.18965100321E+02  0.35676281122E+02  0.15847744797E+02  0.47787273278E+02  0.20000010182E+02 0.  0.
         12    1    1    2    0    0 -0.18965100321E+02 -0.35676281122E+02 -0.15847744797E+02  0.43400726722E+02  0.00000000000E+00 0. -1.
         11    1    3    3    0    0  0.87832419450E+01  0.15241758165E+02  0.36283966626E+01  0.17961675691E+02  0.51100000000E-03 0. -1.
        -11    1    3    3    0    0  0.14401977204E+00  0.63930488891E+01 -0.27664613186E+01  0.69674331200E+01  0.51100000000E-03 0.  1.
         12    1    3    3    0    0  0.10037838604E+02  0.14041474068E+02  0.14985809453E+02  0.22858164467E+02  0.00000000000E+00 0. -1.
</event>
<event>
 7    1  0.2237500E-009  0.4778728E+02  0.7816164E-02  0.1312668E+00
        -11   -1    0    0    0    0  0.00000000000E+00  0.00000000000E+00  0.45593999997E+02  0.45594000000E+02  0.51100000000E-03 0. -1.
         11   -1    0    0    0    0 -0.00000000000E+00 -0.00000000000E+00 -0.45593999997E+02  0.45594000000E+02  0.51100000000E-03 0.  1.
    9900012    2    1    2    0    0 -0.42260113546E+02 -0.48011507736E+01  0.86402678066E+01  0.47787280266E+02  0.20000042045E+02 0.  0.
         12    1    1    2    0    0  0.42260113546E+02  0.48011507736E+01 -0.86402678066E+01  0.43400719734E+02  0.00000000000E+00 0. -1.
         11    1    3    3    0    0 -0.10788481751E+02 -0.68072967876E+00 -0.43292290481E+01  0.11644610591E+02  0.51100000000E-03 0. -1.
        -11    1    3    3    0    0  0.36022316870E+00 -0.75877003998E+00 -0.92389542375E+00  0.12486295367E+01  0.51100000000E-03 0.  1.
        -12    1    3    3    0    0 -0.31831854963E+02 -0.33616510549E+01  0.13893392278E+02  0.34894040139E+02  0.00000000000E+00 0.  1.
</event>
<event>
 7    1  0.2237500E-009  0.4778727E+02  0.7816164E-02  0.1312668E+00
        -11   -1    0    0    0    0  0.00000000000E+00  0.00000000000E+00  0.45593999997E+02  0.45594000000E+02  0.51100000000E-03 0. -1.
         11   -1    0    0    0    0 -0.00000000000E+00 -0.00000000000E+00 -0.45593999997E+02  0.45594000000E+02  0.51100000000E-03 0.  1.
    9900012    2    1    2    0    0 -0.34098165891E+02 -0.21942468599E+02  0.15474696389E+02  0.47787273351E+02  0.20000010516E+02 0.  0.
         12    1    1    2    0    0  0.34098165891E+02  0.21942468599E+02 -0.15474696389E+02  0.43400726649E+02  0.00000000000E+00 0. -1.
         11    1    3    3    0    0 -0.24545119595E+01  0.86021909781E+00 -0.17883053781E+01  0.31563653531E+01  0.51100000000E-03 0. -1.
        -11    1    3    3    0    0 -0.12164595535E+01 -0.56989571199E+01  0.33291501008E+00  0.58368415059E+01  0.51100000000E-03 0.  1.
        -12    1    3    3    0    0 -0.30427194378E+02 -0.17103730576E+02  0.16930086757E+02  0.38794066492E+02  0.00000000000E+00 0.  1.
</event>
<event>
 7    1  0.2237500E-009  0.4778727E+02  0.7816164E-02  0.1312668E+00
        -11   -1    0    0    0    0  0.00000000000E+00  0.00000000000E+00  0.45593999997E+02  0.45594000000E+02  0.51100000000E-03 0.  1.
         11   -1    0    0    0    0 -0.00000000000E+00 -0.00000000000E+00 -0.45593999997E+02  0.45594000000E+02  0.51100000000E-03 0. -1.
    9900012    2    1    2    0    0 -0.30690671979E+02 -0.28089903272E+01  0.30558403257E+02  0.47787265181E+02  0.19999973265E+02 0.  0.
         12    1    1    2    0    0  0.30690671979E+02  0.28089903272E+01 -0.30558403257E+02  0.43400734819E+02  0.00000000000E+00 0. -1.
         11    1    3    3    0    0 -0.15538767501E+02  0.76554663557E+01  0.14410549278E+02  0.22532718241E+02  0.51100000000E-03 0. -1.
        -11    1    3    3    0    0 -0.46660724640E+00 -0.20586926299E+01  0.36579029879E+01  0.42232916306E+01  0.51100000000E-03 0.  1.
        -12    1    3    3    0    0 -0.14685297232E+02 -0.84057640530E+01  0.12489950992E+02  0.21031255309E+02  0.00000000000E+00 0.  1.
</event>
<event>
 7    1  0.2237500E-009  0.4778726E+02  0.7816164E-02  0.1312668E+00
        -11   -1    0    0    0    0  0.00000000000E+00  0.00000000000E+00  0.45593999997E+02  0.45594000000E+02  0.51100000000E-03 0. -1.
         11   -1    0    0    0    0 -0.00000000000E+00 -0.00000000000E+00 -0.45593999997E+02  0.45594000000E+02  0.51100000000E-03 0.  1.
    9900012    2    1    2    0    0  0.35996338773E+02  0.11995241094E+02 -0.21071354200E+02  0.47787260585E+02  0.19999952311E+02 0.  0.
         12    1    1    2    0    0 -0.35996338773E+02 -0.11995241094E+02  0.21071354200E+02  0.43400739415E+02  0.00000000000E+00 0. -1.
         11    1    3    3    0    0  0.10637383457E+01  0.45909958036E+01 -0.23197549998E+01  0.52526227027E+01  0.51100000000E-03 0. -1.
        -11    1    3    3    0    0  0.15995546462E+01  0.24365417359E+01  0.14364681867E+01  0.32494233041E+01  0.51100000000E-03 0.  1.
        -12    1    3    3    0    0  0.33333045781E+02  0.49677035544E+01 -0.20188067386E+02  0.39285214578E+02  0.00000000000E+00 0.  1.
</event>
<event>
 7    1  0.2237500E-009  0.4778727E+02  0.7816164E-02  0.1312668E+00
        -11   -1    0    0    0    0  0.00000000000E+00  0.00000000000E+00  0.45593999997E+02  0.45594000000E+02  0.51100000000E-03 0. -1.
         11   -1    0    0    0    0 -0.00000000000E+00 -0.00000000000E+00 -0.45593999997E+02  0.45594000000E+02  0.51100000000E-03 0.  1.
    9900012    2    1    2    0    0 -0.24290604374E+02 -0.34467674261E+02 -0.10274693670E+02  0.47787270054E+02  0.19999995485E+02 0.  0.
         12    1    1    2    0    0  0.24290604374E+02  0.34467674261E+02  0.10274693670E+02  0.43400729946E+02  0.00000000000E+00 0. -1.
         11    1    3    3    0    0 -0.11173311184E+02 -0.45928342085E+01 -0.55762328910E+01  0.13305314066E+02  0.51100000000E-03 0. -1.
        -11    1    3    3    0    0 -0.98384801536E+01 -0.12363011863E+02  0.84713368306E+00  0.15822685922E+02  0.51100000000E-03 0.  1.
        -12    1    3    3    0    0 -0.32788130371E+01 -0.17511828189E+02 -0.55455944625E+01  0.18659270066E+02  0.00000000000E+00 0.  1.
</event>
<event>
 7    1  0.2237500E-009  0.4778727E+02  0.7816164E-02  0.1312668E+00
        -11   -1    0    0    0    0  0.00000000000E+00  0.00000000000E+00  0.45593999997E+02  0.45594000000E+02  0.51100000000E-03 0.  1.
         11   -1    0    0    0    0 -0.00000000000E+00 -0.00000000000E+00 -0.45593999997E+02  0.45594000000E+02  0.51100000000E-03 0. -1.
    9900012    2    1    2    0    0 -0.28499424532E+02 -0.20707433851E+02  0.25349721457E+02  0.47787269668E+02  0.19999993726E+02 0.  0.
         12    1    1    2    0    0  0.28499424532E+02  0.20707433851E+02 -0.25349721457E+02  0.43400730332E+02  0.00000000000E+00 0. -1.
         11    1    3    3    0    0 -0.96640556501E+01 -0.85010159879E+01  0.10088511819E+02  0.16353571947E+02  0.51100000000E-03 0. -1.
        -11    1    3    3    0    0 -0.70294426974E+01 -0.81728984740E+01 -0.11250422234E+01  0.10838590977E+02  0.51100000000E-03 0.  1.
         12    1    3    3    0    0 -0.11805926185E+02 -0.40335193890E+01  0.16386251862E+02  0.20595106745E+02  0.00000000000E+00 0. -1.
</event>
<event>
 7    1  0.2237500E-009  0.4778727E+02  0.7816164E-02  0.1312668E+00
        -11   -1    0    0    0    0  0.00000000000E+00  0.00000000000E+00  0.45593999997E+02  0.45594000000E+02  0.51100000000E-03 0. -1.
         11   -1    0    0    0    0 -0.00000000000E+00 -0.00000000000E+00 -0.45593999997E+02  0.45594000000E+02  0.51100000000E-03 0.  1.
    9900012    2    1    2    0    0  0.39958632138E+02  0.14936075526E+02 -0.79902714184E+01  0.47787273372E+02  0.20000010615E+02 0.  0.
         12    1    1    2    0    0 -0.39958632138E+02 -0.14936075526E+02  0.79902714184E+01  0.43400726628E+02  0.00000000000E+00 0. -1.
         11    1    3    3    0    0  0.39402015495E+00 -0.21152536022E+01 -0.12902605414E+01  0.25088487818E+01  0.51100000000E-03 0. -1.
        -11    1    3    3    0    0  0.24023895428E+01  0.47224628021E+01  0.95334449552E+00  0.53834929572E+01  0.51100000000E-03 0.  1.
        -12    1    3    3    0    0  0.37162222440E+02  0.12328866326E+02 -0.76533553726E+01  0.39894931634E+02  0.00000000000E+00 0.  1.
</event>
<event>
 7    1  0.2237500E-009  0.4778727E+02  0.7816164E-02  0.1312668E+00
        -11   -1    0    0    0    0  0.00000000000E+00  0.00000000000E+00  0.45593999997E+02  0.45594000000E+02  0.51100000000E-03 0.  1.
         11   -1    0    0    0    0 -0.00000000000E+00 -0.00000000000E+00 -0.45593999997E+02  0.45594000000E+02  0.51100000000E-03 0. -1.
    9900012    2    1    2    0    0  0.21025548587E+02 -0.43279278000E+01  0.37720270537E+02  0.47787268879E+02  0.19999990129E+02 0.  0.
         12    1    1    2    0    0 -0.21025548587E+02  0.43279278000E+01 -0.37720270537E+02  0.43400731121E+02  0.00000000000E+00 0. -1.
         11    1    3    3    0    0 -0.11982281873E+00 -0.23555425102E+01  0.12971130178E+00  0.23621522618E+01  0.51100000000E-03 0. -1.
        -11    1    3    3    0    0  0.54609384558E+01 -0.35344245161E+01  0.23155862768E+02  0.24052192962E+02  0.51100000000E-03 0.  1.
        -12    1    3    3    0    0  0.15684432950E+02  0.15620392263E+01  0.14434696468E+02  0.21372923656E+02  0.00000000000E+00 0.  1.
</event>
<event>
 7    1  0.2237500E-009  0.4778727E+02  0.7816164E-02  0.1312668E+00
        -11   -1    0    0    0    0  0.00000000000E+00  0.00000000000E+00  0.45593999997E+02  0.45594000000E+02  0.51100000000E-03 0.  1.
         11   -1    0    0    0    0 -0.00000000000E+00 -0.00000000000E+00 -0.45593999997E+02  0.45594000000E+02  0.51100000000E-03 0. -1.
    9900012    2    1    2    0    0  0.40047470962E+02  0.16113023569E+02 -0.44937645817E+01  0.47787269832E+02  0.19999994472E+02 0.  0.
         12    1    1    2    0    0 -0.40047470962E+02 -0.16113023569E+02  0.44937645817E+01  0.43400730168E+02  0.00000000000E+00 0. -1.
         11    1    3    3    0    0  0.11555956785E+02  0.87238729456E+01 -0.96846042498E+01  0.17419461993E+02  0.51100000000E-03 0. -1.
        -11    1    3    3    0    0  0.19172699186E+02  0.75049299377E+01  0.31723723515E+01  0.20832194173E+02  0.51100000000E-03 0.  1.
         12    1    3    3    0    0  0.93188149910E+01 -0.11577931382E+00  0.20184673166E+01  0.95356136664E+01  0.00000000000E+00 0. -1.
</event>
<event>
 7    1  0.2237500E-009  0.4778727E+02  0.7816164E-02  0.1312668E+00
        -11   -1    0    0    0    0  0.00000000000E+00  0.00000000000E+00  0.45593999997E+02  0.45594000000E+02  0.51100000000E-03 0.  1.
         11   -1    0    0    0    0 -0.00000000000E+00 -0.00000000000E+00 -0.45593999997E+02  0.45594000000E+02  0.51100000000E-03 0. -1.
    9900012    2    1    2    0    0 -0.33579092346E+01  0.23241639636E+02  0.36498961553E+02  0.47787267727E+02  0.19999984875E+02 0.  0.
         12    1    1    2    0    0  0.33579092346E+01 -0.23241639636E+02 -0.36498961553E+02  0.43400732273E+02  0.00000000000E+00 0. -1.
         11    1    3    3    0    0  0.73507730982E+00 -0.13201218874E+01  0.36542659517E+01  0.39543293181E+01  0.51100000000E-03 0. -1.
        -11    1    3    3    0    0 -0.35985485887E+01  0.53368182114E+01  0.83529895529E+00  0.64906783291E+01  0.51100000000E-03 0.  1.
        -12    1    3    3    0    0 -0.49443795579E+00  0.19224943312E+02  0.32009396646E+02  0.37342260080E+02  0.00000000000E+00 0.  1.
</event>
<event>
 7    1  0.2237500E-009  0.4778727E+02  0.7816164E-02  0.1312668E+00
        -11   -1    0    0    0    0  0.00000000000E+00  0.00000000000E+00  0.45593999997E+02  0.45594000000E+02  0.51100000000E-03 0.  1.
         11   -1    0    0    0    0 -0.00000000000E+00 -0.00000000000E+00 -0.45593999997E+02  0.45594000000E+02  0.51100000000E-03 0. -1.
    9900012    2    1    2    0    0  0.31353266669E+02  0.43100438496E+00  0.30006839007E+02  0.47787268638E+02  0.19999989026E+02 0.  0.
         12    1    1    2    0    0 -0.31353266669E+02 -0.43100438496E+00 -0.30006839007E+02  0.43400731362E+02  0.00000000000E+00 0. -1.
         11    1    3    3    0    0  0.14051149111E+02  0.39890639117E+01  0.13692927980E+02  0.20021081369E+02  0.51100000000E-03 0. -1.
        -11    1    3    3    0    0  0.45025119131E+01 -0.27897306421E+01  0.13688479881E+02  0.14677523371E+02  0.51100000000E-03 0.  1.
         12    1    3    3    0    0  0.12799605645E+02 -0.76832888455E+00  0.26254311453E+01  0.13088663898E+02  0.00000000000E+00 0. -1.
</event>
<event>
 7    1  0.2237500E-009  0.4778729E+02  0.7816164E-02  0.1312668E+00
        -11   -1    0    0    0    0  0.00000000000E+00  0.00000000000E+00  0.45593999997E+02  0.45594000000E+02  0.51100000000E-03 0.  1.
         11   -1    0    0    0    0 -0.00000000000E+00 -0.00000000000E+00 -0.45593999997E+02  0.45594000000E+02  0.51100000000E-03 0. -1.
    9900012    2    1    2    0    0 -0.24683194640E+02  0.28690225373E+02  0.21242241112E+02  0.47787286445E+02  0.20000070218E+02 0.  0.
         12    1    1    2    0    0  0.24683194640E+02 -0.28690225373E+02 -0.21242241112E+02  0.43400713555E+02  0.00000000000E+00 0. -1.
         11    1    3    3    0    0 -0.16973043588E+01  0.45210370595E+00  0.42143202317E+01  0.45657129918E+01  0.51100000000E-03 0.  1.
        -11    1    3    3    0    0 -0.27233177322E+01  0.15526658478E+02  0.57887571019E+01  0.16792953642E+02  0.51100000000E-03 0. -1.
         12    1    3    3    0    0 -0.20262572549E+02  0.12711463189E+02  0.11239163779E+02  0.26428619812E+02  0.00000000000E+00 0. -1.
</event>
<event>
 7    1  0.2237500E-009  0.4778727E+02  0.7816164E-02  0.1312668E+00
        -11   -1    0    0    0    0  0.00000000000E+00  0.00000000000E+00  0.45593999997E+02  0.45594000000E+02  0.51100000000E-03 0. -1.
         11   -1    0    0    0    0 -0.00000000000E+00 -0.00000000000E+00 -0.45593999997E+02  0.45594000000E+02  0.51100000000E-03 0.  1.
    9900012    2    1    2    0    0 -0.38580061807E+01 -0.34277748125E+02 -0.26339607497E+02  0.47787272457E+02  0.20000006439E+02 0.  0.
         12    1    1    2    0    0  0.38580061807E+01  0.34277748125E+02  0.26339607497E+02  0.43400727543E+02  0.00000000000E+00 0. -1.
         11    1    3    3    0    0  0.37208588932E+01 -0.75168854149E+01 -0.11884369298E+02  0.14546016331E+02  0.51100000000E-03 0. -1.
        -11    1    3    3    0    0 -0.46462809345E+01 -0.18770924981E+02 -0.15341737528E+02  0.24684093295E+02  0.51100000000E-03 0.  1.
         12    1    3    3    0    0 -0.29325841394E+01 -0.79899377284E+01  0.88649932855E+00  0.85571628299E+01  0.00000000000E+00 0. -1.
</event>
<event>
 7    1  0.2237500E-009  0.4778727E+02  0.7816164E-02  0.1312668E+00
        -11   -1    0    0    0    0  0.00000000000E+00  0.00000000000E+00  0.45593999997E+02  0.45594000000E+02  0.51100000000E-03 0. -1.
         11   -1    0    0    0    0 -0.00000000000E+00 -0.00000000000E+00 -0.45593999997E+02  0.45594000000E+02  0.51100000000E-03 0.  1.
    9900012    2    1    2    0    0 -0.18125255691E+02  0.22205720624E+02 -0.32588411650E+02  0.47787268483E+02  0.19999988323E+02 0.  0.
         12    1    1    2    0    0  0.18125255691E+02 -0.22205720624E+02  0.32588411650E+02  0.43400731517E+02  0.00000000000E+00 0. -1.
         11    1    3    3    0    0 -0.20299305714E+01 -0.10012371289E+01 -0.27293609023E+01  0.35457728508E+01  0.51100000000E-03 0. -1.
        -11    1    3    3    0    0 -0.15751368900E+02  0.21495759611E+02 -0.31893037942E+02  0.41561270107E+02  0.51100000000E-03 0.  1.
         12    1    3    3    0    0 -0.34395621921E+00  0.17111981422E+01  0.20339871939E+01  0.26802255255E+01  0.00000000000E+00 0. -1.
</event>
<event>
 7    1  0.2237500E-009  0.4778727E+02  0.7816164E-02  0.1312668E+00
        -11   -1    0    0    0    0  0.00000000000E+00  0.00000000000E+00  0.45593999997E+02  0.45594000000E+02  0.51100000000E-03 0. -1.
         11   -1    0    0    0    0 -0.00000000000E+00 -0.00000000000E+00 -0.45593999997E+02  0.45594000000E+02  0.51100000000E-03 0.  1.
    9900012    2    1    2    0    0 -0.17766605624E+02 -0.21250273693E+02 -0.33412526537E+02  0.47787270317E+02  0.19999996683E+02 0.  0.
         12    1    1    2    0    0  0.17766605624E+02  0.21250273693E+02  0.33412526537E+02  0.43400729683E+02  0.00000000000E+00 0. -1.
         11    1    3    3    0    0 -0.65486227236E+01 -0.10983149833E+02 -0.21622149664E+02  0.25120338298E+02  0.51100000000E-03 0. -1.
        -11    1    3    3    0    0  0.45139122448E+00 -0.63750975444E+01 -0.69654964701E+01  0.94532409296E+01  0.51100000000E-03 0.  1.
         12    1    3    3    0    0 -0.11669374125E+02 -0.38920263150E+01 -0.48248804029E+01  0.13213691089E+02  0.00000000000E+00 0. -1.
</event>
<event>
 7    1  0.2237500E-009  0.4778727E+02  0.7816164E-02  0.1312668E+00
        -11   -1    0    0    0    0  0.00000000000E+00  0.00000000000E+00  0.45593999997E+02  0.45594000000E+02  0.51100000000E-03 0.  1.
         11   -1    0    0    0    0 -0.00000000000E+00 -0.00000000000E+00 -0.45593999997E+02  0.45594000000E+02  0.51100000000E-03 0. -1.
    9900012    2    1    2    0    0 -0.32909534629E+02  0.12054662916E+02  0.25598257586E+02  0.47787272369E+02  0.20000006038E+02 0.  0.
         12    1    1    2    0    0  0.32909534629E+02 -0.12054662916E+02 -0.25598257586E+02  0.43400727631E+02  0.00000000000E+00 0. -1.
         11    1    3    3    0    0 -0.45548927685E+01  0.71113302220E+01  0.51146494991E+01  0.98730798345E+01  0.51100000000E-03 0. -1.
        -11    1    3    3    0    0 -0.29297679226E+02  0.56286595353E+01  0.21151393390E+02  0.36570715864E+02  0.51100000000E-03 0.  1.
        -12    1    3    3    0    0  0.94303736588E+00 -0.68532684160E+00 -0.66778530295E+00  0.13434766705E+01  0.00000000000E+00 0.  1.
</event>
<event>
 7    1  0.2237500E-009  0.4778727E+02  0.7816164E-02  0.1312668E+00
        -11   -1    0    0    0    0  0.00000000000E+00  0.00000000000E+00  0.45593999997E+02  0.45594000000E+02  0.51100000000E-03 0. -1.
         11   -1    0    0    0    0 -0.00000000000E+00 -0.00000000000E+00 -0.45593999997E+02  0.45594000000E+02  0.51100000000E-03 0.  1.
    9900012    2    1    2    0    0  0.39994904403E+02 -0.52365127652E+01  0.16019059581E+02  0.47787265973E+02  0.19999976879E+02 0.  0.
         12    1    1    2    0    0 -0.39994904403E+02  0.52365127652E+01 -0.16019059581E+02  0.43400734027E+02  0.00000000000E+00 0. -1.
         11    1    3    3    0    0  0.64401135889E+01 -0.15572997926E+01 -0.26194515558E+01  0.71247296367E+01  0.51100000000E-03 0. -1.
        -11    1    3    3    0    0  0.15542257262E+02 -0.39034505063E+01  0.20162384029E+01  0.16151281813E+02  0.51100000000E-03 0.  1.
         12    1    3    3    0    0  0.18012533553E+02  0.22423753360E+00  0.16622272734E+02  0.24511254524E+02  0.00000000000E+00 0. -1.
</event>
<event>
 7    1  0.2237500E-009  0.4778727E+02  0.7816164E-02  0.1312668E+00
        -11   -1    0    0    0    0  0.00000000000E+00  0.00000000000E+00  0.45593999997E+02  0.45594000000E+02  0.51100000000E-03 0.  1.
         11   -1    0    0    0    0 -0.00000000000E+00 -0.00000000000E+00 -0.45593999997E+02  0.45594000000E+02  0.51100000000E-03 0. -1.
    9900012    2    1    2    0    0  0.24246928258E+02 -0.32577666439E+02  0.15310302711E+02  0.47787271323E+02  0.20000001270E+02 0.  0.
         12    1    1    2    0    0 -0.24246928258E+02  0.32577666439E+02 -0.15310302711E+02  0.43400728677E+02  0.00000000000E+00 0. -1.
         11    1    3    3    0    0  0.60071425186E+01 -0.46758280241E+01 -0.70510828659E+00  0.76450184374E+01  0.51100000000E-03 0. -1.
        -11    1    3    3    0    0 -0.16136373877E+01 -0.18428714178E+01  0.50206457169E+01  0.55863122324E+01  0.51100000000E-03 0.  1.
        -12    1    3    3    0    0  0.19853423127E+02 -0.26058966997E+02  0.10994765281E+02  0.34555940653E+02  0.00000000000E+00 0.  1.
</event>
<event>
 7    1  0.2237500E-009  0.4778727E+02  0.7816164E-02  0.1312668E+00
        -11   -1    0    0    0    0  0.00000000000E+00  0.00000000000E+00  0.45593999997E+02  0.45594000000E+02  0.51100000000E-03 0.  1.
         11   -1    0    0    0    0 -0.00000000000E+00 -0.00000000000E+00 -0.45593999997E+02  0.45594000000E+02  0.51100000000E-03 0. -1.
    9900012    2    1    2    0    0  0.98607631072E+01 -0.42231811671E+02 -0.16920087625E+01  0.47787268903E+02  0.19999990238E+02 0.  0.
         12    1    1    2    0    0 -0.98607631072E+01  0.42231811671E+02  0.16920087625E+01  0.43400731097E+02  0.00000000000E+00 0. -1.
         11    1    3    3    0    0 -0.52377537923E+01 -0.14232854850E+02  0.12885882348E+01  0.15220666275E+02  0.51100000000E-03 0. -1.
        -11    1    3    3    0    0 -0.11775770799E+00 -0.20415680969E+01 -0.13164612171E+01  0.24320644666E+01  0.51100000000E-03 0.  1.
        -12    1    3    3    0    0  0.15216274607E+02 -0.25957388724E+02 -0.16641357801E+01  0.30134538162E+02  0.00000000000E+00 0.  1.
</event>
<event>
 7    1  0.2237500E-009  0.4778727E+02  0.7816164E-02  0.1312668E+00
        -11   -1    0    0    0    0  0.00000000000E+00  0.00000000000E+00  0.45593999997E+02  0.45594000000E+02  0.51100000000E-03 0.  1.
         11   -1    0    0    0    0 -0.00000000000E+00 -0.00000000000E+00 -0.45593999997E+02  0.45594000000E+02  0.51100000000E-03 0. -1.
    9900012    2    1    2    0    0 -0.13510178428E+02  0.31072815985E+02 -0.27121549084E+02  0.47787271445E+02  0.20000001828E+02 0.  0.
         12    1    1    2    0    0  0.13510178428E+02 -0.31072815985E+02  0.27121549084E+02  0.43400728555E+02  0.00000000000E+00 0. -1.
         11    1    3    3    0    0 -0.32884623574E+01  0.49229333750E+01 -0.81149539793E+01  0.10044985617E+02  0.51100000000E-03 0. -1.
        -11    1    3    3    0    0 -0.13278349763E+02  0.26380553889E+02 -0.17460113154E+02  0.34308945591E+02  0.51100000000E-03 0.  1.
        -12    1    3    3    0    0  0.30566336922E+01 -0.23067127943E+00 -0.15464819497E+01  0.34333402378E+01  0.00000000000E+00 0.  1.
</event>
<event>
 7    1  0.2237500E-009  0.4778724E+02  0.7816164E-02  0.1312668E+00
        -11   -1    0    0    0    0  0.00000000000E+00  0.00000000000E+00  0.45593999997E+02  0.45594000000E+02  0.51100000000E-03 0. -1.
         11   -1    0    0    0    0 -0.00000000000E+00 -0.00000000000E+00 -0.45593999997E+02  0.45594000000E+02  0.51100000000E-03 0.  1.
    9900012    2    1    2    0    0 -0.46954909789E+01 -0.29257139582E+02 -0.31711162859E+02  0.47787243072E+02  0.19999872463E+02 0.  0.
         12    1    1    2    0    0  0.46954909789E+01  0.29257139582E+02  0.31711162859E+02  0.43400756928E+02  0.00000000000E+00 0. -1.
         11    1    3    3    0    0 -0.12776119349E+01  0.10684393380E+01 -0.37046303281E+01  0.40617903693E+01  0.51100000000E-03 0. -1.
        -11    1    3    3    0    0 -0.42311661576E+01 -0.15071973152E+01 -0.57934387709E+01  0.73306441636E+01  0.51100000000E-03 0.  1.
        -12    1    3    3    0    0  0.81328711350E+00 -0.28818381604E+02 -0.22213093760E+02  0.36394808539E+02  0.00000000000E+00 0.  1.
</event>
<event>
 7    1  0.2237500E-009  0.4778726E+02  0.7816164E-02  0.1312668E+00
        -11   -1    0    0    0    0  0.00000000000E+00  0.00000000000E+00  0.45593999997E+02  0.45594000000E+02  0.51100000000E-03 0.  1.
         11   -1    0    0    0    0 -0.00000000000E+00 -0.00000000000E+00 -0.45593999997E+02  0.45594000000E+02  0.51100000000E-03 0. -1.
    9900012    2    1    2    0    0 -0.14316612622E+02  0.20747645966E+02  0.35329783356E+02  0.47787264959E+02  0.19999972253E+02 0.  0.
         12    1    1    2    0    0  0.14316612622E+02 -0.20747645966E+02 -0.35329783356E+02  0.43400735041E+02  0.00000000000E+00 0. -1.
         11    1    3    3    0    0  0.45668970073E-01 -0.42106961366E+00 -0.14466184701E+01  0.15073455256E+01  0.51100000000E-03 0. -1.
        -11    1    3    3    0    0 -0.81275597631E+01  0.10853176700E+02  0.97898277100E+01  0.16723916976E+02  0.51100000000E-03 0.  1.
        -12    1    3    3    0    0 -0.62347218292E+01  0.10315538880E+02  0.26986574116E+02  0.29556002457E+02  0.00000000000E+00 0.  1.
</event>
<event>
 7    1  0.2237500E-009  0.4778727E+02  0.7816164E-02  0.1312668E+00
        -11   -1    0    0    0    0  0.00000000000E+00  0.00000000000E+00  0.45593999997E+02  0.45594000000E+02  0.51100000000E-03 0.  1.
         11   -1    0    0    0    0 -0.00000000000E+00 -0.00000000000E+00 -0.45593999997E+02  0.45594000000E+02  0.51100000000E-03 0. -1.
    9900012    2    1    2    0    0  0.32750176851E+02 -0.21338214778E+02  0.18860798033E+02  0.47787271941E+02  0.20000004086E+02 0.  0.
         12    1    1    2    0    0 -0.32750176851E+02  0.21338214778E+02 -0.18860798033E+02  0.43400728059E+02  0.00000000000E+00 0. -1.
         11    1    3    3    0    0  0.36289124508E+01  0.35006614629E+00  0.21770529572E-01  0.36458231031E+01  0.51100000000E-03 0. -1.
        -11    1    3    3    0    0  0.22473408081E+02 -0.71205524304E+01  0.13978164479E+02  0.27407032312E+02  0.51100000000E-03 0.  1.
         12    1    3    3    0    0  0.66478563189E+01 -0.14567728494E+02  0.48608630240E+01  0.16734416526E+02  0.00000000000E+00 0. -1.
</event>
<event>
 7    1  0.2237500E-009  0.4778728E+02  0.7816164E-02  0.1312668E+00
        -11   -1    0    0    0    0  0.00000000000E+00  0.00000000000E+00  0.45593999997E+02  0.45594000000E+02  0.51100000000E-03 0.  1.
         11   -1    0    0    0    0 -0.00000000000E+00 -0.00000000000E+00 -0.45593999997E+02  0.45594000000E+02  0.51100000000E-03 0. -1.
    9900012    2    1    2    0    0  0.23406420129E+02  0.73426953460E+01  0.35802894253E+02  0.47787275178E+02  0.20000018846E+02 0.  0.
         12    1    1    2    0    0 -0.23406420129E+02 -0.73426953460E+01 -0.35802894253E+02  0.43400724822E+02  0.00000000000E+00 0. -1.
         11    1    3    3    0    0  0.95454024671E+01 -0.59725258791E+00  0.22249524907E+02  0.24218025885E+02  0.51100000000E-03 0. -1.
        -11    1    3    3    0    0  0.14134897002E+02  0.39236232706E+01  0.12810557925E+02  0.19475639333E+02  0.51100000000E-03 0.  1.
        -12    1    3    3    0    0 -0.27387933979E+00  0.40163246633E+01  0.74281142025E+00  0.40936099594E+01  0.00000000000E+00 0.  1.
</event>
<event>
 7    1  0.5022983E-009  0.4778732E+02  0.7816164E-02  0.1312668E+00
        -11   -1    0    0    0    0  0.00000000000E+00  0.00000000000E+00  0.45593999997E+02  0.45594000000E+02  0.51100000000E-03 0. -1.
         11   -1    0    0    0    0 -0.00000000000E+00 -0.00000000000E+00 -0.45593999997E+02  0.45594000000E+02  0.51100000000E-03 0.  1.
    9900012    2    1    2    0    0 -0.29810848823E+02 -0.15386243676E+02 -0.27535354627E+02  0.47787320784E+02  0.20000226780E+02 0.  0.
         12    1    1    2    0    0  0.29810848823E+02  0.15386243676E+02  0.27535354627E+02  0.43400679216E+02  0.00000000000E+00 0. -1.
         11    1    3    3    0    0 -0.11230537090E+01  0.16220222573E+00  0.20209152771E+01  0.23176837605E+01  0.51100000000E-03 0. -1.
        -11    1    3    3    0    0 -0.17296216656E+02 -0.74234322207E+01 -0.96884531917E+01  0.21169142213E+02  0.51100000000E-03 0.  1.
        -12    1    3    3    0    0 -0.11391578459E+02 -0.81250136809E+01 -0.19867816712E+02  0.24300494810E+02  0.00000000000E+00 0.  1.
</event>
<event>
 7    1  0.2237500E-009  0.4778727E+02  0.7816164E-02  0.1312668E+00
        -11   -1    0    0    0    0  0.00000000000E+00  0.00000000000E+00  0.45593999997E+02  0.45594000000E+02  0.51100000000E-03 0.  1.
         11   -1    0    0    0    0 -0.00000000000E+00 -0.00000000000E+00 -0.45593999997E+02  0.45594000000E+02  0.51100000000E-03 0. -1.
    9900012    2    1    2    0    0 -0.42607794675E+02  0.18116668470E+01 -0.80570980479E+01  0.47787272670E+02  0.20000007413E+02 0.  0.
         12    1    1    2    0    0  0.42607794675E+02 -0.18116668470E+01  0.80570980479E+01  0.43400727330E+02  0.00000000000E+00 0. -1.
         11    1    3    3    0    0 -0.95541931027E+00 -0.29816245059E+01 -0.26307104197E+01  0.40894435228E+01  0.51100000000E-03 0. -1.
        -11    1    3    3    0    0 -0.18345294735E+02  0.19346607466E+01 -0.79374258367E+01  0.20082218012E+02  0.51100000000E-03 0.  1.
         12    1    3    3    0    0 -0.23307080629E+02  0.28586306063E+01  0.25110382085E+01  0.23615611135E+02  0.00000000000E+00 0. -1.
</event>
<event>
 7    1  0.2237500E-009  0.4778727E+02  0.7816164E-02  0.1312668E+00
        -11   -1    0    0    0    0  0.00000000000E+00  0.00000000000E+00  0.45593999997E+02  0.45594000000E+02  0.51100000000E-03 0.  1.
         11   -1    0    0    0    0 -0.00000000000E+00 -0.00000000000E+00 -0.45593999997E+02  0.45594000000E+02  0.51100000000E-03 0. -1.
    9900012    2    1    2    0    0 -0.15679965695E+02 -0.19682723342E+02  0.35360324188E+02  0.47787269027E+02  0.19999990800E+02 0.  0.
         12    1    1    2    0    0  0.15679965695E+02  0.19682723342E+02 -0.35360324188E+02  0.43400730973E+02  0.00000000000E+00 0. -1.
         11    1    3    3    0    0 -0.87366289768E+01 -0.71336966972E+01  0.76696874036E+01  0.13639736785E+02  0.51100000000E-03 0. -1.
        -11    1    3    3    0    0 -0.26280299653E+01 -0.99657454929E+01  0.60946072664E+01  0.11973590218E+02  0.51100000000E-03 0.  1.
        -12    1    3    3    0    0 -0.43153067526E+01 -0.25832811517E+01  0.21596029518E+02  0.22173942023E+02  0.00000000000E+00 0.  1.
</event>
<event>
 7    1  0.2237500E-009  0.4778727E+02  0.7816164E-02  0.1312668E+00
        -11   -1    0    0    0    0  0.00000000000E+00  0.00000000000E+00  0.45593999997E+02  0.45594000000E+02  0.51100000000E-03 0.  1.
         11   -1    0    0    0    0 -0.00000000000E+00 -0.00000000000E+00 -0.45593999997E+02  0.45594000000E+02  0.51100000000E-03 0. -1.
    9900012    2    1    2    0    0  0.14697878357E+02 -0.40749485530E+02 -0.26599371882E+01  0.47787268842E+02  0.19999989960E+02 0.  0.
         12    1    1    2    0    0 -0.14697878357E+02  0.40749485530E+02  0.26599371882E+01  0.43400731158E+02  0.00000000000E+00 0. -1.
         11    1    3    3    0    0  0.10499131998E+02 -0.21740687444E+02 -0.74385919656E+01  0.25263054328E+02  0.51100000000E-03 0. -1.
        -11    1    3    3    0    0  0.41234931592E+01 -0.63751413039E+01 -0.24382120856E+01  0.79743652358E+01  0.51100000000E-03 0.  1.
         12    1    3    3    0    0  0.75253199585E-01 -0.12633656782E+02  0.72168668630E+01  0.14549849279E+02  0.00000000000E+00 0. -1.
</event>
<event>
 7    1  0.2237500E-009  0.4778727E+02  0.7816164E-02  0.1312668E+00
        -11   -1    0    0    0    0  0.00000000000E+00  0.00000000000E+00  0.45593999997E+02  0.45594000000E+02  0.51100000000E-03 0.  1.
         11   -1    0    0    0    0 -0.00000000000E+00 -0.00000000000E+00 -0.45593999997E+02  0.45594000000E+02  0.51100000000E-03 0. -1.
    9900012    2    1    2    0    0 -0.28391546906E+02 -0.23506289972E+01  0.32741690147E+02  0.47787266526E+02  0.19999979399E+02 0.  0.
         12    1    1    2    0    0  0.28391546906E+02  0.23506289972E+01 -0.32741690147E+02  0.43400733474E+02  0.00000000000E+00 0. -1.
         11    1    3    3    0    0 -0.15088736120E+02 -0.43801220691E+01  0.21493665731E+02  0.26623919581E+02  0.51100000000E-03 0.  1.
        -11    1    3    3    0    0  0.22170060224E+01  0.79167425830E+00  0.16214164607E+01  0.28584708211E+01  0.51100000000E-03 0. -1.
         12    1    3    3    0    0 -0.15519816808E+02  0.12378188135E+01  0.96266079551E+01  0.18304876124E+02  0.00000000000E+00 0. -1.
</event>
<event>
 7    1  0.2237500E-009  0.4778727E+02  0.7816164E-02  0.1312668E+00
        -11   -1    0    0    0    0  0.00000000000E+00  0.00000000000E+00  0.45593999997E+02  0.45594000000E+02  0.51100000000E-03 0. -1.
         11   -1    0    0    0    0 -0.00000000000E+00 -0.00000000000E+00 -0.45593999997E+02  0.45594000000E+02  0.51100000000E-03 0.  1.
    9900012    2    1    2    0    0 -0.22973836981E+02 -0.36749453956E+02 -0.23030063338E+01  0.47787269708E+02  0.19999993906E+02 0.  0.
         12    1    1    2    0    0  0.22973836981E+02  0.36749453956E+02  0.23030063338E+01  0.43400730292E+02  0.00000000000E+00 0. -1.
         11    1    3    3    0    0 -0.11014197927E+02 -0.13909319467E+02 -0.53378314358E+01  0.18527659558E+02  0.51100000000E-03 0. -1.
        -11    1    3    3    0    0 -0.13562240102E+02 -0.12088314276E+02  0.96128227937E+00  0.18193014113E+02  0.51100000000E-03 0.  1.
         12    1    3    3    0    0  0.16026010478E+01 -0.10751820213E+02  0.20735428227E+01  0.11066596037E+02  0.00000000000E+00 0. -1.
</event>
<event>
 7    1  0.2237500E-009  0.4778727E+02  0.7816164E-02  0.1312668E+00
        -11   -1    0    0    0    0  0.00000000000E+00  0.00000000000E+00  0.45593999997E+02  0.45594000000E+02  0.51100000000E-03 0. -1.
         11   -1    0    0    0    0 -0.00000000000E+00 -0.00000000000E+00 -0.45593999997E+02  0.45594000000E+02  0.51100000000E-03 0.  1.
    9900012    2    1    2    0    0  0.89563120409E+01  0.33713814826E+02 -0.25822205074E+02  0.47787272928E+02  0.20000008589E+02 0.  0.
         12    1    1    2    0    0 -0.89563120409E+01 -0.33713814826E+02  0.25822205074E+02  0.43400727072E+02  0.00000000000E+00 0. -1.
         11    1    3    3    0    0  0.49154189604E+01  0.14313515259E+02 -0.63654902159E+01  0.16418207228E+02  0.51100000000E-03 0. -1.
        -11    1    3    3    0    0  0.13378986728E+01  0.20396594437E+02 -0.12804383049E+02  0.24119769132E+02  0.51100000000E-03 0.  1.
         12    1    3    3    0    0  0.27029944077E+01 -0.99629486988E+00 -0.66523318092E+01  0.72492965684E+01  0.00000000000E+00 0. -1.
</event>
<event>
 7    1  0.2237500E-009  0.4778727E+02  0.7816164E-02  0.1312668E+00
        -11   -1    0    0    0    0  0.00000000000E+00  0.00000000000E+00  0.45593999997E+02  0.45594000000E+02  0.51100000000E-03 0.  1.
         11   -1    0    0    0    0 -0.00000000000E+00 -0.00000000000E+00 -0.45593999997E+02  0.45594000000E+02  0.51100000000E-03 0. -1.
    9900012    2    1    2    0    0  0.18980790831E+02  0.12404313087E+02  0.37006565047E+02  0.47787271201E+02  0.20000000712E+02 0.  0.
         12    1    1    2    0    0 -0.18980790831E+02 -0.12404313087E+02 -0.37006565047E+02  0.43400728799E+02  0.00000000000E+00 0. -1.
         11    1    3    3    0    0 -0.18290079103E+01 -0.75850866755E+00  0.54535503218E+00  0.20537813191E+01  0.51100000000E-03 0. -1.
        -11    1    3    3    0    0 -0.10509346348E+01 -0.15305834267E+00  0.53079285988E+01  0.54131318785E+01  0.51100000000E-03 0.  1.
         12    1    3    3    0    0  0.21860733376E+02  0.13315880097E+02  0.31153281416E+02  0.40320358003E+02  0.00000000000E+00 0. -1.
</event>
<event>
 7    1  0.2237500E-009  0.4778730E+02  0.7816164E-02  0.1312668E+00
        -11   -1    0    0    0    0  0.00000000000E+00  0.00000000000E+00  0.45593999997E+02  0.45594000000E+02  0.51100000000E-03 0. -1.
         11   -1    0    0    0    0 -0.00000000000E+00 -0.00000000000E+00 -0.45593999997E+02  0.45594000000E+02  0.51100000000E-03 0.  1.
    9900012    2    1    2    0    0  0.76038686490E+01 -0.42249739403E+02 -0.63844550819E+01  0.47787302255E+02  0.20000142302E+02 0.  0.
         12    1    1    2    0    0 -0.76038686490E+01  0.42249739403E+02  0.63844550819E+01  0.43400697745E+02  0.00000000000E+00 0. -1.
         11    1    3    3    0    0  0.65862647349E+01 -0.11446906847E+02  0.24364669670E+01  0.13429330998E+02  0.51100000000E-03 0. -1.
        -11    1    3    3    0    0  0.63434137318E-01 -0.43229081268E+00  0.20426307808E+01  0.20888369980E+01  0.51100000000E-03 0.  1.
        -12    1    3    3    0    0  0.95416977681E+00 -0.30370541743E+02 -0.10863552830E+02  0.32269134259E+02  0.00000000000E+00 0.  1.
</event>
<event>
 7    1  0.2237500E-009  0.4778727E+02  0.7816164E-02  0.1312668E+00
        -11   -1    0    0    0    0  0.00000000000E+00  0.00000000000E+00  0.45593999997E+02  0.45594000000E+02  0.51100000000E-03 0.  1.
         11   -1    0    0    0    0 -0.00000000000E+00 -0.00000000000E+00 -0.45593999997E+02  0.45594000000E+02  0.51100000000E-03 0. -1.
    9900012    2    1    2    0    0 -0.31892614783E+02 -0.28587912004E+02  0.70153798916E+01  0.47787272524E+02  0.20000006745E+02 0.  0.
         12    1    1    2    0    0  0.31892614783E+02  0.28587912004E+02 -0.70153798916E+01  0.43400727476E+02  0.00000000000E+00 0. -1.
         11    1    3    3    0    0 -0.12066529617E+02 -0.73777421752E+01  0.11544857117E+01  0.14190315505E+02  0.51100000000E-03 0.  1.
        -11    1    3    3    0    0 -0.16858771511E+02 -0.18460477188E+02  0.10782346012E+02  0.27226207607E+02  0.51100000000E-03 0. -1.
         12    1    3    3    0    0 -0.29673136550E+01 -0.27496926410E+01 -0.49214518317E+01  0.63707494127E+01  0.00000000000E+00 0. -1.
</event>
<event>
 7    1  0.2237500E-009  0.4778727E+02  0.7816164E-02  0.1312668E+00
        -11   -1    0    0    0    0  0.00000000000E+00  0.00000000000E+00  0.45593999997E+02  0.45594000000E+02  0.51100000000E-03 0.  1.
         11   -1    0    0    0    0 -0.00000000000E+00 -0.00000000000E+00 -0.45593999997E+02  0.45594000000E+02  0.51100000000E-03 0. -1.
    9900012    2    1    2    0    0 -0.23643911755E+00 -0.40060016398E+02  0.16696175062E+02  0.47787273290E+02  0.20000010240E+02 0.  0.
         12    1    1    2    0    0  0.23643911755E+00  0.40060016398E+02 -0.16696175062E+02  0.43400726710E+02  0.00000000000E+00 0. -1.
         11    1    3    3    0    0  0.76893649180E+01 -0.10801818379E+02  0.63657134495E+01  0.14708090329E+02  0.51100000000E-03 0. -1.
        -11    1    3    3    0    0  0.86287538864E+00 -0.25201538648E+01  0.29652955477E+01  0.39860641471E+01  0.51100000000E-03 0.  1.
        -12    1    3    3    0    0 -0.87886794241E+01 -0.26738044154E+02  0.73651660648E+01  0.29093118815E+02  0.00000000000E+00 0.  1.
</event>
<event>
 7    1  0.2237500E-009  0.4778727E+02  0.7816164E-02  0.1312668E+00
        -11   -1    0    0    0    0  0.00000000000E+00  0.00000000000E+00  0.45593999997E+02  0.45594000000E+02  0.51100000000E-03 0.  1.
         11   -1    0    0    0    0 -0.00000000000E+00 -0.00000000000E+00 -0.45593999997E+02  0.45594000000E+02  0.51100000000E-03 0. -1.
    9900012    2    1    2    0    0 -0.40921322276E+01 -0.35701439439E+02  0.24336900970E+02  0.47787273358E+02  0.20000010549E+02 0.  0.
         12    1    1    2    0    0  0.40921322276E+01  0.35701439439E+02 -0.24336900970E+02  0.43400726642E+02  0.00000000000E+00 0. -1.
         11    1    3    3    0    0  0.17489994380E+01 -0.10108425962E+02  0.10400913589E+02  0.14608842466E+02  0.51100000000E-03 0. -1.
        -11    1    3    3    0    0  0.27727578726E+01 -0.19132970518E+02  0.85446617382E+01  0.21136934299E+02  0.51100000000E-03 0.  1.
        -12    1    3    3    0    0 -0.86138895382E+01 -0.64600429593E+01  0.53913256433E+01  0.12041496593E+02  0.00000000000E+00 0.  1.
</event>
<event>
 7    1  0.2237500E-009  0.4778727E+02  0.7816164E-02  0.1312668E+00
        -11   -1    0    0    0    0  0.00000000000E+00  0.00000000000E+00  0.45593999997E+02  0.45594000000E+02  0.51100000000E-03 0.  1.
         11   -1    0    0    0    0 -0.00000000000E+00 -0.00000000000E+00 -0.45593999997E+02  0.45594000000E+02  0.51100000000E-03 0. -1.
    9900012    2    1    2    0    0 -0.27617403976E+02  0.33466925638E+02  0.93141376044E+00  0.47787266762E+02  0.19999980473E+02 0.  0.
         12    1    1    2    0    0  0.27617403976E+02 -0.33466925638E+02 -0.93141376044E+00  0.43400733238E+02  0.00000000000E+00 0. -1.
         11    1    3    3    0    0 -0.48422593080E+01  0.10876464632E+01 -0.35881248482E+01  0.61241399577E+01  0.51100000000E-03 0. -1.
        -11    1    3    3    0    0 -0.62061455426E+01  0.46906655279E+01 -0.33180443351E+01  0.84574230154E+01  0.51100000000E-03 0.  1.
        -12    1    3    3    0    0 -0.16568999126E+02  0.27688613647E+02  0.78375829438E+01  0.33205703789E+02  0.00000000000E+00 0.  1.
</event>
<event>
 7    1  0.2237500E-009  0.4778728E+02  0.7816164E-02  0.1312668E+00
        -11   -1    0    0    0    0  0.00000000000E+00  0.00000000000E+00  0.45593999997E+02  0.45594000000E+02  0.51100000000E-03 0.  1.
         11   -1    0    0    0    0 -0.00000000000E+00 -0.00000000000E+00 -0.45593999997E+02  0.45594000000E+02  0.51100000000E-03 0. -1.
    9900012    2    1    2    0    0  0.20301728154E+01  0.41583035982E+02 -0.12261828087E+02  0.47787275223E+02  0.20000019052E+02 0.  0.
         12    1    1    2    0    0 -0.20301728154E+01 -0.41583035982E+02  0.12261828087E+02  0.43400724777E+02  0.00000000000E+00 0. -1.
         11    1    3    3    0    0 -0.38976040095E+01  0.60856339232E+01 -0.47830857845E+01  0.86662660440E+01  0.51100000000E-03 0. -1.
        -11    1    3    3    0    0 -0.35625414497E+01  0.81895486612E+01  0.10170094391E+01  0.89885881714E+01  0.51100000000E-03 0.  1.
        -12    1    3    3    0    0  0.94903182746E+01  0.27307853397E+02 -0.84957517417E+01  0.30132421008E+02  0.00000000000E+00 0.  1.
</event>
<event>
 7    1  0.2237500E-009  0.4778727E+02  0.7816164E-02  0.1312668E+00
        -11   -1    0    0    0    0  0.00000000000E+00  0.00000000000E+00  0.45593999997E+02  0.45594000000E+02  0.51100000000E-03 0.  1.
         11   -1    0    0    0    0 -0.00000000000E+00 -0.00000000000E+00 -0.45593999997E+02  0.45594000000E+02  0.51100000000E-03 0. -1.
    9900012    2    1    2    0    0  0.15854709374E+02 -0.27719137160E+02  0.29392193165E+02  0.47787269668E+02  0.19999993726E+02 0.  0.
         12    1    1    2    0    0 -0.15854709374E+02  0.27719137160E+02 -0.29392193165E+02  0.43400730332E+02  0.00000000000E+00 0. -1.
         11    1    3    3    0    0  0.10763128386E+02 -0.82312505758E+01  0.58208686997E+01  0.14747234703E+02  0.51100000000E-03 0. -1.
        -11    1    3    3    0    0  0.68725256404E+01 -0.17192954723E+02  0.14508033455E+02  0.23522592029E+02  0.51100000000E-03 0.  1.
         12    1    3    3    0    0 -0.17809446529E+01 -0.22949318620E+01  0.90632910108E+01  0.95174429368E+01  0.00000000000E+00 0. -1.
</event>
<event>
 7    1  0.2237500E-009  0.4778727E+02  0.7816164E-02  0.1312668E+00
        -11   -1    0    0    0    0  0.00000000000E+00  0.00000000000E+00  0.45593999997E+02  0.45594000000E+02  0.51100000000E-03 0. -1.
         11   -1    0    0    0    0 -0.00000000000E+00 -0.00000000000E+00 -0.45593999997E+02  0.45594000000E+02  0.51100000000E-03 0.  1.
    9900012    2    1    2    0    0  0.33452241592E+01  0.28461507626E+02 -0.32594097921E+02  0.47787272353E+02  0.20000005968E+02 0.  0.
         12    1    1    2    0    0 -0.33452241592E+01 -0.28461507626E+02  0.32594097921E+02  0.43400727647E+02  0.00000000000E+00 0. -1.
         11    1    3    3    0    0 -0.24689288588E+01  0.15003937388E+02 -0.13553375308E+02  0.20369283967E+02  0.51100000000E-03 0. -1.
        -11    1    3    3    0    0  0.26120220378E+01  0.11764404014E+02 -0.20279440822E+02  0.23589819440E+02  0.51100000000E-03 0.  1.
         12    1    3    3    0    0  0.32021309803E+01  0.16931662239E+01  0.12387182087E+01  0.38281689457E+01  0.00000000000E+00 0. -1.
</event>
<event>
 7    1  0.2237500E-009  0.4778727E+02  0.7816164E-02  0.1312668E+00
        -11   -1    0    0    0    0  0.00000000000E+00  0.00000000000E+00  0.45593999997E+02  0.45594000000E+02  0.51100000000E-03 0.  1.
         11   -1    0    0    0    0 -0.00000000000E+00 -0.00000000000E+00 -0.45593999997E+02  0.45594000000E+02  0.51100000000E-03 0. -1.
    9900012    2    1    2    0    0 -0.25508688720E+02  0.21951536726E+01  0.35044416989E+02  0.47787273485E+02  0.20000011129E+02 0.  0.
         12    1    1    2    0    0  0.25508688720E+02 -0.21951536726E+01 -0.35044416989E+02  0.43400726515E+02  0.00000000000E+00 0. -1.
         11    1    3    3    0    0 -0.25684915646E+01 -0.23578438647E+01  0.11469879045E+01  0.36704438590E+01  0.51100000000E-03 0. -1.
        -11    1    3    3    0    0 -0.14607175709E+02 -0.15279177920E+01  0.29397766601E+02  0.32862330964E+02  0.51100000000E-03 0.  1.
        -12    1    3    3    0    0 -0.83330214468E+01  0.60809153292E+01  0.44996624835E+01  0.11254498662E+02  0.00000000000E+00 0.  1.
</event>
<event>
 7    1  0.2237500E-009  0.4778727E+02  0.7816164E-02  0.1312668E+00
        -11   -1    0    0    0    0  0.00000000000E+00  0.00000000000E+00  0.45593999997E+02  0.45594000000E+02  0.51100000000E-03 0. -1.
         11   -1    0    0    0    0 -0.00000000000E+00 -0.00000000000E+00 -0.45593999997E+02  0.45594000000E+02  0.51100000000E-03 0.  1.
    9900012    2    1    2    0    0 -0.30004526338E+02  0.22708191286E+02 -0.21626143595E+02  0.47787266838E+02  0.19999980820E+02 0.  0.
         12    1    1    2    0    0  0.30004526338E+02 -0.22708191286E+02  0.21626143595E+02  0.43400733162E+02  0.00000000000E+00 0. -1.
         11    1    3    3    0    0 -0.13753570933E+02  0.77657005980E+01 -0.66549686041E+00  0.15808532681E+02  0.51100000000E-03 0. -1.
        -11    1    3    3    0    0 -0.13410322511E+02  0.10232816367E+02 -0.97298680372E+01  0.19473510544E+02  0.51100000000E-03 0.  1.
         12    1    3    3    0    0 -0.28406328940E+01  0.47096743205E+01 -0.11230778697E+02  0.12505223612E+02  0.00000000000E+00 0. -1.
</event>
<event>
 7    1  0.2237500E-009  0.4778727E+02  0.7816164E-02  0.1312668E+00
        -11   -1    0    0    0    0  0.00000000000E+00  0.00000000000E+00  0.45593999997E+02  0.45594000000E+02  0.51100000000E-03 0.  1.
         11   -1    0    0    0    0 -0.00000000000E+00 -0.00000000000E+00 -0.45593999997E+02  0.45594000000E+02  0.51100000000E-03 0. -1.
    9900012    2    1    2    0    0 -0.39320755517E+02  0.14395918671E+02 -0.11413106213E+02  0.47787270948E+02  0.19999999561E+02 0.  0.
         12    1    1    2    0    0  0.39320755517E+02 -0.14395918671E+02  0.11413106213E+02  0.43400729052E+02  0.00000000000E+00 0. -1.
         11    1    3    3    0    0 -0.91330104275E+01  0.34769402179E+01 -0.11223370819E+02  0.14881701702E+02  0.51100000000E-03 0. -1.
        -11    1    3    3    0    0 -0.11051562781E+02  0.53177192944E+00 -0.10572199564E+01  0.11114744063E+02  0.51100000000E-03 0.  1.
         12    1    3    3    0    0 -0.19136182309E+02  0.10387206524E+02  0.86748456227E+00  0.21790825184E+02  0.00000000000E+00 0. -1.
</event>
<event>
 7    1  0.2237500E-009  0.4778727E+02  0.7816164E-02  0.1312668E+00
        -11   -1    0    0    0    0  0.00000000000E+00  0.00000000000E+00  0.45593999997E+02  0.45594000000E+02  0.51100000000E-03 0.  1.
         11   -1    0    0    0    0 -0.00000000000E+00 -0.00000000000E+00 -0.45593999997E+02  0.45594000000E+02  0.51100000000E-03 0. -1.
    9900012    2    1    2    0    0  0.37689728022E+02  0.20536325602E+02 -0.64317016002E+01  0.47787273588E+02  0.20000011599E+02 0.  0.
         12    1    1    2    0    0 -0.37689728022E+02 -0.20536325602E+02  0.64317016002E+01  0.43400726412E+02  0.00000000000E+00 0. -1.
         11    1    3    3    0    0  0.14264891790E+02  0.10950718908E+02 -0.33611755757E+01  0.18294886824E+02  0.51100000000E-03 0. -1.
        -11    1    3    3    0    0  0.10008830986E+02  0.21297056940E+01 -0.84060120834E+01  0.13242861604E+02  0.51100000000E-03 0.  1.
         12    1    3    3    0    0  0.13416005246E+02  0.74559009994E+01  0.53354860588E+01  0.16249525161E+02  0.00000000000E+00 0. -1.
</event>
<event>
 7    1  0.2237500E-009  0.4778730E+02  0.7816164E-02  0.1312668E+00
        -11   -1    0    0    0    0  0.00000000000E+00  0.00000000000E+00  0.45593999997E+02  0.45594000000E+02  0.51100000000E-03 0.  1.
         11   -1    0    0    0    0 -0.00000000000E+00 -0.00000000000E+00 -0.45593999997E+02  0.45594000000E+02  0.51100000000E-03 0. -1.
    9900012    2    1    2    0    0 -0.42763208858E+01 -0.22935669578E+02  0.36596300961E+02  0.47787296050E+02  0.20000114009E+02 0.  0.
         12    1    1    2    0    0  0.42763208858E+01  0.22935669578E+02 -0.36596300961E+02  0.43400703950E+02  0.00000000000E+00 0. -1.
         11    1    3    3    0    0 -0.34910126837E+01 -0.10422946587E+01  0.36472223266E+01  0.51551700916E+01  0.51100000000E-03 0. -1.
        -11    1    3    3    0    0  0.43101291489E+01 -0.14456366204E+02  0.10331208752E+02  0.18283807362E+02  0.51100000000E-03 0.  1.
        -12    1    3    3    0    0 -0.50954373510E+01 -0.74370087158E+01  0.22617869883E+02  0.24348318596E+02  0.00000000000E+00 0.  1.
</event>
<event>
 7    1  0.2237500E-009  0.4778728E+02  0.7816164E-02  0.1312668E+00
        -11   -1    0    0    0    0  0.00000000000E+00  0.00000000000E+00  0.45593999997E+02  0.45594000000E+02  0.51100000000E-03 0. -1.
         11   -1    0    0    0    0 -0.00000000000E+00 -0.00000000000E+00 -0.45593999997E+02  0.45594000000E+02  0.51100000000E-03 0.  1.
    9900012    2    1    2    0    0  0.12868964094E+02  0.99179430283E+01 -0.40244838387E+02  0.47787275956E+02  0.20000022394E+02 0.  0.
         12    1    1    2    0    0 -0.12868964094E+02 -0.99179430283E+01  0.40244838387E+02  0.43400724044E+02  0.00000000000E+00 0. -1.
         11    1    3    3    0    0  0.22722021876E+01  0.78731824573E+01 -0.80922594507E+01  0.11516708213E+02  0.51100000000E-03 0. -1.
        -11    1    3    3    0    0 -0.77759354745E+00  0.13184662532E+01  0.55953947040E+00  0.16297514123E+01  0.51100000000E-03 0.  1.
        -12    1    3    3    0    0  0.11374355454E+02  0.72629431784E+00 -0.32712118406E+02  0.34640816331E+02  0.00000000000E+00 0.  1.
</event>
<event>
 7    1  0.2237500E-009  0.4778727E+02  0.7816164E-02  0.1312668E+00
        -11   -1    0    0    0    0  0.00000000000E+00  0.00000000000E+00  0.45593999997E+02  0.45594000000E+02  0.51100000000E-03 0.  1.
         11   -1    0    0    0    0 -0.00000000000E+00 -0.00000000000E+00 -0.45593999997E+02  0.45594000000E+02  0.51100000000E-03 0. -1.
    9900012    2    1    2    0    0 -0.40692847461E+02  0.14112954390E+02  0.53422782786E+01  0.47787271282E+02  0.20000001081E+02 0.  0.
         12    1    1    2    0    0  0.40692847461E+02 -0.14112954390E+02 -0.53422782786E+01  0.43400728718E+02  0.00000000000E+00 0. -1.
         11    1    3    3    0    0 -0.15419098436E+02  0.39857459020E+01  0.45273083069E+01  0.16556910574E+02  0.51100000000E-03 0.  1.
        -11    1    3    3    0    0 -0.21347587965E+02  0.12509038852E+01 -0.75922564600E+00  0.21397679694E+02  0.51100000000E-03 0. -1.
         12    1    3    3    0    0 -0.39261610594E+01  0.88763046031E+01  0.15741956176E+01  0.98326810136E+01  0.00000000000E+00 0. -1.
</event>
<event>
 7    1  0.2237500E-009  0.4778726E+02  0.7816164E-02  0.1312668E+00
        -11   -1    0    0    0    0  0.00000000000E+00  0.00000000000E+00  0.45593999997E+02  0.45594000000E+02  0.51100000000E-03 0.  1.
         11   -1    0    0    0    0 -0.00000000000E+00 -0.00000000000E+00 -0.45593999997E+02  0.45594000000E+02  0.51100000000E-03 0. -1.
    9900012    2    1    2    0    0 -0.14752688850E+02  0.92051409153E+01  0.39764904869E+02  0.47787261449E+02  0.19999956250E+02 0.  0.
         12    1    1    2    0    0  0.14752688850E+02 -0.92051409153E+01 -0.39764904869E+02  0.43400738551E+02  0.00000000000E+00 0. -1.
         11    1    3    3    0    0 -0.60937034260E+01  0.24275569902E+01  0.68577053850E+01  0.94896985091E+01  0.51100000000E-03 0. -1.
        -11    1    3    3    0    0 -0.12065360771E+02  0.73615573360E+01  0.31574285088E+02  0.34593365492E+02  0.51100000000E-03 0.  1.
         12    1    3    3    0    0  0.34063753471E+01 -0.58397341088E+00  0.13329143955E+01  0.37041974483E+01  0.00000000000E+00 0. -1.
</event>
<event>
 7    1  0.2237500E-009  0.4778728E+02  0.7816164E-02  0.1312668E+00
        -11   -1    0    0    0    0  0.00000000000E+00  0.00000000000E+00  0.45593999997E+02  0.45594000000E+02  0.51100000000E-03 0. -1.
         11   -1    0    0    0    0 -0.00000000000E+00 -0.00000000000E+00 -0.45593999997E+02  0.45594000000E+02  0.51100000000E-03 0.  1.
    9900012    2    1    2    0    0 -0.26518390410E+01 -0.37629844905E+02 -0.21461251282E+02  0.47787276682E+02  0.20000025706E+02 0.  0.
         12    1    1    2    0    0  0.26518390410E+01  0.37629844905E+02  0.21461251282E+02  0.43400723318E+02  0.00000000000E+00 0. -1.
         11    1    3    3    0    0  0.20750953116E+01 -0.18863780580E+02 -0.24683147615E+01  0.19137419270E+02  0.51100000000E-03 0. -1.
        -11    1    3    3    0    0 -0.33166163647E+01 -0.32625888351E+01 -0.82567839725E+00  0.47250582107E+01  0.51100000000E-03 0.  1.
        -12    1    3    3    0    0 -0.14103179879E+01 -0.15503475491E+02 -0.18167258123E+02  0.23924799201E+02  0.00000000000E+00 0.  1.
</event>
<event>
 7    1  0.2237500E-009  0.4778727E+02  0.7816164E-02  0.1312668E+00
        -11   -1    0    0    0    0  0.00000000000E+00  0.00000000000E+00  0.45593999997E+02  0.45594000000E+02  0.51100000000E-03 0.  1.
         11   -1    0    0    0    0 -0.00000000000E+00 -0.00000000000E+00 -0.45593999997E+02  0.45594000000E+02  0.51100000000E-03 0. -1.
    9900012    2    1    2    0    0  0.82405537458E+01  0.29625447250E+02  0.30627591818E+02  0.47787271534E+02  0.20000002234E+02 0.  0.
         12    1    1    2    0    0 -0.82405537458E+01 -0.29625447250E+02 -0.30627591818E+02  0.43400728466E+02  0.00000000000E+00 0. -1.
         11    1    3    3    0    0  0.20933036815E+01  0.81233839301E+01 -0.30577516913E+00  0.83943305567E+01  0.51100000000E-03 0. -1.
        -11    1    3    3    0    0 -0.19463392063E+01  0.29582465753E+01  0.19400801601E+01  0.40377432305E+01  0.51100000000E-03 0.  1.
        -12    1    3    3    0    0  0.80935892705E+01  0.18543816745E+02  0.28993286827E+02  0.35355197747E+02  0.00000000000E+00 0.  1.
</event>
<event>
 7    1  0.2237500E-009  0.4778727E+02  0.7816164E-02  0.1312668E+00
        -11   -1    0    0    0    0  0.00000000000E+00  0.00000000000E+00  0.45593999997E+02  0.45594000000E+02  0.51100000000E-03 0.  1.
         11   -1    0    0    0    0 -0.00000000000E+00 -0.00000000000E+00 -0.45593999997E+02  0.45594000000E+02  0.51100000000E-03 0. -1.
    9900012    2    1    2    0    0 -0.37927735652E+02 -0.20290927145E+02  0.57782702932E+01  0.47787271162E+02  0.20000000538E+02 0.  0.
         12    1    1    2    0    0  0.37927735652E+02  0.20290927145E+02 -0.57782702932E+01  0.43400728838E+02  0.00000000000E+00 0. -1.
         11    1    3    3    0    0 -0.11609972447E+02 -0.14110812123E+01  0.39543952633E+01  0.12345843534E+02  0.51100000000E-03 0. -1.
        -11    1    3    3    0    0 -0.20879223008E+02 -0.65389494463E+01  0.18263866655E+01  0.21955306917E+02  0.51100000000E-03 0.  1.
         12    1    3    3    0    0 -0.54385401964E+01 -0.12340896486E+02 -0.25116356320E-02  0.13486120712E+02  0.00000000000E+00 0. -1.
</event>
<event>
 7    1  0.2237500E-009  0.4778728E+02  0.7816164E-02  0.1312668E+00
        -11   -1    0    0    0    0  0.00000000000E+00  0.00000000000E+00  0.45593999997E+02  0.45594000000E+02  0.51100000000E-03 0.  1.
         11   -1    0    0    0    0 -0.00000000000E+00 -0.00000000000E+00 -0.45593999997E+02  0.45594000000E+02  0.51100000000E-03 0. -1.
    9900012    2    1    2    0    0 -0.12182994461E+02 -0.37911511622E+02  0.17260202064E+02  0.47787278315E+02  0.20000033148E+02 0.  0.
         12    1    1    2    0    0  0.12182994461E+02  0.37911511622E+02 -0.17260202064E+02  0.43400721685E+02  0.00000000000E+00 0. -1.
         11    1    3    3    0    0 -0.15461286318E+01  0.30204712276E+00  0.55752566653E+00  0.16711018342E+01  0.51100000000E-03 0. -1.
        -11    1    3    3    0    0 -0.11171373155E+02 -0.11834293643E+02  0.36460156726E+01  0.16677635167E+02  0.51100000000E-03 0.  1.
        -12    1    3    3    0    0  0.53450732583E+00 -0.26379265102E+02  0.13056660724E+02  0.29438541314E+02  0.00000000000E+00 0.  1.
</event>
<event>
 7    1  0.2237500E-009  0.4778727E+02  0.7816164E-02  0.1312668E+00
        -11   -1    0    0    0    0  0.00000000000E+00  0.00000000000E+00  0.45593999997E+02  0.45594000000E+02  0.51100000000E-03 0. -1.
         11   -1    0    0    0    0 -0.00000000000E+00 -0.00000000000E+00 -0.45593999997E+02  0.45594000000E+02  0.51100000000E-03 0.  1.
    9900012    2    1    2    0    0 -0.39439318865E+02  0.16293640455E+02 -0.79171085921E+01  0.47787271893E+02  0.20000003867E+02 0.  0.
         12    1    1    2    0    0  0.39439318865E+02 -0.16293640455E+02  0.79171085921E+01  0.43400728107E+02  0.00000000000E+00 0. -1.
         11    1    3    3    0    0 -0.21559312528E+02  0.21936220336E+01 -0.27596122776E+01  0.21845626439E+02  0.51100000000E-03 0. -1.
        -11    1    3    3    0    0 -0.16266206895E+02  0.74883918497E+01 -0.64134747658E+01  0.19020992563E+02  0.51100000000E-03 0.  1.
         12    1    3    3    0    0 -0.16137994411E+01  0.66116265721E+01  0.12559784513E+01  0.69206528908E+01  0.00000000000E+00 0. -1.
</event>
<event>
 7    1  0.2237500E-009  0.4778727E+02  0.7816164E-02  0.1312668E+00
        -11   -1    0    0    0    0  0.00000000000E+00  0.00000000000E+00  0.45593999997E+02  0.45594000000E+02  0.51100000000E-03 0.  1.
         11   -1    0    0    0    0 -0.00000000000E+00 -0.00000000000E+00 -0.45593999997E+02  0.45594000000E+02  0.51100000000E-03 0. -1.
    9900012    2    1    2    0    0 -0.31730646197E+02 -0.29364918743E+02  0.38066935387E+01  0.47787271014E+02  0.19999999859E+02 0.  0.
         12    1    1    2    0    0  0.31730646197E+02  0.29364918743E+02 -0.38066935387E+01  0.43400728986E+02  0.00000000000E+00 0. -1.
         11    1    3    3    0    0 -0.13520126623E+02 -0.85326600366E+01  0.96831606154E+01  0.18691273658E+02  0.51100000000E-03 0. -1.
        -11    1    3    3    0    0 -0.54310846411E+01 -0.10986096688E+02 -0.37967252576E+01  0.12829891807E+02  0.51100000000E-03 0.  1.
        -12    1    3    3    0    0 -0.12779434934E+02 -0.98461620176E+01 -0.20797418190E+01  0.16266105549E+02  0.00000000000E+00 0.  1.
</event>
<event>
 7    1  0.2237500E-009  0.4778727E+02  0.7816164E-02  0.1312668E+00
        -11   -1    0    0    0    0  0.00000000000E+00  0.00000000000E+00  0.45593999997E+02  0.45594000000E+02  0.51100000000E-03 0.  1.
         11   -1    0    0    0    0 -0.00000000000E+00 -0.00000000000E+00 -0.45593999997E+02  0.45594000000E+02  0.51100000000E-03 0. -1.
    9900012    2    1    2    0    0  0.41480840172E+02 -0.12431125537E+02 -0.29034735862E+01  0.47787272560E+02  0.20000006909E+02 0.  0.
         12    1    1    2    0    0 -0.41480840172E+02  0.12431125537E+02  0.29034735862E+01  0.43400727440E+02  0.00000000000E+00 0. -1.
         11    1    3    3    0    0  0.23500970737E+01  0.14020927500E+01 -0.10121032218E+01  0.29177343142E+01  0.51100000000E-03 0. -1.
        -11    1    3    3    0    0  0.10971501594E+02 -0.11844084345E+02  0.23782308826E+01  0.16319073613E+02  0.51100000000E-03 0.  1.
        -12    1    3    3    0    0  0.28159241504E+02 -0.19891339423E+01 -0.42696012469E+01  0.28550464632E+02  0.00000000000E+00 0.  1.
</event>
<event>
 7    1  0.2237500E-009  0.4778727E+02  0.7816164E-02  0.1312668E+00
        -11   -1    0    0    0    0  0.00000000000E+00  0.00000000000E+00  0.45593999997E+02  0.45594000000E+02  0.51100000000E-03 0. -1.
         11   -1    0    0    0    0 -0.00000000000E+00 -0.00000000000E+00 -0.45593999997E+02  0.45594000000E+02  0.51100000000E-03 0.  1.
    9900012    2    1    2    0    0  0.13549367303E+02  0.14938104365E+02 -0.38430339387E+02  0.47787270724E+02  0.19999998537E+02 0.  0.
         12    1    1    2    0    0 -0.13549367303E+02 -0.14938104365E+02  0.38430339387E+02  0.43400729276E+02  0.00000000000E+00 0. -1.
         11    1    3    3    0    0  0.11605301281E+01 -0.10886686801E+01 -0.24256127235E+00  0.16096166951E+01  0.51100000000E-03 0. -1.
        -11    1    3    3    0    0  0.15436142362E+02  0.14188082126E+02 -0.25565131805E+02  0.33062851207E+02  0.51100000000E-03 0.  1.
         12    1    3    3    0    0 -0.30473051872E+01  0.18386909188E+01 -0.12622646309E+02  0.13114802822E+02  0.00000000000E+00 0. -1.
</event>
<event>
 7    1  0.2237500E-009  0.4778727E+02  0.7816164E-02  0.1312668E+00
        -11   -1    0    0    0    0  0.00000000000E+00  0.00000000000E+00  0.45593999997E+02  0.45594000000E+02  0.51100000000E-03 0.  1.
         11   -1    0    0    0    0 -0.00000000000E+00 -0.00000000000E+00 -0.45593999997E+02  0.45594000000E+02  0.51100000000E-03 0. -1.
    9900012    2    1    2    0    0 -0.20419550443E+02 -0.30189666592E+02  0.23563725469E+02  0.47787272273E+02  0.20000005601E+02 0.  0.
         12    1    1    2    0    0  0.20419550443E+02  0.30189666592E+02 -0.23563725469E+02  0.43400727727E+02  0.00000000000E+00 0. -1.
         11    1    3    3    0    0 -0.57885232180E+01 -0.65145952445E+01  0.13141338700E+02  0.15768377701E+02  0.51100000000E-03 0. -1.
        -11    1    3    3    0    0 -0.10518807223E+02 -0.16801826293E+02  0.12881223258E+02  0.23640486142E+02  0.51100000000E-03 0.  1.
        -12    1    3    3    0    0 -0.41122200018E+01 -0.68732450552E+01 -0.24588364884E+01  0.83784084294E+01  0.00000000000E+00 0.  1.
</event>
<event>
 7    1  0.2237500E-009  0.4778727E+02  0.7816164E-02  0.1312668E+00
        -11   -1    0    0    0    0  0.00000000000E+00  0.00000000000E+00  0.45593999997E+02  0.45594000000E+02  0.51100000000E-03 0.  1.
         11   -1    0    0    0    0 -0.00000000000E+00 -0.00000000000E+00 -0.45593999997E+02  0.45594000000E+02  0.51100000000E-03 0. -1.
    9900012    2    1    2    0    0 -0.22089553102E+02  0.98507743030E+00  0.37345743432E+02  0.47787270902E+02  0.19999999350E+02 0.  0.
         12    1    1    2    0    0  0.22089553102E+02 -0.98507743030E+00 -0.37345743432E+02  0.43400729098E+02  0.00000000000E+00 0. -1.
         11    1    3    3    0    0 -0.84601821273E+00 -0.84077256568E+00  0.16983378226E+02  0.17025210176E+02  0.51100000000E-03 0. -1.
        -11    1    3    3    0    0 -0.85166730142E+01  0.39691908627E+01  0.12542671781E+02  0.15671847721E+02  0.51100000000E-03 0.  1.
        -12    1    3    3    0    0 -0.12726861875E+02 -0.21433408667E+01  0.78196934255E+01  0.15090213005E+02  0.00000000000E+00 0.  1.
</event>
<event>
 7    1  0.2237500E-009  0.4778727E+02  0.7816164E-02  0.1312668E+00
        -11   -1    0    0    0    0  0.00000000000E+00  0.00000000000E+00  0.45593999997E+02  0.45594000000E+02  0.51100000000E-03 0. -1.
         11   -1    0    0    0    0 -0.00000000000E+00 -0.00000000000E+00 -0.45593999997E+02  0.45594000000E+02  0.51100000000E-03 0.  1.
    9900012    2    1    2    0    0 -0.75463877165E+01 -0.22869740217E+02 -0.36106094874E+02  0.47787273368E+02  0.20000010593E+02 0.  0.
         12    1    1    2    0    0  0.75463877165E+01  0.22869740217E+02  0.36106094874E+02  0.43400726632E+02  0.00000000000E+00 0. -1.
         11    1    3    3    0    0 -0.57797111673E+00  0.27131057908E+01 -0.35788880806E+01  0.45280717528E+01  0.51100000000E-03 0. -1.
        -11    1    3    3    0    0 -0.34395836717E+01 -0.97444147386E+00 -0.52652667210E+01  0.63642207634E+01  0.51100000000E-03 0.  1.
        -12    1    3    3    0    0 -0.35288329281E+01 -0.24608404534E+02 -0.27261940072E+02  0.36894980852E+02  0.00000000000E+00 0.  1.
</event>
<event>
 7    1  0.2237500E-009  0.4778723E+02  0.7816164E-02  0.1312668E+00
        -11   -1    0    0    0    0  0.00000000000E+00  0.00000000000E+00  0.45593999997E+02  0.45594000000E+02  0.51100000000E-03 0.  1.
         11   -1    0    0    0    0 -0.00000000000E+00 -0.00000000000E+00 -0.45593999997E+02  0.45594000000E+02  0.51100000000E-03 0. -1.
    9900012    2    1    2    0    0  0.14980667242E+02  0.84038261689E+01  0.39857026399E+02  0.47787225368E+02  0.19999791741E+02 0.  0.
         12    1    1    2    0    0 -0.14980667242E+02 -0.84038261689E+01 -0.39857026399E+02  0.43400774632E+02  0.00000000000E+00 0. -1.
         11    1    3    3    0    0  0.21176905945E+01 -0.34474700760E+01  0.10455769475E+02  0.11211279095E+02  0.51100000000E-03 0. -1.
        -11    1    3    3    0    0  0.39444571292E+01 -0.22988698174E+01  0.97789321063E+01  0.10792175771E+02  0.51100000000E-03 0.  1.
        -12    1    3    3    0    0  0.89185195178E+01  0.14150166062E+02  0.19622324819E+02  0.25783770501E+02  0.00000000000E+00 0.  1.
</event>
<event>
 7    1  0.2237500E-009  0.4778727E+02  0.7816164E-02  0.1312668E+00
        -11   -1    0    0    0    0  0.00000000000E+00  0.00000000000E+00  0.45593999997E+02  0.45594000000E+02  0.51100000000E-03 0.  1.
         11   -1    0    0    0    0 -0.00000000000E+00 -0.00000000000E+00 -0.45593999997E+02  0.45594000000E+02  0.51100000000E-03 0. -1.
    9900012    2    1    2    0    0  0.36396176610E+02  0.18384345110E+02  0.14864644399E+02  0.47787268784E+02  0.19999989696E+02 0.  0.
         12    1    1    2    0    0 -0.36396176610E+02 -0.18384345110E+02 -0.14864644399E+02  0.43400731216E+02  0.00000000000E+00 0. -1.
         11    1    3    3    0    0  0.17683165843E+02  0.15559184784E+02  0.66555367010E+01  0.24476085357E+02  0.51100000000E-03 0. -1.
        -11    1    3    3    0    0  0.73525135868E+01  0.30121240479E+01 -0.18252622081E+01  0.81525413040E+01  0.51100000000E-03 0.  1.
        -12    1    3    3    0    0  0.11360497180E+02 -0.18696372167E+00  0.10034369906E+02  0.15158642123E+02  0.00000000000E+00 0.  1.
</event>
<event>
 7    1  0.2237500E-009  0.4778727E+02  0.7816164E-02  0.1312668E+00
        -11   -1    0    0    0    0  0.00000000000E+00  0.00000000000E+00  0.45593999997E+02  0.45594000000E+02  0.51100000000E-03 0.  1.
         11   -1    0    0    0    0 -0.00000000000E+00 -0.00000000000E+00 -0.45593999997E+02  0.45594000000E+02  0.51100000000E-03 0. -1.
    9900012    2    1    2    0    0  0.22780226724E+02  0.24332307969E+02 -0.27796103429E+02  0.47787270668E+02  0.19999998284E+02 0.  0.
         12    1    1    2    0    0 -0.22780226724E+02 -0.24332307969E+02  0.27796103429E+02  0.43400729332E+02  0.00000000000E+00 0. -1.
         11    1    3    3    0    0 -0.75346465467E-01 -0.10882972629E+00  0.34031194932E+00  0.36514857682E+00  0.51100000000E-03 0. -1.
        -11    1    3    3    0    0  0.13973514755E+02  0.11973220006E+02 -0.26164506221E+02  0.31987474079E+02  0.51100000000E-03 0.  1.
         12    1    3    3    0    0  0.88820584343E+01  0.12467917689E+02 -0.19719091577E+01  0.15434648012E+02  0.00000000000E+00 0. -1.
</event>
<event>
 7    1  0.2237500E-009  0.4778727E+02  0.7816164E-02  0.1312668E+00
        -11   -1    0    0    0    0  0.00000000000E+00  0.00000000000E+00  0.45593999997E+02  0.45594000000E+02  0.51100000000E-03 0.  1.
         11   -1    0    0    0    0 -0.00000000000E+00 -0.00000000000E+00 -0.45593999997E+02  0.45594000000E+02  0.51100000000E-03 0. -1.
    9900012    2    1    2    0    0 -0.21959448870E+02 -0.18022542326E+02  0.32811492914E+02  0.47787268510E+02  0.19999988446E+02 0.  0.
         12    1    1    2    0    0  0.21959448870E+02  0.18022542326E+02 -0.32811492914E+02  0.43400731490E+02  0.00000000000E+00 0. -1.
         11    1    3    3    0    0 -0.12191697463E+02 -0.30733291418E+01  0.51378513505E+01  0.13582354575E+02  0.51100000000E-03 0. -1.
        -11    1    3    3    0    0 -0.34489638097E+01 -0.79462986116E+01  0.59136818520E+01  0.10488596012E+02  0.51100000000E-03 0.  1.
        -12    1    3    3    0    0 -0.63187875978E+01 -0.70029145722E+01  0.21759959712E+02  0.23716317924E+02  0.00000000000E+00 0.  1.
</event>
<event>
 7    1  0.2237500E-009  0.4778726E+02  0.7816164E-02  0.1312668E+00
        -11   -1    0    0    0    0  0.00000000000E+00  0.00000000000E+00  0.45593999997E+02  0.45594000000E+02  0.51100000000E-03 0.  1.
         11   -1    0    0    0    0 -0.00000000000E+00 -0.00000000000E+00 -0.45593999997E+02  0.45594000000E+02  0.51100000000E-03 0. -1.
    9900012    2    1    2    0    0 -0.16009263445E+02 -0.38624483052E+02  0.11639467721E+02  0.47787257887E+02  0.19999940011E+02 0.  0.
         12    1    1    2    0    0  0.16009263445E+02  0.38624483052E+02 -0.11639467721E+02  0.43400742113E+02  0.00000000000E+00 0. -1.
         11    1    3    3    0    0 -0.88463129580E+01 -0.45971190577E+01  0.22897915324E+01  0.10229071419E+02  0.51100000000E-03 0. -1.
        -11    1    3    3    0    0 -0.13029038949E+01 -0.87145810670E+01  0.73934996341E+01  0.11502404915E+02  0.51100000000E-03 0.  1.
        -12    1    3    3    0    0 -0.58600465923E+01 -0.25312782928E+02  0.19561765541E+01  0.26055781553E+02  0.00000000000E+00 0.  1.
</event>
<event>
 7    1  0.2237500E-009  0.4778727E+02  0.7816164E-02  0.1312668E+00
        -11   -1    0    0    0    0  0.00000000000E+00  0.00000000000E+00  0.45593999997E+02  0.45594000000E+02  0.51100000000E-03 0.  1.
         11   -1    0    0    0    0 -0.00000000000E+00 -0.00000000000E+00 -0.45593999997E+02  0.45594000000E+02  0.51100000000E-03 0. -1.
    9900012    2    1    2    0    0 -0.16896382247E+02 -0.23350694885E+01  0.39908433355E+02  0.47787270336E+02  0.19999996770E+02 0.  0.
         12    1    1    2    0    0  0.16896382247E+02  0.23350694885E+01 -0.39908433355E+02  0.43400729664E+02  0.00000000000E+00 0. -1.
         11    1    3    3    0    0 -0.78048071198E+01 -0.67265962370E+01  0.19035003590E+02  0.21644710047E+02  0.51100000000E-03 0. -1.
        -11    1    3    3    0    0  0.77434125074E+00  0.86809542780E+00  0.12963455737E+02  0.13015543744E+02  0.51100000000E-03 0.  1.
         12    1    3    3    0    0 -0.98659163776E+01  0.35234313207E+01  0.79099740282E+01  0.13127016545E+02  0.00000000000E+00 0. -1.
</event>
<event>
 7    1  0.2237500E-009  0.4778727E+02  0.7816164E-02  0.1312668E+00
        -11   -1    0    0    0    0  0.00000000000E+00  0.00000000000E+00  0.45593999997E+02  0.45594000000E+02  0.51100000000E-03 0. -1.
         11   -1    0    0    0    0 -0.00000000000E+00 -0.00000000000E+00 -0.45593999997E+02  0.45594000000E+02  0.51100000000E-03 0.  1.
    9900012    2    1    2    0    0 -0.25284158936E+02  0.80347713911E+01 -0.34347884811E+02  0.47787269183E+02  0.19999991515E+02 0.  0.
         12    1    1    2    0    0  0.25284158936E+02 -0.80347713911E+01  0.34347884811E+02  0.43400730817E+02  0.00000000000E+00 0. -1.
         11    1    3    3    0    0 -0.18909591317E+01  0.57866176368E+01 -0.10900624248E+02  0.12485362605E+02  0.51100000000E-03 0. -1.
        -11    1    3    3    0    0 -0.18742584503E+01  0.38659756138E+01 -0.15746908860E+01  0.45758347690E+01  0.51100000000E-03 0.  1.
         12    1    3    3    0    0 -0.21518941354E+02 -0.16178218596E+01 -0.21872569677E+02  0.30726071810E+02  0.00000000000E+00 0. -1.
</event>
<event>
 7    1  0.2237500E-009  0.4778727E+02  0.7816164E-02  0.1312668E+00
        -11   -1    0    0    0    0  0.00000000000E+00  0.00000000000E+00  0.45593999997E+02  0.45594000000E+02  0.51100000000E-03 0.  1.
         11   -1    0    0    0    0 -0.00000000000E+00 -0.00000000000E+00 -0.45593999997E+02  0.45594000000E+02  0.51100000000E-03 0. -1.
    9900012    2    1    2    0    0  0.25199556754E+02  0.88429903647E+01  0.34211216776E+02  0.47787268526E+02  0.19999988518E+02 0.  0.
         12    1    1    2    0    0 -0.25199556754E+02 -0.88429903647E+01 -0.34211216776E+02  0.43400731474E+02  0.00000000000E+00 0. -1.
         11    1    3    3    0    0 -0.91617351088E+00  0.22141467845E+01  0.17014293895E+01  0.29388232533E+01  0.51100000000E-03 0. -1.
        -11    1    3    3    0    0  0.52764542407E+01  0.30354270240E+01  0.25376029626E-01  0.60873172068E+01  0.51100000000E-03 0.  1.
        -12    1    3    3    0    0  0.20839276024E+02  0.35934165561E+01  0.32484411357E+02  0.38761128066E+02  0.00000000000E+00 0.  1.
</event>
<event>
 7    1  0.2237500E-009  0.4778727E+02  0.7816164E-02  0.1312668E+00
        -11   -1    0    0    0    0  0.00000000000E+00  0.00000000000E+00  0.45593999997E+02  0.45594000000E+02  0.51100000000E-03 0.  1.
         11   -1    0    0    0    0 -0.00000000000E+00 -0.00000000000E+00 -0.45593999997E+02  0.45594000000E+02  0.51100000000E-03 0. -1.
    9900012    2    1    2    0    0 -0.14331561624E+02  0.37480049447E+02  0.16537093464E+02  0.47787271604E+02  0.20000002549E+02 0.  0.
         12    1    1    2    0    0  0.14331561624E+02 -0.37480049447E+02 -0.16537093464E+02  0.43400728396E+02  0.00000000000E+00 0. -1.
         11    1    3    3    0    0 -0.71705956139E+01  0.89429129535E+01  0.11478530021E+02  0.16221892160E+02  0.51100000000E-03 0. -1.
        -11    1    3    3    0    0  0.67178617594E+00  0.13720391994E+02  0.55072307193E+01  0.14799663631E+02  0.51100000000E-03 0.  1.
         12    1    3    3    0    0 -0.78327521861E+01  0.14816744499E+02 -0.44866727701E+00  0.16765715812E+02  0.00000000000E+00 0. -1.
</event>
<event>
 7    1  0.2237500E-009  0.4778727E+02  0.7816164E-02  0.1312668E+00
        -11   -1    0    0    0    0  0.00000000000E+00  0.00000000000E+00  0.45593999997E+02  0.45594000000E+02  0.51100000000E-03 0.  1.
         11   -1    0    0    0    0 -0.00000000000E+00 -0.00000000000E+00 -0.45593999997E+02  0.45594000000E+02  0.51100000000E-03 0. -1.
    9900012    2    1    2    0    0 -0.20834449153E+02  0.12291996951E+02  0.36034098121E+02  0.47787266274E+02  0.19999978251E+02 0.  0.
         12    1    1    2    0    0  0.20834449153E+02 -0.12291996951E+02 -0.36034098121E+02  0.43400733726E+02  0.00000000000E+00 0. -1.
         11    1    3    3    0    0 -0.74957625198E+01 -0.28159665337E+01  0.68660643957E+01  0.10547936472E+02  0.51100000000E-03 0. -1.
        -11    1    3    3    0    0 -0.44531339128E+01  0.60030622364E+00  0.13057903850E+02  0.13809403406E+02  0.51100000000E-03 0.  1.
        -12    1    3    3    0    0 -0.88855527201E+01  0.14507657261E+02  0.16110129875E+02  0.23429926396E+02  0.00000000000E+00 0.  1.
</event>
<event>
 7    1  0.2237500E-009  0.4778727E+02  0.7816164E-02  0.1312668E+00
        -11   -1    0    0    0    0  0.00000000000E+00  0.00000000000E+00  0.45593999997E+02  0.45594000000E+02  0.51100000000E-03 0.  1.
         11   -1    0    0    0    0 -0.00000000000E+00 -0.00000000000E+00 -0.45593999997E+02  0.45594000000E+02  0.51100000000E-03 0. -1.
    9900012    2    1    2    0    0  0.34948128005E+02 -0.16095929800E+02  0.20079159750E+02  0.47787271164E+02  0.20000000546E+02 0.  0.
         12    1    1    2    0    0 -0.34948128005E+02  0.16095929800E+02 -0.20079159750E+02  0.43400728836E+02  0.00000000000E+00 0. -1.
         11    1    3    3    0    0  0.87702635977E+01 -0.97011734898E+00  0.46454532289E+01  0.99719048936E+01  0.51100000000E-03 0. -1.
        -11    1    3    3    0    0  0.60675504978E+01  0.26792902669E+01  0.70451966868E+01  0.96761853018E+01  0.51100000000E-03 0.  1.
         12    1    3    3    0    0  0.20110313910E+02 -0.17805102718E+02  0.83885098347E+01  0.28139180969E+02  0.00000000000E+00 0. -1.
</event>
<event>
 7    1  0.2237500E-009  0.4778727E+02  0.7816164E-02  0.1312668E+00
        -11   -1    0    0    0    0  0.00000000000E+00  0.00000000000E+00  0.45593999997E+02  0.45594000000E+02  0.51100000000E-03 0. -1.
         11   -1    0    0    0    0 -0.00000000000E+00 -0.00000000000E+00 -0.45593999997E+02  0.45594000000E+02  0.51100000000E-03 0.  1.
    9900012    2    1    2    0    0  0.20718311791E+02  0.33439347384E+02 -0.18335342143E+02  0.47787272259E+02  0.20000005540E+02 0.  0.
         12    1    1    2    0    0 -0.20718311791E+02 -0.33439347384E+02  0.18335342143E+02  0.43400727741E+02  0.00000000000E+00 0. -1.
         11    1    3    3    0    0 -0.16346935211E+01  0.37883937310E+00 -0.15320113907E-01  0.16780873474E+01  0.51100000000E-03 0. -1.
        -11    1    3    3    0    0  0.45046110354E+01  0.78978878047E+01 -0.11240270567E+02  0.14457241612E+02  0.51100000000E-03 0.  1.
        -12    1    3    3    0    0  0.17848394277E+02  0.25162620206E+02 -0.70797514619E+01  0.31651943300E+02  0.00000000000E+00 0.  1.
</event>
<event>
 7    1  0.2237500E-009  0.4778727E+02  0.7816164E-02  0.1312668E+00
        -11   -1    0    0    0    0  0.00000000000E+00  0.00000000000E+00  0.45593999997E+02  0.45594000000E+02  0.51100000000E-03 0.  1.
         11   -1    0    0    0    0 -0.00000000000E+00 -0.00000000000E+00 -0.45593999997E+02  0.45594000000E+02  0.51100000000E-03 0. -1.
    9900012    2    1    2    0    0 -0.35471364593E+02 -0.13008699739E+01  0.24974251576E+02  0.47787271773E+02  0.20000003323E+02 0.  0.
         12    1    1    2    0    0  0.35471364593E+02  0.13008699739E+01 -0.24974251576E+02  0.43400728227E+02  0.00000000000E+00 0. -1.
         11    1    3    3    0    0 -0.11918960599E+02 -0.31095060681E+01  0.15578953774E+02  0.19860373881E+02  0.51100000000E-03 0. -1.
        -11    1    3    3    0    0 -0.87225549233E+01 -0.49195166807E+01  0.36146428269E+01  0.10646607525E+02  0.51100000000E-03 0.  1.
        -12    1    3    3    0    0 -0.14829849071E+02  0.67281527749E+01  0.57806549754E+01  0.17280290367E+02  0.00000000000E+00 0.  1.
</event>
<event>
 7    1  0.2237500E-009  0.4778726E+02  0.7816164E-02  0.1312668E+00
        -11   -1    0    0    0    0  0.00000000000E+00  0.00000000000E+00  0.45593999997E+02  0.45594000000E+02  0.51100000000E-03 0.  1.
         11   -1    0    0    0    0 -0.00000000000E+00 -0.00000000000E+00 -0.45593999997E+02  0.45594000000E+02  0.51100000000E-03 0. -1.
    9900012    2    1    2    0    0 -0.13948453282E+02  0.23892975062E+02  0.33439357013E+02  0.47787260332E+02  0.19999951159E+02 0.  0.
         12    1    1    2    0    0  0.13948453282E+02 -0.23892975062E+02 -0.33439357013E+02  0.43400739668E+02  0.00000000000E+00 0. -1.
         11    1    3    3    0    0 -0.63355229336E+01  0.13356574723E+02  0.11325894789E+02  0.18622911486E+02  0.51100000000E-03 0. -1.
        -11    1    3    3    0    0 -0.83627641912E+01  0.69158214981E+01  0.55415152665E+01  0.12184941675E+02  0.51100000000E-03 0.  1.
         12    1    3    3    0    0  0.74983384308E+00  0.36205788411E+01  0.16571946958E+02  0.16979407172E+02  0.00000000000E+00 0. -1.
</event>
<event>
 7    1  0.2237500E-009  0.4778727E+02  0.7816164E-02  0.1312668E+00
        -11   -1    0    0    0    0  0.00000000000E+00  0.00000000000E+00  0.45593999997E+02  0.45594000000E+02  0.51100000000E-03 0.  1.
         11   -1    0    0    0    0 -0.00000000000E+00 -0.00000000000E+00 -0.45593999997E+02  0.45594000000E+02  0.51100000000E-03 0. -1.
    9900012    2    1    2    0    0  0.25408032349E+02  0.10062560390E+02  0.33716461047E+02  0.47787274489E+02  0.20000015703E+02 0.  0.
         12    1    1    2    0    0 -0.25408032349E+02 -0.10062560390E+02 -0.33716461047E+02  0.43400725511E+02  0.00000000000E+00 0. -1.
         11    1    3    3    0    0 -0.11650314862E+01  0.34987055114E+01  0.38848007105E+01  0.53562968029E+01  0.51100000000E-03 0. -1.
        -11    1    3    3    0    0  0.15587338535E+02  0.94702867619E+01  0.14248896663E+02  0.23144816058E+02  0.51100000000E-03 0.  1.
        -12    1    3    3    0    0  0.10985725299E+02 -0.29064318836E+01  0.15582763673E+02  0.19286161628E+02  0.00000000000E+00 0.  1.
</event>
<event>
 7    1  0.2237500E-009  0.4778728E+02  0.7816164E-02  0.1312668E+00
        -11   -1    0    0    0    0  0.00000000000E+00  0.00000000000E+00  0.45593999997E+02  0.45594000000E+02  0.51100000000E-03 0.  1.
         11   -1    0    0    0    0 -0.00000000000E+00 -0.00000000000E+00 -0.45593999997E+02  0.45594000000E+02  0.51100000000E-03 0. -1.
    9900012    2    1    2    0    0 -0.26662114152E+02  0.24836557268E+02  0.23577529729E+02  0.47787276318E+02  0.20000024044E+02 0.  0.
         12    1    1    2    0    0  0.26662114152E+02 -0.24836557268E+02 -0.23577529729E+02  0.43400723682E+02  0.00000000000E+00 0. -1.
         11    1    3    3    0    0 -0.83104749956E+01  0.81824363637E+01 -0.19803685941E+01  0.11829544350E+02  0.51100000000E-03 0. -1.
        -11    1    3    3    0    0 -0.48981315444E+01  0.33498976374E+01  0.34714667450E+01  0.68749246127E+01  0.51100000000E-03 0.  1.
         12    1    3    3    0    0 -0.13453507612E+02  0.13304223267E+02  0.22086431578E+02  0.29082807355E+02  0.00000000000E+00 0. -1.
</event>
<event>
 7    1  0.2237500E-009  0.4778727E+02  0.7816164E-02  0.1312668E+00
        -11   -1    0    0    0    0  0.00000000000E+00  0.00000000000E+00  0.45593999997E+02  0.45594000000E+02  0.51100000000E-03 0. -1.
         11   -1    0    0    0    0 -0.00000000000E+00 -0.00000000000E+00 -0.45593999997E+02  0.45594000000E+02  0.51100000000E-03 0.  1.
    9900012    2    1    2    0    0 -0.31370852596E+02  0.21769233359E+01 -0.29912434657E+02  0.47787272645E+02  0.20000007298E+02 0.  0.
         12    1    1    2    0    0  0.31370852596E+02 -0.21769233359E+01  0.29912434657E+02  0.43400727355E+02  0.00000000000E+00 0. -1.
         11    1    3    3    0    0 -0.45117697248E+01  0.32232623801E+01 -0.19545816691E+01  0.58792751410E+01  0.51100000000E-03 0. -1.
        -11    1    3    3    0    0 -0.92068734797E+01  0.76833332737E+00 -0.54766358750E+00  0.92550954095E+01  0.51100000000E-03 0.  1.
        -12    1    3    3    0    0 -0.17652209392E+02 -0.18146723716E+01 -0.27410189400E+02  0.32652902095E+02  0.00000000000E+00 0.  1.
</event>
<event>
 7    1  0.2237500E-009  0.4778728E+02  0.7816164E-02  0.1312668E+00
        -11   -1    0    0    0    0  0.00000000000E+00  0.00000000000E+00  0.45593999997E+02  0.45594000000E+02  0.51100000000E-03 0.  1.
         11   -1    0    0    0    0 -0.00000000000E+00 -0.00000000000E+00 -0.45593999997E+02  0.45594000000E+02  0.51100000000E-03 0. -1.
    9900012    2    1    2    0    0 -0.33923072434E+02 -0.13135229445E+02  0.23670948701E+02  0.47787275255E+02  0.20000019200E+02 0.  0.
         12    1    1    2    0    0  0.33923072434E+02  0.13135229445E+02 -0.23670948701E+02  0.43400724745E+02  0.00000000000E+00 0. -1.
         11    1    3    3    0    0 -0.64840226975E+01 -0.64263735562E+01  0.20603346754E+01  0.93587289020E+01  0.51100000000E-03 0. -1.
        -11    1    3    3    0    0 -0.13313219891E+02 -0.91726883335E+01  0.60332562234E+01  0.17256309456E+02  0.51100000000E-03 0.  1.
         12    1    3    3    0    0 -0.14125829846E+02  0.24638324443E+01  0.15577357802E+02  0.21172236897E+02  0.00000000000E+00 0. -1.
</event>
<event>
 7    1  0.2237500E-009  0.4778727E+02  0.7816164E-02  0.1312668E+00
        -11   -1    0    0    0    0  0.00000000000E+00  0.00000000000E+00  0.45593999997E+02  0.45594000000E+02  0.51100000000E-03 0.  1.
         11   -1    0    0    0    0 -0.00000000000E+00 -0.00000000000E+00 -0.45593999997E+02  0.45594000000E+02  0.51100000000E-03 0. -1.
    9900012    2    1    2    0    0 -0.25487577658E+02 -0.23124090162E+02  0.26443963162E+02  0.47787270187E+02  0.19999996089E+02 0.  0.
         12    1    1    2    0    0  0.25487577658E+02  0.23124090162E+02 -0.26443963162E+02  0.43400729813E+02  0.00000000000E+00 0. -1.
         11    1    3    3    0    0 -0.11331130893E+02 -0.17499971075E+02  0.12449211330E+02  0.24282223497E+02  0.51100000000E-03 0. -1.
        -11    1    3    3    0    0  0.62798786880E+00 -0.21907561424E+01  0.58536951340E+01  0.62816819581E+01  0.51100000000E-03 0.  1.
        -12    1    3    3    0    0 -0.14784434633E+02 -0.34333629437E+01  0.81410566973E+01  0.17223364731E+02  0.00000000000E+00 0.  1.
</event>
<event>
 7    1  0.2350932E-009  0.4778727E+02  0.7816164E-02  0.1312668E+00
        -11   -1    0    0    0    0  0.00000000000E+00  0.00000000000E+00  0.45593999997E+02  0.45594000000E+02  0.51100000000E-03 0. -1.
         11   -1    0    0    0    0 -0.00000000000E+00 -0.00000000000E+00 -0.45593999997E+02  0.45594000000E+02  0.51100000000E-03 0.  1.
    9900012    2    1    2    0    0 -0.14293482101E+02 -0.53701168220E+01 -0.40626116966E+02  0.47787272298E+02  0.20000005717E+02 0.  0.
         12    1    1    2    0    0  0.14293482101E+02  0.53701168220E+01  0.40626116966E+02  0.43400727702E+02  0.00000000000E+00 0. -1.
         11    1    3    3    0    0 -0.31810700153E+01 -0.70936643273E-01 -0.48952122589E-01  0.31822374237E+01  0.51100000000E-03 0. -1.
        -11    1    3    3    0    0  0.31232994028E+01 -0.18778804650E+01 -0.11263559082E+02  0.11838462639E+02  0.51100000000E-03 0.  1.
        -12    1    3    3    0    0 -0.14235711489E+02 -0.34212997137E+01 -0.29313605762E+02  0.32766572236E+02  0.00000000000E+00 0.  1.
</event>
<event>
 7    1  0.2694158E-009  0.4778731E+02  0.7816164E-02  0.1312668E+00
        -11   -1    0    0    0    0  0.00000000000E+00  0.00000000000E+00  0.45593999997E+02  0.45594000000E+02  0.51100000000E-03 0.  1.
         11   -1    0    0    0    0 -0.00000000000E+00 -0.00000000000E+00 -0.45593999997E+02  0.45594000000E+02  0.51100000000E-03 0. -1.
    9900012    2    1    2    0    0  0.32370580997E+02  0.25741871228E+02  0.13157561056E+02  0.47787310359E+02  0.20000179249E+02 0.  0.
         12    1    1    2    0    0 -0.32370580997E+02 -0.25741871228E+02 -0.13157561056E+02  0.43400689641E+02  0.00000000000E+00 0. -1.
         11    1    3    3    0    0  0.10929634047E+02  0.10645871686E+02 -0.71704685448E+00  0.15274345839E+02  0.51100000000E-03 0.  1.
        -11    1    3    3    0    0  0.55471132980E+01  0.11986113928E+02  0.60876257831E+01  0.14542922023E+02  0.51100000000E-03 0. -1.
        -12    1    3    3    0    0  0.15893833652E+02  0.31098856141E+01  0.77869821277E+01  0.17970042497E+02  0.00000000000E+00 0.  1.
</event>
<event>
 7    1  0.2237500E-009  0.4778727E+02  0.7816164E-02  0.1312668E+00
        -11   -1    0    0    0    0  0.00000000000E+00  0.00000000000E+00  0.45593999997E+02  0.45594000000E+02  0.51100000000E-03 0. -1.
         11   -1    0    0    0    0 -0.00000000000E+00 -0.00000000000E+00 -0.45593999997E+02  0.45594000000E+02  0.51100000000E-03 0.  1.
    9900012    2    1    2    0    0  0.25275403283E+02 -0.34973131370E+02 -0.46537167168E+01  0.47787274105E+02  0.20000013954E+02 0.  0.
         12    1    1    2    0    0 -0.25275403283E+02  0.34973131370E+02  0.46537167168E+01  0.43400725895E+02  0.00000000000E+00 0. -1.
         11    1    3    3    0    0 -0.95907230674E-01  0.10587026478E+01  0.22140882083E+01  0.24560611451E+01  0.51100000000E-03 0. -1.
        -11    1    3    3    0    0  0.22270939636E+01 -0.21418408292E+01 -0.26601525225E+01  0.40772345241E+01  0.51100000000E-03 0.  1.
        -12    1    3    3    0    0  0.23144216550E+02 -0.33889993189E+02 -0.42076524026E+01  0.41253978436E+02  0.00000000000E+00 0.  1.
</event>
<event>
 7    1  0.2237500E-009  0.4778727E+02  0.7816164E-02  0.1312668E+00
        -11   -1    0    0    0    0  0.00000000000E+00  0.00000000000E+00  0.45593999997E+02  0.45594000000E+02  0.51100000000E-03 0.  1.
         11   -1    0    0    0    0 -0.00000000000E+00 -0.00000000000E+00 -0.45593999997E+02  0.45594000000E+02  0.51100000000E-03 0. -1.
    9900012    2    1    2    0    0  0.24355633886E+02 -0.35036518914E+02 -0.79289615171E+01  0.47787274311E+02  0.20000014893E+02 0.  0.
         12    1    1    2    0    0 -0.24355633886E+02  0.35036518914E+02  0.79289615171E+01  0.43400725689E+02  0.00000000000E+00 0. -1.
         11    1    3    3    0    0  0.32291741874E+01 -0.20308656765E+01 -0.25483017866E+00  0.38232080782E+01  0.51100000000E-03 0.  1.
        -11    1    3    3    0    0  0.14209244630E+02 -0.78604845724E+01 -0.74936235560E+01  0.17884189803E+02  0.51100000000E-03 0. -1.
         12    1    3    3    0    0  0.69172150687E+01 -0.25145168665E+02 -0.18050778246E+00  0.26079876429E+02  0.00000000000E+00 0. -1.
</event>
<event>
 7    1  0.2237500E-009  0.4778726E+02  0.7816164E-02  0.1312668E+00
        -11   -1    0    0    0    0  0.00000000000E+00  0.00000000000E+00  0.45593999997E+02  0.45594000000E+02  0.51100000000E-03 0. -1.
         11   -1    0    0    0    0 -0.00000000000E+00 -0.00000000000E+00 -0.45593999997E+02  0.45594000000E+02  0.51100000000E-03 0.  1.
    9900012    2    1    2    0    0  0.40834797411E+02 -0.28784763180E+00 -0.14699006519E+02  0.47787258895E+02  0.19999944605E+02 0.  0.
         12    1    1    2    0    0 -0.40834797411E+02  0.28784763180E+00  0.14699006519E+02  0.43400741105E+02  0.00000000000E+00 0. -1.
         11    1    3    3    0    0  0.96935332500E+01  0.56180818962E+01 -0.26468128627E+01  0.11512299929E+02  0.51100000000E-03 0. -1.
        -11    1    3    3    0    0  0.22428912452E+02  0.11069240734E+01 -0.11101593335E+02  0.25050484417E+02  0.51100000000E-03 0.  1.
        -12    1    3    3    0    0  0.87123517087E+01 -0.70128536014E+01 -0.95060032125E+00  0.11224474549E+02  0.00000000000E+00 0.  1.
</event>
<event>
 7    1  0.2237500E-009  0.4778727E+02  0.7816164E-02  0.1312668E+00
        -11   -1    0    0    0    0  0.00000000000E+00  0.00000000000E+00  0.45593999997E+02  0.45594000000E+02  0.51100000000E-03 0.  1.
         11   -1    0    0    0    0 -0.00000000000E+00 -0.00000000000E+00 -0.45593999997E+02  0.45594000000E+02  0.51100000000E-03 0. -1.
    9900012    2    1    2    0    0 -0.31634054288E+02 -0.21461942464E+02  0.20549819352E+02  0.47787269126E+02  0.19999991252E+02 0.  0.
         12    1    1    2    0    0  0.31634054288E+02  0.21461942464E+02 -0.20549819352E+02  0.43400730874E+02  0.00000000000E+00 0. -1.
         11    1    3    3    0    0 -0.45689848866E+01  0.19280388913E+01 -0.94366021609E+00  0.50481136799E+01  0.51100000000E-03 0. -1.
        -11    1    3    3    0    0 -0.77757747425E+00  0.56147440639E+00 -0.32994100643E+00  0.10142689813E+01  0.51100000000E-03 0.  1.
        -12    1    3    3    0    0 -0.26287491927E+02 -0.23951455762E+02  0.21823420575E+02  0.41724886465E+02  0.00000000000E+00 0.  1.
</event>
<event>
 7    1  0.2237500E-009  0.4778727E+02  0.7816164E-02  0.1312668E+00
        -11   -1    0    0    0    0  0.00000000000E+00  0.00000000000E+00  0.45593999997E+02  0.45594000000E+02  0.51100000000E-03 0.  1.
         11   -1    0    0    0    0 -0.00000000000E+00 -0.00000000000E+00 -0.45593999997E+02  0.45594000000E+02  0.51100000000E-03 0. -1.
    9900012    2    1    2    0    0 -0.32263285056E+02 -0.25253252545E+02  0.14317031785E+02  0.47787265837E+02  0.19999976258E+02 0.  0.
         12    1    1    2    0    0  0.32263285056E+02  0.25253252545E+02 -0.14317031785E+02  0.43400734163E+02  0.00000000000E+00 0. -1.
         11    1    3    3    0    0  0.18705617745E+01 -0.17511795385E-01  0.24877901346E+01  0.31126207656E+01  0.51100000000E-03 0. -1.
        -11    1    3    3    0    0 -0.20095343358E+02 -0.18951809302E+02  0.88720883108E+01  0.29012201774E+02  0.51100000000E-03 0.  1.
        -12    1    3    3    0    0 -0.14038503473E+02 -0.62839314483E+01  0.29571533391E+01  0.15662443298E+02  0.00000000000E+00 0.  1.
</event>
<event>
 7    1  0.2237500E-009  0.4778727E+02  0.7816164E-02  0.1312668E+00
        -11   -1    0    0    0    0  0.00000000000E+00  0.00000000000E+00  0.45593999997E+02  0.45594000000E+02  0.51100000000E-03 0.  1.
         11   -1    0    0    0    0 -0.00000000000E+00 -0.00000000000E+00 -0.45593999997E+02  0.45594000000E+02  0.51100000000E-03 0. -1.
    9900012    2    1    2    0    0  0.94751366675E+01  0.31095557654E+02  0.28756074768E+02  0.47787265481E+02  0.19999974635E+02 0.  0.
         12    1    1    2    0    0 -0.94751366675E+01 -0.31095557654E+02 -0.28756074768E+02  0.43400734519E+02  0.00000000000E+00 0. -1.
         11    1    3    3    0    0 -0.25468762429E+01 -0.34165222260E+00  0.68475983117E+00  0.26593610370E+01  0.51100000000E-03 0. -1.
        -11    1    3    3    0    0  0.11197896638E+02  0.29868774683E+02  0.21863832423E+02  0.38672519425E+02  0.51100000000E-03 0.  1.
        -12    1    3    3    0    0  0.82411627197E+00  0.15684351940E+01  0.62074825137E+01  0.64553850191E+01  0.00000000000E+00 0.  1.
</event>
<event>
 7    1  0.2237500E-009  0.4778727E+02  0.7816164E-02  0.1312668E+00
        -11   -1    0    0    0    0  0.00000000000E+00  0.00000000000E+00  0.45593999997E+02  0.45594000000E+02  0.51100000000E-03 0. -1.
         11   -1    0    0    0    0 -0.00000000000E+00 -0.00000000000E+00 -0.45593999997E+02  0.45594000000E+02  0.51100000000E-03 0.  1.
    9900012    2    1    2    0    0 -0.31376702198E+02  0.22686328011E+02 -0.19607565888E+02  0.47787267754E+02  0.19999984997E+02 0.  0.
         12    1    1    2    0    0  0.31376702198E+02 -0.22686328011E+02  0.19607565888E+02  0.43400732246E+02  0.00000000000E+00 0. -1.
         11    1    3    3    0    0 -0.59374158225E+01  0.10385916935E+02 -0.21126609221E+01  0.12148395518E+02  0.51100000000E-03 0. -1.
        -11    1    3    3    0    0 -0.82538480065E+01  0.59201493378E+01  0.20123328584E+00  0.10159462102E+02  0.51100000000E-03 0.  1.
        -12    1    3    3    0    0 -0.17185438369E+02  0.63802617386E+01 -0.17696138252E+02  0.25479410135E+02  0.00000000000E+00 0.  1.
</event>
<event>
 7    1  0.2237500E-009  0.4778727E+02  0.7816164E-02  0.1312668E+00
        -11   -1    0    0    0    0  0.00000000000E+00  0.00000000000E+00  0.45593999997E+02  0.45594000000E+02  0.51100000000E-03 0.  1.
         11   -1    0    0    0    0 -0.00000000000E+00 -0.00000000000E+00 -0.45593999997E+02  0.45594000000E+02  0.51100000000E-03 0. -1.
    9900012    2    1    2    0    0  0.78440611624E+01  0.29930129785E+01  0.42580936526E+02  0.47787267545E+02  0.19999984045E+02 0.  0.
         12    1    1    2    0    0 -0.78440611624E+01 -0.29930129785E+01 -0.42580936526E+02  0.43400732455E+02  0.00000000000E+00 0. -1.
         11    1    3    3    0    0  0.36099783578E+01  0.93371693262E+01  0.16972485560E+02  0.19704820251E+02  0.51100000000E-03 0. -1.
        -11    1    3    3    0    0  0.17456360571E+01  0.13310932148E+01  0.12488820119E+02  0.12680287166E+02  0.51100000000E-03 0.  1.
        -12    1    3    3    0    0  0.24884467475E+01 -0.76752495624E+01  0.13119630847E+02  0.15402160128E+02  0.00000000000E+00 0.  1.
</event>
<event>
 7    1  0.2237500E-009  0.4778729E+02  0.7816164E-02  0.1312668E+00
        -11   -1    0    0    0    0  0.00000000000E+00  0.00000000000E+00  0.45593999997E+02  0.45594000000E+02  0.51100000000E-03 0.  1.
         11   -1    0    0    0    0 -0.00000000000E+00 -0.00000000000E+00 -0.45593999997E+02  0.45594000000E+02  0.51100000000E-03 0. -1.
    9900012    2    1    2    0    0 -0.21384736814E+02 -0.37727479794E+02 -0.17180201946E+01  0.47787293859E+02  0.20000104019E+02 0.  0.
         12    1    1    2    0    0  0.21384736814E+02  0.37727479794E+02  0.17180201946E+01  0.43400706141E+02  0.00000000000E+00 0. -1.
         11    1    3    3    0    0 -0.30182685915E+01 -0.20051795820E+02 -0.35174123234E+01  0.20580491992E+02  0.51100000000E-03 0. -1.
        -11    1    3    3    0    0 -0.70864605399E+01 -0.86151953069E+01 -0.36636982022E+01  0.11741473414E+02  0.51100000000E-03 0.  1.
        -12    1    3    3    0    0 -0.11280007682E+02 -0.90604886664E+01  0.54630903310E+01  0.15465328453E+02  0.00000000000E+00 0.  1.
</event>
<event>
 7    1  0.2237500E-009  0.4778727E+02  0.7816164E-02  0.1312668E+00
        -11   -1    0    0    0    0  0.00000000000E+00  0.00000000000E+00  0.45593999997E+02  0.45594000000E+02  0.51100000000E-03 0.  1.
         11   -1    0    0    0    0 -0.00000000000E+00 -0.00000000000E+00 -0.45593999997E+02  0.45594000000E+02  0.51100000000E-03 0. -1.
    9900012    2    1    2    0    0  0.33667147818E+02 -0.17052652057E+02 -0.21432543775E+02  0.47787265939E+02  0.19999976723E+02 0.  0.
         12    1    1    2    0    0 -0.33667147818E+02  0.17052652057E+02  0.21432543775E+02  0.43400734061E+02  0.00000000000E+00 0. -1.
         11    1    3    3    0    0 -0.48844166504E-02 -0.44961866164E+01 -0.12637238403E+01  0.46704085638E+01  0.51100000000E-03 0. -1.
        -11    1    3    3    0    0 -0.46904692524E+00  0.11339600226E+01 -0.14371332970E+00  0.12355258529E+01  0.51100000000E-03 0.  1.
        -12    1    3    3    0    0  0.34141079160E+02 -0.13690425463E+02 -0.20025106605E+02  0.41881331522E+02  0.00000000000E+00 0.  1.
</event>
<event>
 7    1  0.2237500E-009  0.4778727E+02  0.7816164E-02  0.1312668E+00
        -11   -1    0    0    0    0  0.00000000000E+00  0.00000000000E+00  0.45593999997E+02  0.45594000000E+02  0.51100000000E-03 0.  1.
         11   -1    0    0    0    0 -0.00000000000E+00 -0.00000000000E+00 -0.45593999997E+02  0.45594000000E+02  0.51100000000E-03 0. -1.
    9900012    2    1    2    0    0  0.24504051605E+01 -0.17655246484E+02  0.39571592468E+02  0.47787272537E+02  0.20000006806E+02 0.  0.
         12    1    1    2    0    0 -0.24504051605E+01  0.17655246484E+02 -0.39571592468E+02  0.43400727463E+02  0.00000000000E+00 0. -1.
         11    1    3    3    0    0  0.61439820931E+01 -0.20934652071E+01  0.25913005699E+01  0.69889878694E+01  0.51100000000E-03 0. -1.
        -11    1    3    3    0    0 -0.27459338162E+01 -0.15551471151E+01  0.57877991578E+01  0.65922116489E+01  0.51100000000E-03 0.  1.
        -12    1    3    3    0    0 -0.94764311651E+00 -0.14006634162E+02  0.31192492740E+02  0.34206073019E+02  0.00000000000E+00 0.  1.
</event>
<event>
 7    1  0.2237500E-009  0.4778726E+02  0.7816164E-02  0.1312668E+00
        -11   -1    0    0    0    0  0.00000000000E+00  0.00000000000E+00  0.45593999997E+02  0.45594000000E+02  0.51100000000E-03 0. -1.
         11   -1    0    0    0    0 -0.00000000000E+00 -0.00000000000E+00 -0.45593999997E+02  0.45594000000E+02  0.51100000000E-03 0.  1.
    9900012    2    1    2    0    0  0.18763192769E+01  0.42730627035E+02 -0.73618481473E+01  0.47787264189E+02  0.19999968741E+02 0.  0.
         12    1    1    2    0    0 -0.18763192769E+01 -0.42730627035E+02  0.73618481473E+01  0.43400735811E+02  0.00000000000E+00 0. -1.
         11    1    3    3    0    0 -0.62176528826E+01  0.29935737361E+02 -0.29755225957E+01  0.30719070847E+02  0.51100000000E-03 0. -1.
        -11    1    3    3    0    0  0.31276921860E+01  0.73901819810E+01  0.82395778447E+00  0.80669792868E+01  0.51100000000E-03 0.  1.
        -12    1    3    3    0    0  0.49662799735E+01  0.54047076933E+01 -0.52102833360E+01  0.90012140552E+01  0.00000000000E+00 0.  1.
</event>
<event>
 7    1  0.2237500E-009  0.4778727E+02  0.7816164E-02  0.1312668E+00
        -11   -1    0    0    0    0  0.00000000000E+00  0.00000000000E+00  0.45593999997E+02  0.45594000000E+02  0.51100000000E-03 0. -1.
         11   -1    0    0    0    0 -0.00000000000E+00 -0.00000000000E+00 -0.45593999997E+02  0.45594000000E+02  0.51100000000E-03 0.  1.
    9900012    2    1    2    0    0  0.59483916123E+01  0.58710369066E+01 -0.42588388954E+02  0.47787270619E+02  0.19999998059E+02 0.  0.
         12    1    1    2    0    0 -0.59483916123E+01 -0.58710369066E+01  0.42588388954E+02  0.43400729381E+02  0.00000000000E+00 0. -1.
         11    1    3    3    0    0 -0.21629700636E+00  0.28794683625E+01 -0.15518754574E+01  0.32781763440E+01  0.51100000000E-03 0. -1.
        -11    1    3    3    0    0 -0.52645955726E+00  0.59034340776E+01 -0.50390684751E+01  0.77794540253E+01  0.51100000000E-03 0.  1.
        -12    1    3    3    0    0  0.66911481760E+01 -0.29118655335E+01 -0.35997445021E+02  0.36729640250E+02  0.00000000000E+00 0.  1.
</event>
<event>
 7    1  0.2237500E-009  0.4778727E+02  0.7816164E-02  0.1312668E+00
        -11   -1    0    0    0    0  0.00000000000E+00  0.00000000000E+00  0.45593999997E+02  0.45594000000E+02  0.51100000000E-03 0. -1.
         11   -1    0    0    0    0 -0.00000000000E+00 -0.00000000000E+00 -0.45593999997E+02  0.45594000000E+02  0.51100000000E-03 0.  1.
    9900012    2    1    2    0    0  0.17266205654E+02  0.32433989185E+02 -0.23098434834E+02  0.47787271850E+02  0.20000003673E+02 0.  0.
         12    1    1    2    0    0 -0.17266205654E+02 -0.32433989185E+02  0.23098434834E+02  0.43400728150E+02  0.00000000000E+00 0. -1.
         11    1    3    3    0    0  0.14668952765E+01  0.84352512502E+00  0.13900961423E+01  0.21899050058E+01  0.51100000000E-03 0. -1.
        -11    1    3    3    0    0  0.84835581470E+01  0.85341576087E+01 -0.13249819332E+01  0.12106121687E+02  0.51100000000E-03 0.  1.
        -12    1    3    3    0    0  0.73157522304E+01  0.23056306451E+02 -0.23163549044E+02  0.33491245157E+02  0.00000000000E+00 0.  1.
</event>
<event>
 7    1  0.2237500E-009  0.4778727E+02  0.7816164E-02  0.1312668E+00
        -11   -1    0    0    0    0  0.00000000000E+00  0.00000000000E+00  0.45593999997E+02  0.45594000000E+02  0.51100000000E-03 0.  1.
         11   -1    0    0    0    0 -0.00000000000E+00 -0.00000000000E+00 -0.45593999997E+02  0.45594000000E+02  0.51100000000E-03 0. -1.
    9900012    2    1    2    0    0  0.37676467356E+02 -0.20398881061E+01  0.21446350087E+02  0.47787271113E+02  0.20000000312E+02 0.  0.
         12    1    1    2    0    0 -0.37676467356E+02  0.20398881061E+01 -0.21446350087E+02  0.43400728887E+02  0.00000000000E+00 0. -1.
         11    1    3    3    0    0 -0.21570217980E+00 -0.16475444383E+00 -0.84150484382E+00  0.88419574780E+00  0.51100000000E-03 0. -1.
        -11    1    3    3    0    0  0.29575258118E+02 -0.82989149600E+01  0.17526601063E+02  0.35365938802E+02  0.51100000000E-03 0.  1.
        -12    1    3    3    0    0  0.83169114179E+01  0.64237812978E+01  0.47612538672E+01  0.11537136563E+02  0.00000000000E+00 0.  1.
</event>
<event>
 7    1  0.2237500E-009  0.4778726E+02  0.7816164E-02  0.1312668E+00
        -11   -1    0    0    0    0  0.00000000000E+00  0.00000000000E+00  0.45593999997E+02  0.45594000000E+02  0.51100000000E-03 0.  1.
         11   -1    0    0    0    0 -0.00000000000E+00 -0.00000000000E+00 -0.45593999997E+02  0.45594000000E+02  0.51100000000E-03 0. -1.
    9900012    2    1    2    0    0 -0.82657514472E+01 -0.12067234729E+01  0.42589259660E+02  0.47787264212E+02  0.19999968849E+02 0.  0.
         12    1    1    2    0    0  0.82657514472E+01  0.12067234729E+01 -0.42589259660E+02  0.43400735788E+02  0.00000000000E+00 0. -1.
         11    1    3    3    0    0  0.31999536138E+01 -0.80720465629E+00  0.59070288000E+00  0.33526426354E+01  0.51100000000E-03 0. -1.
        -11    1    3    3    0    0 -0.17607889206E+01  0.51145795775E+00  0.63866729536E+00  0.19416135148E+01  0.51100000000E-03 0.  1.
        -12    1    3    3    0    0 -0.97049161404E+01 -0.91097677437E+00  0.41359889485E+02  0.42493008062E+02  0.00000000000E+00 0.  1.
</event>
<event>
 7    1  0.2237500E-009  0.4778727E+02  0.7816164E-02  0.1312668E+00
        -11   -1    0    0    0    0  0.00000000000E+00  0.00000000000E+00  0.45593999997E+02  0.45594000000E+02  0.51100000000E-03 0.  1.
         11   -1    0    0    0    0 -0.00000000000E+00 -0.00000000000E+00 -0.45593999997E+02  0.45594000000E+02  0.51100000000E-03 0. -1.
    9900012    2    1    2    0    0  0.13892597296E+02 -0.19025884669E+01  0.41073100655E+02  0.47787266137E+02  0.19999977623E+02 0.  0.
         12    1    1    2    0    0 -0.13892597296E+02  0.19025884669E+01 -0.41073100655E+02  0.43400733863E+02  0.00000000000E+00 0. -1.
         11    1    3    3    0    0 -0.82498043088E+00  0.11757973829E+01  0.12519642198E+02  0.12601767068E+02  0.51100000000E-03 0. -1.
        -11    1    3    3    0    0  0.68404670524E+01  0.53770331698E-01  0.25128146524E+02  0.26042630987E+02  0.51100000000E-03 0.  1.
         12    1    3    3    0    0  0.78771106746E+01 -0.31321561815E+01  0.34253119322E+01  0.91428680816E+01  0.00000000000E+00 0. -1.
</event>
<event>
 7    1  0.2237500E-009  0.4778728E+02  0.7816164E-02  0.1312668E+00
        -11   -1    0    0    0    0  0.00000000000E+00  0.00000000000E+00  0.45593999997E+02  0.45594000000E+02  0.51100000000E-03 0.  1.
         11   -1    0    0    0    0 -0.00000000000E+00 -0.00000000000E+00 -0.45593999997E+02  0.45594000000E+02  0.51100000000E-03 0. -1.
    9900012    2    1    2    0    0 -0.19808141693E+02  0.19562837381E+02  0.33294972716E+02  0.47787282357E+02  0.20000051580E+02 0.  0.
         12    1    1    2    0    0  0.19808141693E+02 -0.19562837381E+02 -0.33294972716E+02  0.43400717643E+02  0.00000000000E+00 0. -1.
         11    1    3    3    0    0 -0.11402703197E+01  0.85486899713E+01  0.35287281165E+01  0.93183817806E+01  0.51100000000E-03 0. -1.
        -11    1    3    3    0    0 -0.85660199248E+01  0.66853735875E+01  0.63092868155E+01  0.12564951959E+02  0.51100000000E-03 0.  1.
        -12    1    3    3    0    0 -0.10101851448E+02  0.43287738225E+01  0.23456957784E+02  0.25903948617E+02  0.00000000000E+00 0.  1.
</event>
<event>
 7    1  0.2237500E-009  0.4778727E+02  0.7816164E-02  0.1312668E+00
        -11   -1    0    0    0    0  0.00000000000E+00  0.00000000000E+00  0.45593999997E+02  0.45594000000E+02  0.51100000000E-03 0. -1.
         11   -1    0    0    0    0 -0.00000000000E+00 -0.00000000000E+00 -0.45593999997E+02  0.45594000000E+02  0.51100000000E-03 0.  1.
    9900012    2    1    2    0    0 -0.30519444588E+02  0.21600694466E+02 -0.22036257502E+02  0.47787272540E+02  0.20000006818E+02 0.  0.
         12    1    1    2    0    0  0.30519444588E+02 -0.21600694466E+02  0.22036257502E+02  0.43400727460E+02  0.00000000000E+00 0. -1.
         11    1    3    3    0    0 -0.87547526798E+01  0.15757531733E+02 -0.43460874621E+01  0.18542760779E+02  0.51100000000E-03 0. -1.
        -11    1    3    3    0    0 -0.91625039562E+01  0.42740710023E+01 -0.49542601407E+01  0.11258945576E+02  0.51100000000E-03 0.  1.
         12    1    3    3    0    0 -0.12602187952E+02  0.15690917301E+01 -0.12735909899E+02  0.17985566185E+02  0.00000000000E+00 0. -1.
</event>
<event>
 7    1  0.2237500E-009  0.4778727E+02  0.7816164E-02  0.1312668E+00
        -11   -1    0    0    0    0  0.00000000000E+00  0.00000000000E+00  0.45593999997E+02  0.45594000000E+02  0.51100000000E-03 0.  1.
         11   -1    0    0    0    0 -0.00000000000E+00 -0.00000000000E+00 -0.45593999997E+02  0.45594000000E+02  0.51100000000E-03 0. -1.
    9900012    2    1    2    0    0  0.12970498813E+02  0.19924421068E+02  0.36309869284E+02  0.47787274180E+02  0.20000014295E+02 0.  0.
         12    1    1    2    0    0 -0.12970498813E+02 -0.19924421068E+02 -0.36309869284E+02  0.43400725820E+02  0.00000000000E+00 0. -1.
         11    1    3    3    0    0  0.15921283028E+01 -0.23442092230E+00  0.13555575247E+02  0.13650767240E+02  0.51100000000E-03 0. -1.
        -11    1    3    3    0    0 -0.93308001864E+00  0.63766401953E+01  0.91369233653E+01  0.11181035164E+02  0.51100000000E-03 0.  1.
        -12    1    3    3    0    0  0.12311450528E+02  0.13782201795E+02  0.13617370671E+02  0.22955471775E+02  0.00000000000E+00 0.  1.
</event>
<event>
 7    1  0.2237500E-009  0.4778721E+02  0.7816164E-02  0.1312668E+00
        -11   -1    0    0    0    0  0.00000000000E+00  0.00000000000E+00  0.45593999997E+02  0.45594000000E+02  0.51100000000E-03 0.  1.
         11   -1    0    0    0    0 -0.00000000000E+00 -0.00000000000E+00 -0.45593999997E+02  0.45594000000E+02  0.51100000000E-03 0. -1.
    9900012    2    1    2    0    0  0.15080549326E+02 -0.20173089363E+02  0.35344756711E+02  0.47787212803E+02  0.19999734451E+02 0.  0.
         12    1    1    2    0    0 -0.15080549326E+02  0.20173089363E+02 -0.35344756711E+02  0.43400787197E+02  0.00000000000E+00 0. -1.
         11    1    3    3    0    0  0.93875565240E+01 -0.76120279415E+01  0.53750043083E+01  0.13227239260E+02  0.51100000000E-03 0. -1.
        -11    1    3    3    0    0  0.78583074524E+01 -0.94637726133E+01  0.16566098550E+02  0.20633749284E+02  0.51100000000E-03 0.  1.
        -12    1    3    3    0    0 -0.21653146506E+01 -0.30972888081E+01  0.13403653853E+02  0.13926224259E+02  0.00000000000E+00 0.  1.
</event>
<event>
 7    1  0.2237500E-009  0.4778727E+02  0.7816164E-02  0.1312668E+00
        -11   -1    0    0    0    0  0.00000000000E+00  0.00000000000E+00  0.45593999997E+02  0.45594000000E+02  0.51100000000E-03 0.  1.
         11   -1    0    0    0    0 -0.00000000000E+00 -0.00000000000E+00 -0.45593999997E+02  0.45594000000E+02  0.51100000000E-03 0. -1.
    9900012    2    1    2    0    0  0.20607692665E+02 -0.56945143512E-01  0.38196113483E+02  0.47787270457E+02  0.19999997321E+02 0.  0.
         12    1    1    2    0    0 -0.20607692665E+02  0.56945143512E-01 -0.38196113483E+02  0.43400729543E+02  0.00000000000E+00 0. -1.
         11    1    3    3    0    0  0.43282698028E+01 -0.24631747204E+01  0.61170005688E+00  0.50175020089E+01  0.51100000000E-03 0. -1.
        -11    1    3    3    0    0  0.11492325107E+01  0.27600879942E+01  0.95770325108E+00  0.31394293872E+01  0.51100000000E-03 0.  1.
        -12    1    3    3    0    0  0.15130190351E+02 -0.35385841728E+00  0.36626710175E+02  0.39630339061E+02  0.00000000000E+00 0.  1.
</event>
<event>
 7    1  0.2237500E-009  0.4778727E+02  0.7816164E-02  0.1312668E+00
        -11   -1    0    0    0    0  0.00000000000E+00  0.00000000000E+00  0.45593999997E+02  0.45594000000E+02  0.51100000000E-03 0.  1.
         11   -1    0    0    0    0 -0.00000000000E+00 -0.00000000000E+00 -0.45593999997E+02  0.45594000000E+02  0.51100000000E-03 0. -1.
    9900012    2    1    2    0    0  0.82504987492E+01 -0.36607350475E+02  0.21804920804E+02  0.47787269480E+02  0.19999992865E+02 0.  0.
         12    1    1    2    0    0 -0.82504987492E+01  0.36607350475E+02 -0.21804920804E+02  0.43400730520E+02  0.00000000000E+00 0. -1.
         11    1    3    3    0    0  0.46540409040E+01 -0.29938244511E+01  0.11840553887E+01  0.56590696236E+01  0.51100000000E-03 0. -1.
        -11    1    3    3    0    0 -0.51030580215E+01 -0.73723814277E+01  0.35930623132E+01  0.96593636506E+01  0.51100000000E-03 0.  1.
         12    1    3    3    0    0  0.86995158668E+01 -0.26241144597E+02  0.17027803102E+02  0.32468836205E+02  0.00000000000E+00 0. -1.
</event>
<event>
 7    1  0.2237500E-009  0.4778727E+02  0.7816164E-02  0.1312668E+00
        -11   -1    0    0    0    0  0.00000000000E+00  0.00000000000E+00  0.45593999997E+02  0.45594000000E+02  0.51100000000E-03 0.  1.
         11   -1    0    0    0    0 -0.00000000000E+00 -0.00000000000E+00 -0.45593999997E+02  0.45594000000E+02  0.51100000000E-03 0. -1.
    9900012    2    1    2    0    0 -0.12863129693E+02  0.24840220745E+02  0.33183224909E+02  0.47787273192E+02  0.20000009789E+02 0.  0.
         12    1    1    2    0    0  0.12863129693E+02 -0.24840220745E+02 -0.33183224909E+02  0.43400726808E+02  0.00000000000E+00 0. -1.
         11    1    3    3    0    0 -0.20813331625E+00  0.25025059950E+01  0.41410897004E+01  0.48429825418E+01  0.51100000000E-03 0.  1.
        -11    1    3    3    0    0 -0.11342621946E+01  0.36423696648E+01 -0.24630343126E+01  0.45409190465E+01  0.51100000000E-03 0. -1.
        -12    1    3    3    0    0 -0.11520734182E+02  0.18695345085E+02  0.31505169521E+02  0.38403371603E+02  0.00000000000E+00 0.  1.
</event>
<event>
 7    1  0.2237500E-009  0.4778727E+02  0.7816164E-02  0.1312668E+00
        -11   -1    0    0    0    0  0.00000000000E+00  0.00000000000E+00  0.45593999997E+02  0.45594000000E+02  0.51100000000E-03 0.  1.
         11   -1    0    0    0    0 -0.00000000000E+00 -0.00000000000E+00 -0.45593999997E+02  0.45594000000E+02  0.51100000000E-03 0. -1.
    9900012    2    1    2    0    0 -0.19546258409E+02  0.23782400627E+02  0.30593539222E+02  0.47787269136E+02  0.19999991299E+02 0.  0.
         12    1    1    2    0    0  0.19546258409E+02 -0.23782400627E+02 -0.30593539222E+02  0.43400730864E+02  0.00000000000E+00 0. -1.
         11    1    3    3    0    0 -0.79877638908E+01  0.14599986143E+02  0.65322147948E+01  0.17878305225E+02  0.51100000000E-03 0.  1.
        -11    1    3    3    0    0 -0.52735649444E+01  0.78562325953E+01  0.72745624738E+01  0.11935247683E+02  0.51100000000E-03 0. -1.
         12    1    3    3    0    0 -0.62849295739E+01  0.13261818892E+01  0.16786761953E+02  0.17973716227E+02  0.00000000000E+00 0. -1.
</event>
<event>
 7    1  0.2237500E-009  0.4778727E+02  0.7816164E-02  0.1312668E+00
        -11   -1    0    0    0    0  0.00000000000E+00  0.00000000000E+00  0.45593999997E+02  0.45594000000E+02  0.51100000000E-03 0.  1.
         11   -1    0    0    0    0 -0.00000000000E+00 -0.00000000000E+00 -0.45593999997E+02  0.45594000000E+02  0.51100000000E-03 0. -1.
    9900012    2    1    2    0    0 -0.22823749084E+02  0.33616189061E+02  0.15252915735E+02  0.47787272728E+02  0.20000007678E+02 0.  0.
         12    1    1    2    0    0  0.22823749084E+02 -0.33616189061E+02 -0.15252915735E+02  0.43400727272E+02  0.00000000000E+00 0. -1.
         11    1    3    3    0    0 -0.51437160042E+01  0.15015198156E+02  0.12603809170E+02  0.20267461505E+02  0.51100000000E-03 0. -1.
        -11    1    3    3    0    0 -0.70792973454E+01  0.46776311598E+01  0.50223131393E+01  0.98600361917E+01  0.51100000000E-03 0.  1.
         12    1    3    3    0    0 -0.10600735735E+02  0.13923359746E+02 -0.23732065747E+01  0.17659775032E+02  0.00000000000E+00 0. -1.
</event>
<event>
 7    1  0.2237500E-009  0.4778731E+02  0.7816164E-02  0.1312668E+00
        -11   -1    0    0    0    0  0.00000000000E+00  0.00000000000E+00  0.45593999997E+02  0.45594000000E+02  0.51100000000E-03 0.  1.
         11   -1    0    0    0    0 -0.00000000000E+00 -0.00000000000E+00 -0.45593999997E+02  0.45594000000E+02  0.51100000000E-03 0. -1.
    9900012    2    1    2    0    0  0.19112396114E+02 -0.26389093604E+02  0.28669699596E+02  0.47787313123E+02  0.20000191851E+02 0.  0.
         12    1    1    2    0    0 -0.19112396114E+02  0.26389093604E+02 -0.28669699596E+02  0.43400686877E+02  0.00000000000E+00 0. -1.
         11    1    3    3    0    0  0.86041508987E+01 -0.86329897207E+01  0.45602868665E+01  0.13013690513E+02  0.51100000000E-03 0. -1.
        -11    1    3    3    0    0  0.79335362820E+01 -0.13862135468E+02  0.77340338190E+01  0.17745846754E+02  0.51100000000E-03 0.  1.
        -12    1    3    3    0    0  0.25747089337E+01 -0.38939684162E+01  0.16375378910E+02  0.17027775855E+02  0.00000000000E+00 0.  1.
</event>
<event>
 7    1  0.2237500E-009  0.4778727E+02  0.7816164E-02  0.1312668E+00
        -11   -1    0    0    0    0  0.00000000000E+00  0.00000000000E+00  0.45593999997E+02  0.45594000000E+02  0.51100000000E-03 0. -1.
         11   -1    0    0    0    0 -0.00000000000E+00 -0.00000000000E+00 -0.45593999997E+02  0.45594000000E+02  0.51100000000E-03 0.  1.
    9900012    2    1    2    0    0 -0.13459788402E+02 -0.16924020430E+02 -0.37630235901E+02  0.47787273908E+02  0.20000013055E+02 0.  0.
         12    1    1    2    0    0  0.13459788402E+02  0.16924020430E+02  0.37630235901E+02  0.43400726092E+02  0.00000000000E+00 0. -1.
         11    1    3    3    0    0  0.24426988143E+00 -0.41727377169E+01 -0.16930036591E+01  0.45097305330E+01  0.51100000000E-03 0. -1.
        -11    1    3    3    0    0 -0.12155760559E+02 -0.15687170412E+02 -0.25422665006E+02  0.32251538360E+02  0.51100000000E-03 0.  1.
         12    1    3    3    0    0 -0.15482977243E+01  0.29358876991E+01 -0.10514567236E+02  0.11026005015E+02  0.00000000000E+00 0. -1.
</event>
<event>
 7    1  0.2237500E-009  0.4778727E+02  0.7816164E-02  0.1312668E+00
        -11   -1    0    0    0    0  0.00000000000E+00  0.00000000000E+00  0.45593999997E+02  0.45594000000E+02  0.51100000000E-03 0. -1.
         11   -1    0    0    0    0 -0.00000000000E+00 -0.00000000000E+00 -0.45593999997E+02  0.45594000000E+02  0.51100000000E-03 0.  1.
    9900012    2    1    2    0    0 -0.37929035626E+01  0.43231270222E+02  0.54239315729E+00  0.47787273822E+02  0.20000012666E+02 0.  0.
         12    1    1    2    0    0  0.37929035626E+01 -0.43231270222E+02 -0.54239315729E+00  0.43400726178E+02  0.00000000000E+00 0. -1.
         11    1    3    3    0    0  0.93581017130E+00  0.14106291918E+01  0.16280709746E+01  0.23486657388E+01  0.51100000000E-03 0. -1.
        -11    1    3    3    0    0 -0.47514371923E+01  0.42973409987E+02 -0.28520259840E+01  0.43329253095E+02  0.51100000000E-03 0.  1.
        -12    1    3    3    0    0  0.22723458476E-01 -0.11527689567E+01  0.17663481667E+01  0.21093549889E+01  0.00000000000E+00 0.  1.
</event>
<event>
 7    1  0.2237500E-009  0.4778727E+02  0.7816164E-02  0.1312668E+00
        -11   -1    0    0    0    0  0.00000000000E+00  0.00000000000E+00  0.45593999997E+02  0.45594000000E+02  0.51100000000E-03 0.  1.
         11   -1    0    0    0    0 -0.00000000000E+00 -0.00000000000E+00 -0.45593999997E+02  0.45594000000E+02  0.51100000000E-03 0. -1.
    9900012    2    1    2    0    0  0.19822999026E+02 -0.41995779181E+00  0.38606935511E+02  0.47787272765E+02  0.20000007845E+02 0.  0.
         12    1    1    2    0    0 -0.19822999026E+02  0.41995779181E+00 -0.38606935511E+02  0.43400727235E+02  0.00000000000E+00 0. -1.
         11    1    3    3    0    0  0.41080722288E+01 -0.65729023008E+01  0.60597739448E+01  0.98387073651E+01  0.51100000000E-03 0.  1.
        -11    1    3    3    0    0  0.47273273487E+00  0.17153191440E+01  0.48655008821E-01  0.17799335874E+01  0.51100000000E-03 0. -1.
        -12    1    3    3    0    0  0.15242194062E+02  0.44376253649E+01  0.32498506558E+02  0.36168631813E+02  0.00000000000E+00 0.  1.
</event>
<event>
 7    1  0.2237500E-009  0.4778727E+02  0.7816164E-02  0.1312668E+00
        -11   -1    0    0    0    0  0.00000000000E+00  0.00000000000E+00  0.45593999997E+02  0.45594000000E+02  0.51100000000E-03 0.  1.
         11   -1    0    0    0    0 -0.00000000000E+00 -0.00000000000E+00 -0.45593999997E+02  0.45594000000E+02  0.51100000000E-03 0. -1.
    9900012    2    1    2    0    0 -0.40721355616E+02 -0.85738835949E+01  0.12324083657E+02  0.47787270501E+02  0.19999997521E+02 0.  0.
         12    1    1    2    0    0  0.40721355616E+02  0.85738835949E+01 -0.12324083657E+02  0.43400729499E+02  0.00000000000E+00 0. -1.
         11    1    3    3    0    0 -0.12243748249E+02  0.22303741594E+01  0.53350972550E+00  0.12456667812E+02  0.51100000000E-03 0. -1.
        -11    1    3    3    0    0 -0.10704026462E+02 -0.42739209033E+00 -0.15207725911E+01  0.10819962848E+02  0.51100000000E-03 0.  1.
         12    1    3    3    0    0 -0.17773580904E+02 -0.10376865664E+02  0.13311346522E+02  0.24510639841E+02  0.00000000000E+00 0. -1.
</event>
<event>
 7    1  0.2237500E-009  0.4778728E+02  0.7816164E-02  0.1312668E+00
        -11   -1    0    0    0    0  0.00000000000E+00  0.00000000000E+00  0.45593999997E+02  0.45594000000E+02  0.51100000000E-03 0. -1.
         11   -1    0    0    0    0 -0.00000000000E+00 -0.00000000000E+00 -0.45593999997E+02  0.45594000000E+02  0.51100000000E-03 0.  1.
    9900012    2    1    2    0    0  0.56680634495E+01 -0.42815415127E+02 -0.42820771652E+01  0.47787275345E+02  0.20000019608E+02 0.  0.
         12    1    1    2    0    0 -0.56680634495E+01  0.42815415127E+02  0.42820771652E+01  0.43400724655E+02  0.00000000000E+00 0. -1.
         11    1    3    3    0    0  0.71187681326E+00 -0.78733285159E+01  0.40334022382E+01  0.88749312331E+01  0.51100000000E-03 0. -1.
        -11    1    3    3    0    0  0.75076512834E+01 -0.21645336319E+02  0.21200517267E+00  0.22911358725E+02  0.51100000000E-03 0.  1.
        -12    1    3    3    0    0 -0.25514646472E+01 -0.13296750291E+02 -0.85274845761E+01  0.16000985387E+02  0.00000000000E+00 0.  1.
</event>
<event>
 7    1  0.2237500E-009  0.4778727E+02  0.7816164E-02  0.1312668E+00
        -11   -1    0    0    0    0  0.00000000000E+00  0.00000000000E+00  0.45593999997E+02  0.45594000000E+02  0.51100000000E-03 0.  1.
         11   -1    0    0    0    0 -0.00000000000E+00 -0.00000000000E+00 -0.45593999997E+02  0.45594000000E+02  0.51100000000E-03 0. -1.
    9900012    2    1    2    0    0  0.39034576118E+01 -0.14099580703E+02  0.40860594283E+02  0.47787270484E+02  0.19999997446E+02 0.  0.
         12    1    1    2    0    0 -0.39034576118E+01  0.14099580703E+02 -0.40860594283E+02  0.43400729516E+02  0.00000000000E+00 0. -1.
         11    1    3    3    0    0 -0.23305031829E+00 -0.50994871958E+01  0.13186299392E+02  0.14139928360E+02  0.51100000000E-03 0. -1.
        -11    1    3    3    0    0  0.67937501129E+01  0.23301075089E+01  0.13642025113E+02  0.15417175197E+02  0.51100000000E-03 0.  1.
         12    1    3    3    0    0 -0.26572421827E+01 -0.11330201016E+02  0.14032269778E+02  0.18230166927E+02  0.00000000000E+00 0. -1.
</event>
<event>
 7    1  0.2237500E-009  0.4778726E+02  0.7816164E-02  0.1312668E+00
        -11   -1    0    0    0    0  0.00000000000E+00  0.00000000000E+00  0.45593999997E+02  0.45594000000E+02  0.51100000000E-03 0.  1.
         11   -1    0    0    0    0 -0.00000000000E+00 -0.00000000000E+00 -0.45593999997E+02  0.45594000000E+02  0.51100000000E-03 0. -1.
    9900012    2    1    2    0    0  0.12593277910E+02 -0.18546748407E+02  0.37162501760E+02  0.47787261964E+02  0.19999958599E+02 0.  0.
         12    1    1    2    0    0 -0.12593277910E+02  0.18546748407E+02 -0.37162501760E+02  0.43400738036E+02  0.00000000000E+00 0. -1.
         11    1    3    3    0    0  0.87366465601E+01 -0.74310250991E+01  0.62290513625E+01  0.13051827775E+02  0.51100000000E-03 0. -1.
        -11    1    3    3    0    0  0.56914029054E+01 -0.15007175175E+01  0.95513444324E+01  0.11219287002E+02  0.51100000000E-03 0.  1.
         12    1    3    3    0    0 -0.18347715557E+01 -0.96150057907E+01  0.21382105965E+02  0.23516147187E+02  0.00000000000E+00 0. -1.
</event>
<event>
 7    1  0.2237500E-009  0.4778727E+02  0.7816164E-02  0.1312668E+00
        -11   -1    0    0    0    0  0.00000000000E+00  0.00000000000E+00  0.45593999997E+02  0.45594000000E+02  0.51100000000E-03 0. -1.
         11   -1    0    0    0    0 -0.00000000000E+00 -0.00000000000E+00 -0.45593999997E+02  0.45594000000E+02  0.51100000000E-03 0.  1.
    9900012    2    1    2    0    0  0.15572343228E+02  0.23906473125E+02 -0.32704830760E+02  0.47787270906E+02  0.19999999367E+02 0.  0.
         12    1    1    2    0    0 -0.15572343228E+02 -0.23906473125E+02  0.32704830760E+02  0.43400729094E+02  0.00000000000E+00 0. -1.
         11    1    3    3    0    0  0.11188854095E+02  0.19296023389E+02 -0.20220046597E+02  0.30106100034E+02  0.51100000000E-03 0. -1.
        -11    1    3    3    0    0  0.50506128403E+01  0.52994548551E+01 -0.14051532853E+02  0.15844194129E+02  0.51100000000E-03 0.  1.
         12    1    3    3    0    0 -0.66712370674E+00 -0.68900511901E+00  0.15667486906E+01  0.18369767428E+01  0.00000000000E+00 0. -1.
</event>
<event>
 7    1  0.2237500E-009  0.4778727E+02  0.7816164E-02  0.1312668E+00
        -11   -1    0    0    0    0  0.00000000000E+00  0.00000000000E+00  0.45593999997E+02  0.45594000000E+02  0.51100000000E-03 0.  1.
         11   -1    0    0    0    0 -0.00000000000E+00 -0.00000000000E+00 -0.45593999997E+02  0.45594000000E+02  0.51100000000E-03 0. -1.
    9900012    2    1    2    0    0  0.28028182926E+02 -0.19659793073E+02  0.26674647971E+02  0.47787270212E+02  0.19999996203E+02 0.  0.
         12    1    1    2    0    0 -0.28028182926E+02  0.19659793073E+02 -0.26674647971E+02  0.43400729788E+02  0.00000000000E+00 0. -1.
         11    1    3    3    0    0 -0.13638039953E+01 -0.22347342824E+01  0.22190720050E+01  0.34319498066E+01  0.51100000000E-03 0. -1.
        -11    1    3    3    0    0  0.26914897967E+01 -0.83690771529E+01  0.64186368833E+01  0.10885057162E+02  0.51100000000E-03 0.  1.
         12    1    3    3    0    0  0.26700497124E+02 -0.90559816376E+01  0.18036939082E+02  0.33470263243E+02  0.00000000000E+00 0. -1.
</event>
<event>
 7    1  0.2237500E-009  0.4778729E+02  0.7816164E-02  0.1312668E+00
        -11   -1    0    0    0    0  0.00000000000E+00  0.00000000000E+00  0.45593999997E+02  0.45594000000E+02  0.51100000000E-03 0.  1.
         11   -1    0    0    0    0 -0.00000000000E+00 -0.00000000000E+00 -0.45593999997E+02  0.45594000000E+02  0.51100000000E-03 0. -1.
    9900012    2    1    2    0    0 -0.31779613014E+01  0.16299959740E+02  0.40097794014E+02  0.47787294818E+02  0.20000108392E+02 0.  0.
         12    1    1    2    0    0  0.31779613014E+01 -0.16299959740E+02 -0.40097794014E+02  0.43400705182E+02  0.00000000000E+00 0. -1.
         11    1    3    3    0    0 -0.30313492798E+01 -0.46336347429E+00  0.61862786474E+01  0.69046236631E+01  0.51100000000E-03 0. -1.
        -11    1    3    3    0    0  0.14301448967E+01  0.58001182748E+01  0.87336819872E+00  0.60373387100E+01  0.51100000000E-03 0.  1.
        -12    1    3    3    0    0 -0.15767569183E+01  0.10963204939E+02  0.33038147168E+02  0.34845332445E+02  0.00000000000E+00 0.  1.
</event>
<event>
 7    1  0.2237500E-009  0.4778727E+02  0.7816164E-02  0.1312668E+00
        -11   -1    0    0    0    0  0.00000000000E+00  0.00000000000E+00  0.45593999997E+02  0.45594000000E+02  0.51100000000E-03 0.  1.
         11   -1    0    0    0    0 -0.00000000000E+00 -0.00000000000E+00 -0.45593999997E+02  0.45594000000E+02  0.51100000000E-03 0. -1.
    9900012    2    1    2    0    0 -0.31322240899E+02 -0.10576415239E+02  0.28119032026E+02  0.47787270786E+02  0.19999998821E+02 0.  0.
         12    1    1    2    0    0  0.31322240899E+02  0.10576415239E+02 -0.28119032026E+02  0.43400729214E+02  0.00000000000E+00 0. -1.
         11    1    3    3    0    0 -0.20941923278E+01 -0.17905526883E+01 -0.47929012586E+00  0.27966837006E+01  0.51100000000E-03 0. -1.
        -11    1    3    3    0    0 -0.10523909475E+02 -0.94513312566E+01  0.52988131843E+01  0.15104891743E+02  0.51100000000E-03 0.  1.
         12    1    3    3    0    0 -0.18704139096E+02  0.66546870645E+00  0.23299508968E+02  0.29885695342E+02  0.00000000000E+00 0. -1.
</event>
<event>
 7    1  0.2237500E-009  0.4778727E+02  0.7816164E-02  0.1312668E+00
        -11   -1    0    0    0    0  0.00000000000E+00  0.00000000000E+00  0.45593999997E+02  0.45594000000E+02  0.51100000000E-03 0. -1.
         11   -1    0    0    0    0 -0.00000000000E+00 -0.00000000000E+00 -0.45593999997E+02  0.45594000000E+02  0.51100000000E-03 0.  1.
    9900012    2    1    2    0    0  0.14842376665E+02  0.31277016096E+02 -0.26173945879E+02  0.47787270469E+02  0.19999997379E+02 0.  0.
         12    1    1    2    0    0 -0.14842376665E+02 -0.31277016096E+02  0.26173945879E+02  0.43400729531E+02  0.00000000000E+00 0. -1.
         11    1    3    3    0    0  0.15228923071E+01  0.35958519791E+01 -0.81823452284E+01  0.90664285214E+01  0.51100000000E-03 0. -1.
        -11    1    3    3    0    0  0.81325199562E+01  0.12742237595E+02 -0.17183896808E+02  0.22886432871E+02  0.51100000000E-03 0.  1.
         12    1    3    3    0    0  0.51869644015E+01  0.14938926522E+02 -0.80770384170E+00  0.15834409077E+02  0.00000000000E+00 0. -1.
</event>
<event>
 7    1  0.2362690E-009  0.4778729E+02  0.7816164E-02  0.1312668E+00
        -11   -1    0    0    0    0  0.00000000000E+00  0.00000000000E+00  0.45593999997E+02  0.45594000000E+02  0.51100000000E-03 0. -1.
         11   -1    0    0    0    0 -0.00000000000E+00 -0.00000000000E+00 -0.45593999997E+02  0.45594000000E+02  0.51100000000E-03 0.  1.
    9900012    2    1    2    0    0  0.29921939254E+02 -0.88409550479E+00 -0.31424791466E+02  0.47787290418E+02  0.20000088331E+02 0.  0.
         12    1    1    2    0    0 -0.29921939254E+02  0.88409550479E+00  0.31424791466E+02  0.43400709582E+02  0.00000000000E+00 0. -1.
         11    1    3    3    0    0  0.15609089575E+01  0.25968645711E+01 -0.87879668306E+01  0.92956174432E+01  0.51100000000E-03 0. -1.
        -11    1    3    3    0    0  0.17841537174E+02 -0.48433944236E+00 -0.20787505478E+02  0.27398456484E+02  0.51100000000E-03 0.  1.
         12    1    3    3    0    0  0.10519493122E+02 -0.29966206335E+01 -0.18493191569E+01  0.11093216491E+02  0.00000000000E+00 0. -1.
</event>
<event>
 7    1  0.2465297E-009  0.4778727E+02  0.7816164E-02  0.1312668E+00
        -11   -1    0    0    0    0  0.00000000000E+00  0.00000000000E+00  0.45593999997E+02  0.45594000000E+02  0.51100000000E-03 0.  1.
         11   -1    0    0    0    0 -0.00000000000E+00 -0.00000000000E+00 -0.45593999997E+02  0.45594000000E+02  0.51100000000E-03 0. -1.
    9900012    2    1    2    0    0  0.24965373452E+02 -0.27467945081E+02 -0.22491452306E+02  0.47787270681E+02  0.19999998345E+02 0.  0.
         12    1    1    2    0    0 -0.24965373452E+02  0.27467945081E+02  0.22491452306E+02  0.43400729319E+02  0.00000000000E+00 0. -1.
         11    1    3    3    0    0  0.44788180003E+00  0.17504223624E+01 -0.29384880620E+01  0.34495345925E+01  0.51100000000E-03 0. -1.
        -11    1    3    3    0    0  0.12606536240E+02 -0.71879184294E+01 -0.48722162991E+01  0.15307822159E+02  0.51100000000E-03 0.  1.
        -12    1    3    3    0    0  0.11910955412E+02 -0.22030449014E+02 -0.14680747945E+02  0.29029913930E+02  0.00000000000E+00 0.  1.
</event>
<event>
 7    1  0.2237500E-009  0.4778727E+02  0.7816164E-02  0.1312668E+00
        -11   -1    0    0    0    0  0.00000000000E+00  0.00000000000E+00  0.45593999997E+02  0.45594000000E+02  0.51100000000E-03 0. -1.
         11   -1    0    0    0    0 -0.00000000000E+00 -0.00000000000E+00 -0.45593999997E+02  0.45594000000E+02  0.51100000000E-03 0.  1.
    9900012    2    1    2    0    0 -0.17861034249E+02 -0.29600720394E+02 -0.26237453581E+02  0.47787272325E+02  0.20000005837E+02 0.  0.
         12    1    1    2    0    0  0.17861034249E+02  0.29600720394E+02  0.26237453581E+02  0.43400727675E+02  0.00000000000E+00 0. -1.
         11    1    3    3    0    0 -0.76015503617E+00 -0.50046697014E+01 -0.91282391126E+01  0.10437878331E+02  0.51100000000E-03 0. -1.
        -11    1    3    3    0    0  0.69913754933E+00  0.24884541402E+00 -0.40426375390E+01  0.41101868431E+01  0.51100000000E-03 0.  1.
        -12    1    3    3    0    0 -0.17800016763E+02 -0.24844896107E+02 -0.13066576930E+02  0.33239207150E+02  0.00000000000E+00 0.  1.
</event>
<event>
 7    1  0.2237500E-009  0.4778729E+02  0.7816164E-02  0.1312668E+00
        -11   -1    0    0    0    0  0.00000000000E+00  0.00000000000E+00  0.45593999997E+02  0.45594000000E+02  0.51100000000E-03 0.  1.
         11   -1    0    0    0    0 -0.00000000000E+00 -0.00000000000E+00 -0.45593999997E+02  0.45594000000E+02  0.51100000000E-03 0. -1.
    9900012    2    1    2    0    0  0.74486763327E+01  0.72612581122E+00  0.42750575058E+02  0.47787289112E+02  0.20000082377E+02 0.  0.
         12    1    1    2    0    0 -0.74486763327E+01 -0.72612581122E+00 -0.42750575058E+02  0.43400710888E+02  0.00000000000E+00 0. -1.
         11    1    3    3    0    0  0.11071429438E+01 -0.23170589257E+01  0.27032310365E+01  0.37285366916E+01  0.51100000000E-03 0. -1.
        -11    1    3    3    0    0  0.62542761955E+01  0.97535512292E+01  0.27178030209E+02  0.29544763641E+02  0.51100000000E-03 0.  1.
        -12    1    3    3    0    0  0.87257193408E-01 -0.67103664922E+01  0.12869313813E+02  0.14513988779E+02  0.00000000000E+00 0.  1.
</event>
<event>
 7    1  0.2237500E-009  0.4778728E+02  0.7816164E-02  0.1312668E+00
        -11   -1    0    0    0    0  0.00000000000E+00  0.00000000000E+00  0.45593999997E+02  0.45594000000E+02  0.51100000000E-03 0. -1.
         11   -1    0    0    0    0 -0.00000000000E+00 -0.00000000000E+00 -0.45593999997E+02  0.45594000000E+02  0.51100000000E-03 0.  1.
    9900012    2    1    2    0    0  0.25695486195E+02  0.24768777366E+01 -0.34888823155E+02  0.47787275176E+02  0.20000018837E+02 0.  0.
         12    1    1    2    0    0 -0.25695486195E+02 -0.24768777366E+01  0.34888823155E+02  0.43400724824E+02  0.00000000000E+00 0. -1.
         11    1    3    3    0    0  0.16319104877E+01 -0.35735255149E+00 -0.15420764896E+01  0.22735067290E+01  0.51100000000E-03 0. -1.
        -11    1    3    3    0    0  0.14680224601E+02  0.93367744694E+01 -0.11473382614E+02  0.20840414120E+02  0.51100000000E-03 0.  1.
        -12    1    3    3    0    0  0.93833511063E+01 -0.65025441813E+01 -0.21873364052E+02  0.24673354327E+02  0.00000000000E+00 0.  1.
</event>
<event>
 7    1  0.2237500E-009  0.4778726E+02  0.7816164E-02  0.1312668E+00
        -11   -1    0    0    0    0  0.00000000000E+00  0.00000000000E+00  0.45593999997E+02  0.45594000000E+02  0.51100000000E-03 0. -1.
         11   -1    0    0    0    0 -0.00000000000E+00 -0.00000000000E+00 -0.45593999997E+02  0.45594000000E+02  0.51100000000E-03 0.  1.
    9900012    2    1    2    0    0  0.28902632100E+02  0.18391365694E+02 -0.26646188405E+02  0.47787264627E+02  0.19999970740E+02 0.  0.
         12    1    1    2    0    0 -0.28902632100E+02 -0.18391365694E+02  0.26646188405E+02  0.43400735373E+02  0.00000000000E+00 0. -1.
         11    1    3    3    0    0  0.42052413983E+00  0.16940096146E+01  0.18038600143E+01  0.25100638117E+01  0.51100000000E-03 0. -1.
        -11    1    3    3    0    0  0.11270954048E+02  0.45144905559E+01 -0.35535389933E+01  0.12650797199E+02  0.51100000000E-03 0.  1.
        -12    1    3    3    0    0  0.17211153913E+02  0.12182865524E+02 -0.24896509426E+02  0.32626403617E+02  0.00000000000E+00 0.  1.
</event>
<event>
 7    1  0.2237500E-009  0.4778727E+02  0.7816164E-02  0.1312668E+00
        -11   -1    0    0    0    0  0.00000000000E+00  0.00000000000E+00  0.45593999997E+02  0.45594000000E+02  0.51100000000E-03 0.  1.
         11   -1    0    0    0    0 -0.00000000000E+00 -0.00000000000E+00 -0.45593999997E+02  0.45594000000E+02  0.51100000000E-03 0. -1.
    9900012    2    1    2    0    0 -0.23038515032E+02  0.29045818931E+02  0.22565250371E+02  0.47787270783E+02  0.19999998810E+02 0.  0.
         12    1    1    2    0    0  0.23038515032E+02 -0.29045818931E+02 -0.22565250371E+02  0.43400729217E+02  0.00000000000E+00 0. -1.
         11    1    3    3    0    0 -0.27419854852E+01 -0.23229819835E+01  0.10686010331E+01  0.37492183353E+01  0.51100000000E-03 0. -1.
        -11    1    3    3    0    0 -0.84065608017E+01  0.76594603883E+01  0.99466206174E+01  0.15108701464E+02  0.51100000000E-03 0.  1.
        -12    1    3    3    0    0 -0.11889968745E+02  0.23709340526E+02  0.11550028721E+02  0.28929350984E+02  0.00000000000E+00 0.  1.
</event>
<event>
 7    1  0.2237500E-009  0.4778727E+02  0.7816164E-02  0.1312668E+00
        -11   -1    0    0    0    0  0.00000000000E+00  0.00000000000E+00  0.45593999997E+02  0.45594000000E+02  0.51100000000E-03 0. -1.
         11   -1    0    0    0    0 -0.00000000000E+00 -0.00000000000E+00 -0.45593999997E+02  0.45594000000E+02  0.51100000000E-03 0.  1.
    9900012    2    1    2    0    0 -0.33043086713E+01  0.40935233613E+02  0.14036080128E+02  0.47787270144E+02  0.19999995893E+02 0.  0.
         12    1    1    2    0    0  0.33043086713E+01 -0.40935233613E+02 -0.14036080128E+02  0.43400729856E+02  0.00000000000E+00 0. -1.
         11    1    3    3    0    0  0.21399283694E+01  0.10071326566E+02  0.79922617825E+00  0.10327132950E+02  0.51100000000E-03 0. -1.
        -11    1    3    3    0    0  0.46761578582E+01  0.45636048256E+01  0.55427890866E+00  0.65574512342E+01  0.51100000000E-03 0.  1.
        -12    1    3    3    0    0 -0.10120394899E+02  0.26300302221E+02  0.12682575041E+02  0.30902685960E+02  0.00000000000E+00 0.  1.
</event>
<event>
 7    1  0.2237500E-009  0.4778727E+02  0.7816164E-02  0.1312668E+00
        -11   -1    0    0    0    0  0.00000000000E+00  0.00000000000E+00  0.45593999997E+02  0.45594000000E+02  0.51100000000E-03 0.  1.
         11   -1    0    0    0    0 -0.00000000000E+00 -0.00000000000E+00 -0.45593999997E+02  0.45594000000E+02  0.51100000000E-03 0. -1.
    9900012    2    1    2    0    0 -0.42565174535E+02  0.83570944477E+01 -0.14100230234E+01  0.47787271023E+02  0.19999999902E+02 0.  0.
         12    1    1    2    0    0  0.42565174535E+02 -0.83570944477E+01  0.14100230234E+01  0.43400728977E+02  0.00000000000E+00 0. -1.
         11    1    3    3    0    0 -0.72577244509E+01  0.83800848281E+01 -0.93233425345E+00  0.11125180149E+02  0.51100000000E-03 0. -1.
        -11    1    3    3    0    0 -0.10081182383E+02  0.15419363288E+01  0.40716332997E+01  0.10981165870E+02  0.51100000000E-03 0.  1.
        -12    1    3    3    0    0 -0.25226267701E+02 -0.15649267092E+01 -0.45493220697E+01  0.25680925004E+02  0.00000000000E+00 0.  1.
</event>
<event>
 7    1  0.2237500E-009  0.4778727E+02  0.7816164E-02  0.1312668E+00
        -11   -1    0    0    0    0  0.00000000000E+00  0.00000000000E+00  0.45593999997E+02  0.45594000000E+02  0.51100000000E-03 0.  1.
         11   -1    0    0    0    0 -0.00000000000E+00 -0.00000000000E+00 -0.45593999997E+02  0.45594000000E+02  0.51100000000E-03 0. -1.
    9900012    2    1    2    0    0  0.18792594909E+02 -0.38981482328E+02  0.33023871467E+01  0.47787270182E+02  0.19999996066E+02 0.  0.
         12    1    1    2    0    0 -0.18792594909E+02  0.38981482328E+02 -0.33023871467E+01  0.43400729818E+02  0.00000000000E+00 0. -1.
         11    1    3    3    0    0 -0.25479229850E+01 -0.61378093455E+01  0.29952984719E+00  0.66523930649E+01  0.51100000000E-03 0. -1.
        -11    1    3    3    0    0  0.96705763479E+01 -0.25407990940E+02  0.21546299080E+01  0.27271385752E+02  0.51100000000E-03 0.  1.
        -12    1    3    3    0    0  0.11669941546E+02 -0.74356820423E+01  0.84822739154E+00  0.13863491365E+02  0.00000000000E+00 0.  1.
</event>
<event>
 7    1  0.2237500E-009  0.4778727E+02  0.7816164E-02  0.1312668E+00
        -11   -1    0    0    0    0  0.00000000000E+00  0.00000000000E+00  0.45593999997E+02  0.45594000000E+02  0.51100000000E-03 0. -1.
         11   -1    0    0    0    0 -0.00000000000E+00 -0.00000000000E+00 -0.45593999997E+02  0.45594000000E+02  0.51100000000E-03 0.  1.
    9900012    2    1    2    0    0 -0.24589500778E+02 -0.19315360397E+02 -0.30098121673E+02  0.47787267010E+02  0.19999981605E+02 0.  0.
         12    1    1    2    0    0  0.24589500778E+02  0.19315360397E+02  0.30098121673E+02  0.43400732990E+02  0.00000000000E+00 0. -1.
         11    1    3    3    0    0  0.28150231479E+01 -0.36284225828E+01 -0.18586995539E+01  0.49542476780E+01  0.51100000000E-03 0. -1.
        -11    1    3    3    0    0 -0.15167507700E+02 -0.50810639734E+01 -0.13354234238E+02  0.20837611986E+02  0.51100000000E-03 0.  1.
        -12    1    3    3    0    0 -0.12237016227E+02 -0.10605873841E+02 -0.14885187881E+02  0.21995407346E+02  0.00000000000E+00 0.  1.
</event>
<event>
 7    1  0.2237500E-009  0.4778725E+02  0.7816164E-02  0.1312668E+00
        -11   -1    0    0    0    0  0.00000000000E+00  0.00000000000E+00  0.45593999997E+02  0.45594000000E+02  0.51100000000E-03 0.  1.
         11   -1    0    0    0    0 -0.00000000000E+00 -0.00000000000E+00 -0.45593999997E+02  0.45594000000E+02  0.51100000000E-03 0. -1.
    9900012    2    1    2    0    0  0.25457733763E+02 -0.29453465593E+02  0.19183903277E+02  0.47787251288E+02  0.19999909923E+02 0.  0.
         12    1    1    2    0    0 -0.25457733763E+02  0.29453465593E+02 -0.19183903277E+02  0.43400748712E+02  0.00000000000E+00 0. -1.
         11    1    3    3    0    0 -0.89359615040E+00 -0.21207926645E+00 -0.86478567671E+00  0.12614857205E+01  0.51100000000E-03 0. -1.
        -11    1    3    3    0    0  0.60589061989E+01 -0.99162779638E+00  0.71603605987E+01  0.94320959590E+01  0.51100000000E-03 0.  1.
        -12    1    3    3    0    0  0.20292423715E+02 -0.28249758530E+02  0.12888328355E+02  0.37093669609E+02  0.00000000000E+00 0.  1.
</event>
<event>
 7    1  0.2237500E-009  0.4778727E+02  0.7816164E-02  0.1312668E+00
        -11   -1    0    0    0    0  0.00000000000E+00  0.00000000000E+00  0.45593999997E+02  0.45594000000E+02  0.51100000000E-03 0.  1.
         11   -1    0    0    0    0 -0.00000000000E+00 -0.00000000000E+00 -0.45593999997E+02  0.45594000000E+02  0.51100000000E-03 0. -1.
    9900012    2    1    2    0    0  0.36022816339E+02 -0.63183856152E+01  0.23367876530E+02  0.47787274806E+02  0.20000017152E+02 0.  0.
         12    1    1    2    0    0 -0.36022816339E+02  0.63183856152E+01 -0.23367876530E+02  0.43400725194E+02  0.00000000000E+00 0. -1.
         11    1    3    3    0    0  0.12172254346E+02 -0.16204590920E+01  0.48528018851E+00  0.12289229457E+02  0.51100000000E-03 0. -1.
        -11    1    3    3    0    0  0.52775187662E+01 -0.56254540031E+01  0.30057511710E+01  0.82784344795E+01  0.51100000000E-03 0.  1.
        -12    1    3    3    0    0  0.18573043227E+02  0.92752747993E+00  0.19876845171E+02  0.27219610869E+02  0.00000000000E+00 0.  1.
</event>
<event>
 7    1  0.2237500E-009  0.4778727E+02  0.7816164E-02  0.1312668E+00
        -11   -1    0    0    0    0  0.00000000000E+00  0.00000000000E+00  0.45593999997E+02  0.45594000000E+02  0.51100000000E-03 0.  1.
         11   -1    0    0    0    0 -0.00000000000E+00 -0.00000000000E+00 -0.45593999997E+02  0.45594000000E+02  0.51100000000E-03 0. -1.
    9900012    2    1    2    0    0  0.14559644208E+02  0.17436796992E+02  0.36981055214E+02  0.47787267592E+02  0.19999984258E+02 0.  0.
         12    1    1    2    0    0 -0.14559644208E+02 -0.17436796992E+02 -0.36981055214E+02  0.43400732408E+02  0.00000000000E+00 0. -1.
         11    1    3    3    0    0 -0.25680641128E+01  0.27442882047E+01  0.11506172847E+01  0.39306477119E+01  0.51100000000E-03 0. -1.
        -11    1    3    3    0    0  0.93665267757E+00  0.71448778757E+01  0.13048991112E+02  0.14906467301E+02  0.51100000000E-03 0.  1.
        -12    1    3    3    0    0  0.16191055643E+02  0.75476309115E+01  0.22781446818E+02  0.28950152579E+02  0.00000000000E+00 0.  1.
</event>
<event>
 7    1  0.2237500E-009  0.4778727E+02  0.7816164E-02  0.1312668E+00
        -11   -1    0    0    0    0  0.00000000000E+00  0.00000000000E+00  0.45593999997E+02  0.45594000000E+02  0.51100000000E-03 0.  1.
         11   -1    0    0    0    0 -0.00000000000E+00 -0.00000000000E+00 -0.45593999997E+02  0.45594000000E+02  0.51100000000E-03 0. -1.
    9900012    2    1    2    0    0 -0.28666583478E+02  0.26680647721E+01  0.32476631299E+02  0.47787272374E+02  0.20000006062E+02 0.  0.
         12    1    1    2    0    0  0.28666583478E+02 -0.26680647721E+01 -0.32476631299E+02  0.43400727626E+02  0.00000000000E+00 0. -1.
         11    1    3    3    0    0 -0.48141669690E-01  0.20126694061E+01  0.29526563010E+01  0.35737004983E+01  0.51100000000E-03 0. -1.
        -11    1    3    3    0    0 -0.87150805236E+01 -0.73442791781E+01  0.11571338603E+02  0.16241519095E+02  0.51100000000E-03 0.  1.
        -12    1    3    3    0    0 -0.19903361284E+02  0.79996745441E+01  0.17952636396E+02  0.27972052781E+02  0.00000000000E+00 0.  1.
</event>
<event>
 7    1  0.2237500E-009  0.4778727E+02  0.7816164E-02  0.1312668E+00
        -11   -1    0    0    0    0  0.00000000000E+00  0.00000000000E+00  0.45593999997E+02  0.45594000000E+02  0.51100000000E-03 0.  1.
         11   -1    0    0    0    0 -0.00000000000E+00 -0.00000000000E+00 -0.45593999997E+02  0.45594000000E+02  0.51100000000E-03 0. -1.
    9900012    2    1    2    0    0  0.20484022390E+01 -0.15904510987E+02  0.40329561719E+02  0.47787274546E+02  0.20000015965E+02 0.  0.
         12    1    1    2    0    0 -0.20484022390E+01  0.15904510987E+02 -0.40329561719E+02  0.43400725454E+02  0.00000000000E+00 0. -1.
         11    1    3    3    0    0 -0.84650313657E+00 -0.23675869634E+01  0.11061287733E+01  0.27469176751E+01  0.51100000000E-03 0. -1.
        -11    1    3    3    0    0 -0.42275745351E+00 -0.13631085255E+01  0.28343987508E+02  0.28379894588E+02  0.51100000000E-03 0.  1.
         12    1    3    3    0    0  0.33176628291E+01 -0.12173815498E+02  0.10879445438E+02  0.16660462283E+02  0.00000000000E+00 0. -1.
</event>
<event>
 7    1  0.2237500E-009  0.4778727E+02  0.7816164E-02  0.1312668E+00
        -11   -1    0    0    0    0  0.00000000000E+00  0.00000000000E+00  0.45593999997E+02  0.45594000000E+02  0.51100000000E-03 0.  1.
         11   -1    0    0    0    0 -0.00000000000E+00 -0.00000000000E+00 -0.45593999997E+02  0.45594000000E+02  0.51100000000E-03 0. -1.
    9900012    2    1    2    0    0  0.84655546964E+01  0.36774343601E+01  0.42407947056E+02  0.47787272894E+02  0.20000008433E+02 0.  0.
         12    1    1    2    0    0 -0.84655546964E+01 -0.36774343601E+01 -0.42407947056E+02  0.43400727106E+02  0.00000000000E+00 0. -1.
         11    1    3    3    0    0  0.41170962974E+01 -0.53344790979E+01  0.10322145303E+02  0.12326955548E+02  0.51100000000E-03 0. -1.
        -11    1    3    3    0    0 -0.22746574244E+01  0.14007027540E+01  0.11277174323E+01  0.28996174699E+01  0.51100000000E-03 0.  1.
         12    1    3    3    0    0  0.66231158233E+01  0.76112107040E+01  0.30958084321E+02  0.32560699876E+02  0.00000000000E+00 0. -1.
</event>
<event>
 7    1  0.2237500E-009  0.4778727E+02  0.7816164E-02  0.1312668E+00
        -11   -1    0    0    0    0  0.00000000000E+00  0.00000000000E+00  0.45593999997E+02  0.45594000000E+02  0.51100000000E-03 0.  1.
         11   -1    0    0    0    0 -0.00000000000E+00 -0.00000000000E+00 -0.45593999997E+02  0.45594000000E+02  0.51100000000E-03 0. -1.
    9900012    2    1    2    0    0 -0.12137578410E+02 -0.23733354278E+02  0.34249528078E+02  0.47787273180E+02  0.20000009735E+02 0.  0.
         12    1    1    2    0    0  0.12137578410E+02  0.23733354278E+02 -0.34249528078E+02  0.43400726820E+02  0.00000000000E+00 0. -1.
         11    1    3    3    0    0  0.27117290173E+00 -0.47169414523E+01  0.96795799443E+01  0.10771134553E+02  0.51100000000E-03 0. -1.
        -11    1    3    3    0    0 -0.34427008935E+01 -0.69460449817E+00  0.13208505598E+02  0.13667453502E+02  0.51100000000E-03 0.  1.
         12    1    3    3    0    0 -0.89660504184E+01 -0.18321808328E+02  0.11361442536E+02  0.23348685124E+02  0.00000000000E+00 0. -1.
</event>
<event>
 7    1  0.2237500E-009  0.4778727E+02  0.7816164E-02  0.1312668E+00
        -11   -1    0    0    0    0  0.00000000000E+00  0.00000000000E+00  0.45593999997E+02  0.45594000000E+02  0.51100000000E-03 0.  1.
         11   -1    0    0    0    0 -0.00000000000E+00 -0.00000000000E+00 -0.45593999997E+02  0.45594000000E+02  0.51100000000E-03 0. -1.
    9900012    2    1    2    0    0  0.41476280163E+02  0.10707821047E+02  0.69773768148E+01  0.47787273797E+02  0.20000012551E+02 0.  0.
         12    1    1    2    0    0 -0.41476280163E+02 -0.10707821047E+02 -0.69773768148E+01  0.43400726203E+02  0.00000000000E+00 0. -1.
         11    1    3    3    0    0  0.36292026832E+00 -0.12304920302E+01 -0.16264432214E+01  0.20715065945E+01  0.51100000000E-03 0. -1.
        -11    1    3    3    0    0  0.52582768853E+01  0.67617091272E+01  0.28964035572E+01  0.90420871457E+01  0.51100000000E-03 0.  1.
        -12    1    3    3    0    0  0.35855083009E+02  0.51766039499E+01  0.57074164791E+01  0.36673680057E+02  0.00000000000E+00 0.  1.
</event>
<event>
 7    1  0.2237500E-009  0.4778728E+02  0.7816164E-02  0.1312668E+00
        -11   -1    0    0    0    0  0.00000000000E+00  0.00000000000E+00  0.45593999997E+02  0.45594000000E+02  0.51100000000E-03 0.  1.
         11   -1    0    0    0    0 -0.00000000000E+00 -0.00000000000E+00 -0.45593999997E+02  0.45594000000E+02  0.51100000000E-03 0. -1.
    9900012    2    1    2    0    0  0.22064990591E+02 -0.19294299064E+02  0.32007640300E+02  0.47787276230E+02  0.20000023644E+02 0.  0.
         12    1    1    2    0    0 -0.22064990591E+02  0.19294299064E+02 -0.32007640300E+02  0.43400723770E+02  0.00000000000E+00 0. -1.
         11    1    3    3    0    0  0.45125463587E+01 -0.19157397500E+00 -0.15353699729E+01  0.47704440508E+01  0.51100000000E-03 0. -1.
        -11    1    3    3    0    0  0.25306259895E+00 -0.33330256912E+01  0.27006082279E+01  0.42972533087E+01  0.51100000000E-03 0.  1.
        -12    1    3    3    0    0  0.17299381633E+02 -0.15769699398E+02  0.30842402045E+02  0.38719578871E+02  0.00000000000E+00 0.  1.
</event>
<event>
 7    1  0.2237500E-009  0.4778727E+02  0.7816164E-02  0.1312668E+00
        -11   -1    0    0    0    0  0.00000000000E+00  0.00000000000E+00  0.45593999997E+02  0.45594000000E+02  0.51100000000E-03 0. -1.
         11   -1    0    0    0    0 -0.00000000000E+00 -0.00000000000E+00 -0.45593999997E+02  0.45594000000E+02  0.51100000000E-03 0.  1.
    9900012    2    1    2    0    0 -0.17362400341E+02 -0.62841811209E+01 -0.39276962757E+02  0.47787266350E+02  0.19999978597E+02 0.  0.
         12    1    1    2    0    0  0.17362400341E+02  0.62841811209E+01  0.39276962757E+02  0.43400733650E+02  0.00000000000E+00 0. -1.
         11    1    3    3    0    0 -0.92713255972E+01 -0.43268968266E+01 -0.73941589864E+01  0.12623513847E+02  0.51100000000E-03 0. -1.
        -11    1    3    3    0    0 -0.41913103264E+01 -0.14183690164E+01 -0.17235354876E+01  0.47486237751E+01  0.51100000000E-03 0.  1.
         12    1    3    3    0    0 -0.38997644169E+01 -0.53891527796E+00 -0.30159268283E+02  0.30415128728E+02  0.00000000000E+00 0. -1.
</event>
<event>
 7    1  0.2237500E-009  0.4778727E+02  0.7816164E-02  0.1312668E+00
        -11   -1    0    0    0    0  0.00000000000E+00  0.00000000000E+00  0.45593999997E+02  0.45594000000E+02  0.51100000000E-03 0.  1.
         11   -1    0    0    0    0 -0.00000000000E+00 -0.00000000000E+00 -0.45593999997E+02  0.45594000000E+02  0.51100000000E-03 0. -1.
    9900012    2    1    2    0    0 -0.70085603356E+01 -0.10247517612E+02  0.41587156973E+02  0.47787272353E+02  0.20000005968E+02 0.  0.
         12    1    1    2    0    0  0.70085603356E+01  0.10247517612E+02 -0.41587156973E+02  0.43400727647E+02  0.00000000000E+00 0. -1.
         11    1    3    3    0    0 -0.36086902387E+01 -0.60554856781E+01  0.48198205689E+01  0.85394509551E+01  0.51100000000E-03 0. -1.
        -11    1    3    3    0    0  0.38154084254E+01  0.36804302920E+00  0.47048176893E+01  0.60686165536E+01  0.51100000000E-03 0.  1.
        -12    1    3    3    0    0 -0.72152785223E+01 -0.45600749632E+01  0.32062518714E+02  0.33179204845E+02  0.00000000000E+00 0.  1.
</event>
<event>
 7    1  0.2237500E-009  0.4778727E+02  0.7816164E-02  0.1312668E+00
        -11   -1    0    0    0    0  0.00000000000E+00  0.00000000000E+00  0.45593999997E+02  0.45594000000E+02  0.51100000000E-03 0.  1.
         11   -1    0    0    0    0 -0.00000000000E+00 -0.00000000000E+00 -0.45593999997E+02  0.45594000000E+02  0.51100000000E-03 0. -1.
    9900012    2    1    2    0    0 -0.23514849756E+02  0.30466401924E+02  0.20061745356E+02  0.47787269223E+02  0.19999991696E+02 0.  0.
         12    1    1    2    0    0  0.23514849756E+02 -0.30466401924E+02 -0.20061745356E+02  0.43400730777E+02  0.00000000000E+00 0. -1.
         11    1    3    3    0    0 -0.68892743933E+01  0.12852382398E+02  0.20070631799E+01  0.14719855225E+02  0.51100000000E-03 0. -1.
        -11    1    3    3    0    0 -0.16269469616E+02  0.18715538362E+02  0.13232286902E+02  0.28108013710E+02  0.51100000000E-03 0.  1.
         12    1    3    3    0    0 -0.35610574657E+00 -0.11015188358E+01  0.48223952737E+01  0.49594002888E+01  0.00000000000E+00 0. -1.
</event>
<event>
 7    1  0.2237500E-009  0.4778727E+02  0.7816164E-02  0.1312668E+00
        -11   -1    0    0    0    0  0.00000000000E+00  0.00000000000E+00  0.45593999997E+02  0.45594000000E+02  0.51100000000E-03 0.  1.
         11   -1    0    0    0    0 -0.00000000000E+00 -0.00000000000E+00 -0.45593999997E+02  0.45594000000E+02  0.51100000000E-03 0. -1.
    9900012    2    1    2    0    0  0.17486044246E+02  0.31687111371E+02  0.23953880529E+02  0.47787272324E+02  0.20000005834E+02 0.  0.
         12    1    1    2    0    0 -0.17486044246E+02 -0.31687111371E+02 -0.23953880529E+02  0.43400727676E+02  0.00000000000E+00 0. -1.
         11    1    3    3    0    0  0.67336545923E+00  0.94603868824E+01  0.58201714646E+01  0.11127746274E+02  0.51100000000E-03 0. -1.
        -11    1    3    3    0    0  0.15124022527E+02  0.16001994140E+02  0.20206600744E+02  0.29884888953E+02  0.51100000000E-03 0.  1.
         12    1    3    3    0    0  0.16886562598E+01  0.62247303481E+01 -0.20728916795E+01  0.67746370962E+01  0.00000000000E+00 0. -1.
</event>
<event>
 7    1  0.2237500E-009  0.4778727E+02  0.7816164E-02  0.1312668E+00
        -11   -1    0    0    0    0  0.00000000000E+00  0.00000000000E+00  0.45593999997E+02  0.45594000000E+02  0.51100000000E-03 0.  1.
         11   -1    0    0    0    0 -0.00000000000E+00 -0.00000000000E+00 -0.45593999997E+02  0.45594000000E+02  0.51100000000E-03 0. -1.
    9900012    2    1    2    0    0  0.29308110204E+02 -0.91102573278E+01  0.30686495594E+02  0.47787272770E+02  0.20000007867E+02 0.  0.
         12    1    1    2    0    0 -0.29308110204E+02  0.91102573278E+01 -0.30686495594E+02  0.43400727230E+02  0.00000000000E+00 0. -1.
         11    1    3    3    0    0  0.11644855443E+02 -0.52121214877E+01  0.62105831714E+01  0.14189440168E+02  0.51100000000E-03 0. -1.
        -11    1    3    3    0    0  0.11840850304E+02 -0.87449765148E+01  0.19881669056E+02  0.24737847822E+02  0.51100000000E-03 0.  1.
        -12    1    3    3    0    0  0.58224044569E+01  0.48468406746E+01  0.45942433660E+01  0.88599847794E+01  0.00000000000E+00 0.  1.
</event>
<event>
 7    1  0.2237500E-009  0.4778727E+02  0.7816164E-02  0.1312668E+00
        -11   -1    0    0    0    0  0.00000000000E+00  0.00000000000E+00  0.45593999997E+02  0.45594000000E+02  0.51100000000E-03 0. -1.
         11   -1    0    0    0    0 -0.00000000000E+00 -0.00000000000E+00 -0.45593999997E+02  0.45594000000E+02  0.51100000000E-03 0.  1.
    9900012    2    1    2    0    0 -0.38871618465E+02 -0.59325878896E+01 -0.18369126493E+02  0.47787272711E+02  0.20000007597E+02 0.  0.
         12    1    1    2    0    0  0.38871618465E+02  0.59325878896E+01  0.18369126493E+02  0.43400727289E+02  0.00000000000E+00 0. -1.
         11    1    3    3    0    0 -0.10074105605E+02 -0.49918284463E+01  0.10605667039E+01  0.11292951650E+02  0.51100000000E-03 0. -1.
        -11    1    3    3    0    0 -0.82992473882E+01 -0.41896129529E+01 -0.22823402803E+01  0.95728491747E+01  0.51100000000E-03 0.  1.
        -12    1    3    3    0    0 -0.20498265472E+02  0.32488535097E+01 -0.17147352916E+02  0.26921471886E+02  0.00000000000E+00 0.  1.
</event>
<event>
 7    1  0.2237500E-009  0.4778727E+02  0.7816164E-02  0.1312668E+00
        -11   -1    0    0    0    0  0.00000000000E+00  0.00000000000E+00  0.45593999997E+02  0.45594000000E+02  0.51100000000E-03 0. -1.
         11   -1    0    0    0    0 -0.00000000000E+00 -0.00000000000E+00 -0.45593999997E+02  0.45594000000E+02  0.51100000000E-03 0.  1.
    9900012    2    1    2    0    0 -0.98010878296E+00 -0.19115430044E+02 -0.38952057851E+02  0.47787273164E+02  0.20000009666E+02 0.  0.
         12    1    1    2    0    0  0.98010878296E+00  0.19115430044E+02  0.38952057851E+02  0.43400726836E+02  0.00000000000E+00 0. -1.
         11    1    3    3    0    0  0.22000930643E+01  0.13449024417E+00  0.40356216692E+00  0.22408390841E+01  0.51100000000E-03 0. -1.
        -11    1    3    3    0    0 -0.81801509019E-01 -0.72744062658E+01 -0.44837630924E+01  0.85456310321E+01  0.51100000000E-03 0.  1.
        -12    1    3    3    0    0 -0.30984003382E+01 -0.11975514022E+02 -0.34871856926E+02  0.37000803048E+02  0.00000000000E+00 0.  1.
</event>
<event>
 7    1  0.2237500E-009  0.4778727E+02  0.7816164E-02  0.1312668E+00
        -11   -1    0    0    0    0  0.00000000000E+00  0.00000000000E+00  0.45593999997E+02  0.45594000000E+02  0.51100000000E-03 0.  1.
         11   -1    0    0    0    0 -0.00000000000E+00 -0.00000000000E+00 -0.45593999997E+02  0.45594000000E+02  0.51100000000E-03 0. -1.
    9900012    2    1    2    0    0 -0.39024995900E+02 -0.11901149056E+02  0.14799861155E+02  0.47787267931E+02  0.19999985805E+02 0.  0.
         12    1    1    2    0    0  0.39024995900E+02  0.11901149056E+02 -0.14799861155E+02  0.43400732069E+02  0.00000000000E+00 0. -1.
         11    1    3    3    0    0 -0.57708909710E+01 -0.50115552633E+01 -0.19431958533E+00  0.76456935015E+01  0.51100000000E-03 0. -1.
        -11    1    3    3    0    0 -0.17041972220E+02 -0.75224482447E+01  0.89984668047E+00  0.18650087642E+02  0.51100000000E-03 0.  1.
        -12    1    3    3    0    0 -0.16212132709E+02  0.63285445166E+00  0.14094334060E+02  0.21491486788E+02  0.00000000000E+00 0.  1.
</event>
<event>
 7    1  0.2237500E-009  0.4778727E+02  0.7816164E-02  0.1312668E+00
        -11   -1    0    0    0    0  0.00000000000E+00  0.00000000000E+00  0.45593999997E+02  0.45594000000E+02  0.51100000000E-03 0.  1.
         11   -1    0    0    0    0 -0.00000000000E+00 -0.00000000000E+00 -0.45593999997E+02  0.45594000000E+02  0.51100000000E-03 0. -1.
    9900012    2    1    2    0    0 -0.87371965247E+01  0.30926694810E+02  0.29168891437E+02  0.47787270943E+02  0.19999999537E+02 0.  0.
         12    1    1    2    0    0  0.87371965247E+01 -0.30926694810E+02 -0.29168891437E+02  0.43400729057E+02  0.00000000000E+00 0. -1.
         11    1    3    3    0    0 -0.86683508347E+01  0.89342389936E+01  0.12440768514E+02  0.17599251520E+02  0.51100000000E-03 0. -1.
        -11    1    3    3    0    0 -0.16804560198E+01  0.17844056725E+02  0.18157843318E+02  0.25513556535E+02  0.51100000000E-03 0.  1.
         12    1    3    3    0    0  0.16116103298E+01  0.41483990915E+01 -0.14297203951E+01  0.46744628873E+01  0.00000000000E+00 0. -1.
</event>
<event>
 7    1  0.2237500E-009  0.4778727E+02  0.7816164E-02  0.1312668E+00
        -11   -1    0    0    0    0  0.00000000000E+00  0.00000000000E+00  0.45593999997E+02  0.45594000000E+02  0.51100000000E-03 0.  1.
         11   -1    0    0    0    0 -0.00000000000E+00 -0.00000000000E+00 -0.45593999997E+02  0.45594000000E+02  0.51100000000E-03 0. -1.
    9900012    2    1    2    0    0 -0.94283566085E+01  0.13575986999E+02  0.40130060937E+02  0.47787272793E+02  0.20000007972E+02 0.  0.
         12    1    1    2    0    0  0.94283566085E+01 -0.13575986999E+02 -0.40130060937E+02  0.43400727207E+02  0.00000000000E+00 0. -1.
         11    1    3    3    0    0 -0.26219425574E+01  0.76051218568E+01  0.11812334188E+02  0.14291385533E+02  0.51100000000E-03 0. -1.
        -11    1    3    3    0    0 -0.78424913167E+01  0.55835145165E+01  0.64225520144E+01  0.11572790461E+02  0.51100000000E-03 0.  1.
         12    1    3    3    0    0  0.10360772656E+01  0.38735062544E+00  0.21895174735E+02  0.21923096799E+02  0.00000000000E+00 0. -1.
</event>
<event>
 7    1  0.2237500E-009  0.4778727E+02  0.7816164E-02  0.1312668E+00
        -11   -1    0    0    0    0  0.00000000000E+00  0.00000000000E+00  0.45593999997E+02  0.45594000000E+02  0.51100000000E-03 0.  1.
         11   -1    0    0    0    0 -0.00000000000E+00 -0.00000000000E+00 -0.45593999997E+02  0.45594000000E+02  0.51100000000E-03 0. -1.
    9900012    2    1    2    0    0 -0.24620898034E+02 -0.87274338160E+01  0.34659293636E+02  0.47787270094E+02  0.19999995667E+02 0.  0.
         12    1    1    2    0    0  0.24620898034E+02  0.87274338160E+01 -0.34659293636E+02  0.43400729906E+02  0.00000000000E+00 0. -1.
         11    1    3    3    0    0 -0.16403632628E+02  0.12165079526E+01  0.10424396517E+02  0.19473754081E+02  0.51100000000E-03 0. -1.
        -11    1    3    3    0    0 -0.51056726736E+01 -0.10435821536E+01  0.86441350680E+01  0.10093464643E+02  0.51100000000E-03 0.  1.
        -12    1    3    3    0    0 -0.31115927324E+01 -0.89003596150E+01  0.15590762051E+02  0.18220051371E+02  0.00000000000E+00 0.  1.
</event>
<event>
 7    1  0.2237500E-009  0.4778727E+02  0.7816164E-02  0.1312668E+00
        -11   -1    0    0    0    0  0.00000000000E+00  0.00000000000E+00  0.45593999997E+02  0.45594000000E+02  0.51100000000E-03 0. -1.
         11   -1    0    0    0    0 -0.00000000000E+00 -0.00000000000E+00 -0.45593999997E+02  0.45594000000E+02  0.51100000000E-03 0.  1.
    9900012    2    1    2    0    0 -0.13025093897E+01 -0.38461492130E+02 -0.20065897928E+02  0.47787272273E+02  0.20000005601E+02 0.  0.
         12    1    1    2    0    0  0.13025093897E+01  0.38461492130E+02  0.20065897928E+02  0.43400727727E+02  0.00000000000E+00 0. -1.
         11    1    3    3    0    0  0.40771506818E+01 -0.12400340547E+02 -0.14227563028E+02  0.19308421824E+02  0.51100000000E-03 0. -1.
        -11    1    3    3    0    0 -0.40291574454E+01 -0.58612553194E+01 -0.39758645567E+01  0.81483693383E+01  0.51100000000E-03 0.  1.
        -12    1    3    3    0    0 -0.13505026260E+01 -0.20199896264E+02 -0.18624703436E+01  0.20330481111E+02  0.00000000000E+00 0.  1.
</event>
<event>
 7    1  0.2237500E-009  0.4778726E+02  0.7816164E-02  0.1312668E+00
        -11   -1    0    0    0    0  0.00000000000E+00  0.00000000000E+00  0.45593999997E+02  0.45594000000E+02  0.51100000000E-03 0.  1.
         11   -1    0    0    0    0 -0.00000000000E+00 -0.00000000000E+00 -0.45593999997E+02  0.45594000000E+02  0.51100000000E-03 0. -1.
    9900012    2    1    2    0    0 -0.36670102054E+02 -0.17072786319E+02  0.15730482296E+02  0.47787257027E+02  0.19999936087E+02 0.  0.
         12    1    1    2    0    0  0.36670102054E+02  0.17072786319E+02 -0.15730482296E+02  0.43400742973E+02  0.00000000000E+00 0. -1.
         11    1    3    3    0    0 -0.12918850305E+01 -0.14623414755E+01  0.53298551293E+01  0.56758052718E+01  0.51100000000E-03 0. -1.
        -11    1    3    3    0    0 -0.17086956143E+01 -0.53142762164E+01  0.10205108685E+01  0.56747348044E+01  0.51100000000E-03 0.  1.
        -12    1    3    3    0    0 -0.33669521410E+02 -0.10296168627E+02  0.93801162983E+01  0.36436716950E+02  0.00000000000E+00 0.  1.
</event>
<event>
 7    1  0.2237500E-009  0.4778727E+02  0.7816164E-02  0.1312668E+00
        -11   -1    0    0    0    0  0.00000000000E+00  0.00000000000E+00  0.45593999997E+02  0.45594000000E+02  0.51100000000E-03 0. -1.
         11   -1    0    0    0    0 -0.00000000000E+00 -0.00000000000E+00 -0.45593999997E+02  0.45594000000E+02  0.51100000000E-03 0.  1.
    9900012    2    1    2    0    0  0.40224711342E+02  0.62478853117E+01 -0.15051901462E+02  0.47787271768E+02  0.20000003300E+02 0.  0.
         12    1    1    2    0    0 -0.40224711342E+02 -0.62478853117E+01  0.15051901462E+02  0.43400728232E+02  0.00000000000E+00 0. -1.
         11    1    3    3    0    0  0.43945444675E+01  0.63983727493E+01 -0.17282592060E+01  0.79522371104E+01  0.51100000000E-03 0. -1.
        -11    1    3    3    0    0  0.14649284467E+02  0.32959698826E+01 -0.10193221417E+02  0.18148463184E+02  0.51100000000E-03 0.  1.
         12    1    3    3    0    0  0.21180882408E+02 -0.34464573201E+01 -0.31304208396E+01  0.21686571473E+02  0.00000000000E+00 0. -1.
</event>
<event>
 7    1  0.2237500E-009  0.4778727E+02  0.7816164E-02  0.1312668E+00
        -11   -1    0    0    0    0  0.00000000000E+00  0.00000000000E+00  0.45593999997E+02  0.45594000000E+02  0.51100000000E-03 0. -1.
         11   -1    0    0    0    0 -0.00000000000E+00 -0.00000000000E+00 -0.45593999997E+02  0.45594000000E+02  0.51100000000E-03 0.  1.
    9900012    2    1    2    0    0 -0.18881181370E+02  0.30720563552E+02 -0.24153078151E+02  0.47787271676E+02  0.20000002878E+02 0.  0.
         12    1    1    2    0    0  0.18881181370E+02 -0.30720563552E+02  0.24153078151E+02  0.43400728324E+02  0.00000000000E+00 0. -1.
         11    1    3    3    0    0 -0.66913853345E+01  0.15203147399E+01 -0.53758419143E+01  0.87169760326E+01  0.51100000000E-03 0. -1.
        -11    1    3    3    0    0 -0.85305467751E+01  0.85808866448E+01 -0.12045811797E+02  0.17073471410E+02  0.51100000000E-03 0.  1.
         12    1    3    3    0    0 -0.36592492605E+01  0.20619362167E+02 -0.67314244406E+01  0.21996824233E+02  0.00000000000E+00 0. -1.
</event>
<event>
 7    1  0.2237500E-009  0.4778727E+02  0.7816164E-02  0.1312668E+00
        -11   -1    0    0    0    0  0.00000000000E+00  0.00000000000E+00  0.45593999997E+02  0.45594000000E+02  0.51100000000E-03 0.  1.
         11   -1    0    0    0    0 -0.00000000000E+00 -0.00000000000E+00 -0.45593999997E+02  0.45594000000E+02  0.51100000000E-03 0. -1.
    9900012    2    1    2    0    0  0.41637261888E+02  0.80962162939E+01 -0.91876587770E+01  0.47787269942E+02  0.19999994973E+02 0.  0.
         12    1    1    2    0    0 -0.41637261888E+02 -0.80962162939E+01  0.91876587770E+01  0.43400730058E+02  0.00000000000E+00 0. -1.
         11    1    3    3    0    0  0.93583194348E+01  0.63143663529E+01 -0.46556888236E+00  0.11298943301E+02  0.51100000000E-03 0.  1.
        -11    1    3    3    0    0  0.33023917139E+02 -0.26303784301E+00 -0.71144851460E+01  0.33782601902E+02  0.51100000000E-03 0. -1.
         12    1    3    3    0    0 -0.74497468624E+00  0.20448877840E+01 -0.16076047486E+01  0.27057247384E+01  0.00000000000E+00 0. -1.
</event>
<event>
 7    1  0.2237500E-009  0.4778730E+02  0.7816164E-02  0.1312668E+00
        -11   -1    0    0    0    0  0.00000000000E+00  0.00000000000E+00  0.45593999997E+02  0.45594000000E+02  0.51100000000E-03 0.  1.
         11   -1    0    0    0    0 -0.00000000000E+00 -0.00000000000E+00 -0.45593999997E+02  0.45594000000E+02  0.51100000000E-03 0. -1.
    9900012    2    1    2    0    0 -0.17918699832E+02 -0.19215293514E+02  0.34544373996E+02  0.47787296282E+02  0.20000115066E+02 0.  0.
         12    1    1    2    0    0  0.17918699832E+02  0.19215293514E+02 -0.34544373996E+02  0.43400703718E+02  0.00000000000E+00 0. -1.
         11    1    3    3    0    0 -0.33813287648E+01 -0.75835601864E+01  0.95069307307E+01  0.12622420588E+02  0.51100000000E-03 0. -1.
        -11    1    3    3    0    0 -0.10607967391E+02 -0.32000019035E+01  0.23161309504E+02  0.25675187293E+02  0.51100000000E-03 0.  1.
         12    1    3    3    0    0 -0.39294036756E+01 -0.84317314237E+01  0.18761337614E+01  0.94896884005E+01  0.00000000000E+00 0. -1.
</event>
<event>
 7    1  0.2237500E-009  0.4778727E+02  0.7816164E-02  0.1312668E+00
        -11   -1    0    0    0    0  0.00000000000E+00  0.00000000000E+00  0.45593999997E+02  0.45594000000E+02  0.51100000000E-03 0.  1.
         11   -1    0    0    0    0 -0.00000000000E+00 -0.00000000000E+00 -0.45593999997E+02  0.45594000000E+02  0.51100000000E-03 0. -1.
    9900012    2    1    2    0    0 -0.33069079365E+02  0.10087066748E+02  0.26235673278E+02  0.47787268693E+02  0.19999989279E+02 0.  0.
         12    1    1    2    0    0  0.33069079365E+02 -0.10087066748E+02 -0.26235673278E+02  0.43400731307E+02  0.00000000000E+00 0. -1.
         11    1    3    3    0    0 -0.86040249032E+01 -0.10992180219E+01  0.10817868143E+02  0.13865922120E+02  0.51100000000E-03 0. -1.
        -11    1    3    3    0    0 -0.23363243060E+02  0.93975212205E+01  0.17729554259E+02  0.30797591234E+02  0.51100000000E-03 0.  1.
         12    1    3    3    0    0 -0.11018114021E+01  0.17887635499E+01 -0.23117491246E+01  0.31237553390E+01  0.00000000000E+00 0. -1.
</event>
<event>
 7    1  0.2237500E-009  0.4778727E+02  0.7816164E-02  0.1312668E+00
        -11   -1    0    0    0    0  0.00000000000E+00  0.00000000000E+00  0.45593999997E+02  0.45594000000E+02  0.51100000000E-03 0.  1.
         11   -1    0    0    0    0 -0.00000000000E+00 -0.00000000000E+00 -0.45593999997E+02  0.45594000000E+02  0.51100000000E-03 0. -1.
    9900012    2    1    2    0    0 -0.10781085975E+02  0.31603655608E+02  0.27723643839E+02  0.47787270855E+02  0.19999999138E+02 0.  0.
         12    1    1    2    0    0  0.10781085975E+02 -0.31603655608E+02 -0.27723643839E+02  0.43400729145E+02  0.00000000000E+00 0. -1.
         11    1    3    3    0    0 -0.53200676187E+00  0.33326357561E+01 -0.18607273955E+01  0.38538031837E+01  0.51100000000E-03 0. -1.
        -11    1    3    3    0    0 -0.30850586884E+01  0.56255151113E+01  0.57593550970E+00  0.64417163358E+01  0.51100000000E-03 0.  1.
         12    1    3    3    0    0 -0.71640205246E+01  0.22645504741E+02  0.29008435725E+02  0.37491751336E+02  0.00000000000E+00 0. -1.
</event>
<event>
 7    1  0.2237500E-009  0.4778727E+02  0.7816164E-02  0.1312668E+00
        -11   -1    0    0    0    0  0.00000000000E+00  0.00000000000E+00  0.45593999997E+02  0.45594000000E+02  0.51100000000E-03 0. -1.
         11   -1    0    0    0    0 -0.00000000000E+00 -0.00000000000E+00 -0.45593999997E+02  0.45594000000E+02  0.51100000000E-03 0.  1.
    9900012    2    1    2    0    0 -0.30109237955E+02 -0.63538436562E+01 -0.30605325427E+02  0.47787268625E+02  0.19999988967E+02 0.  0.
         12    1    1    2    0    0  0.30109237955E+02  0.63538436562E+01  0.30605325427E+02  0.43400731375E+02  0.00000000000E+00 0. -1.
         11    1    3    3    0    0 -0.60804252596E+01 -0.17512265776E+01 -0.42789001284E+01  0.76385438687E+01  0.51100000000E-03 0. -1.
        -11    1    3    3    0    0 -0.83731535700E+01  0.47048848805E+01 -0.17378667300E+02  0.19856075137E+02  0.51100000000E-03 0.  1.
        -12    1    3    3    0    0 -0.15655659125E+02 -0.93075019592E+01 -0.89477579986E+01  0.20292649619E+02  0.00000000000E+00 0.  1.
</event>
<event>
 7    1  0.2237500E-009  0.4778726E+02  0.7816164E-02  0.1312668E+00
        -11   -1    0    0    0    0  0.00000000000E+00  0.00000000000E+00  0.45593999997E+02  0.45594000000E+02  0.51100000000E-03 0.  1.
         11   -1    0    0    0    0 -0.00000000000E+00 -0.00000000000E+00 -0.45593999997E+02  0.45594000000E+02  0.51100000000E-03 0. -1.
    9900012    2    1    2    0    0 -0.17214896427E+02  0.72636996825E+01  0.39172821767E+02  0.47787263171E+02  0.19999964102E+02 0.  0.
         12    1    1    2    0    0  0.17214896427E+02 -0.72636996825E+01 -0.39172821767E+02  0.43400736829E+02  0.00000000000E+00 0. -1.
         11    1    3    3    0    0 -0.12088529585E+02  0.17951988174E+01  0.26271688986E+02  0.28975108779E+02  0.51100000000E-03 0. -1.
        -11    1    3    3    0    0 -0.21127856528E+01  0.33306442560E+01  0.14320718691E+02  0.14853956997E+02  0.51100000000E-03 0.  1.
         12    1    3    3    0    0 -0.30135811896E+01  0.21378566091E+01 -0.14195859094E+01  0.39581973955E+01  0.00000000000E+00 0. -1.
</event>
<event>
 7    1  0.2237500E-009  0.4778727E+02  0.7816164E-02  0.1312668E+00
        -11   -1    0    0    0    0  0.00000000000E+00  0.00000000000E+00  0.45593999997E+02  0.45594000000E+02  0.51100000000E-03 0.  1.
         11   -1    0    0    0    0 -0.00000000000E+00 -0.00000000000E+00 -0.45593999997E+02  0.45594000000E+02  0.51100000000E-03 0. -1.
    9900012    2    1    2    0    0  0.19233693969E+02  0.11652971938E+02  0.37120028279E+02  0.47787271456E+02  0.20000001878E+02 0.  0.
         12    1    1    2    0    0 -0.19233693969E+02 -0.11652971938E+02 -0.37120028279E+02  0.43400728544E+02  0.00000000000E+00 0. -1.
         11    1    3    3    0    0 -0.68675357301E+00  0.15114832190E+01  0.10701143525E+02  0.10829159016E+02  0.51100000000E-03 0.  1.
        -11    1    3    3    0    0  0.11695914363E+02  0.59759759260E+01  0.57721843280E+01  0.14346595876E+02  0.51100000000E-03 0. -1.
        -12    1    3    3    0    0  0.82245331787E+01  0.41655127928E+01  0.20646700426E+02  0.22611516564E+02  0.00000000000E+00 0.  1.
</event>
<event>
 7    1  0.2237500E-009  0.4778727E+02  0.7816164E-02  0.1312668E+00
        -11   -1    0    0    0    0  0.00000000000E+00  0.00000000000E+00  0.45593999997E+02  0.45594000000E+02  0.51100000000E-03 0.  1.
         11   -1    0    0    0    0 -0.00000000000E+00 -0.00000000000E+00 -0.45593999997E+02  0.45594000000E+02  0.51100000000E-03 0. -1.
    9900012    2    1    2    0    0 -0.25117285509E+00 -0.12985557222E+02  0.41411779641E+02  0.47787271006E+02  0.19999999827E+02 0.  0.
         12    1    1    2    0    0  0.25117285509E+00  0.12985557222E+02 -0.41411779641E+02  0.43400728994E+02  0.00000000000E+00 0. -1.
         11    1    3    3    0    0  0.23843981407E+01 -0.78990639469E+01  0.13284373549E+02  0.15638259065E+02  0.51100000000E-03 0. -1.
        -11    1    3    3    0    0  0.11966513256E+01  0.25897241294E+00 -0.14219970899E+01  0.18764639859E+01  0.51100000000E-03 0.  1.
        -12    1    3    3    0    0 -0.38322223214E+01 -0.53454656883E+01  0.29549403182E+02  0.30272547956E+02  0.00000000000E+00 0.  1.
</event>
<event>
 7    1  0.2237500E-009  0.4778727E+02  0.7816164E-02  0.1312668E+00
        -11   -1    0    0    0    0  0.00000000000E+00  0.00000000000E+00  0.45593999997E+02  0.45594000000E+02  0.51100000000E-03 0.  1.
         11   -1    0    0    0    0 -0.00000000000E+00 -0.00000000000E+00 -0.45593999997E+02  0.45594000000E+02  0.51100000000E-03 0. -1.
    9900012    2    1    2    0    0  0.23995989806E+02  0.36029121910E+02 -0.31173592685E+01  0.47787273264E+02  0.20000010121E+02 0.  0.
         12    1    1    2    0    0 -0.23995989806E+02 -0.36029121910E+02  0.31173592685E+01  0.43400726736E+02  0.00000000000E+00 0. -1.
         11    1    3    3    0    0 -0.11973596432E+01  0.20114197257E+01  0.44670905195E+00  0.23830712675E+01  0.51100000000E-03 0. -1.
        -11    1    3    3    0    0  0.17020845672E+02  0.32820174929E+02 -0.35824350395E+01  0.37144406185E+02  0.51100000000E-03 0.  1.
         12    1    3    3    0    0  0.81725037774E+01  0.11975272558E+01  0.18366719131E-01  0.82597958120E+01  0.00000000000E+00 0. -1.
</event>
<event>
 7    1  0.2237500E-009  0.4778727E+02  0.7816164E-02  0.1312668E+00
        -11   -1    0    0    0    0  0.00000000000E+00  0.00000000000E+00  0.45593999997E+02  0.45594000000E+02  0.51100000000E-03 0. -1.
         11   -1    0    0    0    0 -0.00000000000E+00 -0.00000000000E+00 -0.45593999997E+02  0.45594000000E+02  0.51100000000E-03 0.  1.
    9900012    2    1    2    0    0 -0.26055122277E+02 -0.26020712541E+02 -0.22971210611E+02  0.47787269650E+02  0.19999993642E+02 0.  0.
         12    1    1    2    0    0  0.26055122277E+02  0.26020712541E+02  0.22971210611E+02  0.43400730350E+02  0.00000000000E+00 0. -1.
         11    1    3    3    0    0  0.39105270535E+00 -0.59739906882E+01  0.53125500868E+00  0.60103010828E+01  0.51100000000E-03 0. -1.
        -11    1    3    3    0    0 -0.43511863030E+01 -0.82220743521E+01 -0.82942248528E+01  0.12463125413E+02  0.51100000000E-03 0.  1.
        -12    1    3    3    0    0 -0.22094988679E+02 -0.11824647501E+02 -0.15208240766E+02  0.29313843154E+02  0.00000000000E+00 0.  1.
</event>
<event>
 7    1  0.2237500E-009  0.4778727E+02  0.7816164E-02  0.1312668E+00
        -11   -1    0    0    0    0  0.00000000000E+00  0.00000000000E+00  0.45593999997E+02  0.45594000000E+02  0.51100000000E-03 0. -1.
         11   -1    0    0    0    0 -0.00000000000E+00 -0.00000000000E+00 -0.45593999997E+02  0.45594000000E+02  0.51100000000E-03 0.  1.
    9900012    2    1    2    0    0 -0.10780335894E+02  0.29853417999E+02 -0.29600355181E+02  0.47787271491E+02  0.20000002037E+02 0.  0.
         12    1    1    2    0    0  0.10780335894E+02 -0.29853417999E+02  0.29600355181E+02  0.43400728509E+02  0.00000000000E+00 0. -1.
         11    1    3    3    0    0  0.29209491291E+01 -0.10935015649E+00 -0.31954988384E+01  0.43307175339E+01  0.51100000000E-03 0. -1.
        -11    1    3    3    0    0  0.70790398542E+00  0.90518333401E+01 -0.78947579807E+01  0.12031791999E+02  0.51100000000E-03 0.  1.
        -12    1    3    3    0    0 -0.14409189008E+02  0.20910934816E+02 -0.18510098362E+02  0.31424761958E+02  0.00000000000E+00 0.  1.
</event>
<event>
 7    1  0.2237500E-009  0.4778727E+02  0.7816164E-02  0.1312668E+00
        -11   -1    0    0    0    0  0.00000000000E+00  0.00000000000E+00  0.45593999997E+02  0.45594000000E+02  0.51100000000E-03 0.  1.
         11   -1    0    0    0    0 -0.00000000000E+00 -0.00000000000E+00 -0.45593999997E+02  0.45594000000E+02  0.51100000000E-03 0. -1.
    9900012    2    1    2    0    0 -0.10519555022E+02 -0.23370800677E+02  0.35025246262E+02  0.47787271459E+02  0.20000001892E+02 0.  0.
         12    1    1    2    0    0  0.10519555022E+02  0.23370800677E+02 -0.35025246262E+02  0.43400728541E+02  0.00000000000E+00 0. -1.
         11    1    3    3    0    0 -0.44506322980E+01 -0.70896752795E+01  0.67274070635E+01  0.10739163351E+02  0.51100000000E-03 0. -1.
        -11    1    3    3    0    0 -0.76026168241E+01 -0.18202395700E+02  0.28410319994E+02  0.34587183669E+02  0.51100000000E-03 0.  1.
         12    1    3    3    0    0  0.15336941003E+01  0.19212703017E+01 -0.11248079541E+00  0.24609244391E+01  0.00000000000E+00 0. -1.
</event>
<event>
 7    1  0.2237500E-009  0.4778724E+02  0.7816164E-02  0.1312668E+00
        -11   -1    0    0    0    0  0.00000000000E+00  0.00000000000E+00  0.45593999997E+02  0.45594000000E+02  0.51100000000E-03 0. -1.
         11   -1    0    0    0    0 -0.00000000000E+00 -0.00000000000E+00 -0.45593999997E+02  0.45594000000E+02  0.51100000000E-03 0.  1.
    9900012    2    1    2    0    0  0.13494272707E+02  0.16607835888E+02 -0.37758584459E+02  0.47787236077E+02  0.19999840570E+02 0.  0.
         12    1    1    2    0    0 -0.13494272707E+02 -0.16607835888E+02  0.37758584459E+02  0.43400763923E+02  0.00000000000E+00 0. -1.
         11    1    3    3    0    0  0.29449953225E+01  0.20131610363E+01 -0.13849363944E+02  0.14301422891E+02  0.51100000000E-03 0. -1.
        -11    1    3    3    0    0  0.23722839187E+00  0.33646740441E+01 -0.15919326501E+02  0.16272746088E+02  0.51100000000E-03 0.  1.
         12    1    3    3    0    0  0.10312048992E+02  0.11230000807E+02 -0.79898940133E+01  0.17213067097E+02  0.00000000000E+00 0. -1.
</event>
<event>
 7    1  0.2237500E-009  0.4778727E+02  0.7816164E-02  0.1312668E+00
        -11   -1    0    0    0    0  0.00000000000E+00  0.00000000000E+00  0.45593999997E+02  0.45594000000E+02  0.51100000000E-03 0.  1.
         11   -1    0    0    0    0 -0.00000000000E+00 -0.00000000000E+00 -0.45593999997E+02  0.45594000000E+02  0.51100000000E-03 0. -1.
    9900012    2    1    2    0    0 -0.82715234518E+01  0.24333645385E+02  0.34972546297E+02  0.47787269679E+02  0.19999993775E+02 0.  0.
         12    1    1    2    0    0  0.82715234518E+01 -0.24333645385E+02 -0.34972546297E+02  0.43400730321E+02  0.00000000000E+00 0. -1.
         11    1    3    3    0    0  0.36024864082E+01  0.58762496500E+01  0.48961281510E+01  0.84546016703E+01  0.51100000000E-03 0. -1.
        -11    1    3    3    0    0 -0.22844558976E+01 -0.13979839689E+01  0.66112238003E+01  0.71331184151E+01  0.51100000000E-03 0.  1.
        -12    1    3    3    0    0 -0.95895539624E+01  0.19855379703E+02  0.23465194345E+02  0.32199549594E+02  0.00000000000E+00 0.  1.
</event>
<event>
 7    1  0.2237500E-009  0.4778727E+02  0.7816164E-02  0.1312668E+00
        -11   -1    0    0    0    0  0.00000000000E+00  0.00000000000E+00  0.45593999997E+02  0.45594000000E+02  0.51100000000E-03 0. -1.
         11   -1    0    0    0    0 -0.00000000000E+00 -0.00000000000E+00 -0.45593999997E+02  0.45594000000E+02  0.51100000000E-03 0.  1.
    9900012    2    1    2    0    0 -0.17682824042E+02  0.38634791801E+02 -0.88483815840E+01  0.47787271201E+02  0.20000000714E+02 0.  0.
         12    1    1    2    0    0  0.17682824042E+02 -0.38634791801E+02  0.88483815840E+01  0.43400728799E+02  0.00000000000E+00 0. -1.
         11    1    3    3    0    0 -0.30326169650E+01  0.41216774882E+01  0.34631859136E-01  0.51172444343E+01  0.51100000000E-03 0. -1.
        -11    1    3    3    0    0  0.60141786685E+00  0.31739125401E+01 -0.70658941069E+01  0.77693168332E+01  0.51100000000E-03 0.  1.
        -12    1    3    3    0    0 -0.15251624944E+02  0.31339201773E+02 -0.18171193362E+01  0.34900709934E+02  0.00000000000E+00 0.  1.
</event>
<event>
 7    1  0.2237500E-009  0.4778727E+02  0.7816164E-02  0.1312668E+00
        -11   -1    0    0    0    0  0.00000000000E+00  0.00000000000E+00  0.45593999997E+02  0.45594000000E+02  0.51100000000E-03 0.  1.
         11   -1    0    0    0    0 -0.00000000000E+00 -0.00000000000E+00 -0.45593999997E+02  0.45594000000E+02  0.51100000000E-03 0. -1.
    9900012    2    1    2    0    0  0.37581174400E+02  0.12287311615E+02  0.17896943726E+02  0.47787270850E+02  0.19999999114E+02 0.  0.
         12    1    1    2    0    0 -0.37581174400E+02 -0.12287311615E+02 -0.17896943726E+02  0.43400729150E+02  0.00000000000E+00 0. -1.
         11    1    3    3    0    0  0.15665516511E+02  0.80841041129E+01  0.68496467489E+01  0.18912398254E+02  0.51100000000E-03 0. -1.
        -11    1    3    3    0    0  0.51746499438E+01  0.74786233183E+01  0.66279381237E+01  0.11253282757E+02  0.51100000000E-03 0.  1.
         12    1    3    3    0    0  0.16741007945E+02 -0.32754158160E+01  0.44193588533E+01  0.17621589839E+02  0.00000000000E+00 0. -1.
</event>
<event>
 7    1  0.2237500E-009  0.4778727E+02  0.7816164E-02  0.1312668E+00
        -11   -1    0    0    0    0  0.00000000000E+00  0.00000000000E+00  0.45593999997E+02  0.45594000000E+02  0.51100000000E-03 0.  1.
         11   -1    0    0    0    0 -0.00000000000E+00 -0.00000000000E+00 -0.45593999997E+02  0.45594000000E+02  0.51100000000E-03 0. -1.
    9900012    2    1    2    0    0 -0.21147614092E+01 -0.13599722530E+02  0.41160647767E+02  0.47787267365E+02  0.19999983222E+02 0.  0.
         12    1    1    2    0    0  0.21147614092E+01  0.13599722530E+02 -0.41160647767E+02  0.43400732635E+02  0.00000000000E+00 0. -1.
         11    1    3    3    0    0  0.32349963635E+00  0.36347438554E+01  0.31309915183E+01  0.48082349213E+01  0.51100000000E-03 0. -1.
        -11    1    3    3    0    0 -0.98956691129E+00 -0.46184191035E+01  0.22140554641E+02  0.22638754333E+02  0.51100000000E-03 0.  1.
         12    1    3    3    0    0 -0.14486941343E+01 -0.12616047281E+02  0.15889101607E+02  0.20340278110E+02  0.00000000000E+00 0. -1.
</event>
<event>
 7    1  0.2237500E-009  0.4778727E+02  0.7816164E-02  0.1312668E+00
        -11   -1    0    0    0    0  0.00000000000E+00  0.00000000000E+00  0.45593999997E+02  0.45594000000E+02  0.51100000000E-03 0. -1.
         11   -1    0    0    0    0 -0.00000000000E+00 -0.00000000000E+00 -0.45593999997E+02  0.45594000000E+02  0.51100000000E-03 0.  1.
    9900012    2    1    2    0    0  0.28664938834E+02 -0.29236831254E+02 -0.14392786662E+02  0.47787270421E+02  0.19999997156E+02 0.  0.
         12    1    1    2    0    0 -0.28664938834E+02  0.29236831254E+02  0.14392786662E+02  0.43400729579E+02  0.00000000000E+00 0. -1.
         11    1    3    3    0    0  0.10745890054E+02 -0.18141211358E+02 -0.81308725224E+01  0.22598424521E+02  0.51100000000E-03 0. -1.
        -11    1    3    3    0    0  0.67624878748E+01 -0.10504391171E+02 -0.63546562803E+01  0.14016245318E+02  0.51100000000E-03 0.  1.
         12    1    3    3    0    0  0.11156560905E+02 -0.59122872487E+00  0.92742140808E-01  0.11172600581E+02  0.00000000000E+00 0. -1.
</event>
<event>
 7    1  0.2237500E-009  0.4778727E+02  0.7816164E-02  0.1312668E+00
        -11   -1    0    0    0    0  0.00000000000E+00  0.00000000000E+00  0.45593999997E+02  0.45594000000E+02  0.51100000000E-03 0.  1.
         11   -1    0    0    0    0 -0.00000000000E+00 -0.00000000000E+00 -0.45593999997E+02  0.45594000000E+02  0.51100000000E-03 0. -1.
    9900012    2    1    2    0    0 -0.27485595339E+02  0.20206917277E+02  0.26829948841E+02  0.47787267152E+02  0.19999982253E+02 0.  0.
         12    1    1    2    0    0  0.27485595339E+02 -0.20206917277E+02 -0.26829948841E+02  0.43400732848E+02  0.00000000000E+00 0. -1.
         11    1    3    3    0    0 -0.40802474671E+01  0.95617717990E+01  0.62564790271E+01  0.12133401395E+02  0.51100000000E-03 0. -1.
        -11    1    3    3    0    0 -0.13464620735E+01  0.15028892062E+01 -0.19664572441E+01  0.28175504318E+01  0.51100000000E-03 0.  1.
        -12    1    3    3    0    0 -0.22058885798E+02  0.91422562720E+01  0.22539927058E+02  0.32836315325E+02  0.00000000000E+00 0.  1.
</event>
<event>
 7    1  0.2237500E-009  0.4778727E+02  0.7816164E-02  0.1312668E+00
        -11   -1    0    0    0    0  0.00000000000E+00  0.00000000000E+00  0.45593999997E+02  0.45594000000E+02  0.51100000000E-03 0. -1.
         11   -1    0    0    0    0 -0.00000000000E+00 -0.00000000000E+00 -0.45593999997E+02  0.45594000000E+02  0.51100000000E-03 0.  1.
    9900012    2    1    2    0    0 -0.37948601826E+02  0.88518175134E+00 -0.21041466315E+02  0.47787271528E+02  0.20000002203E+02 0.  0.
         12    1    1    2    0    0  0.37948601826E+02 -0.88518175134E+00  0.21041466315E+02  0.43400728472E+02  0.00000000000E+00 0. -1.
         11    1    3    3    0    0 -0.12157894858E+02  0.18700404794E+01 -0.12316245789E+02  0.17406934519E+02  0.51100000000E-03 0. -1.
        -11    1    3    3    0    0  0.97604240553E+00  0.16251004703E+01 -0.17890422645E+01  0.26065845088E+01  0.51100000000E-03 0.  1.
        -12    1    3    3    0    0 -0.26766749373E+02 -0.26099591983E+01 -0.69361782617E+01  0.27773752500E+02  0.00000000000E+00 0.  1.
</event>
<event>
 7    1  0.2237500E-009  0.4778726E+02  0.7816164E-02  0.1312668E+00
        -11   -1    0    0    0    0  0.00000000000E+00  0.00000000000E+00  0.45593999997E+02  0.45594000000E+02  0.51100000000E-03 0.  1.
         11   -1    0    0    0    0 -0.00000000000E+00 -0.00000000000E+00 -0.45593999997E+02  0.45594000000E+02  0.51100000000E-03 0. -1.
    9900012    2    1    2    0    0  0.35584361185E+02 -0.23656498267E+02  0.75991946964E+01  0.47787257711E+02  0.19999939208E+02 0.  0.
         12    1    1    2    0    0 -0.35584361185E+02  0.23656498267E+02 -0.75991946964E+01  0.43400742289E+02  0.00000000000E+00 0. -1.
         11    1    3    3    0    0  0.24634121726E+02 -0.13321021502E+02 -0.43878283607E+01  0.28346827072E+02  0.51100000000E-03 0.  1.
        -11    1    3    3    0    0  0.35512033272E+00 -0.13319335759E+01  0.13985961460E+01  0.19637283269E+01  0.51100000000E-03 0. -1.
        -12    1    3    3    0    0  0.10595119126E+02 -0.90035431895E+01  0.10588426911E+02  0.17476702312E+02  0.00000000000E+00 0.  1.
</event>
<event>
 7    1  0.2237500E-009  0.4778727E+02  0.7816164E-02  0.1312668E+00
        -11   -1    0    0    0    0  0.00000000000E+00  0.00000000000E+00  0.45593999997E+02  0.45594000000E+02  0.51100000000E-03 0.  1.
         11   -1    0    0    0    0 -0.00000000000E+00 -0.00000000000E+00 -0.45593999997E+02  0.45594000000E+02  0.51100000000E-03 0. -1.
    9900012    2    1    2    0    0 -0.24522599463E+02  0.21042366228E+02  0.28973855091E+02  0.47787270285E+02  0.19999996539E+02 0.  0.
         12    1    1    2    0    0  0.24522599463E+02 -0.21042366228E+02 -0.28973855091E+02  0.43400729715E+02  0.00000000000E+00 0. -1.
         11    1    3    3    0    0  0.14005707500E+01  0.44392137317E+01  0.42948601018E+01  0.63335645995E+01  0.51100000000E-03 0. -1.
        -11    1    3    3    0    0 -0.11990629414E+02  0.14670342669E+02  0.11414172459E+02  0.22119617559E+02  0.51100000000E-03 0.  1.
         12    1    3    3    0    0 -0.13932540799E+02  0.19328098283E+01  0.13264822530E+02  0.19334088127E+02  0.00000000000E+00 0. -1.
</event>
<event>
 7    1  0.2237500E-009  0.4778728E+02  0.7816164E-02  0.1312668E+00
        -11   -1    0    0    0    0  0.00000000000E+00  0.00000000000E+00  0.45593999997E+02  0.45594000000E+02  0.51100000000E-03 0. -1.
         11   -1    0    0    0    0 -0.00000000000E+00 -0.00000000000E+00 -0.45593999997E+02  0.45594000000E+02  0.51100000000E-03 0.  1.
    9900012    2    1    2    0    0  0.49588579831E+01  0.41577838442E+02  0.11415588819E+02  0.47787278922E+02  0.20000035916E+02 0.  0.
         12    1    1    2    0    0 -0.49588579831E+01 -0.41577838442E+02 -0.11415588819E+02  0.43400721078E+02  0.00000000000E+00 0. -1.
         11    1    3    3    0    0  0.60339027829E+01  0.78478269781E+01  0.25811473906E+01  0.10230283143E+02  0.51100000000E-03 0. -1.
        -11    1    3    3    0    0 -0.16533919770E+01  0.34106260765E+02  0.60371858222E+01  0.34675904333E+02  0.51100000000E-03 0.  1.
         12    1    3    3    0    0  0.57834717716E+00 -0.37624930064E+00  0.27972556063E+01  0.28810914461E+01  0.00000000000E+00 0. -1.
</event>
<event>
 7    1  0.2237500E-009  0.4778727E+02  0.7816164E-02  0.1312668E+00
        -11   -1    0    0    0    0  0.00000000000E+00  0.00000000000E+00  0.45593999997E+02  0.45594000000E+02  0.51100000000E-03 0.  1.
         11   -1    0    0    0    0 -0.00000000000E+00 -0.00000000000E+00 -0.45593999997E+02  0.45594000000E+02  0.51100000000E-03 0. -1.
    9900012    2    1    2    0    0 -0.20330749434E+01  0.18836704054E+02  0.39047001438E+02  0.47787272648E+02  0.20000007314E+02 0.  0.
         12    1    1    2    0    0  0.20330749434E+01 -0.18836704054E+02 -0.39047001438E+02  0.43400727352E+02  0.00000000000E+00 0. -1.
         11    1    3    3    0    0 -0.36734308214E+01  0.58316835460E+01  0.18802625970E+02  0.20026017343E+02  0.51100000000E-03 0. -1.
        -11    1    3    3    0    0 -0.59942842703E+01  0.69414577359E+01  0.11047736988E+02  0.14358543527E+02  0.51100000000E-03 0.  1.
         12    1    3    3    0    0  0.76346401483E+01  0.60635627719E+01  0.91966384802E+01  0.13402711779E+02  0.00000000000E+00 0. -1.
</event>
<event>
 7    1  0.2237500E-009  0.4778726E+02  0.7816164E-02  0.1312668E+00
        -11   -1    0    0    0    0  0.00000000000E+00  0.00000000000E+00  0.45593999997E+02  0.45594000000E+02  0.51100000000E-03 0. -1.
         11   -1    0    0    0    0 -0.00000000000E+00 -0.00000000000E+00 -0.45593999997E+02  0.45594000000E+02  0.51100000000E-03 0.  1.
    9900012    2    1    2    0    0  0.17819933969E+02  0.39570878835E+02  0.46848225780E+00  0.47787262978E+02  0.19999963221E+02 0.  0.
         12    1    1    2    0    0 -0.17819933969E+02 -0.39570878835E+02 -0.46848225780E+00  0.43400737022E+02  0.00000000000E+00 0. -1.
         11    1    3    3    0    0  0.11654473623E+02  0.14952968296E+02  0.77286672774E+01  0.20473160832E+02  0.51100000000E-03 0. -1.
        -11    1    3    3    0    0  0.23371258924E+01  0.17133648185E+01 -0.19486067509E+01  0.34921118208E+01  0.51100000000E-03 0.  1.
        -12    1    3    3    0    0  0.38283344536E+01  0.22904545720E+02 -0.53115782687E+01  0.23821990325E+02  0.00000000000E+00 0.  1.
</event>
<event>
 7    1  0.2237500E-009  0.4778729E+02  0.7816164E-02  0.1312668E+00
        -11   -1    0    0    0    0  0.00000000000E+00  0.00000000000E+00  0.45593999997E+02  0.45594000000E+02  0.51100000000E-03 0.  1.
         11   -1    0    0    0    0 -0.00000000000E+00 -0.00000000000E+00 -0.45593999997E+02  0.45594000000E+02  0.51100000000E-03 0. -1.
    9900012    2    1    2    0    0  0.38017830358E+02  0.10202903288E+02  0.18280231137E+02  0.47787291353E+02  0.20000092596E+02 0.  0.
         12    1    1    2    0    0 -0.38017830358E+02 -0.10202903288E+02 -0.18280231137E+02  0.43400708647E+02  0.00000000000E+00 0. -1.
         11    1    3    3    0    0  0.76989895118E+01  0.76992101876E+01  0.79067132405E+01  0.13456165559E+02  0.51100000000E-03 0. -1.
        -11    1    3    3    0    0  0.22642848554E+02  0.48139374057E+01  0.12115790703E+02  0.26127858095E+02  0.51100000000E-03 0.  1.
         12    1    3    3    0    0  0.76759922921E+01 -0.23102443057E+01 -0.17422728075E+01  0.82032676999E+01  0.00000000000E+00 0. -1.
</event>
<event>
 7    1  0.2237500E-009  0.4778727E+02  0.7816164E-02  0.1312668E+00
        -11   -1    0    0    0    0  0.00000000000E+00  0.00000000000E+00  0.45593999997E+02  0.45594000000E+02  0.51100000000E-03 0.  1.
         11   -1    0    0    0    0 -0.00000000000E+00 -0.00000000000E+00 -0.45593999997E+02  0.45594000000E+02  0.51100000000E-03 0. -1.
    9900012    2    1    2    0    0 -0.28341898523E+02 -0.19804828838E+02  0.26232214262E+02  0.47787268183E+02  0.19999986952E+02 0.  0.
         12    1    1    2    0    0  0.28341898523E+02  0.19804828838E+02 -0.26232214262E+02  0.43400731817E+02  0.00000000000E+00 0. -1.
         11    1    3    3    0    0 -0.73191884942E+01 -0.12603018077E+02  0.67737306519E+01  0.16071403550E+02  0.51100000000E-03 0. -1.
        -11    1    3    3    0    0  0.40688455050E+00  0.14405535159E+01  0.29813632286E+01  0.33360570187E+01  0.51100000000E-03 0.  1.
         12    1    3    3    0    0 -0.21429594579E+02 -0.86423642764E+01  0.16477120382E+02  0.28379807614E+02  0.00000000000E+00 0. -1.
</event>
<event>
 7    1  0.2237500E-009  0.4778727E+02  0.7816164E-02  0.1312668E+00
        -11   -1    0    0    0    0  0.00000000000E+00  0.00000000000E+00  0.45593999997E+02  0.45594000000E+02  0.51100000000E-03 0.  1.
         11   -1    0    0    0    0 -0.00000000000E+00 -0.00000000000E+00 -0.45593999997E+02  0.45594000000E+02  0.51100000000E-03 0. -1.
    9900012    2    1    2    0    0 -0.42852489745E+02  0.15350515480E+01  0.67030750222E+01  0.47787268723E+02  0.19999989417E+02 0.  0.
         12    1    1    2    0    0  0.42852489745E+02 -0.15350515480E+01 -0.67030750222E+01  0.43400731277E+02  0.00000000000E+00 0. -1.
         11    1    3    3    0    0  0.23353673446E+00 -0.33399433810E+00  0.62249127050E+00  0.74403445296E+00  0.51100000000E-03 0. -1.
        -11    1    3    3    0    0 -0.31135721581E+02 -0.67815579416E+01  0.33678046870E+01  0.32043170803E+02  0.51100000000E-03 0.  1.
        -12    1    3    3    0    0 -0.11950304899E+02  0.86506038277E+01  0.27127790647E+01  0.15000063467E+02  0.00000000000E+00 0.  1.
</event>
<event>
 7    1  0.2237500E-009  0.4778727E+02  0.7816164E-02  0.1312668E+00
        -11   -1    0    0    0    0  0.00000000000E+00  0.00000000000E+00  0.45593999997E+02  0.45594000000E+02  0.51100000000E-03 0.  1.
         11   -1    0    0    0    0 -0.00000000000E+00 -0.00000000000E+00 -0.45593999997E+02  0.45594000000E+02  0.51100000000E-03 0. -1.
    9900012    2    1    2    0    0 -0.36825268672E+02 -0.11888435541E+02  0.19651666220E+02  0.47787270771E+02  0.19999998755E+02 0.  0.
         12    1    1    2    0    0  0.36825268672E+02  0.11888435541E+02 -0.19651666220E+02  0.43400729229E+02  0.00000000000E+00 0. -1.
         11    1    3    3    0    0 -0.77651530116E+01 -0.48378647749E+01  0.92139462190E+01  0.12984580935E+02  0.51100000000E-03 0. -1.
        -11    1    3    3    0    0 -0.29809187544E+02 -0.85816086346E+01  0.11139554325E+02  0.32959389248E+02  0.51100000000E-03 0.  1.
         12    1    3    3    0    0  0.74907188342E+00  0.15310378684E+01 -0.70183432409E+00  0.18433005885E+01  0.00000000000E+00 0. -1.
</event>
<event>
 7    1  0.2237500E-009  0.4778727E+02  0.7816164E-02  0.1312668E+00
        -11   -1    0    0    0    0  0.00000000000E+00  0.00000000000E+00  0.45593999997E+02  0.45594000000E+02  0.51100000000E-03 0.  1.
         11   -1    0    0    0    0 -0.00000000000E+00 -0.00000000000E+00 -0.45593999997E+02  0.45594000000E+02  0.51100000000E-03 0. -1.
    9900012    2    1    2    0    0 -0.12358452324E+02  0.38946889420E+02  0.14629831740E+02  0.47787268254E+02  0.19999987278E+02 0.  0.
         12    1    1    2    0    0  0.12358452324E+02 -0.38946889420E+02 -0.14629831740E+02  0.43400731746E+02  0.00000000000E+00 0. -1.
         11    1    3    3    0    0 -0.16387817666E+01  0.40353992248E+01  0.54358360821E+01  0.69655126699E+01  0.51100000000E-03 0. -1.
        -11    1    3    3    0    0 -0.86853564769E+01  0.18845828840E+02  0.12595511946E+02  0.24274422820E+02  0.51100000000E-03 0.  1.
         12    1    3    3    0    0 -0.20343140806E+01  0.16065661355E+02 -0.34015162881E+01  0.16547332764E+02  0.00000000000E+00 0. -1.
</event>
<event>
 7    1  0.2237500E-009  0.4778726E+02  0.7816164E-02  0.1312668E+00
        -11   -1    0    0    0    0  0.00000000000E+00  0.00000000000E+00  0.45593999997E+02  0.45594000000E+02  0.51100000000E-03 0.  1.
         11   -1    0    0    0    0 -0.00000000000E+00 -0.00000000000E+00 -0.45593999997E+02  0.45594000000E+02  0.51100000000E-03 0. -1.
    9900012    2    1    2    0    0 -0.14893529430E+02 -0.16393041818E+02  0.37323920489E+02  0.47787261762E+02  0.19999957676E+02 0.  0.
         12    1    1    2    0    0  0.14893529430E+02  0.16393041818E+02 -0.37323920489E+02  0.43400738238E+02  0.00000000000E+00 0. -1.
         11    1    3    3    0    0 -0.87409512770E+01 -0.13767431895E+00  0.41550569181E+01  0.96792397273E+01  0.51100000000E-03 0.  1.
        -11    1    3    3    0    0  0.12986815603E+01 -0.53651479339E+01  0.85815173522E+01  0.10203618303E+02  0.51100000000E-03 0. -1.
        -12    1    3    3    0    0 -0.74512597137E+01 -0.10890219565E+02  0.24587346219E+02  0.27904403731E+02  0.00000000000E+00 0.  1.
</event>
<event>
 7    1  0.3064880E-009  0.4778727E+02  0.7816164E-02  0.1312668E+00
        -11   -1    0    0    0    0  0.00000000000E+00  0.00000000000E+00  0.45593999997E+02  0.45594000000E+02  0.51100000000E-03 0. -1.
         11   -1    0    0    0    0 -0.00000000000E+00 -0.00000000000E+00 -0.45593999997E+02  0.45594000000E+02  0.51100000000E-03 0.  1.
    9900012    2    1    2    0    0  0.12984510242E+02 -0.23956981611E+02 -0.33780000956E+02  0.47787274906E+02  0.20000017606E+02 0.  0.
         12    1    1    2    0    0 -0.12984510242E+02  0.23956981611E+02  0.33780000956E+02  0.43400725094E+02  0.00000000000E+00 0. -1.
         11    1    3    3    0    0  0.11608636117E+02 -0.10948556541E+02 -0.14678585159E+02  0.21681609381E+02  0.51100000000E-03 0. -1.
        -11    1    3    3    0    0  0.49392872610E+01 -0.99321832782E+01 -0.18197919952E+02  0.21312182295E+02  0.51100000000E-03 0.  1.
         12    1    3    3    0    0 -0.35634131352E+01 -0.30762417914E+01 -0.90349584392E+00  0.47934832295E+01  0.00000000000E+00 0. -1.
</event>
<event>
 7    1  0.2237500E-009  0.4778727E+02  0.7816164E-02  0.1312668E+00
        -11   -1    0    0    0    0  0.00000000000E+00  0.00000000000E+00  0.45593999997E+02  0.45594000000E+02  0.51100000000E-03 0. -1.
         11   -1    0    0    0    0 -0.00000000000E+00 -0.00000000000E+00 -0.45593999997E+02  0.45594000000E+02  0.51100000000E-03 0.  1.
    9900012    2    1    2    0    0  0.13111294583E+02  0.22788915020E+02 -0.34530898141E+02  0.47787267059E+02  0.19999981828E+02 0.  0.
         12    1    1    2    0    0 -0.13111294583E+02 -0.22788915020E+02  0.34530898141E+02  0.43400732941E+02  0.00000000000E+00 0. -1.
         11    1    3    3    0    0  0.10054339789E+02  0.56850529204E+01 -0.51473671461E+01  0.12645353459E+02  0.51100000000E-03 0. -1.
        -11    1    3    3    0    0  0.55769076781E+01  0.77055096206E+01 -0.15564040026E+02  0.18240507667E+02  0.51100000000E-03 0.  1.
         12    1    3    3    0    0 -0.25199528849E+01  0.93983524787E+01 -0.13819490969E+02  0.16901405933E+02  0.00000000000E+00 0. -1.
</event>
<event>
 7    1  0.2237500E-009  0.4778727E+02  0.7816164E-02  0.1312668E+00
        -11   -1    0    0    0    0  0.00000000000E+00  0.00000000000E+00  0.45593999997E+02  0.45594000000E+02  0.51100000000E-03 0.  1.
         11   -1    0    0    0    0 -0.00000000000E+00 -0.00000000000E+00 -0.45593999997E+02  0.45594000000E+02  0.51100000000E-03 0. -1.
    9900012    2    1    2    0    0  0.30858801698E+02 -0.19831405024E+02  0.23196399558E+02  0.47787271666E+02  0.20000002835E+02 0.  0.
         12    1    1    2    0    0 -0.30858801698E+02  0.19831405024E+02 -0.23196399558E+02  0.43400728334E+02  0.00000000000E+00 0. -1.
         11    1    3    3    0    0  0.79974343384E+01 -0.62728127941E+01  0.23625673627E+01  0.10434982566E+02  0.51100000000E-03 0. -1.
        -11    1    3    3    0    0  0.16492419472E+02 -0.11614091080E+02  0.59246339991E+01  0.21023517782E+02  0.51100000000E-03 0.  1.
         12    1    3    3    0    0  0.63689478878E+01 -0.19445011497E+01  0.14909198196E+02  0.16328771318E+02  0.00000000000E+00 0. -1.
</event>
<event>
 7    1  0.2237500E-009  0.4778722E+02  0.7816164E-02  0.1312668E+00
        -11   -1    0    0    0    0  0.00000000000E+00  0.00000000000E+00  0.45593999997E+02  0.45594000000E+02  0.51100000000E-03 0.  1.
         11   -1    0    0    0    0 -0.00000000000E+00 -0.00000000000E+00 -0.45593999997E+02  0.45594000000E+02  0.51100000000E-03 0. -1.
    9900012    2    1    2    0    0  0.44310732819E+01  0.24767626139E+02  0.35363235376E+02  0.47787215085E+02  0.19999744856E+02 0.  0.
         12    1    1    2    0    0 -0.44310732819E+01 -0.24767626139E+02 -0.35363235376E+02  0.43400784915E+02  0.00000000000E+00 0. -1.
         11    1    3    3    0    0  0.52053581366E+01  0.68623517816E+01  0.12753669663E+02  0.15389727594E+02  0.51100000000E-03 0. -1.
        -11    1    3    3    0    0  0.24162567846E+00  0.19935254227E+02  0.16497194360E+02  0.25877213259E+02  0.51100000000E-03 0.  1.
         12    1    3    3    0    0 -0.10159105332E+01 -0.20299798697E+01  0.61123713536E+01  0.65202742310E+01  0.00000000000E+00 0. -1.
</event>
<event>
 7    1  0.2237500E-009  0.4778728E+02  0.7816164E-02  0.1312668E+00
        -11   -1    0    0    0    0  0.00000000000E+00  0.00000000000E+00  0.45593999997E+02  0.45594000000E+02  0.51100000000E-03 0.  1.
         11   -1    0    0    0    0 -0.00000000000E+00 -0.00000000000E+00 -0.45593999997E+02  0.45594000000E+02  0.51100000000E-03 0. -1.
    9900012    2    1    2    0    0  0.13753747440E+02  0.72752587581E+01  0.40515769396E+02  0.47787279633E+02  0.20000039159E+02 0.  0.
         12    1    1    2    0    0 -0.13753747440E+02 -0.72752587581E+01 -0.40515769396E+02  0.43400720367E+02  0.00000000000E+00 0. -1.
         11    1    3    3    0    0  0.53203095584E+01  0.52036197343E+00  0.35306911786E+01  0.64064226242E+01  0.51100000000E-03 0. -1.
        -11    1    3    3    0    0  0.12799313246E+02  0.58889717147E+01  0.28908782590E+02  0.32159292880E+02  0.51100000000E-03 0.  1.
        -12    1    3    3    0    0 -0.43658753647E+01  0.86592507003E+00  0.80762956274E+01  0.92215641292E+01  0.00000000000E+00 0.  1.
</event>
<event>
 7    1  0.2237500E-009  0.4778727E+02  0.7816164E-02  0.1312668E+00
        -11   -1    0    0    0    0  0.00000000000E+00  0.00000000000E+00  0.45593999997E+02  0.45594000000E+02  0.51100000000E-03 0.  1.
         11   -1    0    0    0    0 -0.00000000000E+00 -0.00000000000E+00 -0.45593999997E+02  0.45594000000E+02  0.51100000000E-03 0. -1.
    9900012    2    1    2    0    0  0.31615029786E+02 -0.25968560490E+02 -0.14482649996E+02  0.47787269670E+02  0.19999993731E+02 0.  0.
         12    1    1    2    0    0 -0.31615029786E+02  0.25968560490E+02  0.14482649996E+02  0.43400730330E+02  0.00000000000E+00 0. -1.
         11    1    3    3    0    0  0.17500379780E+02 -0.73887497550E+01 -0.17619596030E+01  0.19077772860E+02  0.51100000000E-03 0. -1.
        -11    1    3    3    0    0  0.13852231228E+00 -0.75703999929E+01 -0.16328488542E+01  0.77457304449E+01  0.51100000000E-03 0.  1.
         12    1    3    3    0    0  0.13976127694E+02 -0.11009410742E+02 -0.11087841539E+02  0.20963766365E+02  0.00000000000E+00 0. -1.
</event>
<event>
 7    1  0.2237500E-009  0.4778727E+02  0.7816164E-02  0.1312668E+00
        -11   -1    0    0    0    0  0.00000000000E+00  0.00000000000E+00  0.45593999997E+02  0.45594000000E+02  0.51100000000E-03 0. -1.
         11   -1    0    0    0    0 -0.00000000000E+00 -0.00000000000E+00 -0.45593999997E+02  0.45594000000E+02  0.51100000000E-03 0.  1.
    9900012    2    1    2    0    0 -0.27593500230E+02  0.11127171001E+01 -0.33481098686E+02  0.47787270012E+02  0.19999995291E+02 0.  0.
         12    1    1    2    0    0  0.27593500230E+02 -0.11127171001E+01  0.33481098686E+02  0.43400729988E+02  0.00000000000E+00 0. -1.
         11    1    3    3    0    0 -0.52030563812E+01 -0.45107060073E+01 -0.28943119577E+01  0.74696255837E+01  0.51100000000E-03 0. -1.
        -11    1    3    3    0    0 -0.12713983799E+02 -0.27675193663E+01 -0.19115222902E+02  0.23123500910E+02  0.51100000000E-03 0.  1.
        -12    1    3    3    0    0 -0.96764600497E+01  0.83909424737E+01 -0.11471563826E+02  0.17194143518E+02  0.00000000000E+00 0.  1.
</event>
<event>
 7    1  0.2237500E-009  0.4778724E+02  0.7816164E-02  0.1312668E+00
        -11   -1    0    0    0    0  0.00000000000E+00  0.00000000000E+00  0.45593999997E+02  0.45594000000E+02  0.51100000000E-03 0.  1.
         11   -1    0    0    0    0 -0.00000000000E+00 -0.00000000000E+00 -0.45593999997E+02  0.45594000000E+02  0.51100000000E-03 0. -1.
    9900012    2    1    2    0    0  0.33777729690E+02 -0.13356885369E+02 -0.23754665466E+02  0.47787244924E+02  0.19999880906E+02 0.  0.
         12    1    1    2    0    0 -0.33777729690E+02  0.13356885369E+02  0.23754665466E+02  0.43400755076E+02  0.00000000000E+00 0. -1.
         11    1    3    3    0    0  0.10609059425E+02 -0.91052354550E+01 -0.74180783681E+00  0.14000276201E+02  0.51100000000E-03 0.  1.
        -11    1    3    3    0    0 -0.21260555446E+00  0.75766194049E+00 -0.11049302184E+01  0.13565116241E+01  0.51100000000E-03 0. -1.
        -12    1    3    3    0    0  0.23381275819E+02 -0.50093118541E+01 -0.21907927411E+02  0.32430457099E+02  0.00000000000E+00 0.  1.
</event>
<event>
 7    1  0.2237500E-009  0.4778725E+02  0.7816164E-02  0.1312668E+00
        -11   -1    0    0    0    0  0.00000000000E+00  0.00000000000E+00  0.45593999997E+02  0.45594000000E+02  0.51100000000E-03 0.  1.
         11   -1    0    0    0    0 -0.00000000000E+00 -0.00000000000E+00 -0.45593999997E+02  0.45594000000E+02  0.51100000000E-03 0. -1.
    9900012    2    1    2    0    0 -0.37162274945E+01 -0.41820829291E+02 -0.10992389204E+02  0.47787254272E+02  0.19999923526E+02 0.  0.
         12    1    1    2    0    0  0.37162274945E+01  0.41820829291E+02  0.10992389204E+02  0.43400745728E+02  0.00000000000E+00 0. -1.
         11    1    3    3    0    0  0.23422143755E+01 -0.18625119736E+02 -0.66722288962E+01  0.19922341530E+02  0.51100000000E-03 0. -1.
        -11    1    3    3    0    0  0.31321655432E+01 -0.14371290252E+02 -0.33604115072E+01  0.15087637663E+02  0.51100000000E-03 0.  1.
         12    1    3    3    0    0 -0.91906074131E+01 -0.88244193035E+01 -0.95974880063E+00  0.12777275078E+02  0.00000000000E+00 0. -1.
</event>
<event>
 7    1  0.2237500E-009  0.4778727E+02  0.7816164E-02  0.1312668E+00
        -11   -1    0    0    0    0  0.00000000000E+00  0.00000000000E+00  0.45593999997E+02  0.45594000000E+02  0.51100000000E-03 0. -1.
         11   -1    0    0    0    0 -0.00000000000E+00 -0.00000000000E+00 -0.45593999997E+02  0.45594000000E+02  0.51100000000E-03 0.  1.
    9900012    2    1    2    0    0 -0.40845450267E+02 -0.55146016299E+01  0.13596395057E+02  0.47787267319E+02  0.19999983016E+02 0.  0.
         12    1    1    2    0    0  0.40845450267E+02  0.55146016299E+01 -0.13596395057E+02  0.43400732681E+02  0.00000000000E+00 0. -1.
         11    1    3    3    0    0 -0.76599009910E+01 -0.55501793138E+01  0.40671897910E+01  0.10296630840E+02  0.51100000000E-03 0. -1.
        -11    1    3    3    0    0 -0.24737001059E+02 -0.65010311799E+01  0.66442662458E+01  0.26425913457E+02  0.51100000000E-03 0.  1.
        -12    1    3    3    0    0 -0.84485482167E+01  0.65366088638E+01  0.28849390202E+01  0.11064723022E+02  0.00000000000E+00 0.  1.
</event>
<event>
 7    1  0.2237500E-009  0.4778728E+02  0.7816164E-02  0.1312668E+00
        -11   -1    0    0    0    0  0.00000000000E+00  0.00000000000E+00  0.45593999997E+02  0.45594000000E+02  0.51100000000E-03 0. -1.
         11   -1    0    0    0    0 -0.00000000000E+00 -0.00000000000E+00 -0.45593999997E+02  0.45594000000E+02  0.51100000000E-03 0.  1.
    9900012    2    1    2    0    0 -0.42192217444E+02  0.10168752918E+02  0.19004727120E+00  0.47787275735E+02  0.20000021388E+02 0.  0.
         12    1    1    2    0    0  0.42192217444E+02 -0.10168752918E+02 -0.19004727120E+00  0.43400724265E+02  0.00000000000E+00 0. -1.
         11    1    3    3    0    0 -0.15206316787E+02 -0.21254267900E+01  0.22766621508E+01  0.15522006961E+02  0.51100000000E-03 0. -1.
        -11    1    3    3    0    0 -0.20832562160E+02  0.32864795993E+01 -0.30689178310E+01  0.21312316890E+02  0.51100000000E-03 0.  1.
         12    1    3    3    0    0 -0.61533384965E+01  0.90077001092E+01  0.98230295145E+00  0.10952951885E+02  0.00000000000E+00 0. -1.
</event>
<event>
 7    1  0.2237500E-009  0.4778727E+02  0.7816164E-02  0.1312668E+00
        -11   -1    0    0    0    0  0.00000000000E+00  0.00000000000E+00  0.45593999997E+02  0.45594000000E+02  0.51100000000E-03 0. -1.
         11   -1    0    0    0    0 -0.00000000000E+00 -0.00000000000E+00 -0.45593999997E+02  0.45594000000E+02  0.51100000000E-03 0.  1.
    9900012    2    1    2    0    0 -0.35232506966E+02  0.22560700340E+02 -0.11545922292E+02  0.47787273410E+02  0.20000010787E+02 0.  0.
         12    1    1    2    0    0  0.35232506966E+02 -0.22560700340E+02  0.11545922292E+02  0.43400726590E+02  0.00000000000E+00 0. -1.
         11    1    3    3    0    0 -0.10473441791E+02  0.85932576331E+01 -0.59691987051E+01  0.14804336970E+02  0.51100000000E-03 0. -1.
        -11    1    3    3    0    0  0.13478048102E+01  0.43029351729E+01  0.34325696713E+00  0.45221294226E+01  0.51100000000E-03 0.  1.
        -12    1    3    3    0    0 -0.26106869985E+02  0.96645075343E+01 -0.59199805542E+01  0.28460807017E+02  0.00000000000E+00 0.  1.
</event>
<event>
 7    1  0.2237500E-009  0.4778728E+02  0.7816164E-02  0.1312668E+00
        -11   -1    0    0    0    0  0.00000000000E+00  0.00000000000E+00  0.45593999997E+02  0.45594000000E+02  0.51100000000E-03 0.  1.
         11   -1    0    0    0    0 -0.00000000000E+00 -0.00000000000E+00 -0.45593999997E+02  0.45594000000E+02  0.51100000000E-03 0. -1.
    9900012    2    1    2    0    0 -0.24380514295E+02 -0.26293323329E+02  0.24451470742E+02  0.47787277075E+02  0.20000027495E+02 0.  0.
         12    1    1    2    0    0  0.24380514295E+02  0.26293323329E+02 -0.24451470742E+02  0.43400722925E+02  0.00000000000E+00 0. -1.
         11    1    3    3    0    0 -0.25655658892E+00  0.17479835997E+00  0.44366710083E+01  0.44475190440E+01  0.51100000000E-03 0. -1.
        -11    1    3    3    0    0 -0.57392840045E+01 -0.16620118131E+02  0.93805431038E+01  0.19928931149E+02  0.51100000000E-03 0.  1.
        -12    1    3    3    0    0 -0.18384673702E+02 -0.98480035582E+01  0.10634256629E+02  0.23410826881E+02  0.00000000000E+00 0.  1.
</event>
<event>
 7    1  0.2237500E-009  0.4778728E+02  0.7816164E-02  0.1312668E+00
        -11   -1    0    0    0    0  0.00000000000E+00  0.00000000000E+00  0.45593999997E+02  0.45594000000E+02  0.51100000000E-03 0.  1.
         11   -1    0    0    0    0 -0.00000000000E+00 -0.00000000000E+00 -0.45593999997E+02  0.45594000000E+02  0.51100000000E-03 0. -1.
    9900012    2    1    2    0    0 -0.93557887391E+01 -0.40960589482E+02  0.10877598400E+02  0.47787276267E+02  0.20000023811E+02 0.  0.
         12    1    1    2    0    0  0.93557887391E+01  0.40960589482E+02 -0.10877598400E+02  0.43400723733E+02  0.00000000000E+00 0. -1.
         11    1    3    3    0    0 -0.10002757914E+02 -0.20516413777E+02  0.54648838755E+01  0.23470052326E+02  0.51100000000E-03 0. -1.
        -11    1    3    3    0    0 -0.56463516604E+01 -0.84937018863E+01  0.21864974089E+01  0.10430964960E+02  0.51100000000E-03 0.  1.
        -12    1    3    3    0    0  0.62933208352E+01 -0.11950473818E+02  0.32262171160E+01  0.13886258981E+02  0.00000000000E+00 0.  1.
</event>
<event>
 7    1  0.2237500E-009  0.4778727E+02  0.7816164E-02  0.1312668E+00
        -11   -1    0    0    0    0  0.00000000000E+00  0.00000000000E+00  0.45593999997E+02  0.45594000000E+02  0.51100000000E-03 0.  1.
         11   -1    0    0    0    0 -0.00000000000E+00 -0.00000000000E+00 -0.45593999997E+02  0.45594000000E+02  0.51100000000E-03 0. -1.
    9900012    2    1    2    0    0 -0.44952492799E+01 -0.38785741168E+02  0.18949462796E+02  0.47787272768E+02  0.20000007857E+02 0.  0.
         12    1    1    2    0    0  0.44952492799E+01  0.38785741168E+02 -0.18949462796E+02  0.43400727232E+02  0.00000000000E+00 0. -1.
         11    1    3    3    0    0 -0.15103012634E+01 -0.10667109358E+02  0.10460657477E+01  0.10824162128E+02  0.51100000000E-03 0. -1.
        -11    1    3    3    0    0 -0.47075310244E+01 -0.20768595364E+02  0.47830913071E+01  0.21825979117E+02  0.51100000000E-03 0.  1.
         12    1    3    3    0    0  0.17225830079E+01 -0.73500364464E+01  0.13120305742E+02  0.15137131523E+02  0.00000000000E+00 0. -1.
</event>
<event>
 7    1  0.2237500E-009  0.4778727E+02  0.7816164E-02  0.1312668E+00
        -11   -1    0    0    0    0  0.00000000000E+00  0.00000000000E+00  0.45593999997E+02  0.45594000000E+02  0.51100000000E-03 0.  1.
         11   -1    0    0    0    0 -0.00000000000E+00 -0.00000000000E+00 -0.45593999997E+02  0.45594000000E+02  0.51100000000E-03 0. -1.
    9900012    2    1    2    0    0  0.39426705293E+02 -0.67265448387E+01  0.16849685098E+02  0.47787269780E+02  0.19999994236E+02 0.  0.
         12    1    1    2    0    0 -0.39426705293E+02  0.67265448387E+01 -0.16849685098E+02  0.43400730220E+02  0.00000000000E+00 0. -1.
         11    1    3    3    0    0  0.12438720089E+01 -0.58161727858E+00  0.48303031952E+01  0.50216855190E+01  0.51100000000E-03 0. -1.
        -11    1    3    3    0    0  0.24342292237E+02  0.22083980070E+01  0.10244976857E+02  0.26502523732E+02  0.51100000000E-03 0.  1.
        -12    1    3    3    0    0  0.13840541047E+02 -0.83533255671E+01  0.17744050457E+01  0.16263060529E+02  0.00000000000E+00 0.  1.
</event>
<event>
 7    1  0.2237500E-009  0.4778727E+02  0.7816164E-02  0.1312668E+00
        -11   -1    0    0    0    0  0.00000000000E+00  0.00000000000E+00  0.45593999997E+02  0.45594000000E+02  0.51100000000E-03 0. -1.
         11   -1    0    0    0    0 -0.00000000000E+00 -0.00000000000E+00 -0.45593999997E+02  0.45594000000E+02  0.51100000000E-03 0.  1.
    9900012    2    1    2    0    0  0.20821311026E+02 -0.16098403682E+02 -0.34509967651E+02  0.47787268886E+02  0.19999990160E+02 0.  0.
         12    1    1    2    0    0 -0.20821311026E+02  0.16098403682E+02  0.34509967651E+02  0.43400731114E+02  0.00000000000E+00 0. -1.
         11    1    3    3    0    0  0.48816570820E+01  0.22533735205E+01 -0.78131347273E+01  0.94843736017E+01  0.51100000000E-03 0. -1.
        -11    1    3    3    0    0 -0.65533005310E+00 -0.32789762276E+01  0.12464435975E+00  0.33461439086E+01  0.51100000000E-03 0.  1.
        -12    1    3    3    0    0  0.16594983997E+02 -0.15072800975E+02 -0.26821477283E+02  0.34956751376E+02  0.00000000000E+00 0.  1.
</event>
<event>
 7    1  0.2237500E-009  0.4778727E+02  0.7816164E-02  0.1312668E+00
        -11   -1    0    0    0    0  0.00000000000E+00  0.00000000000E+00  0.45593999997E+02  0.45594000000E+02  0.51100000000E-03 0.  1.
         11   -1    0    0    0    0 -0.00000000000E+00 -0.00000000000E+00 -0.45593999997E+02  0.45594000000E+02  0.51100000000E-03 0. -1.
    9900012    2    1    2    0    0  0.32064777722E+02  0.13263666107E+02  0.26068155803E+02  0.47787267795E+02  0.19999985185E+02 0.  0.
         12    1    1    2    0    0 -0.32064777722E+02 -0.13263666107E+02 -0.26068155803E+02  0.43400732205E+02  0.00000000000E+00 0. -1.
         11    1    3    3    0    0  0.24390183221E+02  0.13317262698E+02  0.11584688458E+02  0.30107067779E+02  0.51100000000E-03 0. -1.
        -11    1    3    3    0    0  0.33727878354E+01 -0.14927150536E+01  0.15980639030E+01  0.40196647265E+01  0.51100000000E-03 0.  1.
        -12    1    3    3    0    0  0.43018066658E+01  0.14391184624E+01  0.12885403442E+02  0.13660535290E+02  0.00000000000E+00 0.  1.
</event>
<event>
 7    1  0.2237500E-009  0.4778726E+02  0.7816164E-02  0.1312668E+00
        -11   -1    0    0    0    0  0.00000000000E+00  0.00000000000E+00  0.45593999997E+02  0.45594000000E+02  0.51100000000E-03 0.  1.
         11   -1    0    0    0    0 -0.00000000000E+00 -0.00000000000E+00 -0.45593999997E+02  0.45594000000E+02  0.51100000000E-03 0. -1.
    9900012    2    1    2    0    0 -0.31918836857E+02  0.23464212851E+02 -0.17726889431E+02  0.47787262219E+02  0.19999959762E+02 0.  0.
         12    1    1    2    0    0  0.31918836857E+02 -0.23464212851E+02  0.17726889431E+02  0.43400737781E+02  0.00000000000E+00 0. -1.
         11    1    3    3    0    0 -0.51010090468E+01 -0.16021383074E+01 -0.72113287370E+01  0.89772157636E+01  0.51100000000E-03 0. -1.
        -11    1    3    3    0    0 -0.79465448331E+01  0.34900378095E+01 -0.29024962687E+01  0.91516350205E+01  0.51100000000E-03 0.  1.
         12    1    3    3    0    0 -0.18871282977E+02  0.21576313348E+02 -0.76130644250E+01  0.29658411435E+02  0.00000000000E+00 0. -1.
</event>
<event>
 7    1  0.2237500E-009  0.4778726E+02  0.7816164E-02  0.1312668E+00
        -11   -1    0    0    0    0  0.00000000000E+00  0.00000000000E+00  0.45593999997E+02  0.45594000000E+02  0.51100000000E-03 0.  1.
         11   -1    0    0    0    0 -0.00000000000E+00 -0.00000000000E+00 -0.45593999997E+02  0.45594000000E+02  0.51100000000E-03 0. -1.
    9900012    2    1    2    0    0 -0.42373791200E+02  0.42968311031E+01 -0.83440663684E+01  0.47787258281E+02  0.19999941808E+02 0.  0.
         12    1    1    2    0    0  0.42373791200E+02 -0.42968311031E+01  0.83440663684E+01  0.43400741719E+02  0.00000000000E+00 0. -1.
         11    1    3    3    0    0 -0.73087496794E+01  0.32098751390E+01 -0.73383790506E+01  0.10843105074E+02  0.51100000000E-03 0. -1.
        -11    1    3    3    0    0 -0.22780945368E+02  0.46138565487E+01 -0.45429996558E+01  0.23683285040E+02  0.51100000000E-03 0.  1.
         12    1    3    3    0    0 -0.12284096152E+02 -0.35269005845E+01  0.35373123381E+01  0.13260868168E+02  0.00000000000E+00 0. -1.
</event>
<event>
 7    1  0.2237500E-009  0.4778727E+02  0.7816164E-02  0.1312668E+00
        -11   -1    0    0    0    0  0.00000000000E+00  0.00000000000E+00  0.45593999997E+02  0.45594000000E+02  0.51100000000E-03 0. -1.
         11   -1    0    0    0    0 -0.00000000000E+00 -0.00000000000E+00 -0.45593999997E+02  0.45594000000E+02  0.51100000000E-03 0.  1.
    9900012    2    1    2    0    0 -0.41522855785E+02  0.89204354884E+01  0.89387638340E+01  0.47787271657E+02  0.20000002792E+02 0.  0.
         12    1    1    2    0    0  0.41522855785E+02 -0.89204354884E+01 -0.89387638340E+01  0.43400728343E+02  0.00000000000E+00 0. -1.
         11    1    3    3    0    0 -0.12510853841E+02 -0.15202385529E+01  0.19758348010E+00  0.12604428927E+02  0.51100000000E-03 0. -1.
        -11    1    3    3    0    0 -0.23921261297E+02  0.64429239606E+01  0.59861555559E+00  0.24780967536E+02  0.51100000000E-03 0.  1.
         12    1    3    3    0    0 -0.50907406471E+01  0.39977500806E+01  0.81425647983E+01  0.10401875193E+02  0.00000000000E+00 0. -1.
</event>
<event>
 7    1  0.2237500E-009  0.4778723E+02  0.7816164E-02  0.1312668E+00
        -11   -1    0    0    0    0  0.00000000000E+00  0.00000000000E+00  0.45593999997E+02  0.45594000000E+02  0.51100000000E-03 0.  1.
         11   -1    0    0    0    0 -0.00000000000E+00 -0.00000000000E+00 -0.45593999997E+02  0.45594000000E+02  0.51100000000E-03 0. -1.
    9900012    2    1    2    0    0 -0.37720796515E+02  0.18791052527E+02  0.10376140126E+02  0.47787234699E+02  0.19999834287E+02 0.  0.
         12    1    1    2    0    0  0.37720796515E+02 -0.18791052527E+02 -0.10376140126E+02  0.43400765301E+02  0.00000000000E+00 0. -1.
         11    1    3    3    0    0 -0.59605153334E+01  0.47103914676E+01  0.97873466842E+01  0.12389821879E+02  0.51100000000E-03 0. -1.
        -11    1    3    3    0    0 -0.16049178480E+01  0.19175760943E+01  0.14107626640E+01  0.28710818399E+01  0.51100000000E-03 0.  1.
        -12    1    3    3    0    0 -0.30155363333E+02  0.12163084965E+02 -0.82196922174E+00  0.32526330980E+02  0.00000000000E+00 0.  1.
</event>
<event>
 7    1  0.2237500E-009  0.4778727E+02  0.7816164E-02  0.1312668E+00
        -11   -1    0    0    0    0  0.00000000000E+00  0.00000000000E+00  0.45593999997E+02  0.45594000000E+02  0.51100000000E-03 0.  1.
         11   -1    0    0    0    0 -0.00000000000E+00 -0.00000000000E+00 -0.45593999997E+02  0.45594000000E+02  0.51100000000E-03 0. -1.
    9900012    2    1    2    0    0  0.28270490817E+02 -0.22550558594E+02  0.23997389066E+02  0.47787273901E+02  0.20000013023E+02 0.  0.
         12    1    1    2    0    0 -0.28270490817E+02  0.22550558594E+02 -0.23997389066E+02  0.43400726099E+02  0.00000000000E+00 0. -1.
         11    1    3    3    0    0  0.20360227981E+02 -0.16163539172E+02  0.15753601078E+02  0.30396954274E+02  0.51100000000E-03 0. -1.
        -11    1    3    3    0    0  0.75631729768E+01 -0.90283625816E+01  0.87580729957E+01  0.14677082791E+02  0.51100000000E-03 0.  1.
         12    1    3    3    0    0  0.34708985992E+00  0.26413431596E+01 -0.51428500718E+00  0.27132368357E+01  0.00000000000E+00 0. -1.
</event>
<event>
 7    1  0.2237500E-009  0.4778727E+02  0.7816164E-02  0.1312668E+00
        -11   -1    0    0    0    0  0.00000000000E+00  0.00000000000E+00  0.45593999997E+02  0.45594000000E+02  0.51100000000E-03 0.  1.
         11   -1    0    0    0    0 -0.00000000000E+00 -0.00000000000E+00 -0.45593999997E+02  0.45594000000E+02  0.51100000000E-03 0. -1.
    9900012    2    1    2    0    0  0.12596484976E+01  0.12271881419E+02  0.41610544325E+02  0.47787272046E+02  0.20000004569E+02 0.  0.
         12    1    1    2    0    0 -0.12596484976E+01 -0.12271881419E+02 -0.41610544325E+02  0.43400727954E+02  0.00000000000E+00 0. -1.
         11    1    3    3    0    0  0.34363075203E+01  0.36694130131E+01  0.24864693316E+02  0.25367809823E+02  0.51100000000E-03 0. -1.
        -11    1    3    3    0    0  0.20053154448E+01  0.20661977229E+01  0.13835620759E+02  0.14132050988E+02  0.51100000000E-03 0.  1.
         12    1    3    3    0    0 -0.41819744675E+01  0.65362706833E+01  0.29102302492E+01  0.82874112360E+01  0.00000000000E+00 0. -1.
</event>
<event>
 7    1  0.2237500E-009  0.4778727E+02  0.7816164E-02  0.1312668E+00
        -11   -1    0    0    0    0  0.00000000000E+00  0.00000000000E+00  0.45593999997E+02  0.45594000000E+02  0.51100000000E-03 0. -1.
         11   -1    0    0    0    0 -0.00000000000E+00 -0.00000000000E+00 -0.45593999997E+02  0.45594000000E+02  0.51100000000E-03 0.  1.
    9900012    2    1    2    0    0 -0.31839827724E+02 -0.29392722976E+02 -0.24323274341E+01  0.47787274082E+02  0.20000013848E+02 0.  0.
         12    1    1    2    0    0  0.31839827724E+02  0.29392722976E+02  0.24323274341E+01  0.43400725918E+02  0.00000000000E+00 0. -1.
         11    1    3    3    0    0 -0.11762842822E+02 -0.19066529779E+02 -0.91846611478E+00  0.22421877918E+02  0.51100000000E-03 0. -1.
        -11    1    3    3    0    0 -0.15916614368E+02 -0.12816254459E+02 -0.68630225619E+00  0.20446662377E+02  0.51100000000E-03 0.  1.
         12    1    3    3    0    0 -0.41603705337E+01  0.24900612619E+01 -0.82755906315E+00  0.49187337871E+01  0.00000000000E+00 0. -1.
</event>
<event>
 7    1  0.2237500E-009  0.4778727E+02  0.7816164E-02  0.1312668E+00
        -11   -1    0    0    0    0  0.00000000000E+00  0.00000000000E+00  0.45593999997E+02  0.45594000000E+02  0.51100000000E-03 0. -1.
         11   -1    0    0    0    0 -0.00000000000E+00 -0.00000000000E+00 -0.45593999997E+02  0.45594000000E+02  0.51100000000E-03 0.  1.
    9900012    2    1    2    0    0  0.29977775574E+02  0.31164730720E+02 -0.37035151913E+01  0.47787268508E+02  0.19999988436E+02 0.  0.
         12    1    1    2    0    0 -0.29977775574E+02 -0.31164730720E+02  0.37035151913E+01  0.43400731492E+02  0.00000000000E+00 0. -1.
         11    1    3    3    0    0  0.72806295904E+01  0.24754596961E+01 -0.67664323589E+00  0.77196706062E+01  0.51100000000E-03 0. -1.
        -11    1    3    3    0    0  0.97820838540E+01  0.78319654033E+01 -0.82269478123E+01  0.14990380821E+02  0.51100000000E-03 0.  1.
         12    1    3    3    0    0  0.12915062130E+02  0.20857305621E+02  0.52000758569E+01  0.25077217080E+02  0.00000000000E+00 0. -1.
</event>
<event>
 7    1  0.2237500E-009  0.4778727E+02  0.7816164E-02  0.1312668E+00
        -11   -1    0    0    0    0  0.00000000000E+00  0.00000000000E+00  0.45593999997E+02  0.45594000000E+02  0.51100000000E-03 0.  1.
         11   -1    0    0    0    0 -0.00000000000E+00 -0.00000000000E+00 -0.45593999997E+02  0.45594000000E+02  0.51100000000E-03 0. -1.
    9900012    2    1    2    0    0 -0.48660938102E+01 -0.22132633234E+02  0.37014741431E+02  0.47787269522E+02  0.19999993059E+02 0.  0.
         12    1    1    2    0    0  0.48660938102E+01  0.22132633234E+02 -0.37014741431E+02  0.43400730478E+02  0.00000000000E+00 0. -1.
         11    1    3    3    0    0 -0.48417576869E+00 -0.59051719420E+01  0.64004249935E+00  0.59594577355E+01  0.51100000000E-03 0. -1.
        -11    1    3    3    0    0 -0.47035227392E+00 -0.15601728508E+02  0.22395806665E+02  0.27298485674E+02  0.51100000000E-03 0.  1.
        -12    1    3    3    0    0 -0.39115657676E+01 -0.62573278426E+00  0.13978892267E+02  0.14529326112E+02  0.00000000000E+00 0.  1.
</event>
<event>
 7    1  0.2237500E-009  0.4778727E+02  0.7816164E-02  0.1312668E+00
        -11   -1    0    0    0    0  0.00000000000E+00  0.00000000000E+00  0.45593999997E+02  0.45594000000E+02  0.51100000000E-03 0.  1.
         11   -1    0    0    0    0 -0.00000000000E+00 -0.00000000000E+00 -0.45593999997E+02  0.45594000000E+02  0.51100000000E-03 0. -1.
    9900012    2    1    2    0    0 -0.34377742425E+02  0.21366078155E+02 -0.15661567049E+02  0.47787272444E+02  0.20000006382E+02 0.  0.
         12    1    1    2    0    0  0.34377742425E+02 -0.21366078155E+02  0.15661567049E+02  0.43400727556E+02  0.00000000000E+00 0. -1.
         11    1    3    3    0    0 -0.14354992239E+02  0.13441456490E+02 -0.79121470469E+01  0.21197656142E+02  0.51100000000E-03 0.  1.
        -11    1    3    3    0    0 -0.46706135388E+01  0.86165080036E+01 -0.49089354455E+01  0.10961591512E+02  0.51100000000E-03 0. -1.
        -12    1    3    3    0    0 -0.15352136647E+02 -0.69188633864E+00 -0.28404845565E+01  0.15628024791E+02  0.00000000000E+00 0.  1.
</event>
<event>
 7    1  0.2237500E-009  0.4778727E+02  0.7816164E-02  0.1312668E+00
        -11   -1    0    0    0    0  0.00000000000E+00  0.00000000000E+00  0.45593999997E+02  0.45594000000E+02  0.51100000000E-03 0.  1.
         11   -1    0    0    0    0 -0.00000000000E+00 -0.00000000000E+00 -0.45593999997E+02  0.45594000000E+02  0.51100000000E-03 0. -1.
    9900012    2    1    2    0    0 -0.94634482859E+01  0.59189334769E+01  0.41940822568E+02  0.47787271611E+02  0.20000002584E+02 0.  0.
         12    1    1    2    0    0  0.94634482859E+01 -0.59189334769E+01 -0.41940822568E+02  0.43400728389E+02  0.00000000000E+00 0. -1.
         11    1    3    3    0    0  0.26543655663E+00  0.28693049642E+01  0.78313874515E+01  0.83446987495E+01  0.51100000000E-03 0. -1.
        -11    1    3    3    0    0  0.45617159339E+00 -0.59752780257E+01  0.79539223305E+01  0.99587610026E+01  0.51100000000E-03 0.  1.
        -12    1    3    3    0    0 -0.10185056436E+02  0.90249065384E+01  0.26155512786E+02  0.29483811859E+02  0.00000000000E+00 0.  1.
</event>
<event>
 7    1  0.2237500E-009  0.4778727E+02  0.7816164E-02  0.1312668E+00
        -11   -1    0    0    0    0  0.00000000000E+00  0.00000000000E+00  0.45593999997E+02  0.45594000000E+02  0.51100000000E-03 0. -1.
         11   -1    0    0    0    0 -0.00000000000E+00 -0.00000000000E+00 -0.45593999997E+02  0.45594000000E+02  0.51100000000E-03 0.  1.
    9900012    2    1    2    0    0  0.16119588235E+01 -0.38739623594E+02 -0.19500418415E+02  0.47787272289E+02  0.20000005675E+02 0.  0.
         12    1    1    2    0    0 -0.16119588235E+01  0.38739623594E+02  0.19500418415E+02  0.43400727711E+02  0.00000000000E+00 0. -1.
         11    1    3    3    0    0 -0.37868374323E+01 -0.12244594795E+02 -0.40891695330E+01  0.13453309896E+02  0.51100000000E-03 0. -1.
        -11    1    3    3    0    0 -0.16650347701E+01  0.98412717176E+00  0.20967928472E+00  0.19454595188E+01  0.51100000000E-03 0.  1.
         12    1    3    3    0    0  0.70638310258E+01 -0.27479155971E+02 -0.15620928167E+02  0.32388502874E+02  0.00000000000E+00 0. -1.
</event>
<event>
 7    1  0.2237500E-009  0.4778727E+02  0.7816164E-02  0.1312668E+00
        -11   -1    0    0    0    0  0.00000000000E+00  0.00000000000E+00  0.45593999997E+02  0.45594000000E+02  0.51100000000E-03 0. -1.
         11   -1    0    0    0    0 -0.00000000000E+00 -0.00000000000E+00 -0.45593999997E+02  0.45594000000E+02  0.51100000000E-03 0.  1.
    9900012    2    1    2    0    0  0.29463931590E+02  0.12903520463E+02 -0.29137595135E+02  0.47787267802E+02  0.19999985216E+02 0.  0.
         12    1    1    2    0    0 -0.29463931590E+02 -0.12903520463E+02  0.29137595135E+02  0.43400732198E+02  0.00000000000E+00 0. -1.
         11    1    3    3    0    0  0.11250981649E+02  0.66709426729E+00 -0.43149128295E+01  0.12068474461E+02  0.51100000000E-03 0. -1.
        -11    1    3    3    0    0  0.72891836475E+01  0.80485449002E+01 -0.35198460457E+01  0.11414928371E+02  0.51100000000E-03 0.  1.
        -12    1    3    3    0    0  0.10923766294E+02  0.41878812951E+01 -0.21302836260E+02  0.24303864970E+02  0.00000000000E+00 0.  1.
</event>
<event>
 7    1  0.2237500E-009  0.4778727E+02  0.7816164E-02  0.1312668E+00
        -11   -1    0    0    0    0  0.00000000000E+00  0.00000000000E+00  0.45593999997E+02  0.45594000000E+02  0.51100000000E-03 0.  1.
         11   -1    0    0    0    0 -0.00000000000E+00 -0.00000000000E+00 -0.45593999997E+02  0.45594000000E+02  0.51100000000E-03 0. -1.
    9900012    2    1    2    0    0 -0.14337287550E+02  0.38731368725E+02  0.13339660007E+02  0.47787271127E+02  0.20000000376E+02 0.  0.
         12    1    1    2    0    0  0.14337287550E+02 -0.38731368725E+02 -0.13339660007E+02  0.43400728873E+02  0.00000000000E+00 0. -1.
         11    1    3    3    0    0 -0.86912473674E+01  0.28739541098E+02  0.78375406130E+01  0.31031049715E+02  0.51100000000E-03 0. -1.
        -11    1    3    3    0    0 -0.32707277232E+01  0.89049715800E+01  0.85297650409E+01  0.12757471168E+02  0.51100000000E-03 0.  1.
         12    1    3    3    0    0 -0.23753124597E+01  0.10868560470E+01 -0.30276456471E+01  0.39987502438E+01  0.00000000000E+00 0. -1.
</event>
<event>
 7    1  0.2237500E-009  0.4778727E+02  0.7816164E-02  0.1312668E+00
        -11   -1    0    0    0    0  0.00000000000E+00  0.00000000000E+00  0.45593999997E+02  0.45594000000E+02  0.51100000000E-03 0.  1.
         11   -1    0    0    0    0 -0.00000000000E+00 -0.00000000000E+00 -0.45593999997E+02  0.45594000000E+02  0.51100000000E-03 0. -1.
    9900012    2    1    2    0    0  0.84705178276E+01 -0.17693957247E+02  0.38714304015E+02  0.47787272694E+02  0.20000007522E+02 0.  0.
         12    1    1    2    0    0 -0.84705178276E+01  0.17693957247E+02 -0.38714304015E+02  0.43400727306E+02  0.00000000000E+00 0. -1.
         11    1    3    3    0    0 -0.10234888943E+01 -0.73179597772E+01  0.40836504454E+01  0.84425272306E+01  0.51100000000E-03 0. -1.
        -11    1    3    3    0    0  0.51587038363E+01 -0.57225823728E+01  0.53464867294E+01  0.93779046110E+01  0.51100000000E-03 0.  1.
        -12    1    3    3    0    0  0.43353028856E+01 -0.46534150969E+01  0.29284166840E+02  0.29966840853E+02  0.00000000000E+00 0.  1.
</event>
<event>
 7    1  0.2237500E-009  0.4778727E+02  0.7816164E-02  0.1312668E+00
        -11   -1    0    0    0    0  0.00000000000E+00  0.00000000000E+00  0.45593999997E+02  0.45594000000E+02  0.51100000000E-03 0.  1.
         11   -1    0    0    0    0 -0.00000000000E+00 -0.00000000000E+00 -0.45593999997E+02  0.45594000000E+02  0.51100000000E-03 0. -1.
    9900012    2    1    2    0    0  0.16945686526E+02  0.19642646144E+02  0.34794159268E+02  0.47787270069E+02  0.19999995551E+02 0.  0.
         12    1    1    2    0    0 -0.16945686526E+02 -0.19642646144E+02 -0.34794159268E+02  0.43400729931E+02  0.00000000000E+00 0. -1.
         11    1    3    3    0    0 -0.17385693890E+01  0.33893263941E+01 -0.33253833817E+00  0.38237074853E+01  0.51100000000E-03 0. -1.
        -11    1    3    3    0    0  0.25137006404E+01  0.77158827753E+01  0.97574367239E+01  0.12690985367E+02  0.51100000000E-03 0.  1.
        -12    1    3    3    0    0  0.16170555275E+02  0.85374369748E+01  0.25369260883E+02  0.31272577216E+02  0.00000000000E+00 0.  1.
</event>
<event>
 7    1  0.2237500E-009  0.4778727E+02  0.7816164E-02  0.1312668E+00
        -11   -1    0    0    0    0  0.00000000000E+00  0.00000000000E+00  0.45593999997E+02  0.45594000000E+02  0.51100000000E-03 0. -1.
         11   -1    0    0    0    0 -0.00000000000E+00 -0.00000000000E+00 -0.45593999997E+02  0.45594000000E+02  0.51100000000E-03 0.  1.
    9900012    2    1    2    0    0  0.92098378972E+01  0.42279433558E+02  0.33543810834E+01  0.47787268571E+02  0.19999988724E+02 0.  0.
         12    1    1    2    0    0 -0.92098378972E+01 -0.42279433558E+02 -0.33543810834E+01  0.43400731429E+02  0.00000000000E+00 0. -1.
         11    1    3    3    0    0  0.61819662111E+01  0.17283890953E+02  0.62445666206E+01  0.19389280679E+02  0.51100000000E-03 0. -1.
        -11    1    3    3    0    0  0.20364310367E+01  0.15566287452E+02  0.45511334014E+01  0.16345310395E+02  0.51100000000E-03 0.  1.
        -12    1    3    3    0    0  0.99144064940E+00  0.94292551528E+01 -0.74413189386E+01  0.12052677497E+02  0.00000000000E+00 0.  1.
</event>
<event>
 7    1  0.2237500E-009  0.4778727E+02  0.7816164E-02  0.1312668E+00
        -11   -1    0    0    0    0  0.00000000000E+00  0.00000000000E+00  0.45593999997E+02  0.45594000000E+02  0.51100000000E-03 0. -1.
         11   -1    0    0    0    0 -0.00000000000E+00 -0.00000000000E+00 -0.45593999997E+02  0.45594000000E+02  0.51100000000E-03 0.  1.
    9900012    2    1    2    0    0  0.27421755719E+02  0.30408711764E+02 -0.14386821489E+02  0.47787273388E+02  0.20000010687E+02 0.  0.
         12    1    1    2    0    0 -0.27421755719E+02 -0.30408711764E+02  0.14386821489E+02  0.43400726612E+02  0.00000000000E+00 0. -1.
         11    1    3    3    0    0  0.11421856262E+02  0.79243457709E+01 -0.93191940935E+01  0.16736231212E+02  0.51100000000E-03 0. -1.
        -11    1    3    3    0    0  0.17601664933E+01 -0.16090429031E+01 -0.15494767720E+01  0.28439556389E+01  0.51100000000E-03 0.  1.
        -12    1    3    3    0    0  0.14239732964E+02  0.24093408896E+02 -0.35181506238E+01  0.28207086537E+02  0.00000000000E+00 0.  1.
</event>
<event>
 7    1  0.2237500E-009  0.4778727E+02  0.7816164E-02  0.1312668E+00
        -11   -1    0    0    0    0  0.00000000000E+00  0.00000000000E+00  0.45593999997E+02  0.45594000000E+02  0.51100000000E-03 0.  1.
         11   -1    0    0    0    0 -0.00000000000E+00 -0.00000000000E+00 -0.45593999997E+02  0.45594000000E+02  0.51100000000E-03 0. -1.
    9900012    2    1    2    0    0  0.33807534940E+02 -0.13019456448E+01  0.27184164386E+02  0.47787271037E+02  0.19999999965E+02 0.  0.
         12    1    1    2    0    0 -0.33807534940E+02  0.13019456448E+01 -0.27184164386E+02  0.43400728963E+02  0.00000000000E+00 0. -1.
         11    1    3    3    0    0  0.22026203285E+02 -0.50610947397E+01  0.77776961184E+01  0.23901064167E+02  0.51100000000E-03 0.  1.
        -11    1    3    3    0    0  0.52667520515E+01  0.34784714745E+01  0.49299464512E+01  0.80089208539E+01  0.51100000000E-03 0. -1.
        -12    1    3    3    0    0  0.65145796028E+01  0.28067762037E+00  0.14476521817E+02  0.15877286016E+02  0.00000000000E+00 0.  1.
</event>
<event>
 7    1  0.2237500E-009  0.4778726E+02  0.7816164E-02  0.1312668E+00
        -11   -1    0    0    0    0  0.00000000000E+00  0.00000000000E+00  0.45593999997E+02  0.45594000000E+02  0.51100000000E-03 0. -1.
         11   -1    0    0    0    0 -0.00000000000E+00 -0.00000000000E+00 -0.45593999997E+02  0.45594000000E+02  0.51100000000E-03 0.  1.
    9900012    2    1    2    0    0 -0.18642375254E+02  0.19340941470E+02  0.34088322607E+02  0.47787263713E+02  0.19999966575E+02 0.  0.
         12    1    1    2    0    0  0.18642375254E+02 -0.19340941470E+02 -0.34088322607E+02  0.43400736287E+02  0.00000000000E+00 0. -1.
         11    1    3    3    0    0 -0.14753571158E+01 -0.17722287292E+01 -0.27825296589E+00  0.23226920291E+01  0.51100000000E-03 0. -1.
        -11    1    3    3    0    0  0.15179378204E+01  0.11202090245E+01  0.55463809498E+00  0.19663741156E+01  0.51100000000E-03 0.  1.
        -12    1    3    3    0    0 -0.18684955958E+02  0.19992961175E+02  0.33811937478E+02  0.43498197569E+02  0.00000000000E+00 0.  1.
</event>
<event>
 7    1  0.2237500E-009  0.4778727E+02  0.7816164E-02  0.1312668E+00
        -11   -1    0    0    0    0  0.00000000000E+00  0.00000000000E+00  0.45593999997E+02  0.45594000000E+02  0.51100000000E-03 0.  1.
         11   -1    0    0    0    0 -0.00000000000E+00 -0.00000000000E+00 -0.45593999997E+02  0.45594000000E+02  0.51100000000E-03 0. -1.
    9900012    2    1    2    0    0  0.29123937099E+02 -0.13637029322E+02  0.29145345848E+02  0.47787268838E+02  0.19999989938E+02 0.  0.
         12    1    1    2    0    0 -0.29123937099E+02  0.13637029322E+02 -0.29145345848E+02  0.43400731162E+02  0.00000000000E+00 0. -1.
         11    1    3    3    0    0  0.13359434445E+02 -0.97261088373E+01  0.11007017154E+02  0.19855128020E+02  0.51100000000E-03 0. -1.
        -11    1    3    3    0    0  0.37705085983E+01 -0.73043240890E+01  0.41919500610E+01  0.92272602143E+01  0.51100000000E-03 0.  1.
         12    1    3    3    0    0  0.11993994055E+02  0.33934036039E+01  0.13946378633E+02  0.18704880603E+02  0.00000000000E+00 0. -1.
</event>
<event>
 7    1  0.2237500E-009  0.4778732E+02  0.7816164E-02  0.1312668E+00
        -11   -1    0    0    0    0  0.00000000000E+00  0.00000000000E+00  0.45593999997E+02  0.45594000000E+02  0.51100000000E-03 0.  1.
         11   -1    0    0    0    0 -0.00000000000E+00 -0.00000000000E+00 -0.45593999997E+02  0.45594000000E+02  0.51100000000E-03 0. -1.
    9900012    2    1    2    0    0  0.60060703338E+01 -0.13941973051E+02  0.40659166368E+02  0.47787316789E+02  0.20000208567E+02 0.  0.
         12    1    1    2    0    0 -0.60060703338E+01  0.13941973051E+02 -0.40659166368E+02  0.43400683211E+02  0.00000000000E+00 0. -1.
         11    1    3    3    0    0 -0.28695912901E+01  0.78221359129E+00 -0.59144696957E+00  0.30325273376E+01  0.51100000000E-03 0. -1.
        -11    1    3    3    0    0  0.29334358465E+00 -0.46551643394E+00  0.28556330834E+01  0.29081603424E+01  0.51100000000E-03 0.  1.
        -12    1    3    3    0    0  0.85823180393E+01 -0.14258670209E+02  0.38394980254E+02  0.41846629109E+02  0.00000000000E+00 0.  1.
</event>
<event>
 7    1  0.2237500E-009  0.4778727E+02  0.7816164E-02  0.1312668E+00
        -11   -1    0    0    0    0  0.00000000000E+00  0.00000000000E+00  0.45593999997E+02  0.45594000000E+02  0.51100000000E-03 0.  1.
         11   -1    0    0    0    0 -0.00000000000E+00 -0.00000000000E+00 -0.45593999997E+02  0.45594000000E+02  0.51100000000E-03 0. -1.
    9900012    2    1    2    0    0  0.13246567114E+02  0.12691921867E+02  0.39332775323E+02  0.47787266877E+02  0.19999980998E+02 0.  0.
         12    1    1    2    0    0 -0.13246567114E+02 -0.12691921867E+02 -0.39332775323E+02  0.43400733123E+02  0.00000000000E+00 0. -1.
         11    1    3    3    0    0  0.27431158245E+01  0.63343678827E+01  0.24274655201E+01  0.73172050684E+01  0.51100000000E-03 0. -1.
        -11    1    3    3    0    0  0.41304091459E+01  0.85548106366E+01  0.25621641079E+02  0.27326060027E+02  0.51100000000E-03 0.  1.
        -12    1    3    3    0    0  0.63730421437E+01 -0.21972566522E+01  0.11283668724E+02  0.13144001782E+02  0.00000000000E+00 0.  1.
</event>
<event>
 7    1  0.2237500E-009  0.4778727E+02  0.7816164E-02  0.1312668E+00
        -11   -1    0    0    0    0  0.00000000000E+00  0.00000000000E+00  0.45593999997E+02  0.45594000000E+02  0.51100000000E-03 0.  1.
         11   -1    0    0    0    0 -0.00000000000E+00 -0.00000000000E+00 -0.45593999997E+02  0.45594000000E+02  0.51100000000E-03 0. -1.
    9900012    2    1    2    0    0  0.40348459339E+02 -0.93921538765E+01  0.12938795987E+02  0.47787272275E+02  0.20000005610E+02 0.  0.
         12    1    1    2    0    0 -0.40348459339E+02  0.93921538765E+01 -0.12938795987E+02  0.43400727725E+02  0.00000000000E+00 0. -1.
         11    1    3    3    0    0  0.19046178737E+02 -0.64380487850E+01 -0.31434012396E+01  0.20349112223E+02  0.51100000000E-03 0. -1.
        -11    1    3    3    0    0  0.95816698240E+01 -0.36890414024E+01  0.55912158558E+01  0.11690984479E+02  0.51100000000E-03 0.  1.
        -12    1    3    3    0    0  0.11720610778E+02  0.73493631089E+00  0.10490981371E+02  0.15747175573E+02  0.00000000000E+00 0.  1.
</event>
<event>
 7    1  0.2237500E-009  0.4778724E+02  0.7816164E-02  0.1312668E+00
        -11   -1    0    0    0    0  0.00000000000E+00  0.00000000000E+00  0.45593999997E+02  0.45594000000E+02  0.51100000000E-03 0. -1.
         11   -1    0    0    0    0 -0.00000000000E+00 -0.00000000000E+00 -0.45593999997E+02  0.45594000000E+02  0.51100000000E-03 0.  1.
    9900012    2    1    2    0    0  0.18314946466E+02  0.20250595655E+02 -0.33735768101E+02  0.47787240354E+02  0.19999860071E+02 0.  0.
         12    1    1    2    0    0 -0.18314946466E+02 -0.20250595655E+02  0.33735768101E+02  0.43400759646E+02  0.00000000000E+00 0. -1.
         11    1    3    3    0    0  0.14853883418E+01 -0.16902248620E+01 -0.34960027296E+01  0.41575562481E+01  0.51100000000E-03 0. -1.
        -11    1    3    3    0    0  0.72618858685E+01  0.96025700150E+01 -0.23933505761E+02  0.26790987954E+02  0.51100000000E-03 0.  1.
         12    1    3    3    0    0  0.95676722556E+01  0.12338250502E+02 -0.63062596105E+01  0.16838696152E+02  0.00000000000E+00 0. -1.
</event>
<event>
 7    1  0.2237500E-009  0.4778727E+02  0.7816164E-02  0.1312668E+00
        -11   -1    0    0    0    0  0.00000000000E+00  0.00000000000E+00  0.45593999997E+02  0.45594000000E+02  0.51100000000E-03 0.  1.
         11   -1    0    0    0    0 -0.00000000000E+00 -0.00000000000E+00 -0.45593999997E+02  0.45594000000E+02  0.51100000000E-03 0. -1.
    9900012    2    1    2    0    0  0.28856149293E+02 -0.19941157997E+02  0.25559657115E+02  0.47787271825E+02  0.20000003559E+02 0.  0.
         12    1    1    2    0    0 -0.28856149293E+02  0.19941157997E+02 -0.25559657115E+02  0.43400728175E+02  0.00000000000E+00 0. -1.
         11    1    3    3    0    0  0.18441255752E+02 -0.15028355921E+02  0.91502658546E+01  0.25488404439E+02  0.51100000000E-03 0. -1.
        -11    1    3    3    0    0  0.10255138529E+02 -0.47465876171E+01  0.79037756162E+01  0.13790127973E+02  0.51100000000E-03 0.  1.
        -12    1    3    3    0    0  0.15975501276E+00 -0.16621445860E+00  0.85056156441E+01  0.85087394128E+01  0.00000000000E+00 0.  1.
</event>
<event>
 7    1  0.2237500E-009  0.4778726E+02  0.7816164E-02  0.1312668E+00
        -11   -1    0    0    0    0  0.00000000000E+00  0.00000000000E+00  0.45593999997E+02  0.45594000000E+02  0.51100000000E-03 0.  1.
         11   -1    0    0    0    0 -0.00000000000E+00 -0.00000000000E+00 -0.45593999997E+02  0.45594000000E+02  0.51100000000E-03 0. -1.
    9900012    2    1    2    0    0 -0.39362262090E+02 -0.43095180086E+01  0.17766942124E+02  0.47787264352E+02  0.19999969488E+02 0.  0.
         12    1    1    2    0    0  0.39362262090E+02  0.43095180086E+01 -0.17766942124E+02  0.43400735648E+02  0.00000000000E+00 0. -1.
         11    1    3    3    0    0  0.83268697904E+00 -0.12104961345E+01 -0.10889088188E+01  0.18287676653E+01  0.51100000000E-03 0. -1.
        -11    1    3    3    0    0 -0.81100372504E+01  0.68811445105E+00  0.91025171312E+01  0.12210733970E+02  0.51100000000E-03 0.  1.
         12    1    3    3    0    0 -0.32084911819E+02 -0.37871363251E+01  0.97533338112E+01  0.33747762717E+02  0.00000000000E+00 0. -1.
</event>
<event>
 7    1  0.2237500E-009  0.4778727E+02  0.7816164E-02  0.1312668E+00
        -11   -1    0    0    0    0  0.00000000000E+00  0.00000000000E+00  0.45593999997E+02  0.45594000000E+02  0.51100000000E-03 0.  1.
         11   -1    0    0    0    0 -0.00000000000E+00 -0.00000000000E+00 -0.45593999997E+02  0.45594000000E+02  0.51100000000E-03 0. -1.
    9900012    2    1    2    0    0 -0.17835779956E+02 -0.25642348703E+02  0.30132671424E+02  0.47787274421E+02  0.20000015395E+02 0.  0.
         12    1    1    2    0    0  0.17835779956E+02  0.25642348703E+02 -0.30132671424E+02  0.43400725579E+02  0.00000000000E+00 0. -1.
         11    1    3    3    0    0 -0.58558672665E+01 -0.10212793538E+02  0.58435249773E+01  0.13143025440E+02  0.51100000000E-03 0.  1.
        -11    1    3    3    0    0 -0.19657197370E+01 -0.32796363191E+01 -0.17577737522E+01  0.42083057511E+01  0.51100000000E-03 0. -1.
        -12    1    3    3    0    0 -0.10014192953E+02 -0.12149918846E+02  0.26046920198E+02  0.30435943230E+02  0.00000000000E+00 0.  1.
</event>
<event>
 7    1  0.2237500E-009  0.4778727E+02  0.7816164E-02  0.1312668E+00
        -11   -1    0    0    0    0  0.00000000000E+00  0.00000000000E+00  0.45593999997E+02  0.45594000000E+02  0.51100000000E-03 0.  1.
         11   -1    0    0    0    0 -0.00000000000E+00 -0.00000000000E+00 -0.45593999997E+02  0.45594000000E+02  0.51100000000E-03 0. -1.
    9900012    2    1    2    0    0 -0.46292866641E+01  0.81928186762E+01  0.42368270778E+02  0.47787274873E+02  0.20000017455E+02 0.  0.
         12    1    1    2    0    0  0.46292866641E+01 -0.81928186762E+01 -0.42368270778E+02  0.43400725127E+02  0.00000000000E+00 0. -1.
         11    1    3    3    0    0  0.37724814658E+01  0.25347278109E+01  0.11706324760E+02  0.12557647117E+02  0.51100000000E-03 0. -1.
        -11    1    3    3    0    0  0.21728624793E+01 -0.24230423183E+01  0.25787087882E+01  0.41523733823E+01  0.51100000000E-03 0.  1.
        -12    1    3    3    0    0 -0.10574630609E+02  0.80811331837E+01  0.28083237230E+02  0.31077254373E+02  0.00000000000E+00 0.  1.
</event>
<event>
 7    1  0.2237500E-009  0.4778727E+02  0.7816164E-02  0.1312668E+00
        -11   -1    0    0    0    0  0.00000000000E+00  0.00000000000E+00  0.45593999997E+02  0.45594000000E+02  0.51100000000E-03 0.  1.
         11   -1    0    0    0    0 -0.00000000000E+00 -0.00000000000E+00 -0.45593999997E+02  0.45594000000E+02  0.51100000000E-03 0. -1.
    9900012    2    1    2    0    0  0.96641456154E+01 -0.21356560172E+02  0.36525678923E+02  0.47787267360E+02  0.19999983203E+02 0.  0.
         12    1    1    2    0    0 -0.96641456154E+01  0.21356560172E+02 -0.36525678923E+02  0.43400732640E+02  0.00000000000E+00 0. -1.
         11    1    3    3    0    0 -0.29256346197E+00 -0.30570258686E+01 -0.13185007814E+01  0.33420719789E+01  0.51100000000E-03 0. -1.
        -11    1    3    3    0    0  0.20417742426E+00 -0.34831381365E+01  0.11248543930E+01  0.36659565416E+01  0.51100000000E-03 0.  1.
        -12    1    3    3    0    0  0.97525316531E+01 -0.14816396167E+02  0.36719325311E+02  0.40779238840E+02  0.00000000000E+00 0.  1.
</event>
<event>
 7    1  0.2237500E-009  0.4778726E+02  0.7816164E-02  0.1312668E+00
        -11   -1    0    0    0    0  0.00000000000E+00  0.00000000000E+00  0.45593999997E+02  0.45594000000E+02  0.51100000000E-03 0.  1.
         11   -1    0    0    0    0 -0.00000000000E+00 -0.00000000000E+00 -0.45593999997E+02  0.45594000000E+02  0.51100000000E-03 0. -1.
    9900012    2    1    2    0    0  0.38845701056E+02  0.50448356706E+01  0.18686492644E+02  0.47787264237E+02  0.19999968960E+02 0.  0.
         12    1    1    2    0    0 -0.38845701056E+02 -0.50448356706E+01 -0.18686492644E+02  0.43400735763E+02  0.00000000000E+00 0. -1.
         11    1    3    3    0    0  0.15418072247E+02  0.70920197949E+01  0.48473693256E+01  0.17649665329E+02  0.51100000000E-03 0. -1.
        -11    1    3    3    0    0  0.97547404465E+00  0.26225545652E+01  0.46612663353E+01  0.54366116441E+01  0.51100000000E-03 0.  1.
        -12    1    3    3    0    0  0.22452154764E+02 -0.46697386895E+01  0.91778569833E+01  0.24700987264E+02  0.00000000000E+00 0.  1.
</event>
<event>
 7    1  0.2237500E-009  0.4778727E+02  0.7816164E-02  0.1312668E+00
        -11   -1    0    0    0    0  0.00000000000E+00  0.00000000000E+00  0.45593999997E+02  0.45594000000E+02  0.51100000000E-03 0.  1.
         11   -1    0    0    0    0 -0.00000000000E+00 -0.00000000000E+00 -0.45593999997E+02  0.45594000000E+02  0.51100000000E-03 0. -1.
    9900012    2    1    2    0    0  0.33081120764E+02 -0.22212883122E+02  0.17200304897E+02  0.47787271709E+02  0.20000003031E+02 0.  0.
         12    1    1    2    0    0 -0.33081120764E+02  0.22212883122E+02 -0.17200304897E+02  0.43400728291E+02  0.00000000000E+00 0. -1.
         11    1    3    3    0    0  0.21519985108E+01  0.71399669610E+00  0.38884204647E+00  0.23004537098E+01  0.51100000000E-03 0. -1.
        -11    1    3    3    0    0  0.10094094005E+02 -0.14563522910E+02  0.48345430339E+00  0.17726270382E+02  0.51100000000E-03 0.  1.
         12    1    3    3    0    0  0.20835028248E+02 -0.83633569082E+01  0.16328008548E+02  0.27760547617E+02  0.00000000000E+00 0. -1.
</event>
<event>
 7    1  0.2237500E-009  0.4778727E+02  0.7816164E-02  0.1312668E+00
        -11   -1    0    0    0    0  0.00000000000E+00  0.00000000000E+00  0.45593999997E+02  0.45594000000E+02  0.51100000000E-03 0.  1.
         11   -1    0    0    0    0 -0.00000000000E+00 -0.00000000000E+00 -0.45593999997E+02  0.45594000000E+02  0.51100000000E-03 0. -1.
    9900012    2    1    2    0    0 -0.30434395378E+02  0.27677153834E+02  0.13832792432E+02  0.47787269444E+02  0.19999992702E+02 0.  0.
         12    1    1    2    0    0  0.30434395378E+02 -0.27677153834E+02 -0.13832792432E+02  0.43400730556E+02  0.00000000000E+00 0. -1.
         11    1    3    3    0    0 -0.12439333010E+02  0.50790965873E+01 -0.22095417948E+01  0.13616765515E+02  0.51100000000E-03 0. -1.
        -11    1    3    3    0    0 -0.11996823105E+02  0.92926189655E+01  0.53982433154E+01  0.16106444766E+02  0.51100000000E-03 0.  1.
        -12    1    3    3    0    0 -0.59982392621E+01  0.13305438281E+02  0.10644090912E+02  0.18064059163E+02  0.00000000000E+00 0.  1.
</event>
<event>
 7    1  0.2237500E-009  0.4778727E+02  0.7816164E-02  0.1312668E+00
        -11   -1    0    0    0    0  0.00000000000E+00  0.00000000000E+00  0.45593999997E+02  0.45594000000E+02  0.51100000000E-03 0.  1.
         11   -1    0    0    0    0 -0.00000000000E+00 -0.00000000000E+00 -0.45593999997E+02  0.45594000000E+02  0.51100000000E-03 0. -1.
    9900012    2    1    2    0    0 -0.21211177631E+02  0.37731182775E+02 -0.31728344620E+01  0.47787273179E+02  0.20000009733E+02 0.  0.
         12    1    1    2    0    0  0.21211177631E+02 -0.37731182775E+02  0.31728344620E+01  0.43400726821E+02  0.00000000000E+00 0. -1.
         11    1    3    3    0    0 -0.30338139644E+01  0.12468457644E+02 -0.38102233390E+01  0.13385972708E+02  0.51100000000E-03 0. -1.
        -11    1    3    3    0    0 -0.17859616866E+01  0.13006644160E+02 -0.33508140269E+01  0.13549553733E+02  0.51100000000E-03 0.  1.
        -12    1    3    3    0    0 -0.16391401980E+02  0.12256080970E+02  0.39882029039E+01  0.20851746738E+02  0.00000000000E+00 0.  1.
</event>
<event>
 7    1  0.2237500E-009  0.4778727E+02  0.7816164E-02  0.1312668E+00
        -11   -1    0    0    0    0  0.00000000000E+00  0.00000000000E+00  0.45593999997E+02  0.45594000000E+02  0.51100000000E-03 0. -1.
         11   -1    0    0    0    0 -0.00000000000E+00 -0.00000000000E+00 -0.45593999997E+02  0.45594000000E+02  0.51100000000E-03 0.  1.
    9900012    2    1    2    0    0  0.23288884060E+02  0.30469439328E+02 -0.20319059935E+02  0.47787273619E+02  0.20000011740E+02 0.  0.
         12    1    1    2    0    0 -0.23288884060E+02 -0.30469439328E+02  0.20319059935E+02  0.43400726381E+02  0.00000000000E+00 0. -1.
         11    1    3    3    0    0 -0.46772332923E+00  0.23925311770E+01 -0.53155278264E+01  0.58478890961E+01  0.51100000000E-03 0. -1.
        -11    1    3    3    0    0  0.16855345961E+01  0.70583343016E+01 -0.77357898073E+01  0.10606769263E+02  0.51100000000E-03 0.  1.
         12    1    3    3    0    0  0.22071072793E+02  0.21018573850E+02 -0.72677423010E+01  0.31332615261E+02  0.00000000000E+00 0. -1.
</event>
<event>
 7    1  0.2237500E-009  0.4778727E+02  0.7816164E-02  0.1312668E+00
        -11   -1    0    0    0    0  0.00000000000E+00  0.00000000000E+00  0.45593999997E+02  0.45594000000E+02  0.51100000000E-03 0.  1.
         11   -1    0    0    0    0 -0.00000000000E+00 -0.00000000000E+00 -0.45593999997E+02  0.45594000000E+02  0.51100000000E-03 0. -1.
    9900012    2    1    2    0    0  0.41050767418E+02  0.72751534580E+01  0.12063567759E+02  0.47787273848E+02  0.20000012783E+02 0.  0.
         12    1    1    2    0    0 -0.41050767418E+02 -0.72751534580E+01 -0.12063567759E+02  0.43400726152E+02  0.00000000000E+00 0. -1.
         11    1    3    3    0    0  0.22771328502E+02  0.68075901459E+01  0.98666439136E+01  0.25733778342E+02  0.51100000000E-03 0. -1.
        -11    1    3    3    0    0  0.17175646018E+02  0.31182391427E+01  0.48779032190E+01  0.18125125422E+02  0.51100000000E-03 0.  1.
         12    1    3    3    0    0  0.11037928976E+01 -0.26506758306E+01 -0.26809793733E+01  0.39283700844E+01  0.00000000000E+00 0. -1.
</event>
<event>
 7    1  0.2237500E-009  0.4778727E+02  0.7816164E-02  0.1312668E+00
        -11   -1    0    0    0    0  0.00000000000E+00  0.00000000000E+00  0.45593999997E+02  0.45594000000E+02  0.51100000000E-03 0.  1.
         11   -1    0    0    0    0 -0.00000000000E+00 -0.00000000000E+00 -0.45593999997E+02  0.45594000000E+02  0.51100000000E-03 0. -1.
    9900012    2    1    2    0    0 -0.40350489000E+01 -0.42112350987E+02 -0.96897850936E+01  0.47787266591E+02  0.19999979697E+02 0.  0.
         12    1    1    2    0    0  0.40350489000E+01  0.42112350987E+02  0.96897850936E+01  0.43400733409E+02  0.00000000000E+00 0. -1.
         11    1    3    3    0    0 -0.28507596446E+01 -0.18602768428E+02 -0.11846279838E+02  0.22237899406E+02  0.51100000000E-03 0. -1.
        -11    1    3    3    0    0  0.28891337739E+01 -0.25638832659E+01 -0.97198430803E+00  0.39831325763E+01  0.51100000000E-03 0.  1.
        -12    1    3    3    0    0 -0.40734230293E+01 -0.20945699292E+02  0.31284790523E+01  0.21566234609E+02  0.00000000000E+00 0.  1.
</event>
<event>
 7    1  0.2237500E-009  0.4778728E+02  0.7816164E-02  0.1312668E+00
        -11   -1    0    0    0    0  0.00000000000E+00  0.00000000000E+00  0.45593999997E+02  0.45594000000E+02  0.51100000000E-03 0. -1.
         11   -1    0    0    0    0 -0.00000000000E+00 -0.00000000000E+00 -0.45593999997E+02  0.45594000000E+02  0.51100000000E-03 0.  1.
    9900012    2    1    2    0    0  0.40458598835E+02 -0.15398040320E+02 -0.31023914426E+01  0.47787277678E+02  0.20000030245E+02 0.  0.
         12    1    1    2    0    0 -0.40458598835E+02  0.15398040320E+02  0.31023914426E+01  0.43400722322E+02  0.00000000000E+00 0. -1.
         11    1    3    3    0    0  0.33005087850E+01 -0.47422706992E+01 -0.27249013886E+00  0.57841802152E+01  0.51100000000E-03 0. -1.
        -11    1    3    3    0    0  0.50950462165E+01  0.11775157862E+01 -0.56639169930E+01  0.77088258081E+01  0.51100000000E-03 0.  1.
         12    1    3    3    0    0  0.32063043834E+02 -0.11833285407E+02  0.28340156892E+01  0.34294271655E+02  0.00000000000E+00 0. -1.
</event>
<event>
 7    1  0.2237500E-009  0.4778727E+02  0.7816164E-02  0.1312668E+00
        -11   -1    0    0    0    0  0.00000000000E+00  0.00000000000E+00  0.45593999997E+02  0.45594000000E+02  0.51100000000E-03 0. -1.
         11   -1    0    0    0    0 -0.00000000000E+00 -0.00000000000E+00 -0.45593999997E+02  0.45594000000E+02  0.51100000000E-03 0.  1.
    9900012    2    1    2    0    0 -0.40196427709E+02 -0.14539756594E+02 -0.75143865927E+01  0.47787270418E+02  0.19999997145E+02 0.  0.
         12    1    1    2    0    0  0.40196427709E+02  0.14539756594E+02  0.75143865927E+01  0.43400729582E+02  0.00000000000E+00 0. -1.
         11    1    3    3    0    0 -0.91240408000E+00 -0.29331864304E+01 -0.14979569196E+01  0.34175925788E+01  0.51100000000E-03 0. -1.
        -11    1    3    3    0    0 -0.35762893056E+02 -0.13544637698E+02 -0.14261924986E+01  0.38268469467E+02  0.51100000000E-03 0.  1.
        -12    1    3    3    0    0 -0.35211305734E+01  0.19380675340E+01 -0.45902371745E+01  0.61012083721E+01  0.00000000000E+00 0.  1.
</event>
<event>
 7    1  0.2237500E-009  0.4778727E+02  0.7816164E-02  0.1312668E+00
        -11   -1    0    0    0    0  0.00000000000E+00  0.00000000000E+00  0.45593999997E+02  0.45594000000E+02  0.51100000000E-03 0.  1.
         11   -1    0    0    0    0 -0.00000000000E+00 -0.00000000000E+00 -0.45593999997E+02  0.45594000000E+02  0.51100000000E-03 0. -1.
    9900012    2    1    2    0    0  0.11151633920E+02 -0.35550005508E+02  0.22258958727E+02  0.47787273344E+02  0.20000010483E+02 0.  0.
         12    1    1    2    0    0 -0.11151633920E+02  0.35550005508E+02 -0.22258958727E+02  0.43400726656E+02  0.00000000000E+00 0. -1.
         11    1    3    3    0    0 -0.32732043941E+01 -0.74709727480E+01  0.10573187362E+02  0.13353710797E+02  0.51100000000E-03 0. -1.
        -11    1    3    3    0    0  0.58969573237E+01 -0.95157543463E+01  0.77861708966E+01  0.13636280429E+02  0.51100000000E-03 0.  1.
        -12    1    3    3    0    0  0.85278809900E+01 -0.18563278414E+02  0.38996004690E+01  0.20797282117E+02  0.00000000000E+00 0.  1.
</event>
<event>
 7    1  0.2237500E-009  0.4778727E+02  0.7816164E-02  0.1312668E+00
        -11   -1    0    0    0    0  0.00000000000E+00  0.00000000000E+00  0.45593999997E+02  0.45594000000E+02  0.51100000000E-03 0.  1.
         11   -1    0    0    0    0 -0.00000000000E+00 -0.00000000000E+00 -0.45593999997E+02  0.45594000000E+02  0.51100000000E-03 0. -1.
    9900012    2    1    2    0    0  0.12576930288E+02 -0.20652220109E+02  0.36040669403E+02  0.47787271643E+02  0.20000002730E+02 0.  0.
         12    1    1    2    0    0 -0.12576930288E+02  0.20652220109E+02 -0.36040669403E+02  0.43400728357E+02  0.00000000000E+00 0. -1.
         11    1    3    3    0    0  0.13319619736E+01  0.25682080839E+01  0.18122384589E+01  0.34137990501E+01  0.51100000000E-03 0. -1.
        -11    1    3    3    0    0  0.31788632990E+01 -0.20692296017E+01  0.12243644874E+02  0.12817711304E+02  0.51100000000E-03 0.  1.
        -12    1    3    3    0    0  0.80661050150E+01 -0.21151198591E+02  0.21984786070E+02  0.31555761289E+02  0.00000000000E+00 0.  1.
</event>
<event>
 7    1  0.2237500E-009  0.4778727E+02  0.7816164E-02  0.1312668E+00
        -11   -1    0    0    0    0  0.00000000000E+00  0.00000000000E+00  0.45593999997E+02  0.45594000000E+02  0.51100000000E-03 0.  1.
         11   -1    0    0    0    0 -0.00000000000E+00 -0.00000000000E+00 -0.45593999997E+02  0.45594000000E+02  0.51100000000E-03 0. -1.
    9900012    2    1    2    0    0  0.21603160567E+02 -0.25213682504E+02  0.27949903631E+02  0.47787269074E+02  0.19999991017E+02 0.  0.
         12    1    1    2    0    0 -0.21603160567E+02  0.25213682504E+02 -0.27949903631E+02  0.43400730926E+02  0.00000000000E+00 0. -1.
         11    1    3    3    0    0  0.50625127285E+01 -0.86241803658E+01  0.17855235896E+02  0.20464969369E+02  0.51100000000E-03 0. -1.
        -11    1    3    3    0    0  0.12636199930E+02 -0.13096674513E+02  0.11942281349E+02  0.21767280860E+02  0.51100000000E-03 0.  1.
         12    1    3    3    0    0  0.39044479088E+01 -0.34928276258E+01 -0.18476136147E+01  0.55550188447E+01  0.00000000000E+00 0. -1.
</event>
<event>
 7    1  0.2237500E-009  0.4778727E+02  0.7816164E-02  0.1312668E+00
        -11   -1    0    0    0    0  0.00000000000E+00  0.00000000000E+00  0.45593999997E+02  0.45594000000E+02  0.51100000000E-03 0.  1.
         11   -1    0    0    0    0 -0.00000000000E+00 -0.00000000000E+00 -0.45593999997E+02  0.45594000000E+02  0.51100000000E-03 0. -1.
    9900012    2    1    2    0    0 -0.24795302346E+02 -0.63345299869E+01  0.35052670327E+02  0.47787274365E+02  0.20000015140E+02 0.  0.
         12    1    1    2    0    0  0.24795302346E+02  0.63345299869E+01 -0.35052670327E+02  0.43400725635E+02  0.00000000000E+00 0. -1.
         11    1    3    3    0    0 -0.25807676074E+01 -0.21394255601E+01  0.11015426870E+02  0.11514214370E+02  0.51100000000E-03 0. -1.
        -11    1    3    3    0    0 -0.85231729730E+01 -0.30215905152E+01  0.20002133807E+02  0.21951306199E+02  0.51100000000E-03 0.  1.
         12    1    3    3    0    0 -0.13691361765E+02 -0.11735139116E+01  0.40351096505E+01  0.14321753796E+02  0.00000000000E+00 0. -1.
</event>
<event>
 7    1  0.2237500E-009  0.4778727E+02  0.7816164E-02  0.1312668E+00
        -11   -1    0    0    0    0  0.00000000000E+00  0.00000000000E+00  0.45593999997E+02  0.45594000000E+02  0.51100000000E-03 0.  1.
         11   -1    0    0    0    0 -0.00000000000E+00 -0.00000000000E+00 -0.45593999997E+02  0.45594000000E+02  0.51100000000E-03 0. -1.
    9900012    2    1    2    0    0  0.79287798056E+01  0.96861033389E+01  0.41556433554E+02  0.47787270550E+02  0.19999997746E+02 0.  0.
         12    1    1    2    0    0 -0.79287798056E+01 -0.96861033389E+01 -0.41556433554E+02  0.43400729450E+02  0.00000000000E+00 0. -1.
         11    1    3    3    0    0 -0.23112808943E+01  0.53261962681E+01  0.23939362119E+02  0.24633380706E+02  0.51100000000E-03 0. -1.
        -11    1    3    3    0    0  0.62974276201E+01  0.24826093780E+01  0.17524216793E+02  0.18786141659E+02  0.51100000000E-03 0.  1.
         12    1    3    3    0    0  0.39426330798E+01  0.18772976928E+01  0.92854641503E-01  0.43677481857E+01  0.00000000000E+00 0. -1.
</event>
<event>
 7    1  0.2237500E-009  0.4778727E+02  0.7816164E-02  0.1312668E+00
        -11   -1    0    0    0    0  0.00000000000E+00  0.00000000000E+00  0.45593999997E+02  0.45594000000E+02  0.51100000000E-03 0.  1.
         11   -1    0    0    0    0 -0.00000000000E+00 -0.00000000000E+00 -0.45593999997E+02  0.45594000000E+02  0.51100000000E-03 0. -1.
    9900012    2    1    2    0    0  0.21586025974E+02 -0.35277148763E+02  0.13160155854E+02  0.47787269081E+02  0.19999991047E+02 0.  0.
         12    1    1    2    0    0 -0.21586025974E+02  0.35277148763E+02 -0.13160155854E+02  0.43400730919E+02  0.00000000000E+00 0. -1.
         11    1    3    3    0    0  0.62902045559E+01 -0.13805842659E+02  0.10317785731E+02  0.18347334072E+02  0.51100000000E-03 0.  1.
        -11    1    3    3    0    0  0.14878106907E+02 -0.18510813658E+02  0.65895952331E+01  0.24646116388E+02  0.51100000000E-03 0. -1.
        -12    1    3    3    0    0  0.41771451131E+00 -0.29604924458E+01 -0.37472251108E+01  0.47938186204E+01  0.00000000000E+00 0.  1.
</event>
<event>
 7    1  0.2237500E-009  0.4778727E+02  0.7816164E-02  0.1312668E+00
        -11   -1    0    0    0    0  0.00000000000E+00  0.00000000000E+00  0.45593999997E+02  0.45594000000E+02  0.51100000000E-03 0.  1.
         11   -1    0    0    0    0 -0.00000000000E+00 -0.00000000000E+00 -0.45593999997E+02  0.45594000000E+02  0.51100000000E-03 0. -1.
    9900012    2    1    2    0    0 -0.37418075800E+02  0.21881969497E+02 -0.21656602757E+01  0.47787273393E+02  0.20000010706E+02 0.  0.
         12    1    1    2    0    0  0.37418075800E+02 -0.21881969497E+02  0.21656602757E+01  0.43400726607E+02  0.00000000000E+00 0. -1.
         11    1    3    3    0    0 -0.58027558455E+00  0.27962424299E+01  0.88507309104E+00  0.29898237604E+01  0.51100000000E-03 0. -1.
        -11    1    3    3    0    0 -0.22666087753E+02  0.20296385391E+02 -0.30131267000E+01  0.30574069515E+02  0.51100000000E-03 0.  1.
         12    1    3    3    0    0 -0.14171712462E+02 -0.12106583236E+01 -0.37606666695E-01  0.14223380117E+02  0.00000000000E+00 0. -1.
</event>
<event>
 7    1  0.2237500E-009  0.4778727E+02  0.7816164E-02  0.1312668E+00
        -11   -1    0    0    0    0  0.00000000000E+00  0.00000000000E+00  0.45593999997E+02  0.45594000000E+02  0.51100000000E-03 0. -1.
         11   -1    0    0    0    0 -0.00000000000E+00 -0.00000000000E+00 -0.45593999997E+02  0.45594000000E+02  0.51100000000E-03 0.  1.
    9900012    2    1    2    0    0  0.13431196251E+02 -0.19593005572E+02 -0.36322726290E+02  0.47787270222E+02  0.19999996252E+02 0.  0.
         12    1    1    2    0    0 -0.13431196251E+02  0.19593005572E+02  0.36322726290E+02  0.43400729778E+02  0.00000000000E+00 0. -1.
         11    1    3    3    0    0  0.79365611270E+01 -0.48791736039E+01 -0.22543461893E+02  0.24392683574E+02  0.51100000000E-03 0. -1.
        -11    1    3    3    0    0  0.56514467453E+01 -0.99486836340E+01 -0.14607799935E+02  0.18555402867E+02  0.51100000000E-03 0.  1.
         12    1    3    3    0    0 -0.15681162154E+00 -0.47651483339E+01  0.82853553749E+00  0.48391837809E+01  0.00000000000E+00 0. -1.
</event>
<event>
 7    1  0.2237500E-009  0.4778725E+02  0.7816164E-02  0.1312668E+00
        -11   -1    0    0    0    0  0.00000000000E+00  0.00000000000E+00  0.45593999997E+02  0.45594000000E+02  0.51100000000E-03 0.  1.
         11   -1    0    0    0    0 -0.00000000000E+00 -0.00000000000E+00 -0.45593999997E+02  0.45594000000E+02  0.51100000000E-03 0. -1.
    9900012    2    1    2    0    0 -0.42277598972E+02  0.97122330286E+01 -0.13793047391E+01  0.47787247394E+02  0.19999892166E+02 0.  0.
         12    1    1    2    0    0  0.42277598972E+02 -0.97122330286E+01  0.13793047391E+01  0.43400752606E+02  0.00000000000E+00 0. -1.
         11    1    3    3    0    0 -0.26689081665E+02  0.34580644284E+01  0.38735135127E+01  0.27189508950E+02  0.51100000000E-03 0. -1.
        -11    1    3    3    0    0 -0.15001825223E+02  0.14660483608E+01 -0.43670797202E+01  0.15693165499E+02  0.51100000000E-03 0.  1.
         12    1    3    3    0    0 -0.58669208338E+00  0.47881202395E+01 -0.88573853163E+00  0.49045729452E+01  0.00000000000E+00 0. -1.
</event>
<event>
 7    1  0.2237500E-009  0.4778727E+02  0.7816164E-02  0.1312668E+00
        -11   -1    0    0    0    0  0.00000000000E+00  0.00000000000E+00  0.45593999997E+02  0.45594000000E+02  0.51100000000E-03 0. -1.
         11   -1    0    0    0    0 -0.00000000000E+00 -0.00000000000E+00 -0.45593999997E+02  0.45594000000E+02  0.51100000000E-03 0.  1.
    9900012    2    1    2    0    0 -0.55899652354E+01  0.18795419669E+02 -0.38718317880E+02  0.47787266696E+02  0.19999980175E+02 0.  0.
         12    1    1    2    0    0  0.55899652354E+01 -0.18795419669E+02  0.38718317880E+02  0.43400733304E+02  0.00000000000E+00 0. -1.
         11    1    3    3    0    0  0.62730844597E+01  0.37908806305E+01 -0.78063029929E+01  0.10707975125E+02  0.51100000000E-03 0. -1.
        -11    1    3    3    0    0 -0.11543520734E+01  0.36012929665E+01 -0.21808731584E+01  0.43655523973E+01  0.51100000000E-03 0.  1.
         12    1    3    3    0    0 -0.10708697622E+02  0.11403246072E+02 -0.28731141728E+02  0.32713739174E+02  0.00000000000E+00 0. -1.
</event>
<event>
 7    1  0.2237500E-009  0.4778727E+02  0.7816164E-02  0.1312668E+00
        -11   -1    0    0    0    0  0.00000000000E+00  0.00000000000E+00  0.45593999997E+02  0.45594000000E+02  0.51100000000E-03 0.  1.
         11   -1    0    0    0    0 -0.00000000000E+00 -0.00000000000E+00 -0.45593999997E+02  0.45594000000E+02  0.51100000000E-03 0. -1.
    9900012    2    1    2    0    0 -0.16254862235E+02 -0.35697670861E+02  0.18576302920E+02  0.47787270958E+02  0.19999999608E+02 0.  0.
         12    1    1    2    0    0  0.16254862235E+02  0.35697670861E+02 -0.18576302920E+02  0.43400729042E+02  0.00000000000E+00 0. -1.
         11    1    3    3    0    0 -0.23813924974E+01 -0.89721366429E+01  0.47703297415E+01  0.10436776910E+02  0.51100000000E-03 0. -1.
        -11    1    3    3    0    0 -0.26901773042E+01 -0.51237268396E+01  0.11553071157E+02  0.12921419584E+02  0.51100000000E-03 0.  1.
         12    1    3    3    0    0 -0.11183292434E+02 -0.21601807378E+02  0.22529020220E+01  0.24429074464E+02  0.00000000000E+00 0. -1.
</event>
<event>
 7    1  0.2237500E-009  0.4778727E+02  0.7816164E-02  0.1312668E+00
        -11   -1    0    0    0    0  0.00000000000E+00  0.00000000000E+00  0.45593999997E+02  0.45594000000E+02  0.51100000000E-03 0. -1.
         11   -1    0    0    0    0 -0.00000000000E+00 -0.00000000000E+00 -0.45593999997E+02  0.45594000000E+02  0.51100000000E-03 0.  1.
    9900012    2    1    2    0    0 -0.96069692824E+01 -0.12838725596E+02 -0.40329844173E+02  0.47787273454E+02  0.20000010987E+02 0.  0.
         12    1    1    2    0    0  0.96069692824E+01  0.12838725596E+02  0.40329844173E+02  0.43400726546E+02  0.00000000000E+00 0. -1.
         11    1    3    3    0    0 -0.27773734508E+01 -0.11767842046E+01 -0.24287477240E+02  0.24474071490E+02  0.51100000000E-03 0. -1.
        -11    1    3    3    0    0 -0.33502848933E+01 -0.82058770611E+01 -0.16133925042E+02  0.18408268922E+02  0.51100000000E-03 0.  1.
         12    1    3    3    0    0 -0.34793109384E+01 -0.34560643302E+01  0.91558108821E-01  0.49049330421E+01  0.00000000000E+00 0. -1.
</event>
<event>
 7    1  0.2237500E-009  0.4778727E+02  0.7816164E-02  0.1312668E+00
        -11   -1    0    0    0    0  0.00000000000E+00  0.00000000000E+00  0.45593999997E+02  0.45594000000E+02  0.51100000000E-03 0. -1.
         11   -1    0    0    0    0 -0.00000000000E+00 -0.00000000000E+00 -0.45593999997E+02  0.45594000000E+02  0.51100000000E-03 0.  1.
    9900012    2    1    2    0    0 -0.19540102472E+02  0.18244889692E+02 -0.34189641845E+02  0.47787271734E+02  0.20000003145E+02 0.  0.
         12    1    1    2    0    0  0.19540102472E+02 -0.18244889692E+02  0.34189641845E+02  0.43400728266E+02  0.00000000000E+00 0. -1.
         11    1    3    3    0    0 -0.11987703479E+02  0.57708331036E+01 -0.18030893890E+02  0.22408049540E+02  0.51100000000E-03 0.  1.
        -11    1    3    3    0    0 -0.46386493671E+01  0.19381473364E+01 -0.13094634509E+02  0.14026508341E+02  0.51100000000E-03 0. -1.
         12    1    3    3    0    0 -0.29137496257E+01  0.10535909252E+02 -0.30641134459E+01  0.11352713854E+02  0.00000000000E+00 0. -1.
</event>
<event>
 7    1  0.2237500E-009  0.4778727E+02  0.7816164E-02  0.1312668E+00
        -11   -1    0    0    0    0  0.00000000000E+00  0.00000000000E+00  0.45593999997E+02  0.45594000000E+02  0.51100000000E-03 0. -1.
         11   -1    0    0    0    0 -0.00000000000E+00 -0.00000000000E+00 -0.45593999997E+02  0.45594000000E+02  0.51100000000E-03 0.  1.
    9900012    2    1    2    0    0 -0.18113099361E+02 -0.39322839714E+02 -0.30418981377E+01  0.47787271482E+02  0.20000001993E+02 0.  0.
         12    1    1    2    0    0  0.18113099361E+02  0.39322839714E+02  0.30418981377E+01  0.43400728518E+02  0.00000000000E+00 0. -1.
         11    1    3    3    0    0 -0.11036300193E+01 -0.73728151792E+00 -0.19277925813E+01  0.23405058756E+01  0.51100000000E-03 0. -1.
        -11    1    3    3    0    0 -0.44705608539E+01 -0.68416158009E+01  0.65412322543E+01  0.10468110660E+02  0.51100000000E-03 0.  1.
        -12    1    3    3    0    0 -0.12538908488E+02 -0.31743942395E+02 -0.76553378108E+01  0.34978654946E+02  0.00000000000E+00 0.  1.
</event>
<event>
 7    1  0.2237500E-009  0.4778727E+02  0.7816164E-02  0.1312668E+00
        -11   -1    0    0    0    0  0.00000000000E+00  0.00000000000E+00  0.45593999997E+02  0.45594000000E+02  0.51100000000E-03 0.  1.
         11   -1    0    0    0    0 -0.00000000000E+00 -0.00000000000E+00 -0.45593999997E+02  0.45594000000E+02  0.51100000000E-03 0. -1.
    9900012    2    1    2    0    0  0.26557187948E+02  0.34265498135E+02  0.20530013321E+01  0.47787269492E+02  0.19999992924E+02 0.  0.
         12    1    1    2    0    0 -0.26557187948E+02 -0.34265498135E+02 -0.20530013321E+01  0.43400730508E+02  0.00000000000E+00 0. -1.
         11    1    3    3    0    0  0.54488012442E+01 -0.96616408583E+00  0.10211210789E+01  0.56272192563E+01  0.51100000000E-03 0.  1.
        -11    1    3    3    0    0  0.16422647112E+01 -0.38791996104E-01  0.90221806189E+00  0.18741760571E+01  0.51100000000E-03 0. -1.
        -12    1    3    3    0    0  0.19466121992E+02  0.35270454217E+02  0.12966219130E+00  0.40285874179E+02  0.00000000000E+00 0.  1.
</event>
<event>
 7    1  0.2237500E-009  0.4778727E+02  0.7816164E-02  0.1312668E+00
        -11   -1    0    0    0    0  0.00000000000E+00  0.00000000000E+00  0.45593999997E+02  0.45594000000E+02  0.51100000000E-03 0.  1.
         11   -1    0    0    0    0 -0.00000000000E+00 -0.00000000000E+00 -0.45593999997E+02  0.45594000000E+02  0.51100000000E-03 0. -1.
    9900012    2    1    2    0    0 -0.37998309786E+02 -0.17572763926E+02  0.11443322708E+02  0.47787271743E+02  0.20000003187E+02 0.  0.
         12    1    1    2    0    0  0.37998309786E+02  0.17572763926E+02 -0.11443322708E+02  0.43400728257E+02  0.00000000000E+00 0. -1.
         11    1    3    3    0    0 -0.28258400234E+00  0.20399037133E+01  0.17665434266E+01  0.27132520740E+01  0.51100000000E-03 0. -1.
        -11    1    3    3    0    0 -0.15049611554E+02 -0.49315460824E+01  0.86587304194E+01  0.18049503246E+02  0.51100000000E-03 0.  1.
        -12    1    3    3    0    0 -0.22666114230E+02 -0.14681121557E+02  0.10180488620E+01  0.27024516424E+02  0.00000000000E+00 0.  1.
</event>
<event>
 7    1  0.2237500E-009  0.4778727E+02  0.7816164E-02  0.1312668E+00
        -11   -1    0    0    0    0  0.00000000000E+00  0.00000000000E+00  0.45593999997E+02  0.45594000000E+02  0.51100000000E-03 0.  1.
         11   -1    0    0    0    0 -0.00000000000E+00 -0.00000000000E+00 -0.45593999997E+02  0.45594000000E+02  0.51100000000E-03 0. -1.
    9900012    2    1    2    0    0 -0.34071704824E+02  0.12416342074E+02  0.23844843397E+02  0.47787272163E+02  0.20000005102E+02 0.  0.
         12    1    1    2    0    0  0.34071704824E+02 -0.12416342074E+02 -0.23844843397E+02  0.43400727837E+02  0.00000000000E+00 0. -1.
         11    1    3    3    0    0 -0.32048354384E+01  0.16897665520E+01 -0.12467247728E+01  0.38315276468E+01  0.51100000000E-03 0. -1.
        -11    1    3    3    0    0 -0.16138155392E+02  0.94481052645E+01  0.56575822383E+01  0.19537527725E+02  0.51100000000E-03 0.  1.
         12    1    3    3    0    0 -0.14728713994E+02  0.12784702573E+01  0.19433985932E+02  0.24418216792E+02  0.00000000000E+00 0. -1.
</event>
<event>
 7    1  0.2237500E-009  0.4778727E+02  0.7816164E-02  0.1312668E+00
        -11   -1    0    0    0    0  0.00000000000E+00  0.00000000000E+00  0.45593999997E+02  0.45594000000E+02  0.51100000000E-03 0. -1.
         11   -1    0    0    0    0 -0.00000000000E+00 -0.00000000000E+00 -0.45593999997E+02  0.45594000000E+02  0.51100000000E-03 0.  1.
    9900012    2    1    2    0    0 -0.24600277827E+01 -0.21396076593E+02 -0.37679960229E+02  0.47787271514E+02  0.20000002141E+02 0.  0.
         12    1    1    2    0    0  0.24600277827E+01  0.21396076593E+02  0.37679960229E+02  0.43400728486E+02  0.00000000000E+00 0. -1.
         11    1    3    3    0    0  0.29232772107E+01 -0.45272900578E+01 -0.48137362810E+01  0.72259229280E+01  0.51100000000E-03 0. -1.
        -11    1    3    3    0    0  0.45873822787E+01 -0.11137047664E+02 -0.14023442014E+02  0.18486071324E+02  0.51100000000E-03 0.  1.
         12    1    3    3    0    0 -0.99706872720E+01 -0.57317388714E+01 -0.18842781934E+02  0.22075277262E+02  0.00000000000E+00 0. -1.
</event>
<event>
 7    1  0.2237500E-009  0.4778728E+02  0.7816164E-02  0.1312668E+00
        -11   -1    0    0    0    0  0.00000000000E+00  0.00000000000E+00  0.45593999997E+02  0.45594000000E+02  0.51100000000E-03 0.  1.
         11   -1    0    0    0    0 -0.00000000000E+00 -0.00000000000E+00 -0.45593999997E+02  0.45594000000E+02  0.51100000000E-03 0. -1.
    9900012    2    1    2    0    0  0.36791000238E+02  0.22101253669E+02 -0.64482218621E+01  0.47787277915E+02  0.20000031326E+02 0.  0.
         12    1    1    2    0    0 -0.36791000238E+02 -0.22101253669E+02  0.64482218621E+01  0.43400722085E+02  0.00000000000E+00 0. -1.
         11    1    3    3    0    0 -0.42077980217E+00  0.21762525341E+01  0.10976351638E+01  0.24734457642E+01  0.51100000000E-03 0. -1.
        -11    1    3    3    0    0  0.21268463423E+02  0.80931227782E+01  0.27966687645E+01  0.22927440527E+02  0.51100000000E-03 0.  1.
         12    1    3    3    0    0  0.15943316618E+02  0.11831878357E+02 -0.10342525790E+02  0.22386391624E+02  0.00000000000E+00 0. -1.
</event>
<event>
 7    1  0.2237500E-009  0.4778726E+02  0.7816164E-02  0.1312668E+00
        -11   -1    0    0    0    0  0.00000000000E+00  0.00000000000E+00  0.45593999997E+02  0.45594000000E+02  0.51100000000E-03 0. -1.
         11   -1    0    0    0    0 -0.00000000000E+00 -0.00000000000E+00 -0.45593999997E+02  0.45594000000E+02  0.51100000000E-03 0.  1.
    9900012    2    1    2    0    0 -0.10412793518E+01 -0.14550391219E+02 -0.40875741787E+02  0.47787257910E+02  0.19999940114E+02 0.  0.
         12    1    1    2    0    0  0.10412793518E+01  0.14550391219E+02  0.40875741787E+02  0.43400742090E+02  0.00000000000E+00 0. -1.
         11    1    3    3    0    0  0.53292283977E+01 -0.41734685833E+01 -0.12961984687E+02  0.14622980634E+02  0.51100000000E-03 0.  1.
        -11    1    3    3    0    0  0.89081601382E+00 -0.14254147554E+01 -0.17651987388E+02  0.17731836324E+02  0.51100000000E-03 0. -1.
         12    1    3    3    0    0 -0.72613237633E+01 -0.89515078802E+01 -0.10261769712E+02  0.15432440952E+02  0.00000000000E+00 0. -1.
</event>
<event>
 7    1  0.2237500E-009  0.4778727E+02  0.7816164E-02  0.1312668E+00
        -11   -1    0    0    0    0  0.00000000000E+00  0.00000000000E+00  0.45593999997E+02  0.45594000000E+02  0.51100000000E-03 0.  1.
         11   -1    0    0    0    0 -0.00000000000E+00 -0.00000000000E+00 -0.45593999997E+02  0.45594000000E+02  0.51100000000E-03 0. -1.
    9900012    2    1    2    0    0 -0.52730555044E+01 -0.25147553907E+01  0.43005743093E+02  0.47787273646E+02  0.20000011863E+02 0.  0.
         12    1    1    2    0    0  0.52730555044E+01  0.25147553907E+01 -0.43005743093E+02  0.43400726354E+02  0.00000000000E+00 0. -1.
         11    1    3    3    0    0  0.39709313358E+01 -0.62215700716E+01  0.27685401178E+02  0.28652358864E+02  0.51100000000E-03 0.  1.
        -11    1    3    3    0    0 -0.58071805362E+00 -0.11251831742E+01  0.33934148938E+01  0.36219518959E+01  0.51100000000E-03 0. -1.
        -12    1    3    3    0    0 -0.86632687865E+01  0.48319978551E+01  0.11926927021E+02  0.15512962886E+02  0.00000000000E+00 0.  1.
</event>
<event>
 7    1  0.2237500E-009  0.4778727E+02  0.7816164E-02  0.1312668E+00
        -11   -1    0    0    0    0  0.00000000000E+00  0.00000000000E+00  0.45593999997E+02  0.45594000000E+02  0.51100000000E-03 0. -1.
         11   -1    0    0    0    0 -0.00000000000E+00 -0.00000000000E+00 -0.45593999997E+02  0.45594000000E+02  0.51100000000E-03 0.  1.
    9900012    2    1    2    0    0 -0.13713813889E+02 -0.29662620417E+02 -0.28560179633E+02  0.47787267264E+02  0.19999982762E+02 0.  0.
         12    1    1    2    0    0  0.13713813889E+02  0.29662620417E+02  0.28560179633E+02  0.43400732736E+02  0.00000000000E+00 0. -1.
         11    1    3    3    0    0 -0.57185739074E+01 -0.92728047118E+00 -0.93818001059E+01  0.11026337111E+02  0.51100000000E-03 0. -1.
        -11    1    3    3    0    0 -0.67119548480E+01 -0.22263966188E+02 -0.19211968217E+02  0.30163458875E+02  0.51100000000E-03 0.  1.
        -12    1    3    3    0    0 -0.12832851340E+01 -0.64713737581E+01  0.33588689963E-01  0.65974712771E+01  0.00000000000E+00 0.  1.
</event>
<event>
 7    1  0.2237500E-009  0.4778727E+02  0.7816164E-02  0.1312668E+00
        -11   -1    0    0    0    0  0.00000000000E+00  0.00000000000E+00  0.45593999997E+02  0.45594000000E+02  0.51100000000E-03 0.  1.
         11   -1    0    0    0    0 -0.00000000000E+00 -0.00000000000E+00 -0.45593999997E+02  0.45594000000E+02  0.51100000000E-03 0. -1.
    9900012    2    1    2    0    0  0.10154245523E+02 -0.42173180933E+02  0.13918925774E+01  0.47787271238E+02  0.20000000883E+02 0.  0.
         12    1    1    2    0    0 -0.10154245523E+02  0.42173180933E+02 -0.13918925774E+01  0.43400728762E+02  0.00000000000E+00 0. -1.
         11    1    3    3    0    0  0.19177601695E+01 -0.11491093270E+02  0.36595673223E+01  0.12211284202E+02  0.51100000000E-03 0. -1.
        -11    1    3    3    0    0 -0.46349975057E+01 -0.75086187130E+01 -0.20858754394E+01  0.90671623712E+01  0.51100000000E-03 0.  1.
        -12    1    3    3    0    0  0.12871482859E+02 -0.23173468950E+02 -0.18179930550E+00  0.26508824665E+02  0.00000000000E+00 0.  1.
</event>
<event>
 7    1  0.2237500E-009  0.4778727E+02  0.7816164E-02  0.1312668E+00
        -11   -1    0    0    0    0  0.00000000000E+00  0.00000000000E+00  0.45593999997E+02  0.45594000000E+02  0.51100000000E-03 0.  1.
         11   -1    0    0    0    0 -0.00000000000E+00 -0.00000000000E+00 -0.45593999997E+02  0.45594000000E+02  0.51100000000E-03 0. -1.
    9900012    2    1    2    0    0  0.15874301471E+02 -0.17918912947E+02  0.36201415102E+02  0.47787270239E+02  0.19999996328E+02 0.  0.
         12    1    1    2    0    0 -0.15874301471E+02  0.17918912947E+02 -0.36201415102E+02  0.43400729761E+02  0.00000000000E+00 0. -1.
         11    1    3    3    0    0  0.26091581980E+01 -0.99498289067E+01  0.71092870467E+01  0.12503949950E+02  0.51100000000E-03 0. -1.
        -11    1    3    3    0    0  0.12506890267E+02 -0.88797252170E+01  0.16098838040E+02  0.22236106012E+02  0.51100000000E-03 0.  1.
         12    1    3    3    0    0  0.75825300599E+00  0.91064117678E+00  0.12993290015E+02  0.13047214277E+02  0.00000000000E+00 0. -1.
</event>
<event>
 7    1  0.2237500E-009  0.4778727E+02  0.7816164E-02  0.1312668E+00
        -11   -1    0    0    0    0  0.00000000000E+00  0.00000000000E+00  0.45593999997E+02  0.45594000000E+02  0.51100000000E-03 0.  1.
         11   -1    0    0    0    0 -0.00000000000E+00 -0.00000000000E+00 -0.45593999997E+02  0.45594000000E+02  0.51100000000E-03 0. -1.
    9900012    2    1    2    0    0 -0.38557987970E+02 -0.18521957108E+02  0.73376998436E+01  0.47787272236E+02  0.20000005433E+02 0.  0.
         12    1    1    2    0    0  0.38557987970E+02  0.18521957108E+02 -0.73376998436E+01  0.43400727764E+02  0.00000000000E+00 0. -1.
         11    1    3    3    0    0 -0.20704310842E+01 -0.36502365117E+01 -0.11894066794E+01  0.43618344737E+01  0.51100000000E-03 0. -1.
        -11    1    3    3    0    0 -0.23752063345E+02 -0.16443985697E+02  0.18199401599E+01  0.28946111331E+02  0.51100000000E-03 0.  1.
        -12    1    3    3    0    0 -0.12735493541E+02  0.15722651004E+01  0.67071663631E+01  0.14479326431E+02  0.00000000000E+00 0.  1.
</event>
<event>
 7    1  0.2237500E-009  0.4778727E+02  0.7816164E-02  0.1312668E+00
        -11   -1    0    0    0    0  0.00000000000E+00  0.00000000000E+00  0.45593999997E+02  0.45594000000E+02  0.51100000000E-03 0. -1.
         11   -1    0    0    0    0 -0.00000000000E+00 -0.00000000000E+00 -0.45593999997E+02  0.45594000000E+02  0.51100000000E-03 0.  1.
    9900012    2    1    2    0    0 -0.56630990733E+01  0.43023887818E+02 -0.70539630809E+00  0.47787271918E+02  0.20000003983E+02 0.  0.
         12    1    1    2    0    0  0.56630990733E+01 -0.43023887818E+02  0.70539630809E+00  0.43400728082E+02  0.00000000000E+00 0. -1.
         11    1    3    3    0    0 -0.52638812952E+01  0.12988998797E+02 -0.43141242823E+01  0.14664044620E+02  0.51100000000E-03 0. -1.
        -11    1    3    3    0    0 -0.68172356627E+01  0.18546376179E+02  0.18370997717E+01  0.19844840822E+02  0.51100000000E-03 0.  1.
         12    1    3    3    0    0  0.64180178845E+01  0.11488512842E+02  0.17716282026E+01  0.13278386475E+02  0.00000000000E+00 0. -1.
</event>
<event>
 7    1  0.2237500E-009  0.4778727E+02  0.7816164E-02  0.1312668E+00
        -11   -1    0    0    0    0  0.00000000000E+00  0.00000000000E+00  0.45593999997E+02  0.45594000000E+02  0.51100000000E-03 0.  1.
         11   -1    0    0    0    0 -0.00000000000E+00 -0.00000000000E+00 -0.45593999997E+02  0.45594000000E+02  0.51100000000E-03 0. -1.
    9900012    2    1    2    0    0 -0.15978721348E+02  0.21246303549E+02  0.34305953005E+02  0.47787270029E+02  0.19999995371E+02 0.  0.
         12    1    1    2    0    0  0.15978721348E+02 -0.21246303549E+02 -0.34305953005E+02  0.43400729971E+02  0.00000000000E+00 0. -1.
         11    1    3    3    0    0 -0.33014070755E+01  0.29479655089E+01  0.14600966024E+01  0.46606514212E+01  0.51100000000E-03 0.  1.
        -11    1    3    3    0    0  0.36455427320E+01  0.70048868911E+01  0.71122142270E+01  0.10627418014E+02  0.51100000000E-03 0. -1.
        -12    1    3    3    0    0 -0.16322857004E+02  0.11293451149E+02  0.25733642176E+02  0.32499200594E+02  0.00000000000E+00 0.  1.
</event>
<event>
 7    1  0.2237500E-009  0.4778727E+02  0.7816164E-02  0.1312668E+00
        -11   -1    0    0    0    0  0.00000000000E+00  0.00000000000E+00  0.45593999997E+02  0.45594000000E+02  0.51100000000E-03 0. -1.
         11   -1    0    0    0    0 -0.00000000000E+00 -0.00000000000E+00 -0.45593999997E+02  0.45594000000E+02  0.51100000000E-03 0.  1.
    9900012    2    1    2    0    0 -0.39721079502E+02  0.50219789953E-01 -0.17488758116E+02  0.47787270291E+02  0.19999996564E+02 0.  0.
         12    1    1    2    0    0  0.39721079502E+02 -0.50219789953E-01  0.17488758116E+02  0.43400729709E+02  0.00000000000E+00 0. -1.
         11    1    3    3    0    0 -0.11431143761E+02  0.56421283587E+01 -0.75230838286E+01  0.14802075890E+02  0.51100000000E-03 0. -1.
        -11    1    3    3    0    0 -0.18270138108E+02 -0.29820072999E+01 -0.12485499705E+02  0.22328860633E+02  0.51100000000E-03 0.  1.
         12    1    3    3    0    0 -0.10019797633E+02 -0.26099012688E+01  0.25198254172E+01  0.10656333768E+02  0.00000000000E+00 0. -1.
</event>
<event>
 7    1  0.2237500E-009  0.4778727E+02  0.7816164E-02  0.1312668E+00
        -11   -1    0    0    0    0  0.00000000000E+00  0.00000000000E+00  0.45593999997E+02  0.45594000000E+02  0.51100000000E-03 0.  1.
         11   -1    0    0    0    0 -0.00000000000E+00 -0.00000000000E+00 -0.45593999997E+02  0.45594000000E+02  0.51100000000E-03 0. -1.
    9900012    2    1    2    0    0  0.14197283320E+02  0.62224725578E+00  0.41008210863E+02  0.47787269551E+02  0.19999993191E+02 0.  0.
         12    1    1    2    0    0 -0.14197283320E+02 -0.62224725578E+00 -0.41008210863E+02  0.43400730449E+02  0.00000000000E+00 0. -1.
         11    1    3    3    0    0  0.80733626143E+01  0.85017006615E+00  0.50381804800E+01  0.95543307382E+01  0.51100000000E-03 0. -1.
        -11    1    3    3    0    0 -0.11524849427E+01 -0.88445167601E+00 -0.75247767088E-01  0.14546954313E+01  0.51100000000E-03 0.  1.
        -12    1    3    3    0    0  0.72764056485E+01  0.65652886564E+00  0.36045278150E+02  0.36778243382E+02  0.00000000000E+00 0.  1.
</event>
<event>
 7    1  0.2237500E-009  0.4778727E+02  0.7816164E-02  0.1312668E+00
        -11   -1    0    0    0    0  0.00000000000E+00  0.00000000000E+00  0.45593999997E+02  0.45594000000E+02  0.51100000000E-03 0. -1.
         11   -1    0    0    0    0 -0.00000000000E+00 -0.00000000000E+00 -0.45593999997E+02  0.45594000000E+02  0.51100000000E-03 0.  1.
    9900012    2    1    2    0    0  0.34220265284E+02  0.21602499750E+02  0.15682105444E+02  0.47787274399E+02  0.20000015296E+02 0.  0.
         12    1    1    2    0    0 -0.34220265284E+02 -0.21602499750E+02 -0.15682105444E+02  0.43400725601E+02  0.00000000000E+00 0. -1.
         11    1    3    3    0    0  0.20936789305E+02  0.99642792160E+01  0.16108485168E+02  0.28233301283E+02  0.51100000000E-03 0.  1.
        -11    1    3    3    0    0  0.34278510025E+01 -0.80173582397E+00  0.88216153138E+00  0.36292081857E+01  0.51100000000E-03 0. -1.
        -12    1    3    3    0    0  0.98556249766E+01  0.12439956358E+02 -0.13085412558E+01  0.15924764930E+02  0.00000000000E+00 0.  1.
</event>
<event>
 7    1  0.2237500E-009  0.4778727E+02  0.7816164E-02  0.1312668E+00
        -11   -1    0    0    0    0  0.00000000000E+00  0.00000000000E+00  0.45593999997E+02  0.45594000000E+02  0.51100000000E-03 0.  1.
         11   -1    0    0    0    0 -0.00000000000E+00 -0.00000000000E+00 -0.45593999997E+02  0.45594000000E+02  0.51100000000E-03 0. -1.
    9900012    2    1    2    0    0 -0.27364120809E+02  0.96036913591E+01  0.32289273757E+02  0.47787271952E+02  0.20000004138E+02 0.  0.
         12    1    1    2    0    0  0.27364120809E+02 -0.96036913591E+01 -0.32289273757E+02  0.43400728048E+02  0.00000000000E+00 0. -1.
         11    1    3    3    0    0 -0.35088638633E+01 -0.38684423507E+01  0.43214227013E+01  0.67787658358E+01  0.51100000000E-03 0. -1.
        -11    1    3    3    0    0 -0.15550447088E+02  0.20746917319E+01  0.12350762226E+02  0.19966523940E+02  0.51100000000E-03 0.  1.
        -12    1    3    3    0    0 -0.83048098575E+01  0.11397441978E+02  0.15617088829E+02  0.21041982176E+02  0.00000000000E+00 0.  1.
</event>
<event>
 7    1  0.2237500E-009  0.4778727E+02  0.7816164E-02  0.1312668E+00
        -11   -1    0    0    0    0  0.00000000000E+00  0.00000000000E+00  0.45593999997E+02  0.45594000000E+02  0.51100000000E-03 0. -1.
         11   -1    0    0    0    0 -0.00000000000E+00 -0.00000000000E+00 -0.45593999997E+02  0.45594000000E+02  0.51100000000E-03 0.  1.
    9900012    2    1    2    0    0  0.26887895280E+02  0.31731804115E+02 -0.12399883827E+02  0.47787269316E+02  0.19999992121E+02 0.  0.
         12    1    1    2    0    0 -0.26887895280E+02 -0.31731804115E+02  0.12399883827E+02  0.43400730684E+02  0.00000000000E+00 0. -1.
         11    1    3    3    0    0  0.43163358965E+01  0.36488389758E+01  0.18610624514E+01  0.59504903287E+01  0.51100000000E-03 0. -1.
        -11    1    3    3    0    0  0.61692912034E+00  0.90544087541E+01 -0.80409309639E+01  0.12125159399E+02  0.51100000000E-03 0.  1.
        -12    1    3    3    0    0  0.21954630263E+02  0.19028556385E+02 -0.62200153143E+01  0.29711619589E+02  0.00000000000E+00 0.  1.
</event>
<event>
 7    1  0.2237500E-009  0.4778727E+02  0.7816164E-02  0.1312668E+00
        -11   -1    0    0    0    0  0.00000000000E+00  0.00000000000E+00  0.45593999997E+02  0.45594000000E+02  0.51100000000E-03 0.  1.
         11   -1    0    0    0    0 -0.00000000000E+00 -0.00000000000E+00 -0.45593999997E+02  0.45594000000E+02  0.51100000000E-03 0. -1.
    9900012    2    1    2    0    0 -0.42656557317E+02 -0.65367486311E+01 -0.46165721514E+01  0.47787266098E+02  0.19999977448E+02 0.  0.
         12    1    1    2    0    0  0.42656557317E+02  0.65367486311E+01  0.46165721514E+01  0.43400733902E+02  0.00000000000E+00 0. -1.
         11    1    3    3    0    0 -0.77335283405E+01 -0.17590734794E+01 -0.53695782560E+00  0.79492216014E+01  0.51100000000E-03 0. -1.
        -11    1    3    3    0    0 -0.36723897808E+02 -0.34824025644E+01 -0.53611340346E+01  0.37276179475E+02  0.51100000000E-03 0.  1.
         12    1    3    3    0    0  0.18008688321E+01 -0.12952725873E+01  0.12815197088E+01  0.25618650218E+01  0.00000000000E+00 0. -1.
</event>
<event>
 7    1  0.2237500E-009  0.4778726E+02  0.7816164E-02  0.1312668E+00
        -11   -1    0    0    0    0  0.00000000000E+00  0.00000000000E+00  0.45593999997E+02  0.45594000000E+02  0.51100000000E-03 0.  1.
         11   -1    0    0    0    0 -0.00000000000E+00 -0.00000000000E+00 -0.45593999997E+02  0.45594000000E+02  0.51100000000E-03 0. -1.
    9900012    2    1    2    0    0 -0.26365489857E+02 -0.51591035715E+01  0.34086202007E+02  0.47787256086E+02  0.19999931796E+02 0.  0.
         12    1    1    2    0    0  0.26365489857E+02  0.51591035715E+01 -0.34086202007E+02  0.43400743914E+02  0.00000000000E+00 0. -1.
         11    1    3    3    0    0 -0.41682289719E+00 -0.32760229864E+01 -0.27712683265E+00  0.33140409590E+01  0.51100000000E-03 0. -1.
        -11    1    3    3    0    0 -0.91809068010E+01  0.56231366276E+00  0.47443552738E+01  0.10349596783E+02  0.51100000000E-03 0.  1.
         12    1    3    3    0    0 -0.16767760159E+02 -0.24453942478E+01  0.29618973566E+02  0.34123618344E+02  0.00000000000E+00 0. -1.
</event>
<event>
 7    1  0.2237500E-009  0.4778727E+02  0.7816164E-02  0.1312668E+00
        -11   -1    0    0    0    0  0.00000000000E+00  0.00000000000E+00  0.45593999997E+02  0.45594000000E+02  0.51100000000E-03 0. -1.
         11   -1    0    0    0    0 -0.00000000000E+00 -0.00000000000E+00 -0.45593999997E+02  0.45594000000E+02  0.51100000000E-03 0.  1.
    9900012    2    1    2    0    0  0.39071254514E+02  0.18509152947E+02  0.38041625652E+01  0.47787270456E+02  0.19999997318E+02 0.  0.
         12    1    1    2    0    0 -0.39071254514E+02 -0.18509152947E+02 -0.38041625652E+01  0.43400729544E+02  0.00000000000E+00 0. -1.
         11    1    3    3    0    0  0.19782392567E+02  0.55000338117E+01  0.69518880300E+01  0.21677688416E+02  0.51100000000E-03 0. -1.
        -11    1    3    3    0    0  0.13670375328E+02  0.85313076040E+01  0.33086750888E+01  0.16450218909E+02  0.51100000000E-03 0.  1.
         12    1    3    3    0    0  0.56184866186E+01  0.44778115314E+01 -0.64564005536E+01  0.96593631313E+01  0.00000000000E+00 0. -1.
</event>
<event>
 7    1  0.2237500E-009  0.4778727E+02  0.7816164E-02  0.1312668E+00
        -11   -1    0    0    0    0  0.00000000000E+00  0.00000000000E+00  0.45593999997E+02  0.45594000000E+02  0.51100000000E-03 0.  1.
         11   -1    0    0    0    0 -0.00000000000E+00 -0.00000000000E+00 -0.45593999997E+02  0.45594000000E+02  0.51100000000E-03 0. -1.
    9900012    2    1    2    0    0  0.11477600194E+02  0.77849193095E+01  0.41125207310E+02  0.47787274762E+02  0.20000016950E+02 0.  0.
         12    1    1    2    0    0 -0.11477600194E+02 -0.77849193095E+01 -0.41125207310E+02  0.43400725238E+02  0.00000000000E+00 0. -1.
         11    1    3    3    0    0  0.10577181313E+02 -0.31196117182E+01  0.12286297914E+02  0.16509447553E+02  0.51100000000E-03 0. -1.
        -11    1    3    3    0    0  0.52347908746E+00  0.33301372841E-01  0.80182314008E-01  0.53063056927E+00  0.51100000000E-03 0.  1.
        -12    1    3    3    0    0  0.37693979304E+00  0.10871229655E+02  0.28758727082E+02  0.30747196640E+02  0.00000000000E+00 0.  1.
</event>
<event>
 7    1  0.2237500E-009  0.4778726E+02  0.7816164E-02  0.1312668E+00
        -11   -1    0    0    0    0  0.00000000000E+00  0.00000000000E+00  0.45593999997E+02  0.45594000000E+02  0.51100000000E-03 0.  1.
         11   -1    0    0    0    0 -0.00000000000E+00 -0.00000000000E+00 -0.45593999997E+02  0.45594000000E+02  0.51100000000E-03 0. -1.
    9900012    2    1    2    0    0 -0.10072946846E+02 -0.35662399894E+02  0.22590988845E+02  0.47787264968E+02  0.19999972293E+02 0.  0.
         12    1    1    2    0    0  0.10072946846E+02  0.35662399894E+02 -0.22590988845E+02  0.43400735032E+02  0.00000000000E+00 0. -1.
         11    1    3    3    0    0 -0.43906944718E+01 -0.19872346880E+02  0.12959053719E+02  0.24127275893E+02  0.51100000000E-03 0. -1.
        -11    1    3    3    0    0 -0.35476053004E+01 -0.17514917340E+02  0.54965357783E+01  0.18696784179E+02  0.51100000000E-03 0.  1.
         12    1    3    3    0    0 -0.21346470738E+01  0.17248643263E+01  0.41353993474E+01  0.49632048957E+01  0.00000000000E+00 0. -1.
</event>
<event>
 7    1  0.2237500E-009  0.4778727E+02  0.7816164E-02  0.1312668E+00
        -11   -1    0    0    0    0  0.00000000000E+00  0.00000000000E+00  0.45593999997E+02  0.45594000000E+02  0.51100000000E-03 0.  1.
         11   -1    0    0    0    0 -0.00000000000E+00 -0.00000000000E+00 -0.45593999997E+02  0.45594000000E+02  0.51100000000E-03 0. -1.
    9900012    2    1    2    0    0  0.27745536188E+01 -0.18125632327E+02  0.39336839798E+02  0.47787266592E+02  0.19999979700E+02 0.  0.
         12    1    1    2    0    0 -0.27745536188E+01  0.18125632327E+02 -0.39336839798E+02  0.43400733408E+02  0.00000000000E+00 0. -1.
         11    1    3    3    0    0 -0.63450253850E+01 -0.29370207789E+01  0.18748510636E+02  0.20009799837E+02  0.51100000000E-03 0. -1.
        -11    1    3    3    0    0  0.65496914706E+01 -0.54231615135E+01  0.10382438481E+02  0.13420289424E+02  0.51100000000E-03 0.  1.
        -12    1    3    3    0    0  0.25698875332E+01 -0.97654500343E+01  0.10205890682E+02  0.14357177331E+02  0.00000000000E+00 0.  1.
</event>
<event>
 7    1  0.2237500E-009  0.4778727E+02  0.7816164E-02  0.1312668E+00
        -11   -1    0    0    0    0  0.00000000000E+00  0.00000000000E+00  0.45593999997E+02  0.45594000000E+02  0.51100000000E-03 0.  1.
         11   -1    0    0    0    0 -0.00000000000E+00 -0.00000000000E+00 -0.45593999997E+02  0.45594000000E+02  0.51100000000E-03 0. -1.
    9900012    2    1    2    0    0  0.10425074421E+02  0.38566656263E+02  0.16957431409E+02  0.47787266919E+02  0.19999981190E+02 0.  0.
         12    1    1    2    0    0 -0.10425074421E+02 -0.38566656263E+02 -0.16957431409E+02  0.43400733081E+02  0.00000000000E+00 0. -1.
         11    1    3    3    0    0  0.50193666450E+01  0.18476357914E+02  0.32800694320E+01  0.19424950426E+02  0.51100000000E-03 0. -1.
        -11    1    3    3    0    0 -0.17656446883E+01  0.84313092353E+01 -0.53439105069E+00  0.86307618808E+01  0.51100000000E-03 0.  1.
         12    1    3    3    0    0  0.71713524645E+01  0.11658989114E+02  0.14211753027E+02  0.19731554612E+02  0.00000000000E+00 0. -1.
</event>
<event>
 7    1  0.2237500E-009  0.4778727E+02  0.7816164E-02  0.1312668E+00
        -11   -1    0    0    0    0  0.00000000000E+00  0.00000000000E+00  0.45593999997E+02  0.45594000000E+02  0.51100000000E-03 0. -1.
         11   -1    0    0    0    0 -0.00000000000E+00 -0.00000000000E+00 -0.45593999997E+02  0.45594000000E+02  0.51100000000E-03 0.  1.
    9900012    2    1    2    0    0 -0.39977853316E+00  0.42769057764E+02 -0.73668885903E+01  0.47787272214E+02  0.20000005331E+02 0.  0.
         12    1    1    2    0    0  0.39977853316E+00 -0.42769057764E+02  0.73668885903E+01  0.43400727786E+02  0.00000000000E+00 0. -1.
         11    1    3    3    0    0 -0.30233516696E+01  0.87320077002E+01  0.42108569867E+01  0.10154798404E+02  0.51100000000E-03 0. -1.
        -11    1    3    3    0    0 -0.19636780409E+01  0.15724171006E+02 -0.73880009347E+00  0.15863524549E+02  0.51100000000E-03 0.  1.
        -12    1    3    3    0    0  0.45872511773E+01  0.18312879057E+02 -0.10838945484E+02  0.21768949261E+02  0.00000000000E+00 0.  1.
</event>
<event>
 7    1  0.2237500E-009  0.4778727E+02  0.7816164E-02  0.1312668E+00
        -11   -1    0    0    0    0  0.00000000000E+00  0.00000000000E+00  0.45593999997E+02  0.45594000000E+02  0.51100000000E-03 0. -1.
         11   -1    0    0    0    0 -0.00000000000E+00 -0.00000000000E+00 -0.45593999997E+02  0.45594000000E+02  0.51100000000E-03 0.  1.
    9900012    2    1    2    0    0  0.18218483725E+02  0.25521940567E+02 -0.30005684477E+02  0.47787266129E+02  0.19999977590E+02 0.  0.
         12    1    1    2    0    0 -0.18218483725E+02 -0.25521940567E+02  0.30005684477E+02  0.43400733871E+02  0.00000000000E+00 0. -1.
         11    1    3    3    0    0  0.15653998947E+01  0.61483603899E+01 -0.55606301526E+01  0.84364340968E+01  0.51100000000E-03 0. -1.
        -11    1    3    3    0    0  0.16664940637E+02  0.22335091694E+02 -0.22362936478E+02  0.35730624058E+02  0.51100000000E-03 0.  1.
         12    1    3    3    0    0 -0.11856806148E-01 -0.29615115170E+01 -0.20821178467E+01  0.36202079742E+01  0.00000000000E+00 0. -1.
</event>
<event>
 7    1  0.2237500E-009  0.4778727E+02  0.7816164E-02  0.1312668E+00
        -11   -1    0    0    0    0  0.00000000000E+00  0.00000000000E+00  0.45593999997E+02  0.45594000000E+02  0.51100000000E-03 0. -1.
         11   -1    0    0    0    0 -0.00000000000E+00 -0.00000000000E+00 -0.45593999997E+02  0.45594000000E+02  0.51100000000E-03 0.  1.
    9900012    2    1    2    0    0  0.12803619155E+02  0.36800541677E+02  0.19115717485E+02  0.47787272055E+02  0.20000004606E+02 0.  0.
         12    1    1    2    0    0 -0.12803619155E+02 -0.36800541677E+02 -0.19115717485E+02  0.43400727945E+02  0.00000000000E+00 0. -1.
         11    1    3    3    0    0  0.29415996345E+01  0.25193418439E+02  0.19565428822E+02  0.32033846886E+02  0.51100000000E-03 0. -1.
        -11    1    3    3    0    0  0.71138406001E+00  0.32894771659E+01 -0.38324034175E+00  0.33872703946E+01  0.51100000000E-03 0.  1.
        -12    1    3    3    0    0  0.91506354602E+01  0.83176460724E+01 -0.66470994764E-01  0.12366154774E+02  0.00000000000E+00 0.  1.
</event>
<event>
 7    1  0.2237500E-009  0.4778729E+02  0.7816164E-02  0.1312668E+00
        -11   -1    0    0    0    0  0.00000000000E+00  0.00000000000E+00  0.45593999997E+02  0.45594000000E+02  0.51100000000E-03 0.  1.
         11   -1    0    0    0    0 -0.00000000000E+00 -0.00000000000E+00 -0.45593999997E+02  0.45594000000E+02  0.51100000000E-03 0. -1.
    9900012    2    1    2    0    0  0.40679105394E+02 -0.15118446086E+02 -0.51458001694E+00  0.47787287790E+02  0.20000076351E+02 0.  0.
         12    1    1    2    0    0 -0.40679105394E+02  0.15118446086E+02  0.51458001694E+00  0.43400712210E+02  0.00000000000E+00 0. -1.
         11    1    3    3    0    0 -0.70395284392E+00 -0.35942254832E+01 -0.27675886152E+01  0.45905940176E+01  0.51100000000E-03 0. -1.
        -11    1    3    3    0    0  0.13283512732E+02 -0.48964183513E+01 -0.70624429800E+00  0.14174815852E+02  0.51100000000E-03 0.  1.
         12    1    3    3    0    0  0.28099545506E+02 -0.66278022514E+01  0.29592528963E+01  0.29021877920E+02  0.00000000000E+00 0. -1.
</event>
<event>
 7    1  0.2237500E-009  0.4778722E+02  0.7816164E-02  0.1312668E+00
        -11   -1    0    0    0    0  0.00000000000E+00  0.00000000000E+00  0.45593999997E+02  0.45594000000E+02  0.51100000000E-03 0. -1.
         11   -1    0    0    0    0 -0.00000000000E+00 -0.00000000000E+00 -0.45593999997E+02  0.45594000000E+02  0.51100000000E-03 0.  1.
    9900012    2    1    2    0    0  0.30338270270E+02 -0.26348172755E+02 -0.16400953159E+02  0.47787215271E+02  0.19999745707E+02 0.  0.
         12    1    1    2    0    0 -0.30338270270E+02  0.26348172755E+02  0.16400953159E+02  0.43400784729E+02  0.00000000000E+00 0. -1.
         11    1    3    3    0    0  0.11343482244E+02 -0.17523930204E+02 -0.65704711942E+01  0.21884556454E+02  0.51100000000E-03 0. -1.
        -11    1    3    3    0    0  0.33287164544E+01 -0.14577469728E+01  0.27040923690E+01  0.45296241866E+01  0.51100000000E-03 0.  1.
        -12    1    3    3    0    0  0.15666071572E+02 -0.73664955782E+01 -0.12534574334E+02  0.21373034631E+02  0.00000000000E+00 0.  1.
</event>
<event>
 7    1  0.2237500E-009  0.4778728E+02  0.7816164E-02  0.1312668E+00
        -11   -1    0    0    0    0  0.00000000000E+00  0.00000000000E+00  0.45593999997E+02  0.45594000000E+02  0.51100000000E-03 0.  1.
         11   -1    0    0    0    0 -0.00000000000E+00 -0.00000000000E+00 -0.45593999997E+02  0.45594000000E+02  0.51100000000E-03 0. -1.
    9900012    2    1    2    0    0  0.24461446185E+02  0.31975873775E+02  0.16211232940E+02  0.47787275045E+02  0.20000018241E+02 0.  0.
         12    1    1    2    0    0 -0.24461446185E+02 -0.31975873775E+02 -0.16211232940E+02  0.43400724955E+02  0.00000000000E+00 0. -1.
         11    1    3    3    0    0  0.19470704369E+02  0.19252905197E+02  0.54839411588E+01  0.27925907291E+02  0.51100000000E-03 0. -1.
        -11    1    3    3    0    0  0.65981606710E+00  0.63636297188E+01 -0.31201677798E+00  0.64053489500E+01  0.51100000000E-03 0.  1.
         12    1    3    3    0    0  0.43309257489E+01  0.63593388597E+01  0.11039308559E+02  0.13456018804E+02  0.00000000000E+00 0. -1.
</event>
<event>
 7    1  0.2237500E-009  0.4778727E+02  0.7816164E-02  0.1312668E+00
        -11   -1    0    0    0    0  0.00000000000E+00  0.00000000000E+00  0.45593999997E+02  0.45594000000E+02  0.51100000000E-03 0.  1.
         11   -1    0    0    0    0 -0.00000000000E+00 -0.00000000000E+00 -0.45593999997E+02  0.45594000000E+02  0.51100000000E-03 0. -1.
    9900012    2    1    2    0    0 -0.27826766355E+02  0.30086282035E+02 -0.14286702820E+02  0.47787272241E+02  0.20000005457E+02 0.  0.
         12    1    1    2    0    0  0.27826766355E+02 -0.30086282035E+02  0.14286702820E+02  0.43400727759E+02  0.00000000000E+00 0. -1.
         11    1    3    3    0    0  0.52889754747E+00  0.80718192084E+01 -0.25381135204E+01  0.84779725437E+01  0.51100000000E-03 0. -1.
        -11    1    3    3    0    0 -0.71295389743E+01  0.33771144930E+01  0.16277190831E+01  0.80551038454E+01  0.51100000000E-03 0.  1.
        -12    1    3    3    0    0 -0.21226124929E+02  0.18637348334E+02 -0.13376308383E+02  0.31254195852E+02  0.00000000000E+00 0.  1.
</event>
<event>
 7    1  0.2237500E-009  0.4778727E+02  0.7816164E-02  0.1312668E+00
        -11   -1    0    0    0    0  0.00000000000E+00  0.00000000000E+00  0.45593999997E+02  0.45594000000E+02  0.51100000000E-03 0. -1.
         11   -1    0    0    0    0 -0.00000000000E+00 -0.00000000000E+00 -0.45593999997E+02  0.45594000000E+02  0.51100000000E-03 0.  1.
    9900012    2    1    2    0    0 -0.23413159896E+02 -0.33534136042E+02  0.14522710509E+02  0.47787268936E+02  0.19999990387E+02 0.  0.
         12    1    1    2    0    0  0.23413159896E+02  0.33534136042E+02 -0.14522710509E+02  0.43400731064E+02  0.00000000000E+00 0. -1.
         11    1    3    3    0    0 -0.31007612003E+01  0.14638904372E+01  0.29224683694E+01  0.45053875377E+01  0.51100000000E-03 0. -1.
        -11    1    3    3    0    0 -0.25743646191E+01 -0.10054632629E+01  0.28171368159E+01  0.39464629310E+01  0.51100000000E-03 0.  1.
        -12    1    3    3    0    0 -0.17738034076E+02 -0.33992563216E+02  0.87831053236E+01  0.39335418467E+02  0.00000000000E+00 0.  1.
</event>
<event>
 7    1  0.2237500E-009  0.4778726E+02  0.7816164E-02  0.1312668E+00
        -11   -1    0    0    0    0  0.00000000000E+00  0.00000000000E+00  0.45593999997E+02  0.45594000000E+02  0.51100000000E-03 0.  1.
         11   -1    0    0    0    0 -0.00000000000E+00 -0.00000000000E+00 -0.45593999997E+02  0.45594000000E+02  0.51100000000E-03 0. -1.
    9900012    2    1    2    0    0 -0.36020543538E+02 -0.10833918216E+02  0.21651119149E+02  0.47787259210E+02  0.19999946042E+02 0.  0.
         12    1    1    2    0    0  0.36020543538E+02  0.10833918216E+02 -0.21651119149E+02  0.43400740790E+02  0.00000000000E+00 0. -1.
         11    1    3    3    0    0 -0.28734195546E+02 -0.85205910502E+01  0.14285708888E+02  0.33201444911E+02  0.51100000000E-03 0. -1.
        -11    1    3    3    0    0 -0.77123145206E+01  0.17166621522E+01  0.69308224981E+01  0.10510139151E+02  0.51100000000E-03 0.  1.
         12    1    3    3    0    0  0.42596652774E+00 -0.40299893183E+01  0.43458776305E+00  0.40756751480E+01  0.00000000000E+00 0. -1.
</event>
<event>
 7    1  0.2237500E-009  0.4778727E+02  0.7816164E-02  0.1312668E+00
        -11   -1    0    0    0    0  0.00000000000E+00  0.00000000000E+00  0.45593999997E+02  0.45594000000E+02  0.51100000000E-03 0.  1.
         11   -1    0    0    0    0 -0.00000000000E+00 -0.00000000000E+00 -0.45593999997E+02  0.45594000000E+02  0.51100000000E-03 0. -1.
    9900012    2    1    2    0    0 -0.24972305163E+02 -0.73890611362E+01  0.34718998771E+02  0.47787272756E+02  0.20000007806E+02 0.  0.
         12    1    1    2    0    0  0.24972305163E+02  0.73890611362E+01 -0.34718998771E+02  0.43400727244E+02  0.00000000000E+00 0. -1.
         11    1    3    3    0    0 -0.11800511272E+02 -0.61172824710E+01  0.19432687113E+02  0.23543630557E+02  0.51100000000E-03 0. -1.
        -11    1    3    3    0    0 -0.14208503715E+02 -0.41698417789E+01  0.15116941400E+02  0.21161074543E+02  0.51100000000E-03 0.  1.
         12    1    3    3    0    0  0.10367098245E+01  0.28980631138E+01  0.16937025847E+00  0.30825676564E+01  0.00000000000E+00 0. -1.
</event>
<event>
 7    1  0.2237500E-009  0.4778727E+02  0.7816164E-02  0.1312668E+00
        -11   -1    0    0    0    0  0.00000000000E+00  0.00000000000E+00  0.45593999997E+02  0.45594000000E+02  0.51100000000E-03 0.  1.
         11   -1    0    0    0    0 -0.00000000000E+00 -0.00000000000E+00 -0.45593999997E+02  0.45594000000E+02  0.51100000000E-03 0. -1.
    9900012    2    1    2    0    0 -0.87338747285E+01 -0.15626049052E+02  0.39536933663E+02  0.47787273045E+02  0.20000009120E+02 0.  0.
         12    1    1    2    0    0  0.87338747285E+01  0.15626049052E+02 -0.39536933663E+02  0.43400726955E+02  0.00000000000E+00 0. -1.
         11    1    3    3    0    0  0.22493708440E+01  0.67923760866E+00  0.58401009070E+01  0.62950624928E+01  0.51100000000E-03 0. -1.
        -11    1    3    3    0    0 -0.14185406311E+02 -0.10761775390E+02  0.24520952284E+02  0.30303773081E+02  0.51100000000E-03 0.  1.
         12    1    3    3    0    0  0.32021607387E+01 -0.55435112706E+01  0.91758804724E+01  0.11188437471E+02  0.00000000000E+00 0. -1.
</event>
<event>
 7    1  0.2237500E-009  0.4778727E+02  0.7816164E-02  0.1312668E+00
        -11   -1    0    0    0    0  0.00000000000E+00  0.00000000000E+00  0.45593999997E+02  0.45594000000E+02  0.51100000000E-03 0.  1.
         11   -1    0    0    0    0 -0.00000000000E+00 -0.00000000000E+00 -0.45593999997E+02  0.45594000000E+02  0.51100000000E-03 0. -1.
    9900012    2    1    2    0    0 -0.24455086458E+01 -0.43151577252E+02 -0.39476820572E+01  0.47787270450E+02  0.19999997289E+02 0.  0.
         12    1    1    2    0    0  0.24455086458E+01  0.43151577252E+02  0.39476820572E+01  0.43400729550E+02  0.00000000000E+00 0. -1.
         11    1    3    3    0    0 -0.44113676674E+00 -0.19631408276E+02  0.57310665886E+01  0.20455608450E+02  0.51100000000E-03 0. -1.
        -11    1    3    3    0    0 -0.37595920804E+01 -0.22386922198E+02 -0.66540682358E+01  0.23655558384E+02  0.51100000000E-03 0.  1.
        -12    1    3    3    0    0  0.17552202013E+01 -0.11332467777E+01 -0.30246804099E+01  0.36761036162E+01  0.00000000000E+00 0.  1.
</event>
<event>
 7    1  0.2794167E-009  0.4778727E+02  0.7816164E-02  0.1312668E+00
        -11   -1    0    0    0    0  0.00000000000E+00  0.00000000000E+00  0.45593999997E+02  0.45594000000E+02  0.51100000000E-03 0. -1.
         11   -1    0    0    0    0 -0.00000000000E+00 -0.00000000000E+00 -0.45593999997E+02  0.45594000000E+02  0.51100000000E-03 0.  1.
    9900012    2    1    2    0    0 -0.37498810178E+02  0.18526805872E+02 -0.11585340033E+02  0.47787269542E+02  0.19999993151E+02 0.  0.
         12    1    1    2    0    0  0.37498810178E+02 -0.18526805872E+02  0.11585340033E+02  0.43400730458E+02  0.00000000000E+00 0. -1.
         11    1    3    3    0    0 -0.35253342284E+01 -0.17286554679E+01  0.73631553667E+00  0.39947956117E+01  0.51100000000E-03 0. -1.
        -11    1    3    3    0    0 -0.50217496023E+00  0.25890031656E-01 -0.37126126564E+01  0.37465107744E+01  0.51100000000E-03 0.  1.
        -12    1    3    3    0    0 -0.33471300989E+02  0.20229571309E+02 -0.86090429130E+01  0.40045963156E+02  0.00000000000E+00 0.  1.
</event>
<event>
 7    1  0.2411552E-009  0.4778727E+02  0.7816164E-02  0.1312668E+00
        -11   -1    0    0    0    0  0.00000000000E+00  0.00000000000E+00  0.45593999997E+02  0.45594000000E+02  0.51100000000E-03 0.  1.
         11   -1    0    0    0    0 -0.00000000000E+00 -0.00000000000E+00 -0.45593999997E+02  0.45594000000E+02  0.51100000000E-03 0. -1.
    9900012    2    1    2    0    0 -0.27997613214E+02  0.29646813600E+02  0.14860129253E+02  0.47787270239E+02  0.19999996330E+02 0.  0.
         12    1    1    2    0    0  0.27997613214E+02 -0.29646813600E+02 -0.14860129253E+02  0.43400729761E+02  0.00000000000E+00 0. -1.
         11    1    3    3    0    0 -0.36337154827E+01  0.10230997626E+02  0.82946492198E+01  0.13663030651E+02  0.51100000000E-03 0. -1.
        -11    1    3    3    0    0 -0.18475866557E+02  0.18274821186E+02  0.92082278315E+01  0.27570241102E+02  0.51100000000E-03 0.  1.
        -12    1    3    3    0    0 -0.58880311749E+01  0.11409947884E+01 -0.26427477987E+01  0.65539984858E+01  0.00000000000E+00 0.  1.
</event>
<event>
 7    1  0.2237500E-009  0.4778724E+02  0.7816164E-02  0.1312668E+00
        -11   -1    0    0    0    0  0.00000000000E+00  0.00000000000E+00  0.45593999997E+02  0.45594000000E+02  0.51100000000E-03 0. -1.
         11   -1    0    0    0    0 -0.00000000000E+00 -0.00000000000E+00 -0.45593999997E+02  0.45594000000E+02  0.51100000000E-03 0.  1.
    9900012    2    1    2    0    0  0.25938172830E+02 -0.47765014036E+01 -0.34467703315E+02  0.47787235637E+02  0.19999838563E+02 0.  0.
         12    1    1    2    0    0 -0.25938172830E+02  0.47765014036E+01  0.34467703315E+02  0.43400764363E+02  0.00000000000E+00 0. -1.
         11    1    3    3    0    0 -0.59538979630E+00 -0.27034338322E+01 -0.31923401651E+01  0.42254087951E+01  0.51100000000E-03 0. -1.
        -11    1    3    3    0    0 -0.11194067166E+01 -0.38199424854E+00 -0.58181264719E+01  0.59371362547E+01  0.51100000000E-03 0.  1.
         12    1    3    3    0    0  0.27652969343E+02 -0.16910733229E+01 -0.25457236679E+02  0.37624690587E+02  0.00000000000E+00 0. -1.
</event>
<event>
 7    1  0.2237500E-009  0.4778727E+02  0.7816164E-02  0.1312668E+00
        -11   -1    0    0    0    0  0.00000000000E+00  0.00000000000E+00  0.45593999997E+02  0.45594000000E+02  0.51100000000E-03 0.  1.
         11   -1    0    0    0    0 -0.00000000000E+00 -0.00000000000E+00 -0.45593999997E+02  0.45594000000E+02  0.51100000000E-03 0. -1.
    9900012    2    1    2    0    0  0.40421175649E+02  0.98740349943E+01  0.12339163211E+02  0.47787274699E+02  0.20000016661E+02 0.  0.
         12    1    1    2    0    0 -0.40421175649E+02 -0.98740349943E+01 -0.12339163211E+02  0.43400725301E+02  0.00000000000E+00 0. -1.
         11    1    3    3    0    0  0.19379760460E+02  0.11784590187E+01 -0.23327542478E+01  0.19555194292E+02  0.51100000000E-03 0. -1.
        -11    1    3    3    0    0  0.13868677147E+02  0.44069484782E+01  0.48568105144E+01  0.15341121515E+02  0.51100000000E-03 0.  1.
        -12    1    3    3    0    0  0.71727380424E+01  0.42886274974E+01  0.98151069443E+01  0.12890958892E+02  0.00000000000E+00 0.  1.
</event>
<event>
 7    1  0.2237500E-009  0.4778727E+02  0.7816164E-02  0.1312668E+00
        -11   -1    0    0    0    0  0.00000000000E+00  0.00000000000E+00  0.45593999997E+02  0.45594000000E+02  0.51100000000E-03 0.  1.
         11   -1    0    0    0    0 -0.00000000000E+00 -0.00000000000E+00 -0.45593999997E+02  0.45594000000E+02  0.51100000000E-03 0. -1.
    9900012    2    1    2    0    0 -0.20997152185E+02  0.31631242818E+02  0.21028727010E+02  0.47787270953E+02  0.19999999584E+02 0.  0.
         12    1    1    2    0    0  0.20997152185E+02 -0.31631242818E+02 -0.21028727010E+02  0.43400729047E+02  0.00000000000E+00 0. -1.
         11    1    3    3    0    0 -0.12634464687E+02  0.44396190561E+01  0.62219752637E+01  0.14766614092E+02  0.51100000000E-03 0. -1.
        -11    1    3    3    0    0 -0.76333415699E+01  0.11494096262E+02  0.67107438033E+01  0.15343279802E+02  0.51100000000E-03 0.  1.
        -12    1    3    3    0    0 -0.72934592818E+00  0.15697527500E+02  0.80960079430E+01  0.17677377060E+02  0.00000000000E+00 0.  1.
</event>
<event>
 7    1  0.2237500E-009  0.4778727E+02  0.7816164E-02  0.1312668E+00
        -11   -1    0    0    0    0  0.00000000000E+00  0.00000000000E+00  0.45593999997E+02  0.45594000000E+02  0.51100000000E-03 0.  1.
         11   -1    0    0    0    0 -0.00000000000E+00 -0.00000000000E+00 -0.45593999997E+02  0.45594000000E+02  0.51100000000E-03 0. -1.
    9900012    2    1    2    0    0  0.30789517184E+01 -0.27732432864E+02  0.33242374477E+02  0.47787271468E+02  0.20000001930E+02 0.  0.
         12    1    1    2    0    0 -0.30789517184E+01  0.27732432864E+02 -0.33242374477E+02  0.43400728532E+02  0.00000000000E+00 0. -1.
         11    1    3    3    0    0  0.81397910270E+01 -0.75823374903E+01  0.10191554238E+02  0.15086941964E+02  0.51100000000E-03 0. -1.
        -11    1    3    3    0    0  0.31901927734E+01 -0.63936560374E+01  0.74949208659E+01  0.10355192249E+02  0.51100000000E-03 0.  1.
         12    1    3    3    0    0 -0.82510320820E+01 -0.13756439337E+02  0.15555899373E+02  0.22345137255E+02  0.00000000000E+00 0. -1.
</event>
<event>
 7    1  0.2237500E-009  0.4778727E+02  0.7816164E-02  0.1312668E+00
        -11   -1    0    0    0    0  0.00000000000E+00  0.00000000000E+00  0.45593999997E+02  0.45594000000E+02  0.51100000000E-03 0.  1.
         11   -1    0    0    0    0 -0.00000000000E+00 -0.00000000000E+00 -0.45593999997E+02  0.45594000000E+02  0.51100000000E-03 0. -1.
    9900012    2    1    2    0    0 -0.11461165071E+02  0.22538713788E+02  0.35274228234E+02  0.47787273030E+02  0.20000009053E+02 0.  0.
         12    1    1    2    0    0  0.11461165071E+02 -0.22538713788E+02 -0.35274228234E+02  0.43400726970E+02  0.00000000000E+00 0. -1.
         11    1    3    3    0    0 -0.14034578755E+01  0.30759850583E+01  0.25634010681E+01  0.42429239192E+01  0.51100000000E-03 0. -1.
        -11    1    3    3    0    0 -0.19921102455E+01  0.20441676244E+02  0.24853580851E+02  0.32241760379E+02  0.51100000000E-03 0.  1.
         12    1    3    3    0    0 -0.80655969501E+01 -0.97894751448E+00  0.78572463147E+01  0.11302588732E+02  0.00000000000E+00 0. -1.
</event>
<event>
 7    1  0.2237500E-009  0.4778727E+02  0.7816164E-02  0.1312668E+00
        -11   -1    0    0    0    0  0.00000000000E+00  0.00000000000E+00  0.45593999997E+02  0.45594000000E+02  0.51100000000E-03 0. -1.
         11   -1    0    0    0    0 -0.00000000000E+00 -0.00000000000E+00 -0.45593999997E+02  0.45594000000E+02  0.51100000000E-03 0.  1.
    9900012    2    1    2    0    0 -0.22356888235E+02 -0.99915949404E+01 -0.35832395409E+02  0.47787274410E+02  0.20000015346E+02 0.  0.
         12    1    1    2    0    0  0.22356888235E+02  0.99915949404E+01  0.35832395409E+02  0.43400725590E+02  0.00000000000E+00 0. -1.
         11    1    3    3    0    0 -0.30054759375E+01 -0.82537398141E+00 -0.10253702104E+02  0.10716927495E+02  0.51100000000E-03 0. -1.
        -11    1    3    3    0    0 -0.11786102562E+02 -0.10088264717E+02 -0.25005922909E+02  0.29427563259E+02  0.51100000000E-03 0.  1.
         12    1    3    3    0    0 -0.75653097357E+01  0.92204375788E+00 -0.57277039531E+00  0.76427836561E+01  0.00000000000E+00 0. -1.
</event>
<event>
 7    1  0.2237500E-009  0.4778727E+02  0.7816164E-02  0.1312668E+00
        -11   -1    0    0    0    0  0.00000000000E+00  0.00000000000E+00  0.45593999997E+02  0.45594000000E+02  0.51100000000E-03 0. -1.
         11   -1    0    0    0    0 -0.00000000000E+00 -0.00000000000E+00 -0.45593999997E+02  0.45594000000E+02  0.51100000000E-03 0.  1.
    9900012    2    1    2    0    0 -0.36416244110E+02 -0.83163468860E+01 -0.22097930426E+02  0.47787274318E+02  0.20000014927E+02 0.  0.
         12    1    1    2    0    0  0.36416244110E+02  0.83163468860E+01  0.22097930426E+02  0.43400725682E+02  0.00000000000E+00 0. -1.
         11    1    3    3    0    0 -0.16098105527E+02  0.59977700536E+00 -0.48301904197E+01  0.16817832017E+02  0.51100000000E-03 0. -1.
        -11    1    3    3    0    0 -0.70908131498E+01  0.16569101976E+01 -0.76091613913E+00  0.73214736331E+01  0.51100000000E-03 0.  1.
        -12    1    3    3    0    0 -0.13227325434E+02 -0.10573034089E+02 -0.16506823867E+02  0.23647968668E+02  0.00000000000E+00 0.  1.
</event>
<event>
 7    1  0.2237500E-009  0.4778727E+02  0.7816164E-02  0.1312668E+00
        -11   -1    0    0    0    0  0.00000000000E+00  0.00000000000E+00  0.45593999997E+02  0.45594000000E+02  0.51100000000E-03 0.  1.
         11   -1    0    0    0    0 -0.00000000000E+00 -0.00000000000E+00 -0.45593999997E+02  0.45594000000E+02  0.51100000000E-03 0. -1.
    9900012    2    1    2    0    0  0.14452159046E+02 -0.40403724340E+02  0.65036399328E+01  0.47787272195E+02  0.20000005246E+02 0.  0.
         12    1    1    2    0    0 -0.14452159046E+02  0.40403724340E+02 -0.65036399328E+01  0.43400727805E+02  0.00000000000E+00 0. -1.
         11    1    3    3    0    0  0.66107866222E+01 -0.14799957597E+02  0.77022579484E+01  0.17946197993E+02  0.51100000000E-03 0.  1.
        -11    1    3    3    0    0  0.13515260380E+01 -0.18355536509E+02  0.39637712636E+01  0.18827209726E+02  0.51100000000E-03 0. -1.
        -12    1    3    3    0    0  0.64898463860E+01 -0.72482302340E+01 -0.51623892793E+01  0.11013864477E+02  0.00000000000E+00 0.  1.
</event>
<event>
 7    1  0.2237500E-009  0.4778727E+02  0.7816164E-02  0.1312668E+00
        -11   -1    0    0    0    0  0.00000000000E+00  0.00000000000E+00  0.45593999997E+02  0.45594000000E+02  0.51100000000E-03 0.  1.
         11   -1    0    0    0    0 -0.00000000000E+00 -0.00000000000E+00 -0.45593999997E+02  0.45594000000E+02  0.51100000000E-03 0. -1.
    9900012    2    1    2    0    0  0.22743310868E+02  0.32975930750E+02  0.16701886263E+02  0.47787271863E+02  0.20000003732E+02 0.  0.
         12    1    1    2    0    0 -0.22743310868E+02 -0.32975930750E+02 -0.16701886263E+02  0.43400728137E+02  0.00000000000E+00 0. -1.
         11    1    3    3    0    0  0.13648555894E+01  0.95962360682E+01  0.30020025503E+01  0.10147048686E+02  0.51100000000E-03 0. -1.
        -11    1    3    3    0    0  0.39127944792E+01  0.15314439150E+02  0.67128246365E+01  0.17172769782E+02  0.51100000000E-03 0.  1.
         12    1    3    3    0    0  0.17465660799E+02  0.80652555319E+01  0.69870590764E+01  0.20467453395E+02  0.00000000000E+00 0. -1.
</event>
<event>
 7    1  0.2237500E-009  0.4778727E+02  0.7816164E-02  0.1312668E+00
        -11   -1    0    0    0    0  0.00000000000E+00  0.00000000000E+00  0.45593999997E+02  0.45594000000E+02  0.51100000000E-03 0.  1.
         11   -1    0    0    0    0 -0.00000000000E+00 -0.00000000000E+00 -0.45593999997E+02  0.45594000000E+02  0.51100000000E-03 0. -1.
    9900012    2    1    2    0    0 -0.14050392654E+02  0.39115614568E+02  0.12497139314E+02  0.47787270423E+02  0.19999997166E+02 0.  0.
         12    1    1    2    0    0  0.14050392654E+02 -0.39115614568E+02 -0.12497139314E+02  0.43400729577E+02  0.00000000000E+00 0. -1.
         11    1    3    3    0    0 -0.16638669244E+00 -0.12994242325E+01  0.11474366941E+01  0.17414933521E+01  0.51100000000E-03 0. -1.
        -11    1    3    3    0    0 -0.10315201326E+02  0.14602972036E+02  0.68986191475E+00  0.17892067527E+02  0.51100000000E-03 0.  1.
         12    1    3    3    0    0 -0.35688046361E+01  0.25812066765E+02  0.10659840706E+02  0.28153709544E+02  0.00000000000E+00 0. -1.
</event>
<event>
 7    1  0.2237500E-009  0.4778727E+02  0.7816164E-02  0.1312668E+00
        -11   -1    0    0    0    0  0.00000000000E+00  0.00000000000E+00  0.45593999997E+02  0.45594000000E+02  0.51100000000E-03 0. -1.
         11   -1    0    0    0    0 -0.00000000000E+00 -0.00000000000E+00 -0.45593999997E+02  0.45594000000E+02  0.51100000000E-03 0.  1.
    9900012    2    1    2    0    0  0.28163332245E+02 -0.19360198126E+02 -0.26751314404E+02  0.47787269857E+02  0.19999994584E+02 0.  0.
         12    1    1    2    0    0 -0.28163332245E+02  0.19360198126E+02  0.26751314404E+02  0.43400730143E+02  0.00000000000E+00 0. -1.
         11    1    3    3    0    0  0.11810525300E+02 -0.20982695647E+01 -0.36564836138E+01  0.12540379409E+02  0.51100000000E-03 0. -1.
        -11    1    3    3    0    0  0.59824968479E+00 -0.45345132009E+01 -0.59618167337E-01  0.45741958027E+01  0.51100000000E-03 0.  1.
        -12    1    3    3    0    0  0.15754557260E+02 -0.12727415361E+02 -0.23035212623E+02  0.30672694645E+02  0.00000000000E+00 0.  1.
</event>
<event>
 7    1  0.2237500E-009  0.4778727E+02  0.7816164E-02  0.1312668E+00
        -11   -1    0    0    0    0  0.00000000000E+00  0.00000000000E+00  0.45593999997E+02  0.45594000000E+02  0.51100000000E-03 0.  1.
         11   -1    0    0    0    0 -0.00000000000E+00 -0.00000000000E+00 -0.45593999997E+02  0.45594000000E+02  0.51100000000E-03 0. -1.
    9900012    2    1    2    0    0  0.10485000523E+01  0.21565437624E+02  0.37649114247E+02  0.47787271252E+02  0.20000000947E+02 0.  0.
         12    1    1    2    0    0 -0.10485000523E+01 -0.21565437624E+02 -0.37649114247E+02  0.43400728748E+02  0.00000000000E+00 0. -1.
         11    1    3    3    0    0 -0.58142717560E+01  0.92310296022E+01  0.12182451256E+02  0.16353280479E+02  0.51100000000E-03 0. -1.
        -11    1    3    3    0    0  0.74739386226E+00  0.87984857436E+01  0.21701466102E+02  0.23429160894E+02  0.51100000000E-03 0.  1.
        -12    1    3    3    0    0  0.61153779460E+01  0.35359222787E+01  0.37651968894E+01  0.80048298795E+01  0.00000000000E+00 0.  1.
</event>
<event>
 7    1  0.2237500E-009  0.4778727E+02  0.7816164E-02  0.1312668E+00
        -11   -1    0    0    0    0  0.00000000000E+00  0.00000000000E+00  0.45593999997E+02  0.45594000000E+02  0.51100000000E-03 0.  1.
         11   -1    0    0    0    0 -0.00000000000E+00 -0.00000000000E+00 -0.45593999997E+02  0.45594000000E+02  0.51100000000E-03 0. -1.
    9900012    2    1    2    0    0 -0.16633129133E+01 -0.15118548329E+02  0.40648324214E+02  0.47787269881E+02  0.19999994697E+02 0.  0.
         12    1    1    2    0    0  0.16633129133E+01  0.15118548329E+02 -0.40648324214E+02  0.43400730119E+02  0.00000000000E+00 0. -1.
         11    1    3    3    0    0 -0.71941456484E+00  0.12723903116E+01  0.35772840309E+01  0.38643881430E+01  0.51100000000E-03 0. -1.
        -11    1    3    3    0    0  0.63075486830E+01 -0.77470492984E+01  0.81965127682E+01  0.12922258512E+02  0.51100000000E-03 0.  1.
        -12    1    3    3    0    0 -0.72514470314E+01 -0.86438893420E+01  0.28874527415E+02  0.31000623227E+02  0.00000000000E+00 0.  1.
</event>
<event>
 7    1  0.2237500E-009  0.4778727E+02  0.7816164E-02  0.1312668E+00
        -11   -1    0    0    0    0  0.00000000000E+00  0.00000000000E+00  0.45593999997E+02  0.45594000000E+02  0.51100000000E-03 0. -1.
         11   -1    0    0    0    0 -0.00000000000E+00 -0.00000000000E+00 -0.45593999997E+02  0.45594000000E+02  0.51100000000E-03 0.  1.
    9900012    2    1    2    0    0 -0.22663516372E+02  0.10902854744E+02 -0.35371115344E+02  0.47787274009E+02  0.20000013517E+02 0.  0.
         12    1    1    2    0    0  0.22663516372E+02 -0.10902854744E+02  0.35371115344E+02  0.43400725991E+02  0.00000000000E+00 0. -1.
         11    1    3    3    0    0 -0.12314950273E+01  0.14557529216E+01 -0.12076771655E+02  0.12226373560E+02  0.51100000000E-03 0. -1.
        -11    1    3    3    0    0 -0.11368514222E+02  0.53362524470E+00 -0.17604567432E+02  0.20963030941E+02  0.51100000000E-03 0.  1.
         12    1    3    3    0    0 -0.10063507122E+02  0.89134765775E+01 -0.56897762566E+01  0.14597869507E+02  0.00000000000E+00 0. -1.
</event>
<event>
 7    1  0.2237500E-009  0.4778727E+02  0.7816164E-02  0.1312668E+00
        -11   -1    0    0    0    0  0.00000000000E+00  0.00000000000E+00  0.45593999997E+02  0.45594000000E+02  0.51100000000E-03 0.  1.
         11   -1    0    0    0    0 -0.00000000000E+00 -0.00000000000E+00 -0.45593999997E+02  0.45594000000E+02  0.51100000000E-03 0. -1.
    9900012    2    1    2    0    0  0.39472296968E+02  0.59463972652E+01  0.17035296535E+02  0.47787271937E+02  0.20000004071E+02 0.  0.
         12    1    1    2    0    0 -0.39472296968E+02 -0.59463972652E+01 -0.17035296535E+02  0.43400728063E+02  0.00000000000E+00 0. -1.
         11    1    3    3    0    0  0.91238334426E+01  0.89158803079E+01  0.25456983099E+00  0.12759391224E+02  0.51100000000E-03 0. -1.
        -11    1    3    3    0    0  0.14036048909E+01  0.55663443496E+00  0.31943180374E+00  0.15433682394E+01  0.51100000000E-03 0.  1.
        -12    1    3    3    0    0  0.28944858634E+02 -0.35261174776E+01  0.16461294900E+02  0.33484512474E+02  0.00000000000E+00 0.  1.
</event>
<event>
 7    1  0.2237500E-009  0.4778726E+02  0.7816164E-02  0.1312668E+00
        -11   -1    0    0    0    0  0.00000000000E+00  0.00000000000E+00  0.45593999997E+02  0.45594000000E+02  0.51100000000E-03 0.  1.
         11   -1    0    0    0    0 -0.00000000000E+00 -0.00000000000E+00 -0.45593999997E+02  0.45594000000E+02  0.51100000000E-03 0. -1.
    9900012    2    1    2    0    0  0.27689914482E+02  0.79780466584E+01  0.32453720970E+02  0.47787255797E+02  0.19999930483E+02 0.  0.
         12    1    1    2    0    0 -0.27689914482E+02 -0.79780466584E+01 -0.32453720970E+02  0.43400744203E+02  0.00000000000E+00 0. -1.
         11    1    3    3    0    0  0.38524088224E+01  0.45096412011E+01  0.16091072074E+01  0.61454978451E+01  0.51100000000E-03 0. -1.
        -11    1    3    3    0    0  0.60973216912E+01  0.73881227387E+01  0.13253730652E+02  0.16353075119E+02  0.51100000000E-03 0.  1.
         12    1    3    3    0    0  0.17740183968E+02 -0.39197172814E+01  0.17590883111E+02  0.25288682833E+02  0.00000000000E+00 0. -1.
</event>
<event>
 7    1  0.2237500E-009  0.4778727E+02  0.7816164E-02  0.1312668E+00
        -11   -1    0    0    0    0  0.00000000000E+00  0.00000000000E+00  0.45593999997E+02  0.45594000000E+02  0.51100000000E-03 0.  1.
         11   -1    0    0    0    0 -0.00000000000E+00 -0.00000000000E+00 -0.45593999997E+02  0.45594000000E+02  0.51100000000E-03 0. -1.
    9900012    2    1    2    0    0 -0.14185715240E+02  0.40875455200E+02 -0.34038299446E+01  0.47787269443E+02  0.19999992696E+02 0.  0.
         12    1    1    2    0    0  0.14185715240E+02 -0.40875455200E+02  0.34038299446E+01  0.43400730557E+02  0.00000000000E+00 0. -1.
         11    1    3    3    0    0 -0.65697669404E+01  0.59839338664E+01 -0.69633673197E+00  0.89137078298E+01  0.51100000000E-03 0. -1.
        -11    1    3    3    0    0 -0.12139234541E+02  0.22530854605E+02 -0.11413758872E+01  0.25618414542E+02  0.51100000000E-03 0.  1.
        -12    1    3    3    0    0  0.45232862417E+01  0.12360666728E+02 -0.15661173255E+01  0.13255147070E+02  0.00000000000E+00 0.  1.
</event>
<event>
 7    1  0.2237500E-009  0.4778727E+02  0.7816164E-02  0.1312668E+00
        -11   -1    0    0    0    0  0.00000000000E+00  0.00000000000E+00  0.45593999997E+02  0.45594000000E+02  0.51100000000E-03 0.  1.
         11   -1    0    0    0    0 -0.00000000000E+00 -0.00000000000E+00 -0.45593999997E+02  0.45594000000E+02  0.51100000000E-03 0. -1.
    9900012    2    1    2    0    0 -0.24112720202E+02 -0.11317758137E+01  0.36068252811E+02  0.47787273590E+02  0.20000011607E+02 0.  0.
         12    1    1    2    0    0  0.24112720202E+02  0.11317758137E+01 -0.36068252811E+02  0.43400726410E+02  0.00000000000E+00 0. -1.
         11    1    3    3    0    0 -0.88782119455E+01 -0.25776457955E+01  0.71594627098E+01  0.11692938542E+02  0.51100000000E-03 0.  1.
        -11    1    3    3    0    0 -0.65389394451E+01  0.26374706603E+01  0.13594318397E+01  0.71806709810E+01  0.51100000000E-03 0. -1.
         12    1    3    3    0    0 -0.86955688116E+01 -0.11916006785E+01  0.27549358262E+02  0.28913664067E+02  0.00000000000E+00 0. -1.
</event>
<event>
 7    1  0.2237500E-009  0.4778727E+02  0.7816164E-02  0.1312668E+00
        -11   -1    0    0    0    0  0.00000000000E+00  0.00000000000E+00  0.45593999997E+02  0.45594000000E+02  0.51100000000E-03 0.  1.
         11   -1    0    0    0    0 -0.00000000000E+00 -0.00000000000E+00 -0.45593999997E+02  0.45594000000E+02  0.51100000000E-03 0. -1.
    9900012    2    1    2    0    0  0.40328991438E+02 -0.10517055084E+02  0.12107322936E+02  0.47787271127E+02  0.20000000377E+02 0.  0.
         12    1    1    2    0    0 -0.40328991438E+02  0.10517055084E+02 -0.12107322936E+02  0.43400728873E+02  0.00000000000E+00 0. -1.
         11    1    3    3    0    0 -0.51373191158E+00 -0.23079978909E+01  0.40559068320E+00  0.23990162161E+01  0.51100000000E-03 0. -1.
        -11    1    3    3    0    0  0.71039979739E+01  0.24031860607E+01  0.59111076564E+01  0.95489938968E+01  0.51100000000E-03 0.  1.
         12    1    3    3    0    0  0.33738725375E+02 -0.10612243253E+02  0.57906245969E+01  0.35839261014E+02  0.00000000000E+00 0. -1.
</event>
<event>
 7    1  0.2237500E-009  0.4778727E+02  0.7816164E-02  0.1312668E+00
        -11   -1    0    0    0    0  0.00000000000E+00  0.00000000000E+00  0.45593999997E+02  0.45594000000E+02  0.51100000000E-03 0.  1.
         11   -1    0    0    0    0 -0.00000000000E+00 -0.00000000000E+00 -0.45593999997E+02  0.45594000000E+02  0.51100000000E-03 0. -1.
    9900012    2    1    2    0    0 -0.35311605693E+01 -0.52462052562E+01  0.42937531746E+02  0.47787269626E+02  0.19999993535E+02 0.  0.
         12    1    1    2    0    0  0.35311605693E+01  0.52462052562E+01 -0.42937531746E+02  0.43400730374E+02  0.00000000000E+00 0. -1.
         11    1    3    3    0    0 -0.52663477301E+01  0.28727225419E+01  0.32012599108E+02  0.32569824303E+02  0.51100000000E-03 0. -1.
        -11    1    3    3    0    0 -0.20000596701E+01 -0.37078312348E+01  0.71971410059E+01  0.83394897967E+01  0.51100000000E-03 0.  1.
         12    1    3    3    0    0  0.37352468309E+01 -0.44110965633E+01  0.37277916315E+01  0.68779555267E+01  0.00000000000E+00 0. -1.
</event>
<event>
 7    1  0.2237500E-009  0.4778727E+02  0.7816164E-02  0.1312668E+00
        -11   -1    0    0    0    0  0.00000000000E+00  0.00000000000E+00  0.45593999997E+02  0.45594000000E+02  0.51100000000E-03 0.  1.
         11   -1    0    0    0    0 -0.00000000000E+00 -0.00000000000E+00 -0.45593999997E+02  0.45594000000E+02  0.51100000000E-03 0. -1.
    9900012    2    1    2    0    0 -0.19456198047E+02  0.14474252627E+02  0.35994103493E+02  0.47787272843E+02  0.20000008199E+02 0.  0.
         12    1    1    2    0    0  0.19456198047E+02 -0.14474252627E+02 -0.35994103493E+02  0.43400727157E+02  0.00000000000E+00 0. -1.
         11    1    3    3    0    0  0.75593075124E+00  0.17410679072E+01 -0.13700935021E+01  0.23409197388E+01  0.51100000000E-03 0. -1.
        -11    1    3    3    0    0 -0.97706376670E+01  0.46529949801E+01  0.86921207625E+01  0.13880514627E+02  0.51100000000E-03 0.  1.
        -12    1    3    3    0    0 -0.10441491131E+02  0.80801897401E+01  0.28672076232E+02  0.31565838477E+02  0.00000000000E+00 0.  1.
</event>
<event>
 7    1  0.2237500E-009  0.4778727E+02  0.7816164E-02  0.1312668E+00
        -11   -1    0    0    0    0  0.00000000000E+00  0.00000000000E+00  0.45593999997E+02  0.45594000000E+02  0.51100000000E-03 0. -1.
         11   -1    0    0    0    0 -0.00000000000E+00 -0.00000000000E+00 -0.45593999997E+02  0.45594000000E+02  0.51100000000E-03 0.  1.
    9900012    2    1    2    0    0  0.34223180970E+02 -0.26469222229E+02 -0.34318568783E+01  0.47787268638E+02  0.19999989029E+02 0.  0.
         12    1    1    2    0    0 -0.34223180970E+02  0.26469222229E+02  0.34318568783E+01  0.43400731362E+02  0.00000000000E+00 0. -1.
         11    1    3    3    0    0  0.28867723819E+02 -0.20659797746E+02  0.38362850083E+01  0.35705599061E+02  0.51100000000E-03 0.  1.
        -11    1    3    3    0    0  0.82575498146E-01 -0.11436661844E+01  0.78125265941E+00  0.13874966786E+01  0.51100000000E-03 0. -1.
        -12    1    3    3    0    0  0.52728816528E+01 -0.46657582982E+01 -0.80493945460E+01  0.10694172898E+02  0.00000000000E+00 0.  1.
</event>
<event>
 7    1  0.2237500E-009  0.4778727E+02  0.7816164E-02  0.1312668E+00
        -11   -1    0    0    0    0  0.00000000000E+00  0.00000000000E+00  0.45593999997E+02  0.45594000000E+02  0.51100000000E-03 0. -1.
         11   -1    0    0    0    0 -0.00000000000E+00 -0.00000000000E+00 -0.45593999997E+02  0.45594000000E+02  0.51100000000E-03 0.  1.
    9900012    2    1    2    0    0  0.15532291383E+02  0.40038059775E+02 -0.62709708408E+01  0.47787269806E+02  0.19999994351E+02 0.  0.
         12    1    1    2    0    0 -0.15532291383E+02 -0.40038059775E+02  0.62709708408E+01  0.43400730194E+02  0.00000000000E+00 0. -1.
         11    1    3    3    0    0 -0.45043904090E+00 -0.54647848633E+00  0.11624998696E+01  0.13612274878E+01  0.51100000000E-03 0. -1.
        -11    1    3    3    0    0  0.11207245693E+02  0.16591456422E+02  0.21819603008E+01  0.20140499827E+02  0.51100000000E-03 0.  1.
        -12    1    3    3    0    0  0.47754847308E+01  0.23993081838E+02 -0.96154310112E+01  0.26285542491E+02  0.00000000000E+00 0.  1.
</event>
<event>
 7    1  0.2237500E-009  0.4778727E+02  0.7816164E-02  0.1312668E+00
        -11   -1    0    0    0    0  0.00000000000E+00  0.00000000000E+00  0.45593999997E+02  0.45594000000E+02  0.51100000000E-03 0. -1.
         11   -1    0    0    0    0 -0.00000000000E+00 -0.00000000000E+00 -0.45593999997E+02  0.45594000000E+02  0.51100000000E-03 0.  1.
    9900012    2    1    2    0    0 -0.28770175754E+02  0.32494224480E+02  0.15993567903E+00  0.47787271701E+02  0.20000002993E+02 0.  0.
         12    1    1    2    0    0  0.28770175754E+02 -0.32494224480E+02 -0.15993567903E+00  0.43400728299E+02  0.00000000000E+00 0. -1.
         11    1    3    3    0    0 -0.26617434527E+01  0.42396511069E+01 -0.45106563340E+01  0.67383633429E+01  0.51100000000E-03 0. -1.
        -11    1    3    3    0    0  0.69769857611E+00  0.18246207384E+01  0.27266713430E+01  0.33542154099E+01  0.51100000000E-03 0.  1.
        -12    1    3    3    0    0 -0.26806130878E+02  0.26429952634E+02  0.19439206701E+01  0.37694692948E+02  0.00000000000E+00 0.  1.
</event>
<event>
 7    1  0.2237500E-009  0.4778727E+02  0.7816164E-02  0.1312668E+00
        -11   -1    0    0    0    0  0.00000000000E+00  0.00000000000E+00  0.45593999997E+02  0.45594000000E+02  0.51100000000E-03 0.  1.
         11   -1    0    0    0    0 -0.00000000000E+00 -0.00000000000E+00 -0.45593999997E+02  0.45594000000E+02  0.51100000000E-03 0. -1.
    9900012    2    1    2    0    0 -0.15455490609E+02 -0.14747069740E+02  0.37779289681E+02  0.47787274376E+02  0.20000015191E+02 0.  0.
         12    1    1    2    0    0  0.15455490609E+02  0.14747069740E+02 -0.37779289681E+02  0.43400725624E+02  0.00000000000E+00 0. -1.
         11    1    3    3    0    0  0.10274755177E+01  0.72762948435E+00 -0.89738135111E-01  0.12622217713E+01  0.51100000000E-03 0. -1.
        -11    1    3    3    0    0 -0.84746153914E+01 -0.13953530741E+02  0.14716482434E+02  0.21979421777E+02  0.51100000000E-03 0.  1.
         12    1    3    3    0    0 -0.80083507357E+01 -0.15211684829E+01  0.23152545382E+02  0.24545630828E+02  0.00000000000E+00 0. -1.
</event>
<event>
 7    1  0.2237500E-009  0.4778727E+02  0.7816164E-02  0.1312668E+00
        -11   -1    0    0    0    0  0.00000000000E+00  0.00000000000E+00  0.45593999997E+02  0.45594000000E+02  0.51100000000E-03 0.  1.
         11   -1    0    0    0    0 -0.00000000000E+00 -0.00000000000E+00 -0.45593999997E+02  0.45594000000E+02  0.51100000000E-03 0. -1.
    9900012    2    1    2    0    0  0.10562931747E+02  0.14263026159E+02  0.39605728994E+02  0.47787271764E+02  0.20000003281E+02 0.  0.
         12    1    1    2    0    0 -0.10562931747E+02 -0.14263026159E+02 -0.39605728994E+02  0.43400728236E+02  0.00000000000E+00 0. -1.
         11    1    3    3    0    0  0.15815906630E+01 -0.85800083529E+00 -0.38503795292E+00  0.18400676469E+01  0.51100000000E-03 0.  1.
        -11    1    3    3    0    0  0.73890757855E+01  0.12656327682E+00  0.15779491037E+02  0.17424316253E+02  0.51100000000E-03 0. -1.
        -12    1    3    3    0    0  0.15922652980E+01  0.14994463717E+02  0.24211275909E+02  0.28522887864E+02  0.00000000000E+00 0.  1.
</event>
<event>
 7    1  0.2237500E-009  0.4778727E+02  0.7816164E-02  0.1312668E+00
        -11   -1    0    0    0    0  0.00000000000E+00  0.00000000000E+00  0.45593999997E+02  0.45594000000E+02  0.51100000000E-03 0.  1.
         11   -1    0    0    0    0 -0.00000000000E+00 -0.00000000000E+00 -0.45593999997E+02  0.45594000000E+02  0.51100000000E-03 0. -1.
    9900012    2    1    2    0    0 -0.21622265878E+02  0.22642981910E+02  0.30056556140E+02  0.47787267536E+02  0.19999984002E+02 0.  0.
         12    1    1    2    0    0  0.21622265878E+02 -0.22642981910E+02 -0.30056556140E+02  0.43400732464E+02  0.00000000000E+00 0. -1.
         11    1    3    3    0    0 -0.48986402402E+01  0.86488547139E+01  0.67358320855E+01  0.12007114483E+02  0.51100000000E-03 0. -1.
        -11    1    3    3    0    0 -0.13238570447E+02  0.17386922202E+02  0.21289815760E+02  0.30509360310E+02  0.51100000000E-03 0.  1.
        -12    1    3    3    0    0 -0.34850551907E+01 -0.33927950063E+01  0.20309082942E+01  0.52707927427E+01  0.00000000000E+00 0.  1.
</event>
<event>
 7    1  0.2237500E-009  0.4778727E+02  0.7816164E-02  0.1312668E+00
        -11   -1    0    0    0    0  0.00000000000E+00  0.00000000000E+00  0.45593999997E+02  0.45594000000E+02  0.51100000000E-03 0.  1.
         11   -1    0    0    0    0 -0.00000000000E+00 -0.00000000000E+00 -0.45593999997E+02  0.45594000000E+02  0.51100000000E-03 0. -1.
    9900012    2    1    2    0    0  0.14852426109E+02 -0.23566697209E+02  0.33281218720E+02  0.47787270765E+02  0.19999998725E+02 0.  0.
         12    1    1    2    0    0 -0.14852426109E+02  0.23566697209E+02 -0.33281218720E+02  0.43400729235E+02  0.00000000000E+00 0. -1.
         11    1    3    3    0    0  0.82455495285E+01 -0.28249376853E+01  0.64796793914E+01  0.10860736864E+02  0.51100000000E-03 0. -1.
        -11    1    3    3    0    0 -0.19372741748E+00 -0.54753236279E+01  0.16520652884E+00  0.54812400605E+01  0.51100000000E-03 0.  1.
        -12    1    3    3    0    0  0.68006039983E+01 -0.15266435895E+02  0.26636332800E+02  0.31445293840E+02  0.00000000000E+00 0.  1.
</event>
<event>
 7    1  0.2237500E-009  0.4778727E+02  0.7816164E-02  0.1312668E+00
        -11   -1    0    0    0    0  0.00000000000E+00  0.00000000000E+00  0.45593999997E+02  0.45594000000E+02  0.51100000000E-03 0.  1.
         11   -1    0    0    0    0 -0.00000000000E+00 -0.00000000000E+00 -0.45593999997E+02  0.45594000000E+02  0.51100000000E-03 0. -1.
    9900012    2    1    2    0    0  0.60263294181E+01  0.23719350357E+02  0.35842703449E+02  0.47787267078E+02  0.19999981915E+02 0.  0.
         12    1    1    2    0    0 -0.60263294181E+01 -0.23719350357E+02 -0.35842703449E+02  0.43400732922E+02  0.00000000000E+00 0. -1.
         11    1    3    3    0    0 -0.49359967572E+00  0.57743844768E+01  0.15518675298E+02  0.16565519611E+02  0.51100000000E-03 0. -1.
        -11    1    3    3    0    0 -0.92543103379E+00  0.15802997337E+02  0.15105400996E+02  0.21880682964E+02  0.51100000000E-03 0.  1.
         12    1    3    3    0    0  0.74453601276E+01  0.21419685431E+01  0.52186271553E+01  0.93410645034E+01  0.00000000000E+00 0. -1.
</event>
<event>
 7    1  0.2237500E-009  0.4778727E+02  0.7816164E-02  0.1312668E+00
        -11   -1    0    0    0    0  0.00000000000E+00  0.00000000000E+00  0.45593999997E+02  0.45594000000E+02  0.51100000000E-03 0. -1.
         11   -1    0    0    0    0 -0.00000000000E+00 -0.00000000000E+00 -0.45593999997E+02  0.45594000000E+02  0.51100000000E-03 0.  1.
    9900012    2    1    2    0    0  0.23071782288E+02 -0.13769540269E+02 -0.34083952539E+02  0.47787271920E+02  0.20000003994E+02 0.  0.
         12    1    1    2    0    0 -0.23071782288E+02  0.13769540269E+02  0.34083952539E+02  0.43400728080E+02  0.00000000000E+00 0. -1.
         11    1    3    3    0    0  0.24724470385E+02 -0.11568601035E+02 -0.33617264872E+02  0.43304185288E+02  0.51100000000E-03 0. -1.
        -11    1    3    3    0    0 -0.95195672322E+00  0.60708965897E-01 -0.15963923833E+01  0.18596709612E+01  0.51100000000E-03 0.  1.
         12    1    3    3    0    0 -0.70073137327E+00 -0.22616482001E+01  0.11297047166E+01  0.26234156715E+01  0.00000000000E+00 0. -1.
</event>
<event>
 7    1  0.2237500E-009  0.4778727E+02  0.7816164E-02  0.1312668E+00
        -11   -1    0    0    0    0  0.00000000000E+00  0.00000000000E+00  0.45593999997E+02  0.45594000000E+02  0.51100000000E-03 0.  1.
         11   -1    0    0    0    0 -0.00000000000E+00 -0.00000000000E+00 -0.45593999997E+02  0.45594000000E+02  0.51100000000E-03 0. -1.
    9900012    2    1    2    0    0 -0.27359566854E+02  0.14053624182E+02  0.30619818153E+02  0.47787268269E+02  0.19999987344E+02 0.  0.
         12    1    1    2    0    0  0.27359566854E+02 -0.14053624182E+02 -0.30619818153E+02  0.43400731731E+02  0.00000000000E+00 0. -1.
         11    1    3    3    0    0 -0.12266367733E+02  0.44070151034E+01  0.35415741763E+01  0.13506602363E+02  0.51100000000E-03 0. -1.
        -11    1    3    3    0    0 -0.11934886313E+02  0.10946827313E+02  0.16313433450E+02  0.22987010478E+02  0.51100000000E-03 0.  1.
         12    1    3    3    0    0 -0.31583128084E+01 -0.13002182342E+01  0.10764810527E+02  0.11293655429E+02  0.00000000000E+00 0. -1.
</event>
<event>
 7    1  0.2237500E-009  0.4778727E+02  0.7816164E-02  0.1312668E+00
        -11   -1    0    0    0    0  0.00000000000E+00  0.00000000000E+00  0.45593999997E+02  0.45594000000E+02  0.51100000000E-03 0.  1.
         11   -1    0    0    0    0 -0.00000000000E+00 -0.00000000000E+00 -0.45593999997E+02  0.45594000000E+02  0.51100000000E-03 0. -1.
    9900012    2    1    2    0    0 -0.17688206553E+02 -0.39612391739E+02  0.12684831257E+01  0.47787270977E+02  0.19999999691E+02 0.  0.
         12    1    1    2    0    0  0.17688206553E+02  0.39612391739E+02 -0.12684831257E+01  0.43400729023E+02  0.00000000000E+00 0. -1.
         11    1    3    3    0    0 -0.33820483037E+00 -0.21273726830E+02  0.29375594126E+01  0.21478246933E+02  0.51100000000E-03 0. -1.
        -11    1    3    3    0    0 -0.74251330962E+01 -0.86935280781E+01  0.27910162314E+01  0.11768593960E+02  0.51100000000E-03 0.  1.
        -12    1    3    3    0    0 -0.99248686265E+01 -0.96451368304E+01 -0.44600925183E+01  0.14540430083E+02  0.00000000000E+00 0.  1.
</event>
<event>
 7    1  0.2237500E-009  0.4778727E+02  0.7816164E-02  0.1312668E+00
        -11   -1    0    0    0    0  0.00000000000E+00  0.00000000000E+00  0.45593999997E+02  0.45594000000E+02  0.51100000000E-03 0.  1.
         11   -1    0    0    0    0 -0.00000000000E+00 -0.00000000000E+00 -0.45593999997E+02  0.45594000000E+02  0.51100000000E-03 0. -1.
    9900012    2    1    2    0    0 -0.19958937776E+02 -0.23132378928E+02  0.30824620638E+02  0.47787269713E+02  0.19999993930E+02 0.  0.
         12    1    1    2    0    0  0.19958937776E+02  0.23132378928E+02 -0.30824620638E+02  0.43400730287E+02  0.00000000000E+00 0. -1.
         11    1    3    3    0    0 -0.55606370707E+01  0.93051173415E-01  0.26224827523E+01  0.61487201270E+01  0.51100000000E-03 0. -1.
        -11    1    3    3    0    0 -0.56869684204E+01 -0.40222072595E+01  0.15571309198E+02  0.17058295092E+02  0.51100000000E-03 0.  1.
         12    1    3    3    0    0 -0.87113322845E+01 -0.19203222841E+02  0.12630828688E+02  0.24580254494E+02  0.00000000000E+00 0. -1.
</event>
<event>
 7    1  0.2237500E-009  0.4778727E+02  0.7816164E-02  0.1312668E+00
        -11   -1    0    0    0    0  0.00000000000E+00  0.00000000000E+00  0.45593999997E+02  0.45594000000E+02  0.51100000000E-03 0.  1.
         11   -1    0    0    0    0 -0.00000000000E+00 -0.00000000000E+00 -0.45593999997E+02  0.45594000000E+02  0.51100000000E-03 0. -1.
    9900012    2    1    2    0    0 -0.38473998330E+02 -0.19615333349E+02  0.43143616970E+01  0.47787267671E+02  0.19999984617E+02 0.  0.
         12    1    1    2    0    0  0.38473998330E+02  0.19615333349E+02 -0.43143616970E+01  0.43400732329E+02  0.00000000000E+00 0. -1.
         11    1    3    3    0    0 -0.23328864212E+01 -0.40638267918E+01 -0.27959801107E+01  0.54566062977E+01  0.51100000000E-03 0. -1.
        -11    1    3    3    0    0 -0.93653927613E+01  0.88700727072E+00 -0.19995327309E+01  0.96174578177E+01  0.51100000000E-03 0.  1.
        -12    1    3    3    0    0 -0.26775719147E+02 -0.16438513828E+02  0.91098745386E+01  0.32713203555E+02  0.00000000000E+00 0.  1.
</event>
<event>
 7    1  0.2237500E-009  0.4778727E+02  0.7816164E-02  0.1312668E+00
        -11   -1    0    0    0    0  0.00000000000E+00  0.00000000000E+00  0.45593999997E+02  0.45594000000E+02  0.51100000000E-03 0.  1.
         11   -1    0    0    0    0 -0.00000000000E+00 -0.00000000000E+00 -0.45593999997E+02  0.45594000000E+02  0.51100000000E-03 0. -1.
    9900012    2    1    2    0    0 -0.38188481771E+02 -0.10740715816E+02  0.17603989232E+02  0.47787267828E+02  0.19999985334E+02 0.  0.
         12    1    1    2    0    0  0.38188481771E+02  0.10740715816E+02 -0.17603989232E+02  0.43400732172E+02  0.00000000000E+00 0. -1.
         11    1    3    3    0    0 -0.23587446919E+01  0.81940127817E+00 -0.11583322224E+01  0.27526039989E+01  0.51100000000E-03 0. -1.
        -11    1    3    3    0    0 -0.52582180995E+01 -0.52051933496E+01 -0.18414169592E+01  0.76245466795E+01  0.51100000000E-03 0.  1.
        -12    1    3    3    0    0 -0.30571518979E+02 -0.63549237450E+01  0.20603738414E+02  0.37410117149E+02  0.00000000000E+00 0.  1.
</event>
<event>
 7    1  0.2237500E-009  0.4778727E+02  0.7816164E-02  0.1312668E+00
        -11   -1    0    0    0    0  0.00000000000E+00  0.00000000000E+00  0.45593999997E+02  0.45594000000E+02  0.51100000000E-03 0.  1.
         11   -1    0    0    0    0 -0.00000000000E+00 -0.00000000000E+00 -0.45593999997E+02  0.45594000000E+02  0.51100000000E-03 0. -1.
    9900012    2    1    2    0    0 -0.30739281841E+02 -0.16988693777E+01  0.30591404232E+02  0.47787267078E+02  0.19999981917E+02 0.  0.
         12    1    1    2    0    0  0.30739281841E+02  0.16988693777E+01 -0.30591404232E+02  0.43400732922E+02  0.00000000000E+00 0. -1.
         11    1    3    3    0    0 -0.85646518104E+01  0.12908124992E+01  0.50605549881E+01  0.10031384480E+02  0.51100000000E-03 0. -1.
        -11    1    3    3    0    0 -0.24271281192E+02 -0.46212062300E+01  0.20656989262E+02  0.32204997180E+02  0.51100000000E-03 0.  1.
         12    1    3    3    0    0  0.20966511613E+01  0.16315243531E+01  0.48738599813E+01  0.55508854180E+01  0.00000000000E+00 0. -1.
</event>
<event>
 7    1  0.2237500E-009  0.4778727E+02  0.7816164E-02  0.1312668E+00
        -11   -1    0    0    0    0  0.00000000000E+00  0.00000000000E+00  0.45593999997E+02  0.45594000000E+02  0.51100000000E-03 0. -1.
         11   -1    0    0    0    0 -0.00000000000E+00 -0.00000000000E+00 -0.45593999997E+02  0.45594000000E+02  0.51100000000E-03 0.  1.
    9900012    2    1    2    0    0 -0.72045843604E+01 -0.32381013868E+02 -0.27985482578E+02  0.47787270397E+02  0.19999997047E+02 0.  0.
         12    1    1    2    0    0  0.72045843604E+01  0.32381013868E+02  0.27985482578E+02  0.43400729603E+02  0.00000000000E+00 0. -1.
         11    1    3    3    0    0 -0.72779235091E+01 -0.13797934371E+02 -0.11835660637E+02  0.19581471510E+02  0.51100000000E-03 0. -1.
        -11    1    3    3    0    0 -0.63631114607E+01 -0.83567639404E+01 -0.10552996745E+02  0.14889272366E+02  0.51100000000E-03 0.  1.
         12    1    3    3    0    0  0.64364506094E+01 -0.10226315557E+02 -0.55968251958E+01  0.13316526521E+02  0.00000000000E+00 0. -1.
</event>
<event>
 7    1  0.2237500E-009  0.4778727E+02  0.7816164E-02  0.1312668E+00
        -11   -1    0    0    0    0  0.00000000000E+00  0.00000000000E+00  0.45593999997E+02  0.45594000000E+02  0.51100000000E-03 0.  1.
         11   -1    0    0    0    0 -0.00000000000E+00 -0.00000000000E+00 -0.45593999997E+02  0.45594000000E+02  0.51100000000E-03 0. -1.
    9900012    2    1    2    0    0  0.29307661680E+02 -0.16678316370E+02  0.27322475684E+02  0.47787274803E+02  0.20000017139E+02 0.  0.
         12    1    1    2    0    0 -0.29307661680E+02  0.16678316370E+02 -0.27322475684E+02  0.43400725197E+02  0.00000000000E+00 0. -1.
         11    1    3    3    0    0  0.41891333308E+00 -0.13695938221E+00 -0.64872154024E+00  0.78427428295E+00  0.51100000000E-03 0. -1.
        -11    1    3    3    0    0  0.20213674883E+02 -0.12878104730E+02  0.85990337939E+01  0.25463338669E+02  0.51100000000E-03 0.  1.
        -12    1    3    3    0    0  0.86750734636E+01 -0.36632522579E+01  0.19372163431E+02  0.21539661852E+02  0.00000000000E+00 0.  1.
</event>
<event>
 7    1  0.2237500E-009  0.4778723E+02  0.7816164E-02  0.1312668E+00
        -11   -1    0    0    0    0  0.00000000000E+00  0.00000000000E+00  0.45593999997E+02  0.45594000000E+02  0.51100000000E-03 0.  1.
         11   -1    0    0    0    0 -0.00000000000E+00 -0.00000000000E+00 -0.45593999997E+02  0.45594000000E+02  0.51100000000E-03 0. -1.
    9900012    2    1    2    0    0  0.89145442944E+01 -0.28167676329E+02  0.31792137895E+02  0.47787226715E+02  0.19999797884E+02 0.  0.
         12    1    1    2    0    0 -0.89145442944E+01  0.28167676329E+02 -0.31792137895E+02  0.43400773285E+02  0.00000000000E+00 0. -1.
         11    1    3    3    0    0 -0.51216825825E-01 -0.16331027594E+02  0.13156225536E+02  0.20971203019E+02  0.51100000000E-03 0. -1.
        -11    1    3    3    0    0  0.58137565336E+01 -0.13920391389E+02  0.16912746565E+02  0.22663143164E+02  0.51100000000E-03 0.  1.
        -12    1    3    3    0    0  0.31520045866E+01  0.20837426536E+01  0.17231657940E+01  0.41528805321E+01  0.00000000000E+00 0.  1.
</event>
<event>
 7    1  0.2237500E-009  0.4778727E+02  0.7816164E-02  0.1312668E+00
        -11   -1    0    0    0    0  0.00000000000E+00  0.00000000000E+00  0.45593999997E+02  0.45594000000E+02  0.51100000000E-03 0.  1.
         11   -1    0    0    0    0 -0.00000000000E+00 -0.00000000000E+00 -0.45593999997E+02  0.45594000000E+02  0.51100000000E-03 0. -1.
    9900012    2    1    2    0    0  0.31216095039E+02  0.11758724880E+02  0.27765292469E+02  0.47787266526E+02  0.19999979396E+02 0.  0.
         12    1    1    2    0    0 -0.31216095039E+02 -0.11758724880E+02 -0.27765292469E+02  0.43400733474E+02  0.00000000000E+00 0. -1.
         11    1    3    3    0    0  0.65780141974E+01 -0.68387257443E+00  0.10216706581E+02  0.12170416842E+02  0.51100000000E-03 0. -1.
        -11    1    3    3    0    0  0.20237455002E+02  0.12422497592E+02  0.19572907625E+02  0.30772906014E+02  0.51100000000E-03 0.  1.
         12    1    3    3    0    0  0.44006258394E+01  0.20099862522E-01 -0.20243217374E+01  0.48439436702E+01  0.00000000000E+00 0. -1.
</event>
<event>
 7    1  0.2237500E-009  0.4778727E+02  0.7816164E-02  0.1312668E+00
        -11   -1    0    0    0    0  0.00000000000E+00  0.00000000000E+00  0.45593999997E+02  0.45594000000E+02  0.51100000000E-03 0.  1.
         11   -1    0    0    0    0 -0.00000000000E+00 -0.00000000000E+00 -0.45593999997E+02  0.45594000000E+02  0.51100000000E-03 0. -1.
    9900012    2    1    2    0    0 -0.18743274627E+02 -0.10537505565E+02  0.37699784601E+02  0.47787272745E+02  0.20000007754E+02 0.  0.
         12    1    1    2    0    0  0.18743274627E+02  0.10537505565E+02 -0.37699784601E+02  0.43400727255E+02  0.00000000000E+00 0. -1.
         11    1    3    3    0    0 -0.77246562362E+01 -0.71239511649E+01  0.11673407265E+02  0.15706350040E+02  0.51100000000E-03 0. -1.
        -11    1    3    3    0    0 -0.27769513376E+01 -0.57170357444E+01  0.21459749031E+02  0.22381170326E+02  0.51100000000E-03 0.  1.
         12    1    3    3    0    0 -0.82416670537E+01  0.23034813440E+01  0.45666283055E+01  0.96997523786E+01  0.00000000000E+00 0. -1.
</event>
<event>
 7    1  0.2237500E-009  0.4778727E+02  0.7816164E-02  0.1312668E+00
        -11   -1    0    0    0    0  0.00000000000E+00  0.00000000000E+00  0.45593999997E+02  0.45594000000E+02  0.51100000000E-03 0.  1.
         11   -1    0    0    0    0 -0.00000000000E+00 -0.00000000000E+00 -0.45593999997E+02  0.45594000000E+02  0.51100000000E-03 0. -1.
    9900012    2    1    2    0    0  0.27936251473E+02  0.32029907138E+02  0.87905767139E+01  0.47787270322E+02  0.19999996706E+02 0.  0.
         12    1    1    2    0    0 -0.27936251473E+02 -0.32029907138E+02 -0.87905767139E+01  0.43400729678E+02  0.00000000000E+00 0. -1.
         11    1    3    3    0    0  0.34414428440E+01  0.83074094625E+01  0.13812792775E+01  0.90975004001E+01  0.51100000000E-03 0. -1.
        -11    1    3    3    0    0  0.13852644385E+02  0.23554962250E+02  0.50861154725E+01  0.27795693442E+02  0.51100000000E-03 0.  1.
         12    1    3    3    0    0  0.10642164244E+02  0.16753542535E+00  0.23231819639E+01  0.10894076480E+02  0.00000000000E+00 0. -1.
</event>
<event>
 7    1  0.2237500E-009  0.4778727E+02  0.7816164E-02  0.1312668E+00
        -11   -1    0    0    0    0  0.00000000000E+00  0.00000000000E+00  0.45593999997E+02  0.45594000000E+02  0.51100000000E-03 0. -1.
         11   -1    0    0    0    0 -0.00000000000E+00 -0.00000000000E+00 -0.45593999997E+02  0.45594000000E+02  0.51100000000E-03 0.  1.
    9900012    2    1    2    0    0 -0.23321819602E+01  0.41469448615E+02  0.12588448851E+02  0.47787270909E+02  0.19999999383E+02 0.  0.
         12    1    1    2    0    0  0.23321819602E+01 -0.41469448615E+02 -0.12588448851E+02  0.43400729091E+02  0.00000000000E+00 0. -1.
         11    1    3    3    0    0 -0.26322510116E+01  0.11104374354E+02 -0.12014897059E+01  0.11475166794E+02  0.51100000000E-03 0. -1.
        -11    1    3    3    0    0  0.20552092138E+01  0.26732963400E+02  0.59038406310E+01  0.27454153630E+02  0.51100000000E-03 0.  1.
         12    1    3    3    0    0 -0.17551401624E+01  0.36321108607E+01  0.78860979259E+01  0.88579504848E+01  0.00000000000E+00 0. -1.
</event>
<event>
 7    1  0.2237500E-009  0.4778727E+02  0.7816164E-02  0.1312668E+00
        -11   -1    0    0    0    0  0.00000000000E+00  0.00000000000E+00  0.45593999997E+02  0.45594000000E+02  0.51100000000E-03 0. -1.
         11   -1    0    0    0    0 -0.00000000000E+00 -0.00000000000E+00 -0.45593999997E+02  0.45594000000E+02  0.51100000000E-03 0.  1.
    9900012    2    1    2    0    0 -0.43600223939E+01 -0.40770766842E+01 -0.42988264614E+02  0.47787271387E+02  0.20000001563E+02 0.  0.
         12    1    1    2    0    0  0.43600223939E+01  0.40770766842E+01  0.42988264614E+02  0.43400728613E+02  0.00000000000E+00 0. -1.
         11    1    3    3    0    0 -0.46820578836E+01 -0.73792071520E+01 -0.14575131995E+02  0.16994376633E+02  0.51100000000E-03 0.  1.
        -11    1    3    3    0    0  0.42610469743E+01 -0.52868331270E+00 -0.43566830361E+01  0.61169203608E+01  0.51100000000E-03 0. -1.
        -12    1    3    3    0    0 -0.39390114845E+01  0.38308137805E+01 -0.24056449583E+02  0.24675974393E+02  0.00000000000E+00 0.  1.
</event>
<event>
 7    1  0.2237500E-009  0.4778727E+02  0.7816164E-02  0.1312668E+00
        -11   -1    0    0    0    0  0.00000000000E+00  0.00000000000E+00  0.45593999997E+02  0.45594000000E+02  0.51100000000E-03 0.  1.
         11   -1    0    0    0    0 -0.00000000000E+00 -0.00000000000E+00 -0.45593999997E+02  0.45594000000E+02  0.51100000000E-03 0. -1.
    9900012    2    1    2    0    0  0.20060891288E+02 -0.24542899758E+02  0.29645075574E+02  0.47787265057E+02  0.19999972699E+02 0.  0.
         12    1    1    2    0    0 -0.20060891288E+02  0.24542899758E+02 -0.29645075574E+02  0.43400734943E+02  0.00000000000E+00 0. -1.
         11    1    3    3    0    0 -0.30400229627E+01 -0.44977150095E+01  0.74409701465E+01  0.92108206421E+01  0.51100000000E-03 0. -1.
        -11    1    3    3    0    0  0.35624141664E+01 -0.62148547276E+01  0.80125261164E+01  0.10747827176E+02  0.51100000000E-03 0.  1.
        -12    1    3    3    0    0  0.19538500085E+02 -0.13830330021E+02  0.14191579312E+02  0.27828617238E+02  0.00000000000E+00 0.  1.
</event>
<event>
 7    1  0.2237500E-009  0.4778726E+02  0.7816164E-02  0.1312668E+00
        -11   -1    0    0    0    0  0.00000000000E+00  0.00000000000E+00  0.45593999997E+02  0.45594000000E+02  0.51100000000E-03 0.  1.
         11   -1    0    0    0    0 -0.00000000000E+00 -0.00000000000E+00 -0.45593999997E+02  0.45594000000E+02  0.51100000000E-03 0. -1.
    9900012    2    1    2    0    0 -0.21861764009E+02 -0.10881869232E+02  0.35878573654E+02  0.47787264396E+02  0.19999969687E+02 0.  0.
         12    1    1    2    0    0  0.21861764009E+02  0.10881869232E+02 -0.35878573654E+02  0.43400735604E+02  0.00000000000E+00 0. -1.
         11    1    3    3    0    0 -0.35782712187E+01  0.14552309514E+01  0.69433208262E+01  0.79455287045E+01  0.51100000000E-03 0. -1.
        -11    1    3    3    0    0 -0.11995482381E+02 -0.13392914100E+02  0.28171692666E+02  0.33420143829E+02  0.51100000000E-03 0.  1.
         12    1    3    3    0    0 -0.62880104089E+01  0.10558139167E+01  0.76356016186E+00  0.64215918626E+01  0.00000000000E+00 0. -1.
</event>
<event>
 7    1  0.2237500E-009  0.4778727E+02  0.7816164E-02  0.1312668E+00
        -11   -1    0    0    0    0  0.00000000000E+00  0.00000000000E+00  0.45593999997E+02  0.45594000000E+02  0.51100000000E-03 0.  1.
         11   -1    0    0    0    0 -0.00000000000E+00 -0.00000000000E+00 -0.45593999997E+02  0.45594000000E+02  0.51100000000E-03 0. -1.
    9900012    2    1    2    0    0 -0.10985963627E+02 -0.98654214721E+01  0.40811829696E+02  0.47787269813E+02  0.19999994386E+02 0.  0.
         12    1    1    2    0    0  0.10985963627E+02  0.98654214721E+01 -0.40811829696E+02  0.43400730187E+02  0.00000000000E+00 0. -1.
         11    1    3    3    0    0 -0.34407151303E+01  0.73026422225E+00  0.10134405132E+01  0.36604464724E+01  0.51100000000E-03 0. -1.
        -11    1    3    3    0    0  0.29408856979E+01 -0.39743384662E+01  0.43986051960E+01  0.66175450783E+01  0.51100000000E-03 0.  1.
        -12    1    3    3    0    0 -0.10486134195E+02 -0.66213472282E+01  0.35399783987E+02  0.37509278262E+02  0.00000000000E+00 0.  1.
</event>
<event>
 7    1  0.2237500E-009  0.4778727E+02  0.7816164E-02  0.1312668E+00
        -11   -1    0    0    0    0  0.00000000000E+00  0.00000000000E+00  0.45593999997E+02  0.45594000000E+02  0.51100000000E-03 0.  1.
         11   -1    0    0    0    0 -0.00000000000E+00 -0.00000000000E+00 -0.45593999997E+02  0.45594000000E+02  0.51100000000E-03 0. -1.
    9900012    2    1    2    0    0  0.30992965759E+02  0.27084980196E+02  0.13764562176E+02  0.47787271312E+02  0.20000001220E+02 0.  0.
         12    1    1    2    0    0 -0.30992965759E+02 -0.27084980196E+02 -0.13764562176E+02  0.43400728688E+02  0.00000000000E+00 0. -1.
         11    1    3    3    0    0  0.15521738746E+02  0.88885886819E+01  0.27477534207E+01  0.18096450800E+02  0.51100000000E-03 0. -1.
        -11    1    3    3    0    0  0.13993073375E+02  0.59060543421E+01  0.58194196021E+01  0.16265092226E+02  0.51100000000E-03 0.  1.
        -12    1    3    3    0    0  0.14781536380E+01  0.12290337172E+02  0.51973891530E+01  0.13425728285E+02  0.00000000000E+00 0.  1.
</event>
<event>
 7    1  0.2237500E-009  0.4778726E+02  0.7816164E-02  0.1312668E+00
        -11   -1    0    0    0    0  0.00000000000E+00  0.00000000000E+00  0.45593999997E+02  0.45594000000E+02  0.51100000000E-03 0.  1.
         11   -1    0    0    0    0 -0.00000000000E+00 -0.00000000000E+00 -0.45593999997E+02  0.45594000000E+02  0.51100000000E-03 0. -1.
    9900012    2    1    2    0    0 -0.33260268511E+02 -0.11053347966E+02  0.25596912888E+02  0.47787263692E+02  0.19999966479E+02 0.  0.
         12    1    1    2    0    0  0.33260268511E+02  0.11053347966E+02 -0.25596912888E+02  0.43400736308E+02  0.00000000000E+00 0. -1.
         11    1    3    3    0    0 -0.13671490647E+01 -0.17161867790E+01  0.46253689691E+00  0.22423947618E+01  0.51100000000E-03 0. -1.
        -11    1    3    3    0    0 -0.28691060163E+02 -0.12094169290E+02  0.26722406969E+02  0.41030877380E+02  0.51100000000E-03 0.  1.
        -12    1    3    3    0    0 -0.32020592829E+01  0.27570081034E+01 -0.15880309780E+01  0.45139915508E+01  0.00000000000E+00 0.  1.
</event>
<event>
 7    1  0.2237500E-009  0.4778727E+02  0.7816164E-02  0.1312668E+00
        -11   -1    0    0    0    0  0.00000000000E+00  0.00000000000E+00  0.45593999997E+02  0.45594000000E+02  0.51100000000E-03 0.  1.
         11   -1    0    0    0    0 -0.00000000000E+00 -0.00000000000E+00 -0.45593999997E+02  0.45594000000E+02  0.51100000000E-03 0. -1.
    9900012    2    1    2    0    0 -0.12089500168E+02  0.12315781374E+02  0.39821967082E+02  0.47787267893E+02  0.19999985629E+02 0.  0.
         12    1    1    2    0    0  0.12089500168E+02 -0.12315781374E+02 -0.39821967082E+02  0.43400732107E+02  0.00000000000E+00 0. -1.
         11    1    3    3    0    0 -0.26097594967E+01  0.17492126466E+01 -0.80746259027E+00  0.32438535123E+01  0.51100000000E-03 0. -1.
        -11    1    3    3    0    0 -0.89088576678E+01  0.91137143250E+01  0.19125301146E+02  0.22982703886E+02  0.51100000000E-03 0.  1.
        -12    1    3    3    0    0 -0.57088300393E+00  0.14528544026E+01  0.21504128526E+02  0.21560710494E+02  0.00000000000E+00 0.  1.
</event>
<event>
 7    1  0.2237500E-009  0.4778727E+02  0.7816164E-02  0.1312668E+00
        -11   -1    0    0    0    0  0.00000000000E+00  0.00000000000E+00  0.45593999997E+02  0.45594000000E+02  0.51100000000E-03 0.  1.
         11   -1    0    0    0    0 -0.00000000000E+00 -0.00000000000E+00 -0.45593999997E+02  0.45594000000E+02  0.51100000000E-03 0. -1.
    9900012    2    1    2    0    0  0.19744552655E+02  0.10241408395E+02  0.37267804748E+02  0.47787273322E+02  0.20000010385E+02 0.  0.
         12    1    1    2    0    0 -0.19744552655E+02 -0.10241408395E+02 -0.37267804748E+02  0.43400726678E+02  0.00000000000E+00 0. -1.
         11    1    3    3    0    0  0.11141122759E+02  0.48171040485E+00  0.21683253122E+02  0.24382783423E+02  0.51100000000E-03 0. -1.
        -11    1    3    3    0    0  0.56703948294E+01  0.88746738987E+01  0.17025011544E+02  0.20019096699E+02  0.51100000000E-03 0.  1.
        -12    1    3    3    0    0  0.29330350662E+01  0.88502409195E+00 -0.14404599178E+01  0.33853931999E+01  0.00000000000E+00 0.  1.
</event>
<event>
 7    1  0.2237500E-009  0.4778729E+02  0.7816164E-02  0.1312668E+00
        -11   -1    0    0    0    0  0.00000000000E+00  0.00000000000E+00  0.45593999997E+02  0.45594000000E+02  0.51100000000E-03 0. -1.
         11   -1    0    0    0    0 -0.00000000000E+00 -0.00000000000E+00 -0.45593999997E+02  0.45594000000E+02  0.51100000000E-03 0.  1.
    9900012    2    1    2    0    0 -0.17379854279E+02  0.32214631083E+02 -0.23319091655E+02  0.47787287723E+02  0.20000076042E+02 0.  0.
         12    1    1    2    0    0  0.17379854279E+02 -0.32214631083E+02  0.23319091655E+02  0.43400712277E+02  0.00000000000E+00 0. -1.
         11    1    3    3    0    0 -0.69798690173E+01  0.94142235721E+01  0.15707662199E+01  0.11824275189E+02  0.51100000000E-03 0. -1.
        -11    1    3    3    0    0 -0.19023911385E+01  0.12282561017E+01 -0.47077503558E+01  0.52240423782E+01  0.51100000000E-03 0.  1.
        -12    1    3    3    0    0 -0.84975941236E+01  0.21572151409E+02 -0.20182107519E+02  0.30738970155E+02  0.00000000000E+00 0.  1.
</event>
<event>
 7    1  0.2237500E-009  0.4778727E+02  0.7816164E-02  0.1312668E+00
        -11   -1    0    0    0    0  0.00000000000E+00  0.00000000000E+00  0.45593999997E+02  0.45594000000E+02  0.51100000000E-03 0.  1.
         11   -1    0    0    0    0 -0.00000000000E+00 -0.00000000000E+00 -0.45593999997E+02  0.45594000000E+02  0.51100000000E-03 0. -1.
    9900012    2    1    2    0    0  0.23137317988E+02 -0.16164981719E+02  0.32969397240E+02  0.47787271066E+02  0.20000000098E+02 0.  0.
         12    1    1    2    0    0 -0.23137317988E+02  0.16164981719E+02 -0.32969397240E+02  0.43400728934E+02  0.00000000000E+00 0. -1.
         11    1    3    3    0    0  0.10870350445E+02 -0.20386453975E+01  0.97870081884E+01  0.14768416414E+02  0.51100000000E-03 0.  1.
        -11    1    3    3    0    0  0.75494320767E+01 -0.89262999195E+00  0.14854379929E+02  0.16686620878E+02  0.51100000000E-03 0. -1.
         12    1    3    3    0    0  0.47175354665E+01 -0.13233706330E+02  0.83280091219E+01  0.16332233774E+02  0.00000000000E+00 0. -1.
</event>
<event>
 7    1  0.2237500E-009  0.4778727E+02  0.7816164E-02  0.1312668E+00
        -11   -1    0    0    0    0  0.00000000000E+00  0.00000000000E+00  0.45593999997E+02  0.45594000000E+02  0.51100000000E-03 0.  1.
         11   -1    0    0    0    0 -0.00000000000E+00 -0.00000000000E+00 -0.45593999997E+02  0.45594000000E+02  0.51100000000E-03 0. -1.
    9900012    2    1    2    0    0 -0.62831728752E+01  0.20993387016E+02  0.37462282841E+02  0.47787271948E+02  0.20000004120E+02 0.  0.
         12    1    1    2    0    0  0.62831728752E+01 -0.20993387016E+02 -0.37462282841E+02  0.43400728052E+02  0.00000000000E+00 0. -1.
         11    1    3    3    0    0  0.31019739874E+01  0.10448195798E+02  0.11636038699E+02  0.15943162639E+02  0.51100000000E-03 0. -1.
        -11    1    3    3    0    0 -0.12014013491E+02  0.10136538316E+02  0.23697196185E+02  0.28436649530E+02  0.51100000000E-03 0.  1.
         12    1    3    3    0    0  0.26288666288E+01  0.40865290274E+00  0.21290479568E+01  0.34074597796E+01  0.00000000000E+00 0. -1.
</event>
<event>
 7    1  0.2237500E-009  0.4778727E+02  0.7816164E-02  0.1312668E+00
        -11   -1    0    0    0    0  0.00000000000E+00  0.00000000000E+00  0.45593999997E+02  0.45594000000E+02  0.51100000000E-03 0.  1.
         11   -1    0    0    0    0 -0.00000000000E+00 -0.00000000000E+00 -0.45593999997E+02  0.45594000000E+02  0.51100000000E-03 0. -1.
    9900012    2    1    2    0    0 -0.30479652429E+02  0.63874995828E+01  0.30229352280E+02  0.47787273020E+02  0.20000009007E+02 0.  0.
         12    1    1    2    0    0  0.30479652429E+02 -0.63874995828E+01 -0.30229352280E+02  0.43400726980E+02  0.00000000000E+00 0. -1.
         11    1    3    3    0    0 -0.10029394217E+02  0.22787277112E-02  0.10591580284E+02  0.14586648920E+02  0.51100000000E-03 0. -1.
        -11    1    3    3    0    0 -0.21858330852E+02  0.51445079828E+01  0.21106280891E+02  0.30817652139E+02  0.51100000000E-03 0.  1.
        -12    1    3    3    0    0  0.14080726401E+01  0.12407128723E+01 -0.14685088949E+01  0.23829719607E+01  0.00000000000E+00 0.  1.
</event>
<event>
 7    1  0.2237500E-009  0.4778728E+02  0.7816164E-02  0.1312668E+00
        -11   -1    0    0    0    0  0.00000000000E+00  0.00000000000E+00  0.45593999997E+02  0.45594000000E+02  0.51100000000E-03 0.  1.
         11   -1    0    0    0    0 -0.00000000000E+00 -0.00000000000E+00 -0.45593999997E+02  0.45594000000E+02  0.51100000000E-03 0. -1.
    9900012    2    1    2    0    0 -0.34851535525E+02  0.16872552709E+02  0.19603832200E+02  0.47787276500E+02  0.20000024874E+02 0.  0.
         12    1    1    2    0    0  0.34851535525E+02 -0.16872552709E+02 -0.19603832200E+02  0.43400723500E+02  0.00000000000E+00 0. -1.
         11    1    3    3    0    0 -0.64008873679E+01  0.19495841899E+01 -0.14454110855E+01  0.68455424239E+01  0.51100000000E-03 0. -1.
        -11    1    3    3    0    0 -0.51283476230E+01  0.10057779739E+02  0.69814467856E+01  0.13274015297E+02  0.51100000000E-03 0.  1.
         12    1    3    3    0    0 -0.23322300535E+02  0.48651887802E+01  0.14067796500E+02  0.27667718780E+02  0.00000000000E+00 0. -1.
</event>
<event>
 7    1  0.2237500E-009  0.4778726E+02  0.7816164E-02  0.1312668E+00
        -11   -1    0    0    0    0  0.00000000000E+00  0.00000000000E+00  0.45593999997E+02  0.45594000000E+02  0.51100000000E-03 0. -1.
         11   -1    0    0    0    0 -0.00000000000E+00 -0.00000000000E+00 -0.45593999997E+02  0.45594000000E+02  0.51100000000E-03 0.  1.
    9900012    2    1    2    0    0  0.23924922947E+02 -0.30637276196E+02 -0.19302311167E+02  0.47787264441E+02  0.19999969892E+02 0.  0.
         12    1    1    2    0    0 -0.23924922947E+02  0.30637276196E+02  0.19302311167E+02  0.43400735559E+02  0.00000000000E+00 0. -1.
         11    1    3    3    0    0  0.17914467608E+00 -0.26230874243E+00 -0.17739176267E+01  0.18021328194E+01  0.51100000000E-03 0. -1.
        -11    1    3    3    0    0  0.23387310952E+01 -0.13236060383E+02 -0.11983599947E+02  0.18007488041E+02  0.51100000000E-03 0.  1.
         12    1    3    3    0    0  0.21407047175E+02 -0.17138907070E+02 -0.55447935934E+01  0.27977643581E+02  0.00000000000E+00 0. -1.
</event>
<event>
 7    1  0.2237500E-009  0.4778727E+02  0.7816164E-02  0.1312668E+00
        -11   -1    0    0    0    0  0.00000000000E+00  0.00000000000E+00  0.45593999997E+02  0.45594000000E+02  0.51100000000E-03 0. -1.
         11   -1    0    0    0    0 -0.00000000000E+00 -0.00000000000E+00 -0.45593999997E+02  0.45594000000E+02  0.51100000000E-03 0.  1.
    9900012    2    1    2    0    0  0.45603496609E+01  0.25862772900E+02 -0.34553490148E+02  0.47787268525E+02  0.19999988515E+02 0.  0.
         12    1    1    2    0    0 -0.45603496609E+01 -0.25862772900E+02  0.34553490148E+02  0.43400731475E+02  0.00000000000E+00 0. -1.
         11    1    3    3    0    0 -0.60109867721E+00 -0.24949554943E+01 -0.47215834925E+01  0.53739625488E+01  0.51100000000E-03 0.  1.
        -11    1    3    3    0    0 -0.11405253470E+01  0.13351759002E+01 -0.12085581057E+00  0.17601417953E+01  0.51100000000E-03 0. -1.
        -12    1    3    3    0    0  0.63019736851E+01  0.27022552494E+02 -0.29711050845E+02  0.40653164181E+02  0.00000000000E+00 0.  1.
</event>
<event>
 7    1  0.2237500E-009  0.4778727E+02  0.7816164E-02  0.1312668E+00
        -11   -1    0    0    0    0  0.00000000000E+00  0.00000000000E+00  0.45593999997E+02  0.45594000000E+02  0.51100000000E-03 0.  1.
         11   -1    0    0    0    0 -0.00000000000E+00 -0.00000000000E+00 -0.45593999997E+02  0.45594000000E+02  0.51100000000E-03 0. -1.
    9900012    2    1    2    0    0 -0.91878993401E+01 -0.38237116624E+02  0.18361065483E+02  0.47787270655E+02  0.19999998226E+02 0.  0.
         12    1    1    2    0    0  0.91878993401E+01  0.38237116624E+02 -0.18361065483E+02  0.43400729345E+02  0.00000000000E+00 0. -1.
         11    1    3    3    0    0 -0.37903227396E+01 -0.38508528812E+01 -0.14181269761E+01  0.55862956209E+01  0.51100000000E-03 0. -1.
        -11    1    3    3    0    0  0.11750458119E+00 -0.63003456456E+01 -0.15693243009E+01  0.64939157373E+01  0.51100000000E-03 0.  1.
        -12    1    3    3    0    0 -0.55150811817E+01 -0.28085918097E+02  0.21348516760E+02  0.35707059297E+02  0.00000000000E+00 0.  1.
</event>
<event>
 7    1  0.2237500E-009  0.4778727E+02  0.7816164E-02  0.1312668E+00
        -11   -1    0    0    0    0  0.00000000000E+00  0.00000000000E+00  0.45593999997E+02  0.45594000000E+02  0.51100000000E-03 0.  1.
         11   -1    0    0    0    0 -0.00000000000E+00 -0.00000000000E+00 -0.45593999997E+02  0.45594000000E+02  0.51100000000E-03 0. -1.
    9900012    2    1    2    0    0  0.98979778013E+00 -0.85969573715E+01  0.42529240983E+02  0.47787265971E+02  0.19999976867E+02 0.  0.
         12    1    1    2    0    0 -0.98979778013E+00  0.85969573715E+01 -0.42529240983E+02  0.43400734029E+02  0.00000000000E+00 0. -1.
         11    1    3    3    0    0 -0.11339456401E+01  0.49651873400E+00  0.16477583166E+01  0.20609394215E+01  0.51100000000E-03 0. -1.
        -11    1    3    3    0    0  0.59976987830E+01 -0.59865689110E+01  0.39736586412E+02  0.40630132881E+02  0.51100000000E-03 0.  1.
         12    1    3    3    0    0 -0.38739553628E+01 -0.31069071945E+01  0.11448962547E+01  0.50961936681E+01  0.00000000000E+00 0. -1.
</event>
<event>
 7    1  0.2237500E-009  0.4778727E+02  0.7816164E-02  0.1312668E+00
        -11   -1    0    0    0    0  0.00000000000E+00  0.00000000000E+00  0.45593999997E+02  0.45594000000E+02  0.51100000000E-03 0.  1.
         11   -1    0    0    0    0 -0.00000000000E+00 -0.00000000000E+00 -0.45593999997E+02  0.45594000000E+02  0.51100000000E-03 0. -1.
    9900012    2    1    2    0    0 -0.12232149435E+02  0.75763627690E+01  0.40946264565E+02  0.47787270347E+02  0.19999996819E+02 0.  0.
         12    1    1    2    0    0  0.12232149435E+02 -0.75763627690E+01 -0.40946264565E+02  0.43400729653E+02  0.00000000000E+00 0. -1.
         11    1    3    3    0    0 -0.43794578522E+01  0.37317811653E+01  0.69318447965E+01  0.90086799415E+01  0.51100000000E-03 0.  1.
        -11    1    3    3    0    0 -0.50326485827E+01  0.23296558671E+00  0.33819042529E+02  0.34192242725E+02  0.51100000000E-03 0. -1.
         12    1    3    3    0    0 -0.28200430003E+01  0.36116160170E+01  0.19537723925E+00  0.45863476802E+01  0.00000000000E+00 0. -1.
</event>
<event>
 7    1  0.2237500E-009  0.4778728E+02  0.7816164E-02  0.1312668E+00
        -11   -1    0    0    0    0  0.00000000000E+00  0.00000000000E+00  0.45593999997E+02  0.45594000000E+02  0.51100000000E-03 0.  1.
         11   -1    0    0    0    0 -0.00000000000E+00 -0.00000000000E+00 -0.45593999997E+02  0.45594000000E+02  0.51100000000E-03 0. -1.
    9900012    2    1    2    0    0 -0.41355123297E+02  0.22957881524E+01  0.12965568782E+02  0.47787276043E+02  0.20000022792E+02 0.  0.
         12    1    1    2    0    0  0.41355123297E+02 -0.22957881524E+01 -0.12965568782E+02  0.43400723957E+02  0.00000000000E+00 0. -1.
         11    1    3    3    0    0 -0.20550784065E+02  0.40477101275E+00  0.98997088604E+01  0.22814530481E+02  0.51100000000E-03 0.  1.
        -11    1    3    3    0    0 -0.11411462652E+02 -0.42097122415E+01  0.57523445644E+01  0.13454836501E+02  0.51100000000E-03 0. -1.
         12    1    3    3    0    0 -0.93928765796E+01  0.61007293811E+01 -0.26864846429E+01  0.11517909062E+02  0.00000000000E+00 0. -1.
</event>
<event>
 7    1  0.2237500E-009  0.4778727E+02  0.7816164E-02  0.1312668E+00
        -11   -1    0    0    0    0  0.00000000000E+00  0.00000000000E+00  0.45593999997E+02  0.45594000000E+02  0.51100000000E-03 0.  1.
         11   -1    0    0    0    0 -0.00000000000E+00 -0.00000000000E+00 -0.45593999997E+02  0.45594000000E+02  0.51100000000E-03 0. -1.
    9900012    2    1    2    0    0  0.13057429610E+02 -0.29388033186E+02  0.29145682876E+02  0.47787265066E+02  0.19999972740E+02 0.  0.
         12    1    1    2    0    0 -0.13057429610E+02  0.29388033186E+02 -0.29145682876E+02  0.43400734934E+02  0.00000000000E+00 0. -1.
         11    1    3    3    0    0  0.60313964162E+01 -0.34199910168E+01  0.24725046702E+01  0.73612064833E+01  0.51100000000E-03 0. -1.
        -11    1    3    3    0    0  0.10044903065E+02 -0.21061672613E+02  0.15985830352E+02  0.28284994311E+02  0.51100000000E-03 0.  1.
         12    1    3    3    0    0 -0.30188698708E+01 -0.49063695559E+01  0.10687347853E+02  0.12141064272E+02  0.00000000000E+00 0. -1.
</event>
<event>
 7    1  0.2237500E-009  0.4778727E+02  0.7816164E-02  0.1312668E+00
        -11   -1    0    0    0    0  0.00000000000E+00  0.00000000000E+00  0.45593999997E+02  0.45594000000E+02  0.51100000000E-03 0.  1.
         11   -1    0    0    0    0 -0.00000000000E+00 -0.00000000000E+00 -0.45593999997E+02  0.45594000000E+02  0.51100000000E-03 0. -1.
    9900012    2    1    2    0    0 -0.19841775317E+02  0.12883110831E+02  0.36386157165E+02  0.47787273904E+02  0.20000013040E+02 0.  0.
         12    1    1    2    0    0  0.19841775317E+02 -0.12883110831E+02 -0.36386157165E+02  0.43400726096E+02  0.00000000000E+00 0. -1.
         11    1    3    3    0    0 -0.39349541387E+01  0.10380852796E+02  0.12548041466E+02  0.16754083495E+02  0.51100000000E-03 0. -1.
        -11    1    3    3    0    0 -0.11918867502E+02  0.65129686471E+01  0.20081193865E+02  0.24243195137E+02  0.51100000000E-03 0.  1.
         12    1    3    3    0    0 -0.39879536768E+01 -0.40107106126E+01  0.37569218329E+01  0.67899952728E+01  0.00000000000E+00 0. -1.
</event>
<event>
 7    1  0.2237500E-009  0.4778727E+02  0.7816164E-02  0.1312668E+00
        -11   -1    0    0    0    0  0.00000000000E+00  0.00000000000E+00  0.45593999997E+02  0.45594000000E+02  0.51100000000E-03 0.  1.
         11   -1    0    0    0    0 -0.00000000000E+00 -0.00000000000E+00 -0.45593999997E+02  0.45594000000E+02  0.51100000000E-03 0. -1.
    9900012    2    1    2    0    0  0.39646452265E+02 -0.47173422185E+01  0.17015548320E+02  0.47787269828E+02  0.19999994454E+02 0.  0.
         12    1    1    2    0    0 -0.39646452265E+02  0.47173422185E+01 -0.17015548320E+02  0.43400730172E+02  0.00000000000E+00 0. -1.
         11    1    3    3    0    0  0.14879449825E+02  0.26449139867E+01  0.20853017465E+01  0.15255886757E+02  0.51100000000E-03 0. -1.
        -11    1    3    3    0    0  0.19608893025E+02  0.25647086929E+00  0.89372401951E+01  0.21551072492E+02  0.51100000000E-03 0.  1.
         12    1    3    3    0    0  0.51581094153E+01 -0.76187270746E+01  0.59930063785E+01  0.10980310580E+02  0.00000000000E+00 0. -1.
</event>
<event>
 7    1  0.2237500E-009  0.4778727E+02  0.7816164E-02  0.1312668E+00
        -11   -1    0    0    0    0  0.00000000000E+00  0.00000000000E+00  0.45593999997E+02  0.45594000000E+02  0.51100000000E-03 0. -1.
         11   -1    0    0    0    0 -0.00000000000E+00 -0.00000000000E+00 -0.45593999997E+02  0.45594000000E+02  0.51100000000E-03 0.  1.
    9900012    2    1    2    0    0  0.26719038371E+01  0.18715199518E+02 -0.39066937061E+02  0.47787270346E+02  0.19999996817E+02 0.  0.
         12    1    1    2    0    0 -0.26719038371E+01 -0.18715199518E+02  0.39066937061E+02  0.43400729654E+02  0.00000000000E+00 0. -1.
         11    1    3    3    0    0  0.15478847448E+01  0.11077243466E+02 -0.27502817633E+02  0.29690170899E+02  0.51100000000E-03 0.  1.
        -11    1    3    3    0    0 -0.17124986456E+01  0.26770639890E+01 -0.11954032831E+02  0.12369245102E+02  0.51100000000E-03 0. -1.
         12    1    3    3    0    0  0.28365177379E+01  0.49608920630E+01  0.38991340270E+00  0.57278543452E+01  0.00000000000E+00 0. -1.
</event>
<event>
 7    1  0.2237500E-009  0.4778727E+02  0.7816164E-02  0.1312668E+00
        -11   -1    0    0    0    0  0.00000000000E+00  0.00000000000E+00  0.45593999997E+02  0.45594000000E+02  0.51100000000E-03 0. -1.
         11   -1    0    0    0    0 -0.00000000000E+00 -0.00000000000E+00 -0.45593999997E+02  0.45594000000E+02  0.51100000000E-03 0.  1.
    9900012    2    1    2    0    0 -0.17219754510E+02  0.39607459084E+02 -0.42839567210E+01  0.47787273674E+02  0.20000011987E+02 0.  0.
         12    1    1    2    0    0  0.17219754510E+02 -0.39607459084E+02  0.42839567210E+01  0.43400726326E+02  0.00000000000E+00 0. -1.
         11    1    3    3    0    0 -0.15571688894E+02  0.27675749139E+02 -0.33788467198E+01  0.31934952495E+02  0.51100000000E-03 0. -1.
        -11    1    3    3    0    0 -0.21926026662E+01  0.69397500662E+01 -0.54398451393E+01  0.90862287465E+01  0.51100000000E-03 0.  1.
         12    1    3    3    0    0  0.54453705007E+00  0.49919598785E+01  0.45347351381E+01  0.67660924321E+01  0.00000000000E+00 0. -1.
</event>
<event>
 7    1  0.2237500E-009  0.4778727E+02  0.7816164E-02  0.1312668E+00
        -11   -1    0    0    0    0  0.00000000000E+00  0.00000000000E+00  0.45593999997E+02  0.45594000000E+02  0.51100000000E-03 0.  1.
         11   -1    0    0    0    0 -0.00000000000E+00 -0.00000000000E+00 -0.45593999997E+02  0.45594000000E+02  0.51100000000E-03 0. -1.
    9900012    2    1    2    0    0 -0.28186657763E+02 -0.21479490084E+02 -0.25055282973E+02  0.47787269880E+02  0.19999994689E+02 0.  0.
         12    1    1    2    0    0  0.28186657763E+02  0.21479490084E+02  0.25055282973E+02  0.43400730120E+02  0.00000000000E+00 0. -1.
         11    1    3    3    0    0 -0.16852903950E+02 -0.69994379424E+01 -0.52484299717E+01  0.18988378564E+02  0.51100000000E-03 0. -1.
        -11    1    3    3    0    0 -0.17209272645E-01 -0.33322590689E+01  0.96379135335E-01  0.33336970259E+01  0.51100000000E-03 0.  1.
        -12    1    3    3    0    0 -0.11316544540E+02 -0.11147793073E+02 -0.19903232137E+02  0.25465194290E+02  0.00000000000E+00 0.  1.
</event>
<event>
 7    1  0.2237500E-009  0.4778727E+02  0.7816164E-02  0.1312668E+00
        -11   -1    0    0    0    0  0.00000000000E+00  0.00000000000E+00  0.45593999997E+02  0.45594000000E+02  0.51100000000E-03 0. -1.
         11   -1    0    0    0    0 -0.00000000000E+00 -0.00000000000E+00 -0.45593999997E+02  0.45594000000E+02  0.51100000000E-03 0.  1.
    9900012    2    1    2    0    0  0.96787055309E+01 -0.23100768981E+02 -0.35444327486E+02  0.47787271674E+02  0.20000002872E+02 0.  0.
         12    1    1    2    0    0 -0.96787055309E+01  0.23100768981E+02  0.35444327486E+02  0.43400728326E+02  0.00000000000E+00 0. -1.
         11    1    3    3    0    0  0.80779668593E+01 -0.63726961181E+01 -0.13596180526E+02  0.17050540448E+02  0.51100000000E-03 0. -1.
        -11    1    3    3    0    0  0.72170205948E+01 -0.93824250081E+01 -0.88246041574E+01  0.14764447978E+02  0.51100000000E-03 0.  1.
        -12    1    3    3    0    0 -0.56162819232E+01 -0.73456478547E+01 -0.13023542803E+02  0.15972283249E+02  0.00000000000E+00 0.  1.
</event>
<event>
 7    1  0.2237500E-009  0.4778728E+02  0.7816164E-02  0.1312668E+00
        -11   -1    0    0    0    0  0.00000000000E+00  0.00000000000E+00  0.45593999997E+02  0.45594000000E+02  0.51100000000E-03 0.  1.
         11   -1    0    0    0    0 -0.00000000000E+00 -0.00000000000E+00 -0.45593999997E+02  0.45594000000E+02  0.51100000000E-03 0. -1.
    9900012    2    1    2    0    0 -0.14562563012E+02  0.14897754987E+02  0.38073756761E+02  0.47787282275E+02  0.20000051205E+02 0.  0.
         12    1    1    2    0    0  0.14562563012E+02 -0.14897754987E+02 -0.38073756761E+02  0.43400717725E+02  0.00000000000E+00 0. -1.
         11    1    3    3    0    0 -0.34770525971E+01 -0.33869052220E+00  0.80118834197E+01  0.87404165933E+01  0.51100000000E-03 0. -1.
        -11    1    3    3    0    0 -0.73351480034E+01  0.78081178278E+01  0.28674766667E+02  0.30610673692E+02  0.51100000000E-03 0.  1.
         12    1    3    3    0    0 -0.37503624116E+01  0.74283276810E+01  0.13871066750E+01  0.84361919894E+01  0.00000000000E+00 0. -1.
</event>
<event>
 7    1  0.2237500E-009  0.4778726E+02  0.7816164E-02  0.1312668E+00
        -11   -1    0    0    0    0  0.00000000000E+00  0.00000000000E+00  0.45593999997E+02  0.45594000000E+02  0.51100000000E-03 0.  1.
         11   -1    0    0    0    0 -0.00000000000E+00 -0.00000000000E+00 -0.45593999997E+02  0.45594000000E+02  0.51100000000E-03 0. -1.
    9900012    2    1    2    0    0  0.49477699924E-01 -0.32360073374E+00  0.43399503844E+02  0.47787261534E+02  0.19999956638E+02 0.  0.
         12    1    1    2    0    0 -0.49477699924E-01  0.32360073374E+00 -0.43399503844E+02  0.43400738466E+02  0.00000000000E+00 0. -1.
         11    1    3    3    0    0 -0.29724488556E+01 -0.40025256745E+00  0.77445422851E+00  0.30976497430E+01  0.51100000000E-03 0. -1.
        -11    1    3    3    0    0  0.47815190192E+01  0.60334780382E-01  0.46374202607E+01  0.66612484830E+01  0.51100000000E-03 0.  1.
        -12    1    3    3    0    0 -0.17595924637E+01  0.16317053321E-01  0.37987629355E+02  0.38028363308E+02  0.00000000000E+00 0.  1.
</event>
<event>
 7    1  0.2237500E-009  0.4778727E+02  0.7816164E-02  0.1312668E+00
        -11   -1    0    0    0    0  0.00000000000E+00  0.00000000000E+00  0.45593999997E+02  0.45594000000E+02  0.51100000000E-03 0. -1.
         11   -1    0    0    0    0 -0.00000000000E+00 -0.00000000000E+00 -0.45593999997E+02  0.45594000000E+02  0.51100000000E-03 0.  1.
    9900012    2    1    2    0    0 -0.87503212058E+01 -0.17301881205E+02 -0.38829114328E+02  0.47787270352E+02  0.19999996844E+02 0.  0.
         12    1    1    2    0    0  0.87503212058E+01  0.17301881205E+02  0.38829114328E+02  0.43400729648E+02  0.00000000000E+00 0. -1.
         11    1    3    3    0    0 -0.19527468634E+01  0.13463160391E+01 -0.62807378977E+01  0.67136767863E+01  0.51100000000E-03 0. -1.
        -11    1    3    3    0    0  0.48050244266E+01 -0.43491649034E+01 -0.10593489126E+02  0.12418756267E+02  0.51100000000E-03 0.  1.
        -12    1    3    3    0    0 -0.11602598769E+02 -0.14299032341E+02 -0.21954887304E+02  0.28654837299E+02  0.00000000000E+00 0.  1.
</event>
<event>
 7    1  0.2237500E-009  0.4778723E+02  0.7816164E-02  0.1312668E+00
        -11   -1    0    0    0    0  0.00000000000E+00  0.00000000000E+00  0.45593999997E+02  0.45594000000E+02  0.51100000000E-03 0.  1.
         11   -1    0    0    0    0 -0.00000000000E+00 -0.00000000000E+00 -0.45593999997E+02  0.45594000000E+02  0.51100000000E-03 0. -1.
    9900012    2    1    2    0    0 -0.19988429476E+02 -0.31126204323E+02  0.22699093933E+02  0.47787230722E+02  0.19999816154E+02 0.  0.
         12    1    1    2    0    0  0.19988429476E+02  0.31126204323E+02 -0.22699093933E+02  0.43400769278E+02  0.00000000000E+00 0. -1.
         11    1    3    3    0    0 -0.71075186526E+01 -0.11588905865E+02  0.92036775237E+01  0.16417284817E+02  0.51100000000E-03 0. -1.
        -11    1    3    3    0    0 -0.10637332070E+02 -0.18111511363E+02  0.16964467032E+02  0.26999496650E+02  0.51100000000E-03 0.  1.
         12    1    3    3    0    0 -0.22435787541E+01 -0.14257870954E+01 -0.34690506226E+01  0.43704492549E+01  0.00000000000E+00 0. -1.
</event>
<event>
 7    1  0.2237500E-009  0.4778727E+02  0.7816164E-02  0.1312668E+00
        -11   -1    0    0    0    0  0.00000000000E+00  0.00000000000E+00  0.45593999997E+02  0.45594000000E+02  0.51100000000E-03 0.  1.
         11   -1    0    0    0    0 -0.00000000000E+00 -0.00000000000E+00 -0.45593999997E+02  0.45594000000E+02  0.51100000000E-03 0. -1.
    9900012    2    1    2    0    0  0.18479308637E+02 -0.27210765029E+02  0.28314535448E+02  0.47787268453E+02  0.19999988184E+02 0.  0.
         12    1    1    2    0    0 -0.18479308637E+02  0.27210765029E+02 -0.28314535448E+02  0.43400731547E+02  0.00000000000E+00 0. -1.
         11    1    3    3    0    0 -0.17347532729E+00  0.13906193747E+00  0.10597378508E+01  0.10828095332E+01  0.51100000000E-03 0. -1.
        -11    1    3    3    0    0  0.17728924961E+02 -0.24781331055E+02  0.30051645402E+02  0.42796384669E+02  0.51100000000E-03 0.  1.
        -12    1    3    3    0    0  0.92385900330E+00 -0.25684959113E+01 -0.27968478045E+01  0.39080742503E+01  0.00000000000E+00 0.  1.
</event>
<event>
 7    1  0.2237500E-009  0.4778727E+02  0.7816164E-02  0.1312668E+00
        -11   -1    0    0    0    0  0.00000000000E+00  0.00000000000E+00  0.45593999997E+02  0.45594000000E+02  0.51100000000E-03 0.  1.
         11   -1    0    0    0    0 -0.00000000000E+00 -0.00000000000E+00 -0.45593999997E+02  0.45594000000E+02  0.51100000000E-03 0. -1.
    9900012    2    1    2    0    0  0.35188286652E+02  0.11199437912E+02  0.22803073975E+02  0.47787272935E+02  0.20000008621E+02 0.  0.
         12    1    1    2    0    0 -0.35188286652E+02 -0.11199437912E+02 -0.22803073975E+02  0.43400727065E+02  0.00000000000E+00 0. -1.
         11    1    3    3    0    0  0.77265855483E+01  0.71755735285E+00  0.11161666026E+02  0.13594035513E+02  0.51100000000E-03 0. -1.
        -11    1    3    3    0    0  0.24394616858E+02  0.11033040680E+02  0.14067161556E+02  0.30244178825E+02  0.51100000000E-03 0.  1.
         12    1    3    3    0    0  0.30670842453E+01 -0.55116012125E+00 -0.24257536064E+01  0.39490585975E+01  0.00000000000E+00 0. -1.
</event>
<event>
 7    1  0.2237500E-009  0.4778727E+02  0.7816164E-02  0.1312668E+00
        -11   -1    0    0    0    0  0.00000000000E+00  0.00000000000E+00  0.45593999997E+02  0.45594000000E+02  0.51100000000E-03 0.  1.
         11   -1    0    0    0    0 -0.00000000000E+00 -0.00000000000E+00 -0.45593999997E+02  0.45594000000E+02  0.51100000000E-03 0. -1.
    9900012    2    1    2    0    0 -0.20703856484E+02 -0.73348380762E+01  0.37432255216E+02  0.47787271279E+02  0.20000001069E+02 0.  0.
         12    1    1    2    0    0  0.20703856484E+02  0.73348380762E+01 -0.37432255216E+02  0.43400728721E+02  0.00000000000E+00 0. -1.
         11    1    3    3    0    0 -0.93950886941E+01 -0.36399192020E+01  0.44878023608E+01  0.11029826547E+02  0.51100000000E-03 0. -1.
        -11    1    3    3    0    0 -0.81541429627E+01 -0.18140203848E+01  0.80753823900E+01  0.11618628078E+02  0.51100000000E-03 0.  1.
         12    1    3    3    0    0 -0.31546248276E+01 -0.18808984895E+01  0.24869070466E+02  0.25138816654E+02  0.00000000000E+00 0. -1.
</event>
<event>
 7    1  0.2237500E-009  0.4778727E+02  0.7816164E-02  0.1312668E+00
        -11   -1    0    0    0    0  0.00000000000E+00  0.00000000000E+00  0.45593999997E+02  0.45594000000E+02  0.51100000000E-03 0. -1.
         11   -1    0    0    0    0 -0.00000000000E+00 -0.00000000000E+00 -0.45593999997E+02  0.45594000000E+02  0.51100000000E-03 0.  1.
    9900012    2    1    2    0    0  0.22208732918E+02  0.31754024750E+01 -0.37152558831E+02  0.47787266983E+02  0.19999981483E+02 0.  0.
         12    1    1    2    0    0 -0.22208732918E+02 -0.31754024750E+01  0.37152558831E+02  0.43400733017E+02  0.00000000000E+00 0. -1.
         11    1    3    3    0    0  0.13987455790E+02  0.15438939275E+01 -0.14580374262E+02  0.20263756853E+02  0.51100000000E-03 0.  1.
        -11    1    3    3    0    0  0.82500819491E+01  0.64809694873E+01 -0.18131395783E+02  0.20947895621E+02  0.51100000000E-03 0. -1.
         12    1    3    3    0    0 -0.28804820725E-01 -0.48494609398E+01 -0.44407887864E+01  0.65756145089E+01  0.00000000000E+00 0. -1.
</event>
<event>
 7    1  0.2237500E-009  0.4778727E+02  0.7816164E-02  0.1312668E+00
        -11   -1    0    0    0    0  0.00000000000E+00  0.00000000000E+00  0.45593999997E+02  0.45594000000E+02  0.51100000000E-03 0.  1.
         11   -1    0    0    0    0 -0.00000000000E+00 -0.00000000000E+00 -0.45593999997E+02  0.45594000000E+02  0.51100000000E-03 0. -1.
    9900012    2    1    2    0    0 -0.57404367626E+01 -0.40100863124E+02  0.15575350763E+02  0.47787269719E+02  0.19999993957E+02 0.  0.
         12    1    1    2    0    0  0.57404367626E+01  0.40100863124E+02 -0.15575350763E+02  0.43400730281E+02  0.00000000000E+00 0. -1.
         11    1    3    3    0    0  0.76052730060E+00 -0.12770388851E+01  0.98966260033E+00  0.17856826181E+01  0.51100000000E-03 0. -1.
        -11    1    3    3    0    0  0.53729860049E+01 -0.23622669172E+02  0.97597154896E+01  0.26118030632E+02  0.51100000000E-03 0.  1.
        -12    1    3    3    0    0 -0.11873950068E+02 -0.15201155068E+02  0.48259726728E+01  0.19883556469E+02  0.00000000000E+00 0.  1.
</event>
<event>
 7    1  0.2237500E-009  0.4778727E+02  0.7816164E-02  0.1312668E+00
        -11   -1    0    0    0    0  0.00000000000E+00  0.00000000000E+00  0.45593999997E+02  0.45594000000E+02  0.51100000000E-03 0.  1.
         11   -1    0    0    0    0 -0.00000000000E+00 -0.00000000000E+00 -0.45593999997E+02  0.45594000000E+02  0.51100000000E-03 0. -1.
    9900012    2    1    2    0    0  0.39079186828E+02 -0.56050257883E+01  0.18028418954E+02  0.47787273656E+02  0.20000011907E+02 0.  0.
         12    1    1    2    0    0 -0.39079186828E+02  0.56050257883E+01 -0.18028418954E+02  0.43400726344E+02  0.00000000000E+00 0. -1.
         11    1    3    3    0    0  0.30679409378E+01 -0.89157165027E+00  0.66168678170E+01  0.73477956949E+01  0.51100000000E-03 0.  1.
        -11    1    3    3    0    0  0.33925674927E+01  0.27918652294E+01 -0.13833841950E+01  0.46062759084E+01  0.51100000000E-03 0. -1.
        -12    1    3    3    0    0  0.32618678397E+02 -0.75053193675E+01  0.12794935332E+02  0.35833202053E+02  0.00000000000E+00 0.  1.
</event>
<event>
 7    1  0.2237500E-009  0.4778727E+02  0.7816164E-02  0.1312668E+00
        -11   -1    0    0    0    0  0.00000000000E+00  0.00000000000E+00  0.45593999997E+02  0.45594000000E+02  0.51100000000E-03 0.  1.
         11   -1    0    0    0    0 -0.00000000000E+00 -0.00000000000E+00 -0.45593999997E+02  0.45594000000E+02  0.51100000000E-03 0. -1.
    9900012    2    1    2    0    0  0.25423863209E+02  0.14217165051E+02  0.32173322190E+02  0.47787271166E+02  0.20000000554E+02 0.  0.
         12    1    1    2    0    0 -0.25423863209E+02 -0.14217165051E+02 -0.32173322190E+02  0.43400728834E+02  0.00000000000E+00 0. -1.
         11    1    3    3    0    0 -0.51508486260E+00 -0.68052816192E+00 -0.71075089958E+00  0.11106746136E+01  0.51100000000E-03 0. -1.
        -11    1    3    3    0    0  0.10235328111E+02  0.17918899764E+01  0.19899841909E+02  0.22449421362E+02  0.51100000000E-03 0.  1.
         12    1    3    3    0    0  0.15703619961E+02  0.13105803236E+02  0.12984231181E+02  0.24227175190E+02  0.00000000000E+00 0. -1.
</event>
<event>
 7    1  0.2237500E-009  0.4778728E+02  0.7816164E-02  0.1312668E+00
        -11   -1    0    0    0    0  0.00000000000E+00  0.00000000000E+00  0.45593999997E+02  0.45594000000E+02  0.51100000000E-03 0.  1.
         11   -1    0    0    0    0 -0.00000000000E+00 -0.00000000000E+00 -0.45593999997E+02  0.45594000000E+02  0.51100000000E-03 0. -1.
    9900012    2    1    2    0    0 -0.34148417479E+02  0.16758328323E+02 -0.20896577349E+02  0.47787275013E+02  0.20000018093E+02 0.  0.
         12    1    1    2    0    0  0.34148417479E+02 -0.16758328323E+02  0.20896577349E+02  0.43400724987E+02  0.00000000000E+00 0. -1.
         11    1    3    3    0    0 -0.90231385738E+01  0.23249802136E+01 -0.89529663791E+01  0.12922003326E+02  0.51100000000E-03 0. -1.
        -11    1    3    3    0    0  0.78275097429E+00  0.42628139609E+01  0.52772029804E+00  0.43660933255E+01  0.51100000000E-03 0.  1.
        -12    1    3    3    0    0 -0.25908029880E+02  0.10170534149E+02 -0.12471331268E+02  0.30499178361E+02  0.00000000000E+00 0.  1.
</event>
<event>
 7    1  0.2237500E-009  0.4778726E+02  0.7816164E-02  0.1312668E+00
        -11   -1    0    0    0    0  0.00000000000E+00  0.00000000000E+00  0.45593999997E+02  0.45594000000E+02  0.51100000000E-03 0.  1.
         11   -1    0    0    0    0 -0.00000000000E+00 -0.00000000000E+00 -0.45593999997E+02  0.45594000000E+02  0.51100000000E-03 0. -1.
    9900012    2    1    2    0    0  0.36278427104E+01  0.28569392894E+02  0.32469253038E+02  0.47787264454E+02  0.19999969953E+02 0.  0.
         12    1    1    2    0    0 -0.36278427104E+01 -0.28569392894E+02 -0.32469253038E+02  0.43400735546E+02  0.00000000000E+00 0. -1.
         11    1    3    3    0    0 -0.14200840788E+01  0.12174450383E+02  0.88162634284E+01  0.15098356931E+02  0.51100000000E-03 0. -1.
        -11    1    3    3    0    0  0.66436426647E+01  0.94529180132E+01  0.47570894011E+01  0.12495020874E+02  0.51100000000E-03 0.  1.
        -12    1    3    3    0    0 -0.15957158755E+01  0.69420244974E+01  0.18895900209E+02  0.20193886649E+02  0.00000000000E+00 0.  1.
</event>
<event>
 7    1  0.2237500E-009  0.4778727E+02  0.7816164E-02  0.1312668E+00
        -11   -1    0    0    0    0  0.00000000000E+00  0.00000000000E+00  0.45593999997E+02  0.45594000000E+02  0.51100000000E-03 0. -1.
         11   -1    0    0    0    0 -0.00000000000E+00 -0.00000000000E+00 -0.45593999997E+02  0.45594000000E+02  0.51100000000E-03 0.  1.
    9900012    2    1    2    0    0  0.38562226777E+01  0.66380749254E+01 -0.42716376103E+02  0.47787270980E+02  0.19999999708E+02 0.  0.
         12    1    1    2    0    0 -0.38562226777E+01 -0.66380749254E+01  0.42716376103E+02  0.43400729020E+02  0.00000000000E+00 0. -1.
         11    1    3    3    0    0 -0.32307504400E+01  0.37876854369E+00 -0.12100899425E+02  0.12530482080E+02  0.51100000000E-03 0. -1.
        -11    1    3    3    0    0 -0.59789741348E+00  0.78496863771E+01 -0.23045653131E+02  0.24353176098E+02  0.51100000000E-03 0.  1.
         12    1    3    3    0    0  0.76848705311E+01 -0.15903799954E+01 -0.75698235470E+01  0.10903612802E+02  0.00000000000E+00 0. -1.
</event>
<event>
 7    1  0.2237500E-009  0.4778727E+02  0.7816164E-02  0.1312668E+00
        -11   -1    0    0    0    0  0.00000000000E+00  0.00000000000E+00  0.45593999997E+02  0.45594000000E+02  0.51100000000E-03 0. -1.
         11   -1    0    0    0    0 -0.00000000000E+00 -0.00000000000E+00 -0.45593999997E+02  0.45594000000E+02  0.51100000000E-03 0.  1.
    9900012    2    1    2    0    0 -0.24600729784E+01  0.36445746298E+02 -0.23436699335E+02  0.47787271228E+02  0.20000000835E+02 0.  0.
         12    1    1    2    0    0  0.24600729784E+01 -0.36445746298E+02  0.23436699335E+02  0.43400728772E+02  0.00000000000E+00 0. -1.
         11    1    3    3    0    0  0.41374843442E+00  0.62934166543E+00  0.51610504877E+00  0.91302978118E+00  0.51100000000E-03 0. -1.
        -11    1    3    3    0    0 -0.68207840529E+01  0.50633894276E+01 -0.92523865160E+01  0.12560559864E+02  0.51100000000E-03 0.  1.
         12    1    3    3    0    0  0.39469626401E+01  0.30753015205E+02 -0.14700417868E+02  0.34313681583E+02  0.00000000000E+00 0. -1.
</event>
<event>
 7    1  0.2237500E-009  0.4778723E+02  0.7816164E-02  0.1312668E+00
        -11   -1    0    0    0    0  0.00000000000E+00  0.00000000000E+00  0.45593999997E+02  0.45594000000E+02  0.51100000000E-03 0.  1.
         11   -1    0    0    0    0 -0.00000000000E+00 -0.00000000000E+00 -0.45593999997E+02  0.45594000000E+02  0.51100000000E-03 0. -1.
    9900012    2    1    2    0    0  0.99986240613E+01  0.10329833953E+02  0.40950567845E+02  0.47787228584E+02  0.19999806407E+02 0.  0.
         12    1    1    2    0    0 -0.99986240613E+01 -0.10329833953E+02 -0.40950567845E+02  0.43400771416E+02  0.00000000000E+00 0. -1.
         11    1    3    3    0    0  0.30933233074E+01  0.31101645681E+01  0.17620304798E+02  0.18158108771E+02  0.51100000000E-03 0. -1.
        -11    1    3    3    0    0  0.42064516255E+00 -0.17089625816E+01  0.16622380557E+02  0.16715293329E+02  0.51100000000E-03 0.  1.
         12    1    3    3    0    0  0.64846555914E+01  0.89286319670E+01  0.67078824910E+01  0.12913826484E+02  0.00000000000E+00 0. -1.
</event>
<event>
 7    1  0.2237500E-009  0.4778727E+02  0.7816164E-02  0.1312668E+00
        -11   -1    0    0    0    0  0.00000000000E+00  0.00000000000E+00  0.45593999997E+02  0.45594000000E+02  0.51100000000E-03 0.  1.
         11   -1    0    0    0    0 -0.00000000000E+00 -0.00000000000E+00 -0.45593999997E+02  0.45594000000E+02  0.51100000000E-03 0. -1.
    9900012    2    1    2    0    0 -0.98622815642E+01  0.20681338178E+02  0.36859746882E+02  0.47787270897E+02  0.19999999329E+02 0.  0.
         12    1    1    2    0    0  0.98622815642E+01 -0.20681338178E+02 -0.36859746882E+02  0.43400729103E+02  0.00000000000E+00 0. -1.
         11    1    3    3    0    0  0.11345745773E+01 -0.10721668060E+00 -0.36705668268E+00  0.11972826556E+01  0.51100000000E-03 0. -1.
        -11    1    3    3    0    0  0.24407861955E+01  0.79501620861E+01  0.60134484123E+01  0.10262751898E+02  0.51100000000E-03 0.  1.
        -12    1    3    3    0    0 -0.13437642337E+02  0.12838392772E+02  0.31213355152E+02  0.36327236344E+02  0.00000000000E+00 0.  1.
</event>
<event>
 7    1  0.2237500E-009  0.4778728E+02  0.7816164E-02  0.1312668E+00
        -11   -1    0    0    0    0  0.00000000000E+00  0.00000000000E+00  0.45593999997E+02  0.45594000000E+02  0.51100000000E-03 0.  1.
         11   -1    0    0    0    0 -0.00000000000E+00 -0.00000000000E+00 -0.45593999997E+02  0.45594000000E+02  0.51100000000E-03 0. -1.
    9900012    2    1    2    0    0 -0.42485375903E+02  0.25546622001E+01 -0.84905497908E+01  0.47787275348E+02  0.20000019620E+02 0.  0.
         12    1    1    2    0    0  0.42485375903E+02 -0.25546622001E+01  0.84905497908E+01  0.43400724652E+02  0.00000000000E+00 0. -1.
         11    1    3    3    0    0 -0.17137258934E+02 -0.35751022964E+00 -0.65930270541E+01  0.18365224293E+02  0.51100000000E-03 0.  1.
        -11    1    3    3    0    0 -0.99250919515E+01 -0.56724537770E+01  0.12235963215E+01  0.11497015714E+02  0.51100000000E-03 0. -1.
         12    1    3    3    0    0 -0.15423025018E+02  0.85846262068E+01 -0.31211190582E+01  0.17925035341E+02  0.00000000000E+00 0. -1.
</event>
<event>
 7    1  0.2237500E-009  0.4778727E+02  0.7816164E-02  0.1312668E+00
        -11   -1    0    0    0    0  0.00000000000E+00  0.00000000000E+00  0.45593999997E+02  0.45594000000E+02  0.51100000000E-03 0.  1.
         11   -1    0    0    0    0 -0.00000000000E+00 -0.00000000000E+00 -0.45593999997E+02  0.45594000000E+02  0.51100000000E-03 0. -1.
    9900012    2    1    2    0    0 -0.19676231889E+02  0.11530211996E+02  0.36925918221E+02  0.47787270439E+02  0.19999997237E+02 0.  0.
         12    1    1    2    0    0  0.19676231889E+02 -0.11530211996E+02 -0.36925918221E+02  0.43400729561E+02  0.00000000000E+00 0. -1.
         11    1    3    3    0    0 -0.10944734647E+02  0.41347395749E+01  0.10373160823E+02  0.15636040213E+02  0.51100000000E-03 0. -1.
        -11    1    3    3    0    0 -0.10715234975E+02  0.10078550830E+02  0.20381130926E+02  0.25135312719E+02  0.51100000000E-03 0.  1.
         12    1    3    3    0    0  0.19837377330E+01 -0.26830784087E+01  0.61716264722E+01  0.70159175061E+01  0.00000000000E+00 0. -1.
</event>
<event>
 7    1  0.2237500E-009  0.4778727E+02  0.7816164E-02  0.1312668E+00
        -11   -1    0    0    0    0  0.00000000000E+00  0.00000000000E+00  0.45593999997E+02  0.45594000000E+02  0.51100000000E-03 0.  1.
         11   -1    0    0    0    0 -0.00000000000E+00 -0.00000000000E+00 -0.45593999997E+02  0.45594000000E+02  0.51100000000E-03 0. -1.
    9900012    2    1    2    0    0 -0.75187247494E+01 -0.40414457656E+02  0.13919893241E+02  0.47787273770E+02  0.20000012425E+02 0.  0.
         12    1    1    2    0    0  0.75187247494E+01  0.40414457656E+02 -0.13919893241E+02  0.43400726230E+02  0.00000000000E+00 0. -1.
         11    1    3    3    0    0 -0.29082526934E+01 -0.18383248898E+02  0.11620903133E+02  0.21941904286E+02  0.51100000000E-03 0. -1.
        -11    1    3    3    0    0 -0.22620261509E+01 -0.19388566584E+02  0.62949346915E+01  0.20509984874E+02  0.51100000000E-03 0.  1.
         12    1    3    3    0    0 -0.23484459051E+01 -0.26426421738E+01 -0.39959445835E+01  0.53353846106E+01  0.00000000000E+00 0. -1.
</event>
<event>
 7    1  0.2237500E-009  0.4778727E+02  0.7816164E-02  0.1312668E+00
        -11   -1    0    0    0    0  0.00000000000E+00  0.00000000000E+00  0.45593999997E+02  0.45594000000E+02  0.51100000000E-03 0.  1.
         11   -1    0    0    0    0 -0.00000000000E+00 -0.00000000000E+00 -0.45593999997E+02  0.45594000000E+02  0.51100000000E-03 0. -1.
    9900012    2    1    2    0    0  0.11608789179E+02 -0.28846687627E+02  0.30277514448E+02  0.47787271268E+02  0.20000001021E+02 0.  0.
         12    1    1    2    0    0 -0.11608789179E+02  0.28846687627E+02 -0.30277514448E+02  0.43400728732E+02  0.00000000000E+00 0. -1.
         11    1    3    3    0    0  0.56796607364E+01 -0.63952710126E+01  0.16978100519E+01  0.87201259531E+01  0.51100000000E-03 0. -1.
        -11    1    3    3    0    0  0.49144128602E+01 -0.59262398804E+01  0.17574563004E+02  0.19186897558E+02  0.51100000000E-03 0.  1.
         12    1    3    3    0    0  0.10147155828E+01 -0.16525176734E+02  0.11005141392E+02  0.19880247757E+02  0.00000000000E+00 0. -1.
</event>
<event>
 7    1  0.2237500E-009  0.4778727E+02  0.7816164E-02  0.1312668E+00
        -11   -1    0    0    0    0  0.00000000000E+00  0.00000000000E+00  0.45593999997E+02  0.45594000000E+02  0.51100000000E-03 0. -1.
         11   -1    0    0    0    0 -0.00000000000E+00 -0.00000000000E+00 -0.45593999997E+02  0.45594000000E+02  0.51100000000E-03 0.  1.
    9900012    2    1    2    0    0  0.33086522571E+02 -0.77804492354E+00 -0.28076679236E+02  0.47787271358E+02  0.20000001428E+02 0.  0.
         12    1    1    2    0    0 -0.33086522571E+02  0.77804492354E+00  0.28076679236E+02  0.43400728642E+02  0.00000000000E+00 0. -1.
         11    1    3    3    0    0  0.75777106295E+00 -0.31555376935E+01  0.46602931485E+00  0.32785391110E+01  0.51100000000E-03 0. -1.
        -11    1    3    3    0    0  0.23149037002E+01 -0.10911318375E+01  0.49145075814E+00  0.26059301481E+01  0.51100000000E-03 0.  1.
        -12    1    3    3    0    0  0.30013847808E+02  0.34686246075E+01 -0.29034159309E+02  0.41902802098E+02  0.00000000000E+00 0.  1.
</event>
<event>
 7    1  0.2237500E-009  0.4778727E+02  0.7816164E-02  0.1312668E+00
        -11   -1    0    0    0    0  0.00000000000E+00  0.00000000000E+00  0.45593999997E+02  0.45594000000E+02  0.51100000000E-03 0.  1.
         11   -1    0    0    0    0 -0.00000000000E+00 -0.00000000000E+00 -0.45593999997E+02  0.45594000000E+02  0.51100000000E-03 0. -1.
    9900012    2    1    2    0    0 -0.35072969697E+02 -0.23888543547E+02  0.91020594940E+01  0.47787271859E+02  0.20000003712E+02 0.  0.
         12    1    1    2    0    0  0.35072969697E+02  0.23888543547E+02 -0.91020594940E+01  0.43400728141E+02  0.00000000000E+00 0. -1.
         11    1    3    3    0    0 -0.85130576227E+00 -0.48435402464E-01  0.24465876987E+01  0.25909185857E+01  0.51100000000E-03 0. -1.
        -11    1    3    3    0    0 -0.18688121142E+02 -0.80048819146E+01 -0.37855764557E+01  0.20679811306E+02  0.51100000000E-03 0.  1.
        -12    1    3    3    0    0 -0.15533542793E+02 -0.15835226230E+02  0.10441048251E+02  0.24516541967E+02  0.00000000000E+00 0.  1.
</event>
<event>
 7    1  0.2237500E-009  0.4778728E+02  0.7816164E-02  0.1312668E+00
        -11   -1    0    0    0    0  0.00000000000E+00  0.00000000000E+00  0.45593999997E+02  0.45594000000E+02  0.51100000000E-03 0.  1.
         11   -1    0    0    0    0 -0.00000000000E+00 -0.00000000000E+00 -0.45593999997E+02  0.45594000000E+02  0.51100000000E-03 0. -1.
    9900012    2    1    2    0    0 -0.22055885305E+02 -0.99608365724E+01  0.36026969897E+02  0.47787275331E+02  0.20000019545E+02 0.  0.
         12    1    1    2    0    0  0.22055885305E+02  0.99608365724E+01 -0.36026969897E+02  0.43400724669E+02  0.00000000000E+00 0. -1.
         11    1    3    3    0    0  0.87039429497E+00 -0.51425640335E+01  0.13372237466E+01  0.53843958507E+01  0.51100000000E-03 0. -1.
        -11    1    3    3    0    0 -0.15344587604E+02 -0.28537020747E+01  0.17120840385E+02  0.23167286419E+02  0.51100000000E-03 0.  1.
        -12    1    3    3    0    0 -0.75816919953E+01 -0.19645704642E+01  0.17568905766E+02  0.19235593061E+02  0.00000000000E+00 0.  1.
</event>
<event>
 7    1  0.2237500E-009  0.4778727E+02  0.7816164E-02  0.1312668E+00
        -11   -1    0    0    0    0  0.00000000000E+00  0.00000000000E+00  0.45593999997E+02  0.45594000000E+02  0.51100000000E-03 0. -1.
         11   -1    0    0    0    0 -0.00000000000E+00 -0.00000000000E+00 -0.45593999997E+02  0.45594000000E+02  0.51100000000E-03 0.  1.
    9900012    2    1    2    0    0 -0.28299222519E+02 -0.32639845863E+02 -0.41734317290E+01  0.47787273444E+02  0.20000010942E+02 0.  0.
         12    1    1    2    0    0  0.28299222519E+02  0.32639845863E+02  0.41734317290E+01  0.43400726556E+02  0.00000000000E+00 0. -1.
         11    1    3    3    0    0  0.16351513589E+01 -0.14813789720E+01 -0.86448823807E+00  0.23697138646E+01  0.51100000000E-03 0. -1.
        -11    1    3    3    0    0 -0.12260949116E+02 -0.20814268167E+02  0.20676398809E+01  0.24245407142E+02  0.51100000000E-03 0.  1.
        -12    1    3    3    0    0 -0.17673424762E+02 -0.10344198724E+02 -0.53765833719E+01  0.21172152437E+02  0.00000000000E+00 0.  1.
</event>
<event>
 7    1  0.2237500E-009  0.4778727E+02  0.7816164E-02  0.1312668E+00
        -11   -1    0    0    0    0  0.00000000000E+00  0.00000000000E+00  0.45593999997E+02  0.45594000000E+02  0.51100000000E-03 0.  1.
         11   -1    0    0    0    0 -0.00000000000E+00 -0.00000000000E+00 -0.45593999997E+02  0.45594000000E+02  0.51100000000E-03 0. -1.
    9900012    2    1    2    0    0  0.34710257906E+02  0.92175051058E+01 -0.24369218403E+02  0.47787271782E+02  0.20000003365E+02 0.  0.
         12    1    1    2    0    0 -0.34710257906E+02 -0.92175051058E+01  0.24369218403E+02  0.43400728218E+02  0.00000000000E+00 0. -1.
         11    1    3    3    0    0  0.10418611388E+02  0.10999977406E+01 -0.11134639130E+02  0.15288480863E+02  0.51100000000E-03 0. -1.
        -11    1    3    3    0    0  0.15965400208E+02  0.49904511993E+01 -0.16037731750E+02  0.23173421131E+02  0.51100000000E-03 0.  1.
         12    1    3    3    0    0  0.83262463101E+01  0.31270561659E+01  0.28031524772E+01  0.93253697885E+01  0.00000000000E+00 0. -1.
</event>
<event>
 7    1  0.2237500E-009  0.4778727E+02  0.7816164E-02  0.1312668E+00
        -11   -1    0    0    0    0  0.00000000000E+00  0.00000000000E+00  0.45593999997E+02  0.45594000000E+02  0.51100000000E-03 0.  1.
         11   -1    0    0    0    0 -0.00000000000E+00 -0.00000000000E+00 -0.45593999997E+02  0.45594000000E+02  0.51100000000E-03 0. -1.
    9900012    2    1    2    0    0 -0.23733956513E+02  0.29961989087E+02 -0.20557287697E+02  0.47787267756E+02  0.19999985007E+02 0.  0.
         12    1    1    2    0    0  0.23733956513E+02 -0.29961989087E+02  0.20557287697E+02  0.43400732244E+02  0.00000000000E+00 0. -1.
         11    1    3    3    0    0 -0.90229689368E+01  0.79317317034E+01 -0.23201264928E+01  0.12235576139E+02  0.51100000000E-03 0. -1.
        -11    1    3    3    0    0 -0.81096494649E+00 -0.83439949016E+00  0.17857182136E+01  0.21313555436E+01  0.51100000000E-03 0.  1.
        -12    1    3    3    0    0 -0.13900022630E+02  0.22864656874E+02 -0.20022879418E+02  0.33420336074E+02  0.00000000000E+00 0.  1.
</event>
<event>
 7    1  0.2237500E-009  0.4778726E+02  0.7816164E-02  0.1312668E+00
        -11   -1    0    0    0    0  0.00000000000E+00  0.00000000000E+00  0.45593999997E+02  0.45594000000E+02  0.51100000000E-03 0.  1.
         11   -1    0    0    0    0 -0.00000000000E+00 -0.00000000000E+00 -0.45593999997E+02  0.45594000000E+02  0.51100000000E-03 0. -1.
    9900012    2    1    2    0    0 -0.12928950258E+02 -0.25411043207E+02  0.32722247984E+02  0.47787258246E+02  0.19999941647E+02 0.  0.
         12    1    1    2    0    0  0.12928950258E+02  0.25411043207E+02 -0.32722247984E+02  0.43400741754E+02  0.00000000000E+00 0. -1.
         11    1    3    3    0    0 -0.71482789788E+01 -0.11452119740E+02  0.11442894952E+02  0.17697140561E+02  0.51100000000E-03 0. -1.
        -11    1    3    3    0    0 -0.10367165153E+02 -0.57525657001E+01  0.11265794767E+02  0.16355068249E+02  0.51100000000E-03 0.  1.
         12    1    3    3    0    0  0.45864938743E+01 -0.82063577676E+01  0.10013558266E+02  0.13735049436E+02  0.00000000000E+00 0. -1.
</event>
<event>
 7    1  0.2237500E-009  0.4778727E+02  0.7816164E-02  0.1312668E+00
        -11   -1    0    0    0    0  0.00000000000E+00  0.00000000000E+00  0.45593999997E+02  0.45594000000E+02  0.51100000000E-03 0.  1.
         11   -1    0    0    0    0 -0.00000000000E+00 -0.00000000000E+00 -0.45593999997E+02  0.45594000000E+02  0.51100000000E-03 0. -1.
    9900012    2    1    2    0    0 -0.21176228285E+02  0.35446347844E+02  0.13369640022E+02  0.47787268507E+02  0.19999988430E+02 0.  0.
         12    1    1    2    0    0  0.21176228285E+02 -0.35446347844E+02 -0.13369640022E+02  0.43400731493E+02  0.00000000000E+00 0. -1.
         11    1    3    3    0    0 -0.56968881241E+01  0.85087166467E+01 -0.22815166623E+01  0.10490858488E+02  0.51100000000E-03 0. -1.
        -11    1    3    3    0    0 -0.82176157963E+01  0.85037408383E+01 -0.34775321739E+00  0.11830627633E+02  0.51100000000E-03 0.  1.
        -12    1    3    3    0    0 -0.72617243645E+01  0.18433890359E+02  0.15998909902E+02  0.25465782386E+02  0.00000000000E+00 0.  1.
</event>
<event>
 7    1  0.2237500E-009  0.4778725E+02  0.7816164E-02  0.1312668E+00
        -11   -1    0    0    0    0  0.00000000000E+00  0.00000000000E+00  0.45593999997E+02  0.45594000000E+02  0.51100000000E-03 0.  1.
         11   -1    0    0    0    0 -0.00000000000E+00 -0.00000000000E+00 -0.45593999997E+02  0.45594000000E+02  0.51100000000E-03 0. -1.
    9900012    2    1    2    0    0  0.64057107971E+01 -0.39182154348E+02  0.17531416290E+02  0.47787252227E+02  0.19999914203E+02 0.  0.
         12    1    1    2    0    0 -0.64057107971E+01  0.39182154348E+02 -0.17531416290E+02  0.43400747773E+02  0.00000000000E+00 0. -1.
         11    1    3    3    0    0  0.87291821343E+01 -0.34424996975E+02  0.17065399741E+02  0.39401864246E+02  0.51100000000E-03 0.  1.
        -11    1    3    3    0    0  0.19694632110E+00 -0.44924352902E+00  0.28233455406E+01  0.28656391791E+01  0.51100000000E-03 0. -1.
        -12    1    3    3    0    0 -0.25204176583E+01 -0.43079138439E+01 -0.23573289924E+01  0.55197488020E+01  0.00000000000E+00 0.  1.
</event>
<event>
 7    1  0.2237500E-009  0.4778727E+02  0.7816164E-02  0.1312668E+00
        -11   -1    0    0    0    0  0.00000000000E+00  0.00000000000E+00  0.45593999997E+02  0.45594000000E+02  0.51100000000E-03 0.  1.
         11   -1    0    0    0    0 -0.00000000000E+00 -0.00000000000E+00 -0.45593999997E+02  0.45594000000E+02  0.51100000000E-03 0. -1.
    9900012    2    1    2    0    0 -0.27643507047E+02  0.21143268067E+01  0.33391457645E+02  0.47787270705E+02  0.19999998452E+02 0.  0.
         12    1    1    2    0    0  0.27643507047E+02 -0.21143268067E+01 -0.33391457645E+02  0.43400729295E+02  0.00000000000E+00 0. -1.
         11    1    3    3    0    0 -0.32241644934E+01  0.33115028749E+01  0.58400639662E+01  0.74476597238E+01  0.51100000000E-03 0. -1.
        -11    1    3    3    0    0 -0.13826890485E+02  0.22363546769E+01  0.25389357028E+02  0.28996614169E+02  0.51100000000E-03 0.  1.
         12    1    3    3    0    0 -0.10592452068E+02 -0.34335307452E+01  0.21620366507E+01  0.11342996812E+02  0.00000000000E+00 0. -1.
</event>
<event>
 7    1  0.2237500E-009  0.4778727E+02  0.7816164E-02  0.1312668E+00
        -11   -1    0    0    0    0  0.00000000000E+00  0.00000000000E+00  0.45593999997E+02  0.45594000000E+02  0.51100000000E-03 0. -1.
         11   -1    0    0    0    0 -0.00000000000E+00 -0.00000000000E+00 -0.45593999997E+02  0.45594000000E+02  0.51100000000E-03 0.  1.
    9900012    2    1    2    0    0  0.42403119078E+02 -0.47922768672E+00 -0.92395426512E+01  0.47787270570E+02  0.19999997836E+02 0.  0.
         12    1    1    2    0    0 -0.42403119078E+02  0.47922768672E+00  0.92395426512E+01  0.43400729430E+02  0.00000000000E+00 0. -1.
         11    1    3    3    0    0  0.39383552897E+01  0.34305687948E+01 -0.15847029798E+01  0.54580883502E+01  0.51100000000E-03 0. -1.
        -11    1    3    3    0    0  0.23818816889E+02  0.28017704360E+01 -0.10120723098E+02  0.26031039008E+02  0.51100000000E-03 0.  1.
        -12    1    3    3    0    0  0.14645946899E+02 -0.67115669176E+01  0.24658834268E+01  0.16298143211E+02  0.00000000000E+00 0.  1.
</event>
<event>
 7    1  0.2237500E-009  0.4778727E+02  0.7816164E-02  0.1312668E+00
        -11   -1    0    0    0    0  0.00000000000E+00  0.00000000000E+00  0.45593999997E+02  0.45594000000E+02  0.51100000000E-03 0.  1.
         11   -1    0    0    0    0 -0.00000000000E+00 -0.00000000000E+00 -0.45593999997E+02  0.45594000000E+02  0.51100000000E-03 0. -1.
    9900012    2    1    2    0    0  0.20659128702E+02 -0.38155202855E+02  0.10020070086E+01  0.47787272797E+02  0.20000007992E+02 0.  0.
         12    1    1    2    0    0 -0.20659128702E+02  0.38155202855E+02 -0.10020070086E+01  0.43400727203E+02  0.00000000000E+00 0. -1.
         11    1    3    3    0    0  0.12553281277E+01 -0.88093346658E+01 -0.48353056477E+01  0.10127211212E+02  0.51100000000E-03 0.  1.
        -11    1    3    3    0    0  0.85184681527E+01 -0.74856163937E+01 -0.29315367297E+01  0.11712927060E+02  0.51100000000E-03 0. -1.
        -12    1    3    3    0    0  0.10885332422E+02 -0.21860251796E+02  0.87688493860E+01  0.25947134525E+02  0.00000000000E+00 0.  1.
</event>
<event>
 7    1  0.2237500E-009  0.4778727E+02  0.7816164E-02  0.1312668E+00
        -11   -1    0    0    0    0  0.00000000000E+00  0.00000000000E+00  0.45593999997E+02  0.45594000000E+02  0.51100000000E-03 0.  1.
         11   -1    0    0    0    0 -0.00000000000E+00 -0.00000000000E+00 -0.45593999997E+02  0.45594000000E+02  0.51100000000E-03 0. -1.
    9900012    2    1    2    0    0 -0.36362704372E+02 -0.20899973213E+02  0.11161017643E+02  0.47787268850E+02  0.19999989993E+02 0.  0.
         12    1    1    2    0    0  0.36362704372E+02  0.20899973213E+02 -0.11161017643E+02  0.43400731150E+02  0.00000000000E+00 0. -1.
         11    1    3    3    0    0  0.20431575579E+00 -0.31547215339E+00 -0.27625801927E-01  0.37687007533E+00  0.51100000000E-03 0. -1.
        -11    1    3    3    0    0 -0.15480891437E+02 -0.24568850358E+01  0.11762754835E+02  0.19597364244E+02  0.51100000000E-03 0.  1.
        -12    1    3    3    0    0 -0.21086128691E+02 -0.18127616023E+02 -0.57411138988E+00  0.27813034530E+02  0.00000000000E+00 0.  1.
</event>
<event>
 7    1  0.2237500E-009  0.4778729E+02  0.7816164E-02  0.1312668E+00
        -11   -1    0    0    0    0  0.00000000000E+00  0.00000000000E+00  0.45593999997E+02  0.45594000000E+02  0.51100000000E-03 0.  1.
         11   -1    0    0    0    0 -0.00000000000E+00 -0.00000000000E+00 -0.45593999997E+02  0.45594000000E+02  0.51100000000E-03 0. -1.
    9900012    2    1    2    0    0  0.16910429564E+02 -0.13969530351E+02  0.37450116305E+02  0.47787290126E+02  0.20000087001E+02 0.  0.
         12    1    1    2    0    0 -0.16910429564E+02  0.13969530351E+02 -0.37450116305E+02  0.43400709874E+02  0.00000000000E+00 0. -1.
         11    1    3    3    0    0  0.65515206954E+01 -0.34810768981E+01  0.84834917069E+01  0.11269869192E+02  0.51100000000E-03 0.  1.
        -11    1    3    3    0    0  0.62338045338E+01  0.55457072256E+00  0.12279348210E+01  0.63777497472E+01  0.51100000000E-03 0. -1.
         12    1    3    3    0    0  0.41251043348E+01 -0.11043024176E+02  0.27738689778E+02  0.30139671187E+02  0.00000000000E+00 0. -1.
</event>
<event>
 7    1  0.2237500E-009  0.4778727E+02  0.7816164E-02  0.1312668E+00
        -11   -1    0    0    0    0  0.00000000000E+00  0.00000000000E+00  0.45593999997E+02  0.45594000000E+02  0.51100000000E-03 0.  1.
         11   -1    0    0    0    0 -0.00000000000E+00 -0.00000000000E+00 -0.45593999997E+02  0.45594000000E+02  0.51100000000E-03 0. -1.
    9900012    2    1    2    0    0  0.75213563813E+01 -0.22926361673E+02  0.36075401968E+02  0.47787268572E+02  0.19999988726E+02 0.  0.
         12    1    1    2    0    0 -0.75213563813E+01  0.22926361673E+02 -0.36075401968E+02  0.43400731428E+02  0.00000000000E+00 0. -1.
         11    1    3    3    0    0  0.12690255059E+01 -0.10737241910E+01 -0.12699239162E+01  0.20918930152E+01  0.51100000000E-03 0. -1.
        -11    1    3    3    0    0  0.80008900939E+01 -0.59170588228E+01  0.18030856622E+02  0.20594601676E+02  0.51100000000E-03 0.  1.
        -12    1    3    3    0    0 -0.17485592186E+01 -0.15935578659E+02  0.19314469262E+02  0.25100773880E+02  0.00000000000E+00 0.  1.
</event>
<event>
 7    1  0.2237500E-009  0.4778728E+02  0.7816164E-02  0.1312668E+00
        -11   -1    0    0    0    0  0.00000000000E+00  0.00000000000E+00  0.45593999997E+02  0.45594000000E+02  0.51100000000E-03 0.  1.
         11   -1    0    0    0    0 -0.00000000000E+00 -0.00000000000E+00 -0.45593999997E+02  0.45594000000E+02  0.51100000000E-03 0. -1.
    9900012    2    1    2    0    0 -0.33365108702E+02 -0.19511182429E+02  0.19740958452E+02  0.47787283887E+02  0.20000058556E+02 0.  0.
         12    1    1    2    0    0  0.33365108702E+02  0.19511182429E+02 -0.19740958452E+02  0.43400716113E+02  0.00000000000E+00 0. -1.
         11    1    3    3    0    0 -0.16144997428E+02 -0.12350167498E+02  0.74303085947E+01  0.21642482881E+02  0.51100000000E-03 0. -1.
        -11    1    3    3    0    0 -0.12758286896E+02 -0.83885849115E+01  0.27383539642E+01  0.15512602103E+02  0.51100000000E-03 0.  1.
        -12    1    3    3    0    0 -0.44618243785E+01  0.12275699809E+01  0.95722958932E+01  0.10632198903E+02  0.00000000000E+00 0.  1.
</event>
<event>
 7    1  0.2924088E-009  0.4778727E+02  0.7816164E-02  0.1312668E+00
        -11   -1    0    0    0    0  0.00000000000E+00  0.00000000000E+00  0.45593999997E+02  0.45594000000E+02  0.51100000000E-03 0. -1.
         11   -1    0    0    0    0 -0.00000000000E+00 -0.00000000000E+00 -0.45593999997E+02  0.45594000000E+02  0.51100000000E-03 0.  1.
    9900012    2    1    2    0    0 -0.42899429199E+02 -0.65743697031E+01 -0.19981988595E+00  0.47787270852E+02  0.19999999124E+02 0.  0.
         12    1    1    2    0    0  0.42899429199E+02  0.65743697031E+01  0.19981988595E+00  0.43400729148E+02  0.00000000000E+00 0. -1.
         11    1    3    3    0    0 -0.24067053745E+01 -0.77139141228E+00 -0.39513048195E+01  0.46904248751E+01  0.51100000000E-03 0. -1.
        -11    1    3    3    0    0 -0.15607879714E+02 -0.87142531428E+01  0.18090129381E+01  0.17967098961E+02  0.51100000000E-03 0.  1.
        -12    1    3    3    0    0 -0.24884844111E+02  0.29112748519E+01  0.19424719954E+01  0.25129747017E+02  0.00000000000E+00 0.  1.
</event>
<event>
 7    1  0.2237500E-009  0.4778727E+02  0.7816164E-02  0.1312668E+00
        -11   -1    0    0    0    0  0.00000000000E+00  0.00000000000E+00  0.45593999997E+02  0.45594000000E+02  0.51100000000E-03 0. -1.
         11   -1    0    0    0    0 -0.00000000000E+00 -0.00000000000E+00 -0.45593999997E+02  0.45594000000E+02  0.51100000000E-03 0.  1.
    9900012    2    1    2    0    0  0.20209132332E+02 -0.25159910394E+02 -0.29020565337E+02  0.47787270361E+02  0.19999996885E+02 0.  0.
         12    1    1    2    0    0 -0.20209132332E+02  0.25159910394E+02  0.29020565337E+02  0.43400729639E+02  0.00000000000E+00 0. -1.
         11    1    3    3    0    0  0.69643134031E+00  0.14675263707E+01 -0.66491069215E+00  0.17552084634E+01  0.51100000000E-03 0. -1.
        -11    1    3    3    0    0  0.10984245261E+01 -0.11194137540E+02 -0.43256742200E+01  0.12051004499E+02  0.51100000000E-03 0.  1.
        -12    1    3    3    0    0  0.18414276466E+02 -0.15433299225E+02 -0.24029980425E+02  0.33981057399E+02  0.00000000000E+00 0.  1.
</event>
<event>
 7    1  0.2237500E-009  0.4778727E+02  0.7816164E-02  0.1312668E+00
        -11   -1    0    0    0    0  0.00000000000E+00  0.00000000000E+00  0.45593999997E+02  0.45594000000E+02  0.51100000000E-03 0.  1.
         11   -1    0    0    0    0 -0.00000000000E+00 -0.00000000000E+00 -0.45593999997E+02  0.45594000000E+02  0.51100000000E-03 0. -1.
    9900012    2    1    2    0    0  0.14632084882E+02 -0.16856913555E+02  0.37220554106E+02  0.47787273156E+02  0.20000009629E+02 0.  0.
         12    1    1    2    0    0 -0.14632084882E+02  0.16856913555E+02 -0.37220554106E+02  0.43400726844E+02  0.00000000000E+00 0. -1.
         11    1    3    3    0    0  0.62921145953E+01 -0.13781056998E+02  0.18372058538E+02  0.23812617942E+02  0.51100000000E-03 0.  1.
        -11    1    3    3    0    0  0.78709672032E+01 -0.39679893041E+01  0.50887349457E+01  0.10178029644E+02  0.51100000000E-03 0. -1.
         12    1    3    3    0    0  0.46900308328E+00  0.89213274711E+00  0.13759760623E+02  0.13796625570E+02  0.00000000000E+00 0. -1.
</event>
<event>
 7    1  0.2237500E-009  0.4778727E+02  0.7816164E-02  0.1312668E+00
        -11   -1    0    0    0    0  0.00000000000E+00  0.00000000000E+00  0.45593999997E+02  0.45594000000E+02  0.51100000000E-03 0.  1.
         11   -1    0    0    0    0 -0.00000000000E+00 -0.00000000000E+00 -0.45593999997E+02  0.45594000000E+02  0.51100000000E-03 0. -1.
    9900012    2    1    2    0    0 -0.26069275102E+02 -0.10856670445E+02  0.32956770583E+02  0.47787272762E+02  0.20000007832E+02 0.  0.
         12    1    1    2    0    0  0.26069275102E+02  0.10856670445E+02 -0.32956770583E+02  0.43400727238E+02  0.00000000000E+00 0. -1.
         11    1    3    3    0    0 -0.12927820365E+02 -0.13488148121E+02  0.21170161180E+02  0.28235339626E+02  0.51100000000E-03 0. -1.
        -11    1    3    3    0    0 -0.68958600610E+00 -0.24769130197E+00 -0.11521442796E+01  0.13653997741E+01  0.51100000000E-03 0.  1.
        -12    1    3    3    0    0 -0.12451868731E+02  0.28791689775E+01  0.12938753682E+02  0.18186533362E+02  0.00000000000E+00 0.  1.
</event>
<event>
 7    1  0.2237500E-009  0.4778727E+02  0.7816164E-02  0.1312668E+00
        -11   -1    0    0    0    0  0.00000000000E+00  0.00000000000E+00  0.45593999997E+02  0.45594000000E+02  0.51100000000E-03 0. -1.
         11   -1    0    0    0    0 -0.00000000000E+00 -0.00000000000E+00 -0.45593999997E+02  0.45594000000E+02  0.51100000000E-03 0.  1.
    9900012    2    1    2    0    0 -0.56270218598E+01  0.40621314140E+02  0.14208055517E+02  0.47787269833E+02  0.19999994476E+02 0.  0.
         12    1    1    2    0    0  0.56270218598E+01 -0.40621314140E+02 -0.14208055517E+02  0.43400730167E+02  0.00000000000E+00 0. -1.
         11    1    3    3    0    0 -0.27122466478E+01  0.24499001279E+02  0.16002398117E+02  0.29387652021E+02  0.51100000000E-03 0. -1.
        -11    1    3    3    0    0  0.17769775268E+01  0.34430163518E+01  0.19965275216E+01  0.43586847942E+01  0.51100000000E-03 0.  1.
        -12    1    3    3    0    0 -0.46917527388E+01  0.12679296509E+02 -0.37908701217E+01  0.14040933018E+02  0.00000000000E+00 0.  1.
</event>
<event>
 7    1  0.2237500E-009  0.4778727E+02  0.7816164E-02  0.1312668E+00
        -11   -1    0    0    0    0  0.00000000000E+00  0.00000000000E+00  0.45593999997E+02  0.45594000000E+02  0.51100000000E-03 0.  1.
         11   -1    0    0    0    0 -0.00000000000E+00 -0.00000000000E+00 -0.45593999997E+02  0.45594000000E+02  0.51100000000E-03 0. -1.
    9900012    2    1    2    0    0 -0.37954874198E+02 -0.16851869065E+02  0.12612115989E+02  0.47787269175E+02  0.19999991476E+02 0.  0.
         12    1    1    2    0    0  0.37954874198E+02  0.16851869065E+02 -0.12612115989E+02  0.43400730825E+02  0.00000000000E+00 0. -1.
         11    1    3    3    0    0 -0.39167139491E+01 -0.53906039269E+01 -0.32357384319E+01  0.74073789100E+01  0.51100000000E-03 0. -1.
        -11    1    3    3    0    0 -0.56183388946E+01 -0.14094243513E+01  0.67440489370E+01  0.88901296539E+01  0.51100000000E-03 0.  1.
        -12    1    3    3    0    0 -0.28419821355E+02 -0.10051840787E+02  0.91038054843E+01  0.31489760611E+02  0.00000000000E+00 0.  1.
</event>
<event>
 7    1  0.2237500E-009  0.4778727E+02  0.7816164E-02  0.1312668E+00
        -11   -1    0    0    0    0  0.00000000000E+00  0.00000000000E+00  0.45593999997E+02  0.45594000000E+02  0.51100000000E-03 0. -1.
         11   -1    0    0    0    0 -0.00000000000E+00 -0.00000000000E+00 -0.45593999997E+02  0.45594000000E+02  0.51100000000E-03 0.  1.
    9900012    2    1    2    0    0  0.28981628435E+01 -0.39292346699E+02 -0.18202619526E+02  0.47787271727E+02  0.20000003113E+02 0.  0.
         12    1    1    2    0    0 -0.28981628435E+01  0.39292346699E+02  0.18202619526E+02  0.43400728273E+02  0.00000000000E+00 0. -1.
         11    1    3    3    0    0 -0.11646248175E+01 -0.35858541714E+00 -0.45455300525E+01  0.47060363562E+01  0.51100000000E-03 0. -1.
        -11    1    3    3    0    0  0.56105948718E+01 -0.14385893506E+02 -0.95172832364E+01  0.18138671044E+02  0.51100000000E-03 0.  1.
         12    1    3    3    0    0 -0.15478072109E+01 -0.24547867776E+02 -0.41398062367E+01  0.24942564327E+02  0.00000000000E+00 0. -1.
</event>
<event>
 7    1  0.2237500E-009  0.4778726E+02  0.7816164E-02  0.1312668E+00
        -11   -1    0    0    0    0  0.00000000000E+00  0.00000000000E+00  0.45593999997E+02  0.45594000000E+02  0.51100000000E-03 0.  1.
         11   -1    0    0    0    0 -0.00000000000E+00 -0.00000000000E+00 -0.45593999997E+02  0.45594000000E+02  0.51100000000E-03 0. -1.
    9900012    2    1    2    0    0 -0.11847361940E+02 -0.38657421991E+02  0.15775540436E+02  0.47787263417E+02  0.19999965221E+02 0.  0.
         12    1    1    2    0    0  0.11847361940E+02  0.38657421991E+02 -0.15775540436E+02  0.43400736583E+02  0.00000000000E+00 0. -1.
         11    1    3    3    0    0 -0.22929198034E+00  0.33619962327E+00  0.14583427823E+01  0.15140571094E+01  0.51100000000E-03 0. -1.
        -11    1    3    3    0    0 -0.50866471464E+01 -0.25523698782E+02  0.69781649618E+00  0.26034978910E+02  0.51100000000E-03 0.  1.
        -12    1    3    3    0    0 -0.65314228129E+01 -0.13469922833E+02  0.13619381158E+02  0.20238227398E+02  0.00000000000E+00 0.  1.
</event>
<event>
 7    1  0.2237500E-009  0.4778727E+02  0.7816164E-02  0.1312668E+00
        -11   -1    0    0    0    0  0.00000000000E+00  0.00000000000E+00  0.45593999997E+02  0.45594000000E+02  0.51100000000E-03 0. -1.
         11   -1    0    0    0    0 -0.00000000000E+00 -0.00000000000E+00 -0.45593999997E+02  0.45594000000E+02  0.51100000000E-03 0.  1.
    9900012    2    1    2    0    0 -0.14970981818E+02 -0.37677254186E+02 -0.15489267330E+02  0.47787272103E+02  0.20000004826E+02 0.  0.
         12    1    1    2    0    0  0.14970981818E+02  0.37677254186E+02  0.15489267330E+02  0.43400727897E+02  0.00000000000E+00 0. -1.
         11    1    3    3    0    0 -0.17621726693E+01 -0.45785890256E+00 -0.44259485466E+01  0.47858027633E+01  0.51100000000E-03 0.  1.
        -11    1    3    3    0    0 -0.10318627781E+02 -0.12406525393E+02 -0.13296678312E+01  0.16191478265E+02  0.51100000000E-03 0. -1.
         12    1    3    3    0    0 -0.28901813673E+01 -0.24812869891E+02 -0.97336509522E+01  0.26809991074E+02  0.00000000000E+00 0. -1.
</event>
<event>
 7    1  0.2237500E-009  0.4778727E+02  0.7816164E-02  0.1312668E+00
        -11   -1    0    0    0    0  0.00000000000E+00  0.00000000000E+00  0.45593999997E+02  0.45594000000E+02  0.51100000000E-03 0.  1.
         11   -1    0    0    0    0 -0.00000000000E+00 -0.00000000000E+00 -0.45593999997E+02  0.45594000000E+02  0.51100000000E-03 0. -1.
    9900012    2    1    2    0    0  0.41528614866E+01 -0.41556039298E+02  0.11809857840E+02  0.47787269558E+02  0.19999993224E+02 0.  0.
         12    1    1    2    0    0 -0.41528614866E+01  0.41556039298E+02 -0.11809857840E+02  0.43400730442E+02  0.00000000000E+00 0. -1.
         11    1    3    3    0    0  0.13191888717E+01  0.87630794155E+00 -0.93711356757E+00  0.18402056916E+01  0.51100000000E-03 0. -1.
        -11    1    3    3    0    0  0.57854215013E+01 -0.98199487299E+01  0.32169170246E+01  0.11842763631E+02  0.51100000000E-03 0.  1.
        -12    1    3    3    0    0 -0.29517488864E+01 -0.32612398510E+02  0.95300543831E+01  0.34104300236E+02  0.00000000000E+00 0.  1.
</event>
<event>
 7    1  0.2237500E-009  0.4778727E+02  0.7816164E-02  0.1312668E+00
        -11   -1    0    0    0    0  0.00000000000E+00  0.00000000000E+00  0.45593999997E+02  0.45594000000E+02  0.51100000000E-03 0. -1.
         11   -1    0    0    0    0 -0.00000000000E+00 -0.00000000000E+00 -0.45593999997E+02  0.45594000000E+02  0.51100000000E-03 0.  1.
    9900012    2    1    2    0    0 -0.72301546294E+01 -0.22183885429E+02 -0.36595400581E+02  0.47787271292E+02  0.20000001128E+02 0.  0.
         12    1    1    2    0    0  0.72301546294E+01  0.22183885429E+02  0.36595400581E+02  0.43400728708E+02  0.00000000000E+00 0. -1.
         11    1    3    3    0    0  0.25612779837E+01 -0.41272284898E+00 -0.32941619762E+01  0.41930881753E+01  0.51100000000E-03 0. -1.
        -11    1    3    3    0    0  0.75622170043E+00 -0.12550047232E+02 -0.22973553567E+02  0.26188923623E+02  0.51100000000E-03 0.  1.
         12    1    3    3    0    0 -0.10547654314E+02 -0.92211153486E+01 -0.10327685038E+02  0.17405259494E+02  0.00000000000E+00 0. -1.
</event>
<event>
 7    1  0.2237500E-009  0.4778727E+02  0.7816164E-02  0.1312668E+00
        -11   -1    0    0    0    0  0.00000000000E+00  0.00000000000E+00  0.45593999997E+02  0.45594000000E+02  0.51100000000E-03 0.  1.
         11   -1    0    0    0    0 -0.00000000000E+00 -0.00000000000E+00 -0.45593999997E+02  0.45594000000E+02  0.51100000000E-03 0. -1.
    9900012    2    1    2    0    0  0.42225858413E+02 -0.96314589297E+01  0.27991741642E+01  0.47787268488E+02  0.19999988343E+02 0.  0.
         12    1    1    2    0    0 -0.42225858413E+02  0.96314589297E+01 -0.27991741642E+01  0.43400731512E+02  0.00000000000E+00 0. -1.
         11    1    3    3    0    0  0.40306766758E+01 -0.42189898522E+01 -0.11204054964E+00  0.58359903345E+01  0.51100000000E-03 0. -1.
        -11    1    3    3    0    0  0.24106208121E+02 -0.41590809439E+01 -0.60596960538E+01  0.25201728924E+02  0.51100000000E-03 0.  1.
         12    1    3    3    0    0  0.14088973616E+02 -0.12533881336E+01  0.89709107677E+01  0.16749549229E+02  0.00000000000E+00 0. -1.
</event>
<event>
 7    1  0.2237500E-009  0.4778726E+02  0.7816164E-02  0.1312668E+00
        -11   -1    0    0    0    0  0.00000000000E+00  0.00000000000E+00  0.45593999997E+02  0.45594000000E+02  0.51100000000E-03 0.  1.
         11   -1    0    0    0    0 -0.00000000000E+00 -0.00000000000E+00 -0.45593999997E+02  0.45594000000E+02  0.51100000000E-03 0. -1.
    9900012    2    1    2    0    0 -0.19742557280E+02  0.38179884714E+02  0.60126425685E+01  0.47787262271E+02  0.19999959999E+02 0.  0.
         12    1    1    2    0    0  0.19742557280E+02 -0.38179884714E+02 -0.60126425685E+01  0.43400737729E+02  0.00000000000E+00 0. -1.
         11    1    3    3    0    0 -0.74165461367E+01  0.32452180721E+02  0.26710527209E+01  0.33395863711E+02  0.51100000000E-03 0. -1.
        -11    1    3    3    0    0 -0.22244611885E+01  0.29039877259E+00 -0.49050593411E+00  0.22963352017E+01  0.51100000000E-03 0.  1.
         12    1    3    3    0    0 -0.10101549955E+02  0.54373052209E+01  0.38320957817E+01  0.12095063358E+02  0.00000000000E+00 0. -1.
</event>
<event>
 7    1  0.2237500E-009  0.4778727E+02  0.7816164E-02  0.1312668E+00
        -11   -1    0    0    0    0  0.00000000000E+00  0.00000000000E+00  0.45593999997E+02  0.45594000000E+02  0.51100000000E-03 0.  1.
         11   -1    0    0    0    0 -0.00000000000E+00 -0.00000000000E+00 -0.45593999997E+02  0.45594000000E+02  0.51100000000E-03 0. -1.
    9900012    2    1    2    0    0  0.72193449525E+01 -0.17972082171E+02  0.38839524075E+02  0.47787270635E+02  0.19999998132E+02 0.  0.
         12    1    1    2    0    0 -0.72193449525E+01  0.17972082171E+02 -0.38839524075E+02  0.43400729365E+02  0.00000000000E+00 0. -1.
         11    1    3    3    0    0  0.28519626522E+01 -0.31048860181E+01  0.35965711957E+01  0.55416002005E+01  0.51100000000E-03 0. -1.
        -11    1    3    3    0    0  0.10180897708E+02 -0.92287893500E+01  0.28751652453E+02  0.31866577319E+02  0.51100000000E-03 0.  1.
         12    1    3    3    0    0 -0.58135154079E+01 -0.56384068025E+01  0.64913004263E+01  0.10379093115E+02  0.00000000000E+00 0. -1.
</event>
<event>
 7    1  0.2237500E-009  0.4778727E+02  0.7816164E-02  0.1312668E+00
        -11   -1    0    0    0    0  0.00000000000E+00  0.00000000000E+00  0.45593999997E+02  0.45594000000E+02  0.51100000000E-03 0. -1.
         11   -1    0    0    0    0 -0.00000000000E+00 -0.00000000000E+00 -0.45593999997E+02  0.45594000000E+02  0.51100000000E-03 0.  1.
    9900012    2    1    2    0    0 -0.33228348435E+02 -0.27024925887E+02  0.70109891605E+01  0.47787265814E+02  0.19999976150E+02 0.  0.
         12    1    1    2    0    0  0.33228348435E+02  0.27024925887E+02 -0.70109891605E+01  0.43400734186E+02  0.00000000000E+00 0. -1.
         11    1    3    3    0    0 -0.16896725730E+02 -0.96997850133E+01 -0.28912646502E+01  0.19696308822E+02  0.51100000000E-03 0. -1.
        -11    1    3    3    0    0 -0.66957522736E+01 -0.39644501936E+00  0.36317656862E+01  0.76275808369E+01  0.51100000000E-03 0.  1.
         12    1    3    3    0    0 -0.96358704314E+01 -0.16928695855E+02  0.62704881245E+01  0.20463376154E+02  0.00000000000E+00 0. -1.
</event>
<event>
 7    1  0.2237500E-009  0.4778729E+02  0.7816164E-02  0.1312668E+00
        -11   -1    0    0    0    0  0.00000000000E+00  0.00000000000E+00  0.45593999997E+02  0.45594000000E+02  0.51100000000E-03 0. -1.
         11   -1    0    0    0    0 -0.00000000000E+00 -0.00000000000E+00 -0.45593999997E+02  0.45594000000E+02  0.51100000000E-03 0.  1.
    9900012    2    1    2    0    0 -0.35835463914E+02 -0.14003925319E+02 -0.20083113932E+02  0.47787287293E+02  0.20000074085E+02 0.  0.
         12    1    1    2    0    0  0.35835463914E+02  0.14003925319E+02  0.20083113932E+02  0.43400712707E+02  0.00000000000E+00 0. -1.
         11    1    3    3    0    0 -0.82085091435E+01 -0.67041775265E+01  0.91177500821E+00  0.10637525680E+02  0.51100000000E-03 0. -1.
        -11    1    3    3    0    0 -0.15603628962E+01 -0.30076103375E+01  0.27488287069E-01  0.33883931556E+01  0.51100000000E-03 0.  1.
        -12    1    3    3    0    0 -0.26066591874E+02 -0.42921374549E+01 -0.21022377227E+02  0.33761368458E+02  0.00000000000E+00 0.  1.
</event>
<event>
 7    1  0.2237500E-009  0.4778727E+02  0.7816164E-02  0.1312668E+00
        -11   -1    0    0    0    0  0.00000000000E+00  0.00000000000E+00  0.45593999997E+02  0.45594000000E+02  0.51100000000E-03 0. -1.
         11   -1    0    0    0    0 -0.00000000000E+00 -0.00000000000E+00 -0.45593999997E+02  0.45594000000E+02  0.51100000000E-03 0.  1.
    9900012    2    1    2    0    0 -0.23916320213E+02 -0.28343341134E+02 -0.22545243819E+02  0.47787269845E+02  0.19999994529E+02 0.  0.
         12    1    1    2    0    0  0.23916320213E+02  0.28343341134E+02  0.22545243819E+02  0.43400730155E+02  0.00000000000E+00 0. -1.
         11    1    3    3    0    0 -0.52655972952E+01 -0.92280610456E+01 -0.21790609479E+01  0.10845825575E+02  0.51100000000E-03 0. -1.
        -11    1    3    3    0    0  0.12981467112E+01 -0.39363764192E+01 -0.79551390793E+01  0.89701996762E+01  0.51100000000E-03 0.  1.
         12    1    3    3    0    0 -0.19948869629E+02 -0.15178903669E+02 -0.12411043792E+02  0.27971244593E+02  0.00000000000E+00 0. -1.
</event>
<event>
 7    1  0.2237500E-009  0.4778727E+02  0.7816164E-02  0.1312668E+00
        -11   -1    0    0    0    0  0.00000000000E+00  0.00000000000E+00  0.45593999997E+02  0.45594000000E+02  0.51100000000E-03 0.  1.
         11   -1    0    0    0    0 -0.00000000000E+00 -0.00000000000E+00 -0.45593999997E+02  0.45594000000E+02  0.51100000000E-03 0. -1.
    9900012    2    1    2    0    0  0.31321260134E+01  0.11936332284E+02  0.41609335165E+02  0.47787274031E+02  0.20000013617E+02 0.  0.
         12    1    1    2    0    0 -0.31321260134E+01 -0.11936332284E+02 -0.41609335165E+02  0.43400725969E+02  0.00000000000E+00 0. -1.
         11    1    3    3    0    0  0.38651508237E+01  0.38384865115E+01  0.73314398419E+00  0.54964415717E+01  0.51100000000E-03 0. -1.
        -11    1    3    3    0    0  0.27195685345E+01  0.25222483536E+01  0.87768654406E+01  0.95284393787E+01  0.51100000000E-03 0.  1.
        -12    1    3    3    0    0 -0.34525933447E+01  0.55755974186E+01  0.32099325740E+02  0.32762393081E+02  0.00000000000E+00 0.  1.
</event>
<event>
 7    1  0.2400309E-009  0.4778728E+02  0.7816164E-02  0.1312668E+00
        -11   -1    0    0    0    0  0.00000000000E+00  0.00000000000E+00  0.45593999997E+02  0.45594000000E+02  0.51100000000E-03 0. -1.
         11   -1    0    0    0    0 -0.00000000000E+00 -0.00000000000E+00 -0.45593999997E+02  0.45594000000E+02  0.51100000000E-03 0.  1.
    9900012    2    1    2    0    0  0.28853540632E+02 -0.27033411910E+02 -0.17896647932E+02  0.47787283719E+02  0.20000057790E+02 0.  0.
         12    1    1    2    0    0 -0.28853540632E+02  0.27033411910E+02  0.17896647932E+02  0.43400716281E+02  0.00000000000E+00 0. -1.
         11    1    3    3    0    0  0.20364089296E+02 -0.17949289951E+02 -0.59967670037E+01  0.27799898514E+02  0.51100000000E-03 0. -1.
        -11    1    3    3    0    0  0.87285747009E+01 -0.11045118867E+02 -0.10258159474E+02  0.17418739999E+02  0.51100000000E-03 0.  1.
         12    1    3    3    0    0 -0.23912336539E+00  0.19609969091E+01 -0.16417214546E+01  0.25686452063E+01  0.00000000000E+00 0. -1.
</event>
<event>
 7    1  0.2237500E-009  0.4778727E+02  0.7816164E-02  0.1312668E+00
        -11   -1    0    0    0    0  0.00000000000E+00  0.00000000000E+00  0.45593999997E+02  0.45594000000E+02  0.51100000000E-03 0. -1.
         11   -1    0    0    0    0 -0.00000000000E+00 -0.00000000000E+00 -0.45593999997E+02  0.45594000000E+02  0.51100000000E-03 0.  1.
    9900012    2    1    2    0    0 -0.34227194544E+02 -0.12890868895E+02 -0.23365533031E+02  0.47787268658E+02  0.19999989118E+02 0.  0.
         12    1    1    2    0    0  0.34227194544E+02  0.12890868895E+02  0.23365533031E+02  0.43400731342E+02  0.00000000000E+00 0. -1.
         11    1    3    3    0    0 -0.80465469576E+01 -0.77052026199E+01 -0.92647482429E-01  0.11141169112E+02  0.51100000000E-03 0. -1.
        -11    1    3    3    0    0 -0.64000939452E+01 -0.18562135987E+00 -0.10683635147E+01  0.64913063906E+01  0.51100000000E-03 0.  1.
        -12    1    3    3    0    0 -0.19780553641E+02 -0.50000449153E+01 -0.22204522034E+02  0.30154793156E+02  0.00000000000E+00 0.  1.
</event>
<event>
 7    1  0.2237500E-009  0.4778727E+02  0.7816164E-02  0.1312668E+00
        -11   -1    0    0    0    0  0.00000000000E+00  0.00000000000E+00  0.45593999997E+02  0.45594000000E+02  0.51100000000E-03 0.  1.
         11   -1    0    0    0    0 -0.00000000000E+00 -0.00000000000E+00 -0.45593999997E+02  0.45594000000E+02  0.51100000000E-03 0. -1.
    9900012    2    1    2    0    0 -0.34696485013E+02 -0.20452727919E+02  0.16169816997E+02  0.47787272664E+02  0.20000007383E+02 0.  0.
         12    1    1    2    0    0  0.34696485013E+02  0.20452727919E+02 -0.16169816997E+02  0.43400727336E+02  0.00000000000E+00 0. -1.
         11    1    3    3    0    0 -0.13875135407E+02 -0.22659132872E+01  0.96357430114E+01  0.17044098369E+02  0.51100000000E-03 0. -1.
        -11    1    3    3    0    0  0.13397807894E+01 -0.61146461280E-01  0.74470926016E+00  0.15340611450E+01  0.51100000000E-03 0.  1.
         12    1    3    3    0    0 -0.22161130396E+02 -0.18125668170E+02  0.57893647256E+01  0.29209113149E+02  0.00000000000E+00 0. -1.
</event>
<event>
 7    1  0.2237500E-009  0.4778727E+02  0.7816164E-02  0.1312668E+00
        -11   -1    0    0    0    0  0.00000000000E+00  0.00000000000E+00  0.45593999997E+02  0.45594000000E+02  0.51100000000E-03 0. -1.
         11   -1    0    0    0    0 -0.00000000000E+00 -0.00000000000E+00 -0.45593999997E+02  0.45594000000E+02  0.51100000000E-03 0.  1.
    9900012    2    1    2    0    0 -0.34039659954E+02 -0.83741247255E+01 -0.25589037261E+02  0.47787271404E+02  0.20000001639E+02 0.  0.
         12    1    1    2    0    0  0.34039659954E+02  0.83741247255E+01  0.25589037261E+02  0.43400728596E+02  0.00000000000E+00 0. -1.
         11    1    3    3    0    0 -0.43526908604E+01  0.20026833664E+01 -0.42280216048E+01  0.63900567559E+01  0.51100000000E-03 0. -1.
        -11    1    3    3    0    0 -0.47086533507E+01 -0.79200824633E+01 -0.10720406474E+02  0.14135990869E+02  0.51100000000E-03 0.  1.
        -12    1    3    3    0    0 -0.24978315743E+02 -0.24567256287E+01 -0.10640609182E+02  0.27261223779E+02  0.00000000000E+00 0.  1.
</event>
<event>
 7    1  0.2237500E-009  0.4778727E+02  0.7816164E-02  0.1312668E+00
        -11   -1    0    0    0    0  0.00000000000E+00  0.00000000000E+00  0.45593999997E+02  0.45594000000E+02  0.51100000000E-03 0.  1.
         11   -1    0    0    0    0 -0.00000000000E+00 -0.00000000000E+00 -0.45593999997E+02  0.45594000000E+02  0.51100000000E-03 0. -1.
    9900012    2    1    2    0    0  0.22982816457E+02  0.28100316067E+01  0.36708547386E+02  0.47787267505E+02  0.19999983861E+02 0.  0.
         12    1    1    2    0    0 -0.22982816457E+02 -0.28100316067E+01 -0.36708547386E+02  0.43400732495E+02  0.00000000000E+00 0. -1.
         11    1    3    3    0    0  0.12722063504E+01 -0.14489770369E+01  0.15365452256E+01  0.24655658464E+01  0.51100000000E-03 0. -1.
        -11    1    3    3    0    0  0.14619601494E+02  0.17216461682E+01  0.34795187098E+02  0.37780972180E+02  0.51100000000E-03 0.  1.
         12    1    3    3    0    0  0.70910086126E+01  0.25373624753E+01  0.37681506199E+00  0.75407294784E+01  0.00000000000E+00 0. -1.
</event>
<event>
 7    1  0.2237500E-009  0.4778730E+02  0.7816164E-02  0.1312668E+00
        -11   -1    0    0    0    0  0.00000000000E+00  0.00000000000E+00  0.45593999997E+02  0.45594000000E+02  0.51100000000E-03 0. -1.
         11   -1    0    0    0    0 -0.00000000000E+00 -0.00000000000E+00 -0.45593999997E+02  0.45594000000E+02  0.51100000000E-03 0.  1.
    9900012    2    1    2    0    0 -0.38691617250E+02  0.14301746824E+02  0.13492201365E+02  0.47787300636E+02  0.20000134918E+02 0.  0.
         12    1    1    2    0    0  0.38691617250E+02 -0.14301746824E+02 -0.13492201365E+02  0.43400699364E+02  0.00000000000E+00 0. -1.
         11    1    3    3    0    0 -0.28718297669E+02  0.89514854923E+01  0.95594466999E+01  0.31563471529E+02  0.51100000000E-03 0. -1.
        -11    1    3    3    0    0 -0.10769279012E+02  0.76665972224E+01  0.38678814992E+01  0.13773691987E+02  0.51100000000E-03 0.  1.
         12    1    3    3    0    0  0.79595943013E+00 -0.23163358912E+01  0.64873165360E-01  0.24501371192E+01  0.00000000000E+00 0. -1.
</event>
<event>
 7    1  0.2237500E-009  0.4778727E+02  0.7816164E-02  0.1312668E+00
        -11   -1    0    0    0    0  0.00000000000E+00  0.00000000000E+00  0.45593999997E+02  0.45594000000E+02  0.51100000000E-03 0. -1.
         11   -1    0    0    0    0 -0.00000000000E+00 -0.00000000000E+00 -0.45593999997E+02  0.45594000000E+02  0.51100000000E-03 0.  1.
    9900012    2    1    2    0    0  0.19657184217E+00  0.42302126828E+02 -0.97012709827E+01  0.47787271511E+02  0.20000002127E+02 0.  0.
         12    1    1    2    0    0 -0.19657184217E+00 -0.42302126828E+02  0.97012709827E+01  0.43400728489E+02  0.00000000000E+00 0. -1.
         11    1    3    3    0    0  0.22541304545E+01 -0.12571721264E+01  0.23331760872E+00  0.25915291295E+01  0.51100000000E-03 0. -1.
        -11    1    3    3    0    0 -0.11815726376E+01  0.65908547578E+01 -0.38375335411E+01  0.77176514742E+01  0.51100000000E-03 0.  1.
        -12    1    3    3    0    0 -0.87598597471E+00  0.36968444197E+02 -0.60970550503E+01  0.37478090907E+02  0.00000000000E+00 0.  1.
</event>
<event>
 7    1  0.2237500E-009  0.4778727E+02  0.7816164E-02  0.1312668E+00
        -11   -1    0    0    0    0  0.00000000000E+00  0.00000000000E+00  0.45593999997E+02  0.45594000000E+02  0.51100000000E-03 0. -1.
         11   -1    0    0    0    0 -0.00000000000E+00 -0.00000000000E+00 -0.45593999997E+02  0.45594000000E+02  0.51100000000E-03 0.  1.
    9900012    2    1    2    0    0  0.12882412095E+02 -0.18331913226E+02 -0.37169985291E+02  0.47787269701E+02  0.19999993877E+02 0.  0.
         12    1    1    2    0    0 -0.12882412095E+02  0.18331913226E+02  0.37169985291E+02  0.43400730299E+02  0.00000000000E+00 0. -1.
         11    1    3    3    0    0  0.45790713491E+01  0.62105656182E+00 -0.59896765407E+01  0.75650400525E+01  0.51100000000E-03 0.  1.
        -11    1    3    3    0    0  0.35891178283E+01 -0.53223564118E+01 -0.64460065425E+00  0.64517249495E+01  0.51100000000E-03 0. -1.
        -12    1    3    3    0    0  0.47142229174E+01 -0.13630613376E+02 -0.30535708096E+02  0.33770504699E+02  0.00000000000E+00 0.  1.
</event>
<event>
 7    1  0.2237500E-009  0.4778727E+02  0.7816164E-02  0.1312668E+00
        -11   -1    0    0    0    0  0.00000000000E+00  0.00000000000E+00  0.45593999997E+02  0.45594000000E+02  0.51100000000E-03 0. -1.
         11   -1    0    0    0    0 -0.00000000000E+00 -0.00000000000E+00 -0.45593999997E+02  0.45594000000E+02  0.51100000000E-03 0.  1.
    9900012    2    1    2    0    0 -0.77616339459E+01 -0.40091343530E+02 -0.14699128427E+02  0.47787272309E+02  0.20000005767E+02 0.  0.
         12    1    1    2    0    0  0.77616339459E+01  0.40091343530E+02  0.14699128427E+02  0.43400727691E+02  0.00000000000E+00 0. -1.
         11    1    3    3    0    0 -0.70804085654E+01 -0.15213361102E+02 -0.84206221642E+01  0.18774595052E+02  0.51100000000E-03 0. -1.
        -11    1    3    3    0    0 -0.20301324929E+01 -0.20735509773E+02 -0.10158097420E+02  0.23179079941E+02  0.51100000000E-03 0.  1.
         12    1    3    3    0    0  0.13489071124E+01 -0.41424726552E+01  0.38795911571E+01  0.58335973159E+01  0.00000000000E+00 0. -1.
</event>
<event>
 7    1  0.2237500E-009  0.4778727E+02  0.7816164E-02  0.1312668E+00
        -11   -1    0    0    0    0  0.00000000000E+00  0.00000000000E+00  0.45593999997E+02  0.45594000000E+02  0.51100000000E-03 0. -1.
         11   -1    0    0    0    0 -0.00000000000E+00 -0.00000000000E+00 -0.45593999997E+02  0.45594000000E+02  0.51100000000E-03 0.  1.
    9900012    2    1    2    0    0  0.89366192022E+01  0.42224636123E+02 -0.45650991912E+01  0.47787272021E+02  0.20000004451E+02 0.  0.
         12    1    1    2    0    0 -0.89366192022E+01 -0.42224636123E+02  0.45650991912E+01  0.43400727979E+02  0.00000000000E+00 0. -1.
         11    1    3    3    0    0 -0.35569307067E+01  0.21034131621E+02  0.27998045543E+01  0.21515700195E+02  0.51100000000E-03 0. -1.
        -11    1    3    3    0    0  0.42415001621E+01  0.11285466681E+02 -0.16463387728E+01  0.12168094076E+02  0.51100000000E-03 0.  1.
         12    1    3    3    0    0  0.82520497468E+01  0.99050378217E+01 -0.57185649727E+01  0.14103477749E+02  0.00000000000E+00 0. -1.
</event>
<event>
 7    1  0.2237500E-009  0.4778727E+02  0.7816164E-02  0.1312668E+00
        -11   -1    0    0    0    0  0.00000000000E+00  0.00000000000E+00  0.45593999997E+02  0.45594000000E+02  0.51100000000E-03 0.  1.
         11   -1    0    0    0    0 -0.00000000000E+00 -0.00000000000E+00 -0.45593999997E+02  0.45594000000E+02  0.51100000000E-03 0. -1.
    9900012    2    1    2    0    0  0.40887565764E+02 -0.13035085523E+02  0.64743268161E+01  0.47787269633E+02  0.19999993563E+02 0.  0.
         12    1    1    2    0    0 -0.40887565764E+02  0.13035085523E+02 -0.64743268161E+01  0.43400730367E+02  0.00000000000E+00 0. -1.
         11    1    3    3    0    0  0.21928806125E+02 -0.85511868640E+01  0.80000477463E+01  0.24859527330E+02  0.51100000000E-03 0.  1.
        -11    1    3    3    0    0  0.29426863245E+00  0.35984031818E+00  0.30699115771E+01  0.31049052215E+01  0.51100000000E-03 0. -1.
         12    1    3    3    0    0  0.18664491007E+02 -0.48437389768E+01 -0.45956325073E+01  0.19822837081E+02  0.00000000000E+00 0. -1.
</event>
<event>
 7    1  0.2237500E-009  0.4778727E+02  0.7816164E-02  0.1312668E+00
        -11   -1    0    0    0    0  0.00000000000E+00  0.00000000000E+00  0.45593999997E+02  0.45594000000E+02  0.51100000000E-03 0. -1.
         11   -1    0    0    0    0 -0.00000000000E+00 -0.00000000000E+00 -0.45593999997E+02  0.45594000000E+02  0.51100000000E-03 0.  1.
    9900012    2    1    2    0    0  0.13561358958E+02 -0.37036355635E+02 -0.18111347196E+02  0.47787274283E+02  0.20000014765E+02 0.  0.
         12    1    1    2    0    0 -0.13561358958E+02  0.37036355635E+02  0.18111347196E+02  0.43400725717E+02  0.00000000000E+00 0. -1.
         11    1    3    3    0    0  0.23739716884E+01 -0.12374871210E+02 -0.36756046730E+01  0.13125671374E+02  0.51100000000E-03 0. -1.
        -11    1    3    3    0    0 -0.23115066111E+01 -0.10495671652E+02 -0.98177893183E+01  0.14556482185E+02  0.51100000000E-03 0.  1.
         12    1    3    3    0    0  0.13498893881E+02 -0.14165812774E+02 -0.46179532043E+01  0.20105120724E+02  0.00000000000E+00 0. -1.
</event>
<event>
 7    1  0.2237500E-009  0.4778727E+02  0.7816164E-02  0.1312668E+00
        -11   -1    0    0    0    0  0.00000000000E+00  0.00000000000E+00  0.45593999997E+02  0.45594000000E+02  0.51100000000E-03 0.  1.
         11   -1    0    0    0    0 -0.00000000000E+00 -0.00000000000E+00 -0.45593999997E+02  0.45594000000E+02  0.51100000000E-03 0. -1.
    9900012    2    1    2    0    0  0.99704625482E+01  0.42135337402E+02 -0.29708937084E+01  0.47787274305E+02  0.20000014865E+02 0.  0.
         12    1    1    2    0    0 -0.99704625482E+01 -0.42135337402E+02  0.29708937084E+01  0.43400725695E+02  0.00000000000E+00 0. -1.
         11    1    3    3    0    0  0.32569554355E+01  0.94686162781E+01 -0.44011938979E+01  0.10937685355E+02  0.51100000000E-03 0. -1.
        -11    1    3    3    0    0 -0.50340539795E+01  0.93109982542E+01  0.16021203678E+01  0.10705287380E+02  0.51100000000E-03 0.  1.
        -12    1    3    3    0    0  0.11747561092E+02  0.23355722870E+02 -0.17182017822E+00  0.26144301570E+02  0.00000000000E+00 0.  1.
</event>
<event>
 7    1  0.2702380E-009  0.4778727E+02  0.7816164E-02  0.1312668E+00
        -11   -1    0    0    0    0  0.00000000000E+00  0.00000000000E+00  0.45593999997E+02  0.45594000000E+02  0.51100000000E-03 0. -1.
         11   -1    0    0    0    0 -0.00000000000E+00 -0.00000000000E+00 -0.45593999997E+02  0.45594000000E+02  0.51100000000E-03 0.  1.
    9900012    2    1    2    0    0  0.13385514960E+02 -0.33317393521E+02 -0.24380378026E+02  0.47787267812E+02  0.19999985261E+02 0.  0.
         12    1    1    2    0    0 -0.13385514960E+02  0.33317393521E+02  0.24380378026E+02  0.43400732188E+02  0.00000000000E+00 0. -1.
         11    1    3    3    0    0 -0.27868647497E+01 -0.26568839367E+01 -0.50916379547E+01  0.63836059330E+01  0.51100000000E-03 0. -1.
        -11    1    3    3    0    0  0.54657230786E+01 -0.16836254962E+02 -0.15464202656E+02  0.23504790447E+02  0.51100000000E-03 0.  1.
        -12    1    3    3    0    0  0.10706656632E+02 -0.13824254622E+02 -0.38245374150E+01  0.17898871431E+02  0.00000000000E+00 0.  1.
</event>
<event>
 7    1  0.2237500E-009  0.4778727E+02  0.7816164E-02  0.1312668E+00
        -11   -1    0    0    0    0  0.00000000000E+00  0.00000000000E+00  0.45593999997E+02  0.45594000000E+02  0.51100000000E-03 0.  1.
         11   -1    0    0    0    0 -0.00000000000E+00 -0.00000000000E+00 -0.45593999997E+02  0.45594000000E+02  0.51100000000E-03 0. -1.
    9900012    2    1    2    0    0 -0.27607279476E+02  0.20374647891E+02  0.26576964070E+02  0.47787272172E+02  0.20000005143E+02 0.  0.
         12    1    1    2    0    0  0.27607279476E+02 -0.20374647891E+02 -0.26576964070E+02  0.43400727828E+02  0.00000000000E+00 0. -1.
         11    1    3    3    0    0 -0.14755697373E+01  0.31995330500E+01  0.12891458270E+02  0.13364281289E+02  0.51100000000E-03 0. -1.
        -11    1    3    3    0    0 -0.69866731410E+01  0.58084827103E+01  0.59121171991E+01  0.10839981689E+02  0.51100000000E-03 0.  1.
        -12    1    3    3    0    0 -0.19145036597E+02  0.11366632131E+02  0.77733886014E+01  0.23583009195E+02  0.00000000000E+00 0.  1.
</event>
<event>
 7    1  0.2237500E-009  0.4778727E+02  0.7816164E-02  0.1312668E+00
        -11   -1    0    0    0    0  0.00000000000E+00  0.00000000000E+00  0.45593999997E+02  0.45594000000E+02  0.51100000000E-03 0. -1.
         11   -1    0    0    0    0 -0.00000000000E+00 -0.00000000000E+00 -0.45593999997E+02  0.45594000000E+02  0.51100000000E-03 0.  1.
    9900012    2    1    2    0    0  0.43034036136E+02  0.11098052574E+01  0.55193803276E+01  0.47787268519E+02  0.19999988485E+02 0.  0.
         12    1    1    2    0    0 -0.43034036136E+02 -0.11098052574E+01 -0.55193803276E+01  0.43400731481E+02  0.00000000000E+00 0. -1.
         11    1    3    3    0    0  0.56609458438E+01  0.24016089514E+01  0.65718747872E+01  0.90001984356E+01  0.51100000000E-03 0. -1.
        -11    1    3    3    0    0  0.16323659837E+02 -0.46461298101E+01  0.25730003543E+01  0.17165917504E+02  0.51100000000E-03 0.  1.
         12    1    3    3    0    0  0.21049430456E+02  0.33543261161E+01 -0.36254948139E+01  0.21621152579E+02  0.00000000000E+00 0. -1.
</event>
<event>
 7    1  0.2237500E-009  0.4778727E+02  0.7816164E-02  0.1312668E+00
        -11   -1    0    0    0    0  0.00000000000E+00  0.00000000000E+00  0.45593999997E+02  0.45594000000E+02  0.51100000000E-03 0.  1.
         11   -1    0    0    0    0 -0.00000000000E+00 -0.00000000000E+00 -0.45593999997E+02  0.45594000000E+02  0.51100000000E-03 0. -1.
    9900012    2    1    2    0    0  0.31279777230E+02 -0.36555770088E+01  0.29863618736E+02  0.47787269236E+02  0.19999991753E+02 0.  0.
         12    1    1    2    0    0 -0.31279777230E+02  0.36555770088E+01 -0.29863618736E+02  0.43400730764E+02  0.00000000000E+00 0. -1.
         11    1    3    3    0    0  0.41753992765E+01  0.32868460938E+01  0.88047934459E+00  0.53863308940E+01  0.51100000000E-03 0. -1.
        -11    1    3    3    0    0  0.61061328127E+00  0.90244462017E+00  0.70211101953E+01  0.71051561212E+01  0.51100000000E-03 0.  1.
        -12    1    3    3    0    0  0.26493764673E+02 -0.78448677228E+01  0.21962029197E+02  0.35295782220E+02  0.00000000000E+00 0.  1.
</event>
<event>
 7    1  0.2237500E-009  0.4778727E+02  0.7816164E-02  0.1312668E+00
        -11   -1    0    0    0    0  0.00000000000E+00  0.00000000000E+00  0.45593999997E+02  0.45594000000E+02  0.51100000000E-03 0.  1.
         11   -1    0    0    0    0 -0.00000000000E+00 -0.00000000000E+00 -0.45593999997E+02  0.45594000000E+02  0.51100000000E-03 0. -1.
    9900012    2    1    2    0    0  0.35716308445E+01 -0.28091813345E+02  0.32889463642E+02  0.47787270253E+02  0.19999996392E+02 0.  0.
         12    1    1    2    0    0 -0.35716308445E+01  0.28091813345E+02 -0.32889463642E+02  0.43400729747E+02  0.00000000000E+00 0. -1.
         11    1    3    3    0    0  0.37639695322E+01 -0.11870770710E+02  0.10355638062E+02  0.16196354646E+02  0.51100000000E-03 0. -1.
        -11    1    3    3    0    0  0.42628382031E+01 -0.22097335541E+01  0.13515005449E+02  0.14342596853E+02  0.51100000000E-03 0.  1.
         12    1    3    3    0    0 -0.44551768907E+01 -0.14011309081E+02  0.90188201304E+01  0.17248318754E+02  0.00000000000E+00 0. -1.
</event>
<event>
 7    1  0.2237500E-009  0.4778727E+02  0.7816164E-02  0.1312668E+00
        -11   -1    0    0    0    0  0.00000000000E+00  0.00000000000E+00  0.45593999997E+02  0.45594000000E+02  0.51100000000E-03 0.  1.
         11   -1    0    0    0    0 -0.00000000000E+00 -0.00000000000E+00 -0.45593999997E+02  0.45594000000E+02  0.51100000000E-03 0. -1.
    9900012    2    1    2    0    0  0.15754811530E+01  0.42410094436E+02  0.90843216700E+01  0.47787272458E+02  0.20000006447E+02 0.  0.
         12    1    1    2    0    0 -0.15754811530E+01 -0.42410094436E+02 -0.90843216700E+01  0.43400727542E+02  0.00000000000E+00 0. -1.
         11    1    3    3    0    0  0.65457056642E+00  0.25341315241E+01 -0.45089065854E+01  0.52134944198E+01  0.51100000000E-03 0. -1.
        -11    1    3    3    0    0 -0.95376540492E-01 -0.26776634384E-02 -0.31345696406E+00  0.32765741834E+00  0.51100000000E-03 0.  1.
        -12    1    3    3    0    0  0.10162871271E+01  0.39878640575E+02  0.13906685219E+02  0.42246120620E+02  0.00000000000E+00 0.  1.
</event>
<event>
 7    1  0.2237500E-009  0.4778727E+02  0.7816164E-02  0.1312668E+00
        -11   -1    0    0    0    0  0.00000000000E+00  0.00000000000E+00  0.45593999997E+02  0.45594000000E+02  0.51100000000E-03 0. -1.
         11   -1    0    0    0    0 -0.00000000000E+00 -0.00000000000E+00 -0.45593999997E+02  0.45594000000E+02  0.51100000000E-03 0.  1.
    9900012    2    1    2    0    0 -0.86826048478E+01  0.41811534555E+02 -0.77479666258E+01  0.47787273789E+02  0.20000012515E+02 0.  0.
         12    1    1    2    0    0  0.86826048478E+01 -0.41811534555E+02  0.77479666258E+01  0.43400726211E+02  0.00000000000E+00 0. -1.
         11    1    3    3    0    0 -0.80967500198E+01  0.67921595531E+01  0.21587331625E+01  0.10786608429E+02  0.51100000000E-03 0. -1.
        -11    1    3    3    0    0  0.24320045710E+00  0.42820380352E+01  0.94798226802E+00  0.43924556729E+01  0.51100000000E-03 0.  1.
        -12    1    3    3    0    0 -0.82905528512E+00  0.30737336967E+02 -0.10854682056E+02  0.32608209687E+02  0.00000000000E+00 0.  1.
</event>
<event>
 7    1  0.2237500E-009  0.4778727E+02  0.7816164E-02  0.1312668E+00
        -11   -1    0    0    0    0  0.00000000000E+00  0.00000000000E+00  0.45593999997E+02  0.45594000000E+02  0.51100000000E-03 0.  1.
         11   -1    0    0    0    0 -0.00000000000E+00 -0.00000000000E+00 -0.45593999997E+02  0.45594000000E+02  0.51100000000E-03 0. -1.
    9900012    2    1    2    0    0  0.22364237850E+02  0.19303314335E+02  0.31793813130E+02  0.47787266916E+02  0.19999981176E+02 0.  0.
         12    1    1    2    0    0 -0.22364237850E+02 -0.19303314335E+02 -0.31793813130E+02  0.43400733084E+02  0.00000000000E+00 0. -1.
         11    1    3    3    0    0  0.85014271190E+01  0.70799811198E+01  0.80387464310E+00  0.11092637667E+02  0.51100000000E-03 0. -1.
        -11    1    3    3    0    0  0.69019958758E+01  0.70485567891E+01  0.10310026897E+02  0.14269420267E+02  0.51100000000E-03 0.  1.
         12    1    3    3    0    0  0.69608148547E+01  0.51747764265E+01  0.20679911590E+02  0.22425208982E+02  0.00000000000E+00 0. -1.
</event>
<event>
 7    1  0.2237500E-009  0.4778728E+02  0.7816164E-02  0.1312668E+00
        -11   -1    0    0    0    0  0.00000000000E+00  0.00000000000E+00  0.45593999997E+02  0.45594000000E+02  0.51100000000E-03 0. -1.
         11   -1    0    0    0    0 -0.00000000000E+00 -0.00000000000E+00 -0.45593999997E+02  0.45594000000E+02  0.51100000000E-03 0.  1.
    9900012    2    1    2    0    0 -0.60112103802E+01 -0.26280474609E+02 -0.34012127512E+02  0.47787276344E+02  0.20000024164E+02 0.  0.
         12    1    1    2    0    0  0.60112103802E+01  0.26280474609E+02  0.34012127512E+02  0.43400723656E+02  0.00000000000E+00 0. -1.
         11    1    3    3    0    0 -0.30211053352E-02 -0.12586774049E+01 -0.32040792090E+00  0.12988223257E+01  0.51100000000E-03 0. -1.
        -11    1    3    3    0    0 -0.12430292608E+02 -0.14935590109E+02 -0.25204449689E+02  0.31825277856E+02  0.51100000000E-03 0.  1.
         12    1    3    3    0    0  0.64221033330E+01 -0.10086207095E+02 -0.84872699027E+01  0.14663176163E+02  0.00000000000E+00 0. -1.
</event>
<event>
 7    1  0.2237500E-009  0.4778726E+02  0.7816164E-02  0.1312668E+00
        -11   -1    0    0    0    0  0.00000000000E+00  0.00000000000E+00  0.45593999997E+02  0.45594000000E+02  0.51100000000E-03 0.  1.
         11   -1    0    0    0    0 -0.00000000000E+00 -0.00000000000E+00 -0.45593999997E+02  0.45594000000E+02  0.51100000000E-03 0. -1.
    9900012    2    1    2    0    0  0.90373406655E+01 -0.34380934663E+02  0.24897833479E+02  0.47787259148E+02  0.19999945757E+02 0.  0.
         12    1    1    2    0    0 -0.90373406655E+01  0.34380934663E+02 -0.24897833479E+02  0.43400740852E+02  0.00000000000E+00 0. -1.
         11    1    3    3    0    0 -0.20117333963E+01 -0.15650727243E+02  0.10448494149E+02  0.18925204483E+02  0.51100000000E-03 0. -1.
        -11    1    3    3    0    0  0.48002109550E+01 -0.17784384606E+02  0.12449242787E+02  0.22233083620E+02  0.51100000000E-03 0.  1.
         12    1    3    3    0    0  0.62488631068E+01 -0.94582281383E+00  0.20000965426E+01  0.66289710441E+01  0.00000000000E+00 0. -1.
</event>
<event>
 7    1  0.2237500E-009  0.4778727E+02  0.7816164E-02  0.1312668E+00
        -11   -1    0    0    0    0  0.00000000000E+00  0.00000000000E+00  0.45593999997E+02  0.45594000000E+02  0.51100000000E-03 0.  1.
         11   -1    0    0    0    0 -0.00000000000E+00 -0.00000000000E+00 -0.45593999997E+02  0.45594000000E+02  0.51100000000E-03 0. -1.
    9900012    2    1    2    0    0  0.32056572712E+02 -0.25839177534E+02  0.13723577225E+02  0.47787268191E+02  0.19999986992E+02 0.  0.
         12    1    1    2    0    0 -0.32056572712E+02  0.25839177534E+02 -0.13723577225E+02  0.43400731809E+02  0.00000000000E+00 0. -1.
         11    1    3    3    0    0  0.11406425555E+02 -0.21850404921E+01  0.49683959423E+01  0.12631939851E+02  0.51100000000E-03 0. -1.
        -11    1    3    3    0    0  0.27353778457E+01  0.14031807878E+01 -0.18967140717E+00  0.30801272353E+01  0.51100000000E-03 0.  1.
        -12    1    3    3    0    0  0.17914769311E+02 -0.25057317829E+02  0.89448526897E+01  0.32075201105E+02  0.00000000000E+00 0.  1.
</event>
<event>
 7    1  0.2237500E-009  0.4778732E+02  0.7816164E-02  0.1312668E+00
        -11   -1    0    0    0    0  0.00000000000E+00  0.00000000000E+00  0.45593999997E+02  0.45594000000E+02  0.51100000000E-03 0.  1.
         11   -1    0    0    0    0 -0.00000000000E+00 -0.00000000000E+00 -0.45593999997E+02  0.45594000000E+02  0.51100000000E-03 0. -1.
    9900012    2    1    2    0    0  0.71462536003E+01 -0.40349517147E+02 -0.14299184552E+02  0.47787318515E+02  0.20000216437E+02 0.  0.
         12    1    1    2    0    0 -0.71462536003E+01  0.40349517147E+02  0.14299184552E+02  0.43400681485E+02  0.00000000000E+00 0. -1.
         11    1    3    3    0    0  0.34376172653E+01 -0.12823113576E+02 -0.34904160955E+00  0.13280485102E+02  0.51100000000E-03 0. -1.
        -11    1    3    3    0    0  0.91542437820E+01 -0.21236749392E+02 -0.89298590045E+01  0.24789959380E+02  0.51100000000E-03 0.  1.
         12    1    3    3    0    0 -0.54456074470E+01 -0.62896541791E+01 -0.50202839381E+01  0.97168740333E+01  0.00000000000E+00 0. -1.
</event>
<event>
 7    1  0.2237500E-009  0.4778727E+02  0.7816164E-02  0.1312668E+00
        -11   -1    0    0    0    0  0.00000000000E+00  0.00000000000E+00  0.45593999997E+02  0.45594000000E+02  0.51100000000E-03 0.  1.
         11   -1    0    0    0    0 -0.00000000000E+00 -0.00000000000E+00 -0.45593999997E+02  0.45594000000E+02  0.51100000000E-03 0. -1.
    9900012    2    1    2    0    0  0.40520353015E+02  0.93420369489E+00  0.15519401558E+02  0.47787267636E+02  0.19999984460E+02 0.  0.
         12    1    1    2    0    0 -0.40520353015E+02 -0.93420369489E+00 -0.15519401558E+02  0.43400732364E+02  0.00000000000E+00 0. -1.
         11    1    3    3    0    0  0.72721775427E+01  0.81555261277E+00  0.90124621162E+01  0.11609227620E+02  0.51100000000E-03 0. -1.
        -11    1    3    3    0    0  0.11028733064E+01  0.27485112449E+01  0.20890013081E+01  0.36241647755E+01  0.51100000000E-03 0.  1.
        -12    1    3    3    0    0  0.32145302166E+02 -0.26298601628E+01  0.44179381333E+01  0.32553875240E+02  0.00000000000E+00 0.  1.
</event>
<event>
 7    1  0.2237500E-009  0.4778727E+02  0.7816164E-02  0.1312668E+00
        -11   -1    0    0    0    0  0.00000000000E+00  0.00000000000E+00  0.45593999997E+02  0.45594000000E+02  0.51100000000E-03 0.  1.
         11   -1    0    0    0    0 -0.00000000000E+00 -0.00000000000E+00 -0.45593999997E+02  0.45594000000E+02  0.51100000000E-03 0. -1.
    9900012    2    1    2    0    0  0.18053403977E+02  0.36976646336E+02  0.13799469074E+02  0.47787272861E+02  0.20000008284E+02 0.  0.
         12    1    1    2    0    0 -0.18053403977E+02 -0.36976646336E+02 -0.13799469074E+02  0.43400727139E+02  0.00000000000E+00 0. -1.
         11    1    3    3    0    0  0.14510479087E+01 -0.43836759871E+00  0.14968705572E+01  0.21303351640E+01  0.51100000000E-03 0. -1.
        -11    1    3    3    0    0  0.82692903860E+01  0.12989254729E+02 -0.29506754371E+01  0.15678277574E+02  0.51100000000E-03 0.  1.
         12    1    3    3    0    0  0.83330656820E+01  0.24425759206E+02  0.15253273954E+02  0.29978660123E+02  0.00000000000E+00 0. -1.
</event>
<event>
 7    1  0.2237500E-009  0.4778727E+02  0.7816164E-02  0.1312668E+00
        -11   -1    0    0    0    0  0.00000000000E+00  0.00000000000E+00  0.45593999997E+02  0.45594000000E+02  0.51100000000E-03 0. -1.
         11   -1    0    0    0    0 -0.00000000000E+00 -0.00000000000E+00 -0.45593999997E+02  0.45594000000E+02  0.51100000000E-03 0.  1.
    9900012    2    1    2    0    0 -0.23172499089E+02 -0.29840522179E+02  0.21358884723E+02  0.47787269193E+02  0.19999991558E+02 0.  0.
         12    1    1    2    0    0  0.23172499089E+02  0.29840522179E+02 -0.21358884723E+02  0.43400730807E+02  0.00000000000E+00 0. -1.
         11    1    3    3    0    0 -0.10951340993E+02 -0.91453480825E+01 -0.12100226709E+01  0.14318987960E+02  0.51100000000E-03 0. -1.
        -11    1    3    3    0    0 -0.29827167674E+01 -0.45697154362E+01  0.87382242748E+01  0.10302206668E+02  0.51100000000E-03 0.  1.
        -12    1    3    3    0    0 -0.92384413292E+01 -0.16125458661E+02  0.13830683119E+02  0.23166074565E+02  0.00000000000E+00 0.  1.
</event>
<event>
 7    1  0.2237500E-009  0.4778727E+02  0.7816164E-02  0.1312668E+00
        -11   -1    0    0    0    0  0.00000000000E+00  0.00000000000E+00  0.45593999997E+02  0.45594000000E+02  0.51100000000E-03 0. -1.
         11   -1    0    0    0    0 -0.00000000000E+00 -0.00000000000E+00 -0.45593999997E+02  0.45594000000E+02  0.51100000000E-03 0.  1.
    9900012    2    1    2    0    0  0.19155976441E+02  0.38322217907E+02  0.69339293225E+01  0.47787271958E+02  0.20000004167E+02 0.  0.
         12    1    1    2    0    0 -0.19155976441E+02 -0.38322217907E+02 -0.69339293225E+01  0.43400728042E+02  0.00000000000E+00 0. -1.
         11    1    3    3    0    0  0.59891554787E+01  0.24284130749E+02  0.10463573862E+02  0.27112273380E+02  0.51100000000E-03 0. -1.
        -11    1    3    3    0    0  0.40734816695E+01  0.91805702581E+01 -0.21803571342E+01  0.10277649569E+02  0.51100000000E-03 0.  1.
         12    1    3    3    0    0  0.90933392924E+01  0.48575168995E+01 -0.13492874055E+01  0.10397349009E+02  0.00000000000E+00 0. -1.
</event>
<event>
 7    1  0.2237500E-009  0.4778727E+02  0.7816164E-02  0.1312668E+00
        -11   -1    0    0    0    0  0.00000000000E+00  0.00000000000E+00  0.45593999997E+02  0.45594000000E+02  0.51100000000E-03 0.  1.
         11   -1    0    0    0    0 -0.00000000000E+00 -0.00000000000E+00 -0.45593999997E+02  0.45594000000E+02  0.51100000000E-03 0. -1.
    9900012    2    1    2    0    0  0.20511528026E+02 -0.31004101081E+02  0.22397464461E+02  0.47787268669E+02  0.19999989172E+02 0.  0.
         12    1    1    2    0    0 -0.20511528026E+02  0.31004101081E+02 -0.22397464461E+02  0.43400731331E+02  0.00000000000E+00 0. -1.
         11    1    3    3    0    0  0.16856881731E+01  0.30819952841E+00  0.54305766839E+01  0.56945320218E+01  0.51100000000E-03 0.  1.
        -11    1    3    3    0    0  0.12171775275E+01 -0.10950638705E+02  0.83601927921E+01  0.13830792926E+02  0.51100000000E-03 0. -1.
         12    1    3    3    0    0  0.17608662325E+02 -0.20361661904E+02  0.86066949846E+01  0.28261943721E+02  0.00000000000E+00 0. -1.
</event>
<event>
 7    1  0.2237500E-009  0.4778727E+02  0.7816164E-02  0.1312668E+00
        -11   -1    0    0    0    0  0.00000000000E+00  0.00000000000E+00  0.45593999997E+02  0.45594000000E+02  0.51100000000E-03 0.  1.
         11   -1    0    0    0    0 -0.00000000000E+00 -0.00000000000E+00 -0.45593999997E+02  0.45594000000E+02  0.51100000000E-03 0. -1.
    9900012    2    1    2    0    0 -0.89290308210E+01 -0.18889140974E+02  0.38040715872E+02  0.47787270718E+02  0.19999998512E+02 0.  0.
         12    1    1    2    0    0  0.89290308210E+01  0.18889140974E+02 -0.38040715872E+02  0.43400729282E+02  0.00000000000E+00 0. -1.
         11    1    3    3    0    0 -0.63569862198E+01 -0.92424583550E+01  0.54313666748E+01  0.12463308327E+02  0.51100000000E-03 0. -1.
        -11    1    3    3    0    0  0.18415988486E+01 -0.60672146412E+01  0.88028870243E+01  0.10848658905E+02  0.51100000000E-03 0.  1.
         12    1    3    3    0    0 -0.44136434498E+01 -0.35794679775E+01  0.23806462173E+02  0.24475303485E+02  0.00000000000E+00 0. -1.
</event>
<event>
 7    1  0.2237500E-009  0.4778727E+02  0.7816164E-02  0.1312668E+00
        -11   -1    0    0    0    0  0.00000000000E+00  0.00000000000E+00  0.45593999997E+02  0.45594000000E+02  0.51100000000E-03 0.  1.
         11   -1    0    0    0    0 -0.00000000000E+00 -0.00000000000E+00 -0.45593999997E+02  0.45594000000E+02  0.51100000000E-03 0. -1.
    9900012    2    1    2    0    0 -0.20741739520E+02  0.16244727786E+02  0.34489306141E+02  0.47787272158E+02  0.20000005077E+02 0.  0.
         12    1    1    2    0    0  0.20741739520E+02 -0.16244727786E+02 -0.34489306141E+02  0.43400727842E+02  0.00000000000E+00 0. -1.
         11    1    3    3    0    0 -0.14513980165E+02  0.71614047554E+01  0.31693353000E+02  0.35586654282E+02  0.51100000000E-03 0.  1.
        -11    1    3    3    0    0 -0.13467940639E+01  0.12882958061E+01 -0.11530314779E+01  0.21915844006E+01  0.51100000000E-03 0. -1.
        -12    1    3    3    0    0 -0.48809652913E+01  0.77950272242E+01  0.39489846183E+01  0.10009033476E+02  0.00000000000E+00 0.  1.
</event>
<event>
 7    1  0.2388911E-009  0.4778727E+02  0.7816164E-02  0.1312668E+00
        -11   -1    0    0    0    0  0.00000000000E+00  0.00000000000E+00  0.45593999997E+02  0.45594000000E+02  0.51100000000E-03 0. -1.
         11   -1    0    0    0    0 -0.00000000000E+00 -0.00000000000E+00 -0.45593999997E+02  0.45594000000E+02  0.51100000000E-03 0.  1.
    9900012    2    1    2    0    0  0.12038875165E+01 -0.16993521839E+02 -0.39917337430E+02  0.47787274693E+02  0.20000016636E+02 0.  0.
         12    1    1    2    0    0 -0.12038875165E+01  0.16993521839E+02  0.39917337430E+02  0.43400725307E+02  0.00000000000E+00 0. -1.
         11    1    3    3    0    0  0.45163525416E+01 -0.94953421472E+01 -0.10886932724E+02  0.15135529960E+02  0.51100000000E-03 0. -1.
        -11    1    3    3    0    0  0.19301464520E+01 -0.65359861616E+01 -0.25154500736E+02  0.26061340871E+02  0.51100000000E-03 0.  1.
         12    1    3    3    0    0 -0.52426114770E+01 -0.96219353064E+00 -0.38759039702E+01  0.65904038628E+01  0.00000000000E+00 0. -1.
</event>
<event>
 7    1  0.2237500E-009  0.4778727E+02  0.7816164E-02  0.1312668E+00
        -11   -1    0    0    0    0  0.00000000000E+00  0.00000000000E+00  0.45593999997E+02  0.45594000000E+02  0.51100000000E-03 0.  1.
         11   -1    0    0    0    0 -0.00000000000E+00 -0.00000000000E+00 -0.45593999997E+02  0.45594000000E+02  0.51100000000E-03 0. -1.
    9900012    2    1    2    0    0  0.34520337223E+02  0.18681226993E+02  0.18519752907E+02  0.47787272222E+02  0.20000005367E+02 0.  0.
         12    1    1    2    0    0 -0.34520337223E+02 -0.18681226993E+02 -0.18519752907E+02  0.43400727778E+02  0.00000000000E+00 0. -1.
         11    1    3    3    0    0 -0.13269338774E+01  0.17501843003E+01 -0.11509871969E+00  0.21993513990E+01  0.51100000000E-03 0. -1.
        -11    1    3    3    0    0  0.20681679561E+01  0.56792818573E+00  0.53645072893E+01  0.57773523207E+01  0.51100000000E-03 0.  1.
        -12    1    3    3    0    0  0.33779103144E+02  0.16363114507E+02  0.13270344337E+02  0.39810568502E+02  0.00000000000E+00 0.  1.
</event>
<event>
 7    1  0.2237500E-009  0.4778727E+02  0.7816164E-02  0.1312668E+00
        -11   -1    0    0    0    0  0.00000000000E+00  0.00000000000E+00  0.45593999997E+02  0.45594000000E+02  0.51100000000E-03 0. -1.
         11   -1    0    0    0    0 -0.00000000000E+00 -0.00000000000E+00 -0.45593999997E+02  0.45594000000E+02  0.51100000000E-03 0.  1.
    9900012    2    1    2    0    0  0.38707849503E+02 -0.48876948399E+01  0.19011477475E+02  0.47787269017E+02  0.19999990758E+02 0.  0.
         12    1    1    2    0    0 -0.38707849503E+02  0.48876948399E+01 -0.19011477475E+02  0.43400730983E+02  0.00000000000E+00 0. -1.
         11    1    3    3    0    0  0.23702856878E+01  0.77268131452E+00  0.47850081242E+01  0.53955160703E+01  0.51100000000E-03 0. -1.
        -11    1    3    3    0    0  0.72646799575E+01  0.33620408648E+01  0.80070705089E+01  0.11322193783E+02  0.51100000000E-03 0.  1.
        -12    1    3    3    0    0  0.29072883858E+02 -0.90224170193E+01  0.62193988422E+01  0.31069559164E+02  0.00000000000E+00 0.  1.
</event>
<event>
 7    1  0.2237500E-009  0.4778727E+02  0.7816164E-02  0.1312668E+00
        -11   -1    0    0    0    0  0.00000000000E+00  0.00000000000E+00  0.45593999997E+02  0.45594000000E+02  0.51100000000E-03 0. -1.
         11   -1    0    0    0    0 -0.00000000000E+00 -0.00000000000E+00 -0.45593999997E+02  0.45594000000E+02  0.51100000000E-03 0.  1.
    9900012    2    1    2    0    0  0.43259375155E+01 -0.31605312148E+02 -0.29428113228E+02  0.47787270288E+02  0.19999996551E+02 0.  0.
         12    1    1    2    0    0 -0.43259375155E+01  0.31605312148E+02  0.29428113228E+02  0.43400729712E+02  0.00000000000E+00 0. -1.
         11    1    3    3    0    0 -0.12001909360E+01 -0.12233348686E+02 -0.22505847494E+02  0.25643877438E+02  0.51100000000E-03 0. -1.
        -11    1    3    3    0    0  0.74735926176E+00  0.17450118151E+00 -0.80437344638E+00  0.11117614091E+01  0.51100000000E-03 0.  1.
        -12    1    3    3    0    0  0.47787691898E+01 -0.19546464644E+02 -0.61178922878E+01  0.21031631441E+02  0.00000000000E+00 0.  1.
</event>
<event>
 7    1  0.2237500E-009  0.4778727E+02  0.7816164E-02  0.1312668E+00
        -11   -1    0    0    0    0  0.00000000000E+00  0.00000000000E+00  0.45593999997E+02  0.45594000000E+02  0.51100000000E-03 0.  1.
         11   -1    0    0    0    0 -0.00000000000E+00 -0.00000000000E+00 -0.45593999997E+02  0.45594000000E+02  0.51100000000E-03 0. -1.
    9900012    2    1    2    0    0 -0.36757706152E+02 -0.78511358237E+00  0.23062474591E+02  0.47787273058E+02  0.20000009179E+02 0.  0.
         12    1    1    2    0    0  0.36757706152E+02  0.78511358237E+00 -0.23062474591E+02  0.43400726942E+02  0.00000000000E+00 0. -1.
         11    1    3    3    0    0  0.13066430074E+01  0.10071577564E+01  0.10770162212E+01  0.19701895586E+01  0.51100000000E-03 0. -1.
        -11    1    3    3    0    0 -0.14271790064E+02 -0.68744612287E+01  0.94954966334E+01  0.18469073214E+02  0.51100000000E-03 0.  1.
        -12    1    3    3    0    0 -0.23792559095E+02  0.50821898899E+01  0.12489961736E+02  0.27348010285E+02  0.00000000000E+00 0.  1.
</event>
<event>
 7    1  0.2237500E-009  0.4778727E+02  0.7816164E-02  0.1312668E+00
        -11   -1    0    0    0    0  0.00000000000E+00  0.00000000000E+00  0.45593999997E+02  0.45594000000E+02  0.51100000000E-03 0.  1.
         11   -1    0    0    0    0 -0.00000000000E+00 -0.00000000000E+00 -0.45593999997E+02  0.45594000000E+02  0.51100000000E-03 0. -1.
    9900012    2    1    2    0    0 -0.32201169031E+02 -0.14227458020E+02  0.25382827031E+02  0.47787265481E+02  0.19999974635E+02 0.  0.
         12    1    1    2    0    0  0.32201169031E+02  0.14227458020E+02 -0.25382827031E+02  0.43400734519E+02  0.00000000000E+00 0. -1.
         11    1    3    3    0    0 -0.12449071058E+02 -0.31623998720E+01  0.18299590642E+02  0.22357440844E+02  0.51100000000E-03 0. -1.
        -11    1    3    3    0    0 -0.85594665827E+00 -0.40683582910E+01  0.21695117984E+01  0.46894525875E+01  0.51100000000E-03 0.  1.
         12    1    3    3    0    0 -0.18896151315E+02 -0.69966998565E+01  0.49137245907E+01  0.20740372050E+02  0.00000000000E+00 0. -1.
</event>
<event>
 7    1  0.2237500E-009  0.4778727E+02  0.7816164E-02  0.1312668E+00
        -11   -1    0    0    0    0  0.00000000000E+00  0.00000000000E+00  0.45593999997E+02  0.45594000000E+02  0.51100000000E-03 0.  1.
         11   -1    0    0    0    0 -0.00000000000E+00 -0.00000000000E+00 -0.45593999997E+02  0.45594000000E+02  0.51100000000E-03 0. -1.
    9900012    2    1    2    0    0  0.21359253859E+02  0.29839870315E+02  0.23172990893E+02  0.47787273131E+02  0.20000009513E+02 0.  0.
         12    1    1    2    0    0 -0.21359253859E+02 -0.29839870315E+02 -0.23172990893E+02  0.43400726869E+02  0.00000000000E+00 0. -1.
         11    1    3    3    0    0  0.24016764174E+01  0.66823714453E+01  0.12092202623E+01  0.72030793173E+01  0.51100000000E-03 0. -1.
        -11    1    3    3    0    0  0.12476932323E+02  0.22083096805E+02  0.22616186732E+02  0.33982773684E+02  0.51100000000E-03 0.  1.
        -12    1    3    3    0    0  0.64806451190E+01  0.10744020640E+01 -0.65241610114E+00  0.66014201293E+01  0.00000000000E+00 0.  1.
</event>
<event>
 7    1  0.2237500E-009  0.4778727E+02  0.7816164E-02  0.1312668E+00
        -11   -1    0    0    0    0  0.00000000000E+00  0.00000000000E+00  0.45593999997E+02  0.45594000000E+02  0.51100000000E-03 0. -1.
         11   -1    0    0    0    0 -0.00000000000E+00 -0.00000000000E+00 -0.45593999997E+02  0.45594000000E+02  0.51100000000E-03 0.  1.
    9900012    2    1    2    0    0 -0.37521126422E+02  0.97559328590E+01 -0.19509227735E+02  0.47787272809E+02  0.20000008045E+02 0.  0.
         12    1    1    2    0    0  0.37521126422E+02 -0.97559328590E+01  0.19509227735E+02  0.43400727191E+02  0.00000000000E+00 0. -1.
         11    1    3    3    0    0 -0.25919962167E+01 -0.15849797531E+01 -0.46880262141E+01  0.55864295619E+01  0.51100000000E-03 0. -1.
        -11    1    3    3    0    0 -0.17467781536E+02  0.26002430424E+00 -0.12303893134E+02  0.21367657592E+02  0.51100000000E-03 0.  1.
        -12    1    3    3    0    0 -0.17461348669E+02  0.11080888308E+02 -0.25173083861E+01  0.20833185655E+02  0.00000000000E+00 0.  1.
</event>
<event>
 7    1  0.2237500E-009  0.4778727E+02  0.7816164E-02  0.1312668E+00
        -11   -1    0    0    0    0  0.00000000000E+00  0.00000000000E+00  0.45593999997E+02  0.45594000000E+02  0.51100000000E-03 0.  1.
         11   -1    0    0    0    0 -0.00000000000E+00 -0.00000000000E+00 -0.45593999997E+02  0.45594000000E+02  0.51100000000E-03 0. -1.
    9900012    2    1    2    0    0 -0.39334659074E+02 -0.31530965031E+01  0.18068364167E+02  0.47787271830E+02  0.20000003581E+02 0.  0.
         12    1    1    2    0    0  0.39334659074E+02  0.31530965031E+01 -0.18068364167E+02  0.43400728170E+02  0.00000000000E+00 0. -1.
         11    1    3    3    0    0 -0.21226048732E+02 -0.40419061656E+01 -0.22705927500E+00  0.21608648879E+02  0.51100000000E-03 0. -1.
        -11    1    3    3    0    0 -0.88070341971E+01 -0.50471017152E+00  0.58745684654E+01  0.10598544175E+02  0.51100000000E-03 0.  1.
        -12    1    3    3    0    0 -0.93015761452E+01  0.13935198340E+01  0.12420854976E+02  0.15580078776E+02  0.00000000000E+00 0.  1.
</event>
<event>
 7    1  0.2237500E-009  0.4778727E+02  0.7816164E-02  0.1312668E+00
        -11   -1    0    0    0    0  0.00000000000E+00  0.00000000000E+00  0.45593999997E+02  0.45594000000E+02  0.51100000000E-03 0. -1.
         11   -1    0    0    0    0 -0.00000000000E+00 -0.00000000000E+00 -0.45593999997E+02  0.45594000000E+02  0.51100000000E-03 0.  1.
    9900012    2    1    2    0    0  0.20528471423E+02 -0.17901689324E+02 -0.33789561538E+02  0.47787273179E+02  0.20000009734E+02 0.  0.
         12    1    1    2    0    0 -0.20528471423E+02  0.17901689324E+02  0.33789561538E+02  0.43400726821E+02  0.00000000000E+00 0. -1.
         11    1    3    3    0    0  0.10087691095E+01 -0.43890656455E+01 -0.40184297787E+01  0.60356681903E+01  0.51100000000E-03 0. -1.
        -11    1    3    3    0    0  0.19618863500E+02 -0.11746237341E+02 -0.31730721015E+02  0.39111539897E+02  0.51100000000E-03 0.  1.
         12    1    3    3    0    0 -0.99161186578E-01 -0.17663863384E+01  0.19595892561E+01  0.26400650920E+01  0.00000000000E+00 0. -1.
</event>
<event>
 7    1  0.2237500E-009  0.4778727E+02  0.7816164E-02  0.1312668E+00
        -11   -1    0    0    0    0  0.00000000000E+00  0.00000000000E+00  0.45593999997E+02  0.45594000000E+02  0.51100000000E-03 0. -1.
         11   -1    0    0    0    0 -0.00000000000E+00 -0.00000000000E+00 -0.45593999997E+02  0.45594000000E+02  0.51100000000E-03 0.  1.
    9900012    2    1    2    0    0 -0.35089446059E+02 -0.24896820335E+02  0.57010842503E+01  0.47787271329E+02  0.20000001298E+02 0.  0.
         12    1    1    2    0    0  0.35089446059E+02  0.24896820335E+02 -0.57010842503E+01  0.43400728671E+02  0.00000000000E+00 0. -1.
         11    1    3    3    0    0  0.12147984092E+01  0.10094027805E+00 -0.89396100858E+00  0.15116516334E+01  0.51100000000E-03 0. -1.
        -11    1    3    3    0    0 -0.74369764392E+01 -0.88401250442E+01  0.63724026361E+01  0.13193329564E+02  0.51100000000E-03 0.  1.
        -12    1    3    3    0    0 -0.28867268029E+02 -0.16157635569E+02  0.22264262275E+00  0.33082290132E+02  0.00000000000E+00 0.  1.
</event>
<event>
 7    1  0.2237500E-009  0.4778727E+02  0.7816164E-02  0.1312668E+00
        -11   -1    0    0    0    0  0.00000000000E+00  0.00000000000E+00  0.45593999997E+02  0.45594000000E+02  0.51100000000E-03 0.  1.
         11   -1    0    0    0    0 -0.00000000000E+00 -0.00000000000E+00 -0.45593999997E+02  0.45594000000E+02  0.51100000000E-03 0. -1.
    9900012    2    1    2    0    0 -0.13781101227E+02 -0.36778938221E+02  0.18466576159E+02  0.47787268638E+02  0.19999989028E+02 0.  0.
         12    1    1    2    0    0  0.13781101227E+02  0.36778938221E+02 -0.18466576159E+02  0.43400731362E+02  0.00000000000E+00 0. -1.
         11    1    3    3    0    0 -0.11450749716E+01 -0.24795831817E+01 -0.25670661726E+01  0.37482473826E+01  0.51100000000E-03 0. -1.
        -11    1    3    3    0    0 -0.88824013842E+01 -0.15847105999E+02  0.39001901914E+01  0.18580616424E+02  0.51100000000E-03 0.  1.
         12    1    3    3    0    0 -0.37536248708E+01 -0.18452249041E+02  0.17133452140E+02  0.25458404832E+02  0.00000000000E+00 0. -1.
</event>
<event>
 7    1  0.2237500E-009  0.4778727E+02  0.7816164E-02  0.1312668E+00
        -11   -1    0    0    0    0  0.00000000000E+00  0.00000000000E+00  0.45593999997E+02  0.45594000000E+02  0.51100000000E-03 0.  1.
         11   -1    0    0    0    0 -0.00000000000E+00 -0.00000000000E+00 -0.45593999997E+02  0.45594000000E+02  0.51100000000E-03 0. -1.
    9900012    2    1    2    0    0 -0.59434905999E+01  0.12276888244E+02  0.41201654619E+02  0.47787269490E+02  0.19999992912E+02 0.  0.
         12    1    1    2    0    0  0.59434905999E+01 -0.12276888244E+02 -0.41201654619E+02  0.43400730510E+02  0.00000000000E+00 0. -1.
         11    1    3    3    0    0 -0.10758059173E+00  0.30550783579E+01  0.27730040050E+02  0.27898032167E+02  0.51100000000E-03 0. -1.
        -11    1    3    3    0    0 -0.94653324380E+00 -0.17513167794E+01  0.44203174852E+01  0.48479111558E+01  0.51100000000E-03 0.  1.
        -12    1    3    3    0    0 -0.48893767643E+01  0.10973126665E+02  0.90512970839E+01  0.15041326167E+02  0.00000000000E+00 0.  1.
</event>
<event>
 7    1  0.2237500E-009  0.4778727E+02  0.7816164E-02  0.1312668E+00
        -11   -1    0    0    0    0  0.00000000000E+00  0.00000000000E+00  0.45593999997E+02  0.45594000000E+02  0.51100000000E-03 0. -1.
         11   -1    0    0    0    0 -0.00000000000E+00 -0.00000000000E+00 -0.45593999997E+02  0.45594000000E+02  0.51100000000E-03 0.  1.
    9900012    2    1    2    0    0  0.85642918880E+01 -0.22187459223E+02 -0.36304169436E+02  0.47787272347E+02  0.20000005941E+02 0.  0.
         12    1    1    2    0    0 -0.85642918880E+01  0.22187459223E+02  0.36304169436E+02  0.43400727653E+02  0.00000000000E+00 0. -1.
         11    1    3    3    0    0  0.36050975133E+01 -0.69855528714E+00 -0.39304649251E+00  0.36931278581E+01  0.51100000000E-03 0. -1.
        -11    1    3    3    0    0  0.71142384457E+01 -0.78353647207E+01 -0.92197722469E+01  0.14036008318E+02  0.51100000000E-03 0.  1.
         12    1    3    3    0    0 -0.21550440711E+01 -0.13653539215E+02 -0.26691350697E+02  0.30058136171E+02  0.00000000000E+00 0. -1.
</event>
<event>
 7    1  0.2237500E-009  0.4778728E+02  0.7816164E-02  0.1312668E+00
        -11   -1    0    0    0    0  0.00000000000E+00  0.00000000000E+00  0.45593999997E+02  0.45594000000E+02  0.51100000000E-03 0. -1.
         11   -1    0    0    0    0 -0.00000000000E+00 -0.00000000000E+00 -0.45593999997E+02  0.45594000000E+02  0.51100000000E-03 0.  1.
    9900012    2    1    2    0    0 -0.21426006165E+02 -0.14155111377E+02 -0.34988304547E+02  0.47787281419E+02  0.20000047303E+02 0.  0.
         12    1    1    2    0    0  0.21426006165E+02  0.14155111377E+02  0.34988304547E+02  0.43400718581E+02  0.00000000000E+00 0. -1.
         11    1    3    3    0    0  0.21558070429E-01  0.18677506833E+00 -0.61064213101E+01  0.61093151134E+01  0.51100000000E-03 0. -1.
        -11    1    3    3    0    0 -0.10832426876E+02 -0.15931075876E+02 -0.17385909970E+02  0.25950154457E+02  0.51100000000E-03 0.  1.
         12    1    3    3    0    0 -0.10615137360E+02  0.15891894306E+01 -0.11495973266E+02  0.15727811849E+02  0.00000000000E+00 0. -1.
</event>
<event>
 7    1  0.2237500E-009  0.4778727E+02  0.7816164E-02  0.1312668E+00
        -11   -1    0    0    0    0  0.00000000000E+00  0.00000000000E+00  0.45593999997E+02  0.45594000000E+02  0.51100000000E-03 0. -1.
         11   -1    0    0    0    0 -0.00000000000E+00 -0.00000000000E+00 -0.45593999997E+02  0.45594000000E+02  0.51100000000E-03 0.  1.
    9900012    2    1    2    0    0 -0.29682422863E+01  0.40134048792E+02 -0.16250270759E+02  0.47787266890E+02  0.19999981059E+02 0.  0.
         12    1    1    2    0    0  0.29682422863E+01 -0.40134048792E+02  0.16250270759E+02  0.43400733110E+02  0.00000000000E+00 0. -1.
         11    1    3    3    0    0  0.56485665622E+01  0.15595174348E+02 -0.59239932906E+01  0.17612764233E+02  0.51100000000E-03 0. -1.
        -11    1    3    3    0    0 -0.62198852716E+01  0.35928480015E+01 -0.16112230959E+01  0.73614923541E+01  0.51100000000E-03 0.  1.
        -12    1    3    3    0    0 -0.23969235769E+01  0.20946026443E+02 -0.87150543727E+01  0.22813010303E+02  0.00000000000E+00 0.  1.
</event>
<event>
 7    1  0.2237500E-009  0.4778727E+02  0.7816164E-02  0.1312668E+00
        -11   -1    0    0    0    0  0.00000000000E+00  0.00000000000E+00  0.45593999997E+02  0.45594000000E+02  0.51100000000E-03 0.  1.
         11   -1    0    0    0    0 -0.00000000000E+00 -0.00000000000E+00 -0.45593999997E+02  0.45594000000E+02  0.51100000000E-03 0. -1.
    9900012    2    1    2    0    0  0.18685694142E+01 -0.36281521403E+02  0.23744120602E+02  0.47787267171E+02  0.19999982338E+02 0.  0.
         12    1    1    2    0    0 -0.18685694142E+01  0.36281521403E+02 -0.23744120602E+02  0.43400732829E+02  0.00000000000E+00 0. -1.
         11    1    3    3    0    0  0.18478700286E+01 -0.38924273575E+01 -0.66370165001E+00  0.43596002704E+01  0.51100000000E-03 0. -1.
        -11    1    3    3    0    0 -0.15997518469E+01  0.76523271168E+00 -0.59527234009E+00  0.18705978976E+01  0.51100000000E-03 0.  1.
        -12    1    3    3    0    0  0.16204512325E+01 -0.33154326757E+02  0.25003094592E+02  0.41557069003E+02  0.00000000000E+00 0.  1.
</event>
<event>
 7    1  0.2237500E-009  0.4778727E+02  0.7816164E-02  0.1312668E+00
        -11   -1    0    0    0    0  0.00000000000E+00  0.00000000000E+00  0.45593999997E+02  0.45594000000E+02  0.51100000000E-03 0. -1.
         11   -1    0    0    0    0 -0.00000000000E+00 -0.00000000000E+00 -0.45593999997E+02  0.45594000000E+02  0.51100000000E-03 0.  1.
    9900012    2    1    2    0    0 -0.17207762557E+02 -0.24679614883E+02 -0.31279906015E+02  0.47787274161E+02  0.20000014211E+02 0.  0.
         12    1    1    2    0    0  0.17207762557E+02  0.24679614883E+02  0.31279906015E+02  0.43400725839E+02  0.00000000000E+00 0. -1.
         11    1    3    3    0    0 -0.91520001501E+00  0.97246682583E+00 -0.70930346178E+01  0.72176466486E+01  0.51100000000E-03 0. -1.
        -11    1    3    3    0    0 -0.55906430979E+01 -0.12784483516E+02 -0.17889478260E+02  0.22687700229E+02  0.51100000000E-03 0.  1.
         12    1    3    3    0    0 -0.10701919444E+02 -0.12867598193E+02 -0.62973931377E+01  0.17881927284E+02  0.00000000000E+00 0. -1.
</event>
<event>
 7    1  0.2237500E-009  0.4778726E+02  0.7816164E-02  0.1312668E+00
        -11   -1    0    0    0    0  0.00000000000E+00  0.00000000000E+00  0.45593999997E+02  0.45594000000E+02  0.51100000000E-03 0.  1.
         11   -1    0    0    0    0 -0.00000000000E+00 -0.00000000000E+00 -0.45593999997E+02  0.45594000000E+02  0.51100000000E-03 0. -1.
    9900012    2    1    2    0    0 -0.12481489523E+02  0.39134963397E+02 -0.14010399108E+02  0.47787260099E+02  0.19999950095E+02 0.  0.
         12    1    1    2    0    0  0.12481489523E+02 -0.39134963397E+02  0.14010399108E+02  0.43400739901E+02  0.00000000000E+00 0. -1.
         11    1    3    3    0    0  0.13986139806E+01  0.32665221258E+01 -0.54998480557E+01  0.65478711626E+01  0.51100000000E-03 0. -1.
        -11    1    3    3    0    0 -0.32042307634E+01  0.55152889734E+00 -0.18717432245E+01  0.37516265631E+01  0.51100000000E-03 0.  1.
        -12    1    3    3    0    0 -0.10675872740E+02  0.35316912374E+02 -0.66388078277E+01  0.37487762373E+02  0.00000000000E+00 0.  1.
</event>
<event>
 7    1  0.2237500E-009  0.4778728E+02  0.7816164E-02  0.1312668E+00
        -11   -1    0    0    0    0  0.00000000000E+00  0.00000000000E+00  0.45593999997E+02  0.45594000000E+02  0.51100000000E-03 0.  1.
         11   -1    0    0    0    0 -0.00000000000E+00 -0.00000000000E+00 -0.45593999997E+02  0.45594000000E+02  0.51100000000E-03 0. -1.
    9900012    2    1    2    0    0  0.42164188472E+01 -0.11655774093E+02  0.41593111010E+02  0.47787284095E+02  0.20000059502E+02 0.  0.
         12    1    1    2    0    0 -0.42164188472E+01  0.11655774093E+02 -0.41593111010E+02  0.43400715905E+02  0.00000000000E+00 0. -1.
         11    1    3    3    0    0 -0.62359112939E+01 -0.58442017186E+01  0.74568937690E+01  0.11342246177E+02  0.51100000000E-03 0. -1.
        -11    1    3    3    0    0  0.14156256486E+01 -0.28655580941E+01  0.70840323244E+01  0.77716750705E+01  0.51100000000E-03 0.  1.
         12    1    3    3    0    0  0.90367044925E+01 -0.29460142800E+01  0.27052184917E+02  0.28673362847E+02  0.00000000000E+00 0. -1.
</event>
<event>
 7    1  0.2237500E-009  0.4778726E+02  0.7816164E-02  0.1312668E+00
        -11   -1    0    0    0    0  0.00000000000E+00  0.00000000000E+00  0.45593999997E+02  0.45594000000E+02  0.51100000000E-03 0. -1.
         11   -1    0    0    0    0 -0.00000000000E+00 -0.00000000000E+00 -0.45593999997E+02  0.45594000000E+02  0.51100000000E-03 0.  1.
    9900012    2    1    2    0    0 -0.34961254326E+02 -0.16226698194E+02 -0.19950664122E+02  0.47787262250E+02  0.19999959903E+02 0.  0.
         12    1    1    2    0    0  0.34961254326E+02  0.16226698194E+02  0.19950664122E+02  0.43400737750E+02  0.00000000000E+00 0. -1.
         11    1    3    3    0    0  0.64662915511E+00 -0.33446408236E+01 -0.32637014749E+01  0.47176794170E+01  0.51100000000E-03 0. -1.
        -11    1    3    3    0    0 -0.91293512355E+01  0.22524168875E+00  0.11429461660E-01  0.91321365897E+01  0.51100000000E-03 0.  1.
         12    1    3    3    0    0 -0.26478532245E+02 -0.13107299059E+02 -0.16698392109E+02  0.33937446243E+02  0.00000000000E+00 0. -1.
</event>
<event>
 7    1  0.2237500E-009  0.4778727E+02  0.7816164E-02  0.1312668E+00
        -11   -1    0    0    0    0  0.00000000000E+00  0.00000000000E+00  0.45593999997E+02  0.45594000000E+02  0.51100000000E-03 0. -1.
         11   -1    0    0    0    0 -0.00000000000E+00 -0.00000000000E+00 -0.45593999997E+02  0.45594000000E+02  0.51100000000E-03 0.  1.
    9900012    2    1    2    0    0  0.19769466853E+02 -0.86022838758E+01 -0.37666857815E+02  0.47787270914E+02  0.19999999404E+02 0.  0.
         12    1    1    2    0    0 -0.19769466853E+02  0.86022838758E+01  0.37666857815E+02  0.43400729086E+02  0.00000000000E+00 0. -1.
         11    1    3    3    0    0  0.21305353269E+01 -0.12545421878E+01 -0.22281322520E+02  0.22418081773E+02  0.51100000000E-03 0. -1.
        -11    1    3    3    0    0  0.59487118272E+01  0.38389053657E+00 -0.62617720554E+01  0.86454805467E+01  0.51100000000E-03 0.  1.
         12    1    3    3    0    0  0.11690219699E+02 -0.77316322247E+01 -0.91237632394E+01  0.16723708594E+02  0.00000000000E+00 0. -1.
</event>
<event>
 7    1  0.2237500E-009  0.4778727E+02  0.7816164E-02  0.1312668E+00
        -11   -1    0    0    0    0  0.00000000000E+00  0.00000000000E+00  0.45593999997E+02  0.45594000000E+02  0.51100000000E-03 0. -1.
         11   -1    0    0    0    0 -0.00000000000E+00 -0.00000000000E+00 -0.45593999997E+02  0.45594000000E+02  0.51100000000E-03 0.  1.
    9900012    2    1    2    0    0 -0.33754428003E+02  0.23132559438E+02 -0.14461895202E+02  0.47787272715E+02  0.20000007618E+02 0.  0.
         12    1    1    2    0    0  0.33754428003E+02 -0.23132559438E+02  0.14461895202E+02  0.43400727285E+02  0.00000000000E+00 0. -1.
         11    1    3    3    0    0 -0.69901796938E+01  0.28392471902E+01  0.15010858305E+01  0.76926715574E+01  0.51100000000E-03 0. -1.
        -11    1    3    3    0    0 -0.17102870307E+02  0.14886604971E+02 -0.27252827774E+01  0.22837389228E+02  0.51100000000E-03 0.  1.
         12    1    3    3    0    0 -0.96613780029E+01  0.54067072776E+01 -0.13237698255E+02  0.17257211930E+02  0.00000000000E+00 0. -1.
</event>
<event>
 7    1  0.2237500E-009  0.4778727E+02  0.7816164E-02  0.1312668E+00
        -11   -1    0    0    0    0  0.00000000000E+00  0.00000000000E+00  0.45593999997E+02  0.45594000000E+02  0.51100000000E-03 0. -1.
         11   -1    0    0    0    0 -0.00000000000E+00 -0.00000000000E+00 -0.45593999997E+02  0.45594000000E+02  0.51100000000E-03 0.  1.
    9900012    2    1    2    0    0 -0.41935494150E+02  0.10872043474E+02  0.26145931008E+01  0.47787273094E+02  0.20000009344E+02 0.  0.
         12    1    1    2    0    0  0.41935494150E+02 -0.10872043474E+02 -0.26145931008E+01  0.43400726906E+02  0.00000000000E+00 0. -1.
         11    1    3    3    0    0 -0.33459506049E+01  0.29995783475E+01 -0.19275031384E+01  0.48895934721E+01  0.51100000000E-03 0. -1.
        -11    1    3    3    0    0 -0.11954520372E+02  0.88944365605E+01 -0.29939603999E+01  0.15198202466E+02  0.51100000000E-03 0.  1.
         12    1    3    3    0    0 -0.26635023173E+02 -0.10219714336E+01  0.75360566391E+01  0.27699477156E+02  0.00000000000E+00 0. -1.
</event>
<event>
 7    1  0.2237500E-009  0.4778727E+02  0.7816164E-02  0.1312668E+00
        -11   -1    0    0    0    0  0.00000000000E+00  0.00000000000E+00  0.45593999997E+02  0.45594000000E+02  0.51100000000E-03 0.  1.
         11   -1    0    0    0    0 -0.00000000000E+00 -0.00000000000E+00 -0.45593999997E+02  0.45594000000E+02  0.51100000000E-03 0. -1.
    9900012    2    1    2    0    0  0.11825941327E+02 -0.93935891940E+01  0.40688215337E+02  0.47787271049E+02  0.20000000019E+02 0.  0.
         12    1    1    2    0    0 -0.11825941327E+02  0.93935891940E+01 -0.40688215337E+02  0.43400728951E+02  0.00000000000E+00 0. -1.
         11    1    3    3    0    0  0.11280839888E+01 -0.21762149229E+01  0.52790592516E+00  0.25074229406E+01  0.51100000000E-03 0. -1.
        -11    1    3    3    0    0  0.23576407822E+01  0.43994782587E+01  0.40065758503E+01  0.64005100821E+01  0.51100000000E-03 0.  1.
         12    1    3    3    0    0  0.83402165560E+01 -0.11616852530E+02  0.36153733561E+02  0.38879338026E+02  0.00000000000E+00 0. -1.
</event>
<event>
 7    1  0.2237500E-009  0.4778727E+02  0.7816164E-02  0.1312668E+00
        -11   -1    0    0    0    0  0.00000000000E+00  0.00000000000E+00  0.45593999997E+02  0.45594000000E+02  0.51100000000E-03 0.  1.
         11   -1    0    0    0    0 -0.00000000000E+00 -0.00000000000E+00 -0.45593999997E+02  0.45594000000E+02  0.51100000000E-03 0. -1.
    9900012    2    1    2    0    0  0.42832413104E+01  0.39380209949E+02  0.17733483604E+02  0.47787268065E+02  0.19999986415E+02 0.  0.
         12    1    1    2    0    0 -0.42832413104E+01 -0.39380209949E+02 -0.17733483604E+02  0.43400731935E+02  0.00000000000E+00 0. -1.
         11    1    3    3    0    0  0.39580124845E+01  0.20287675365E+02  0.12208150056E+02  0.24006135936E+02  0.51100000000E-03 0. -1.
        -11    1    3    3    0    0  0.49394687333E+00  0.20952320603E+02  0.39265278441E+01  0.21322789295E+02  0.51100000000E-03 0.  1.
         12    1    3    3    0    0 -0.16871804744E+00 -0.18597860177E+01  0.15988057033E+01  0.24583428337E+01  0.00000000000E+00 0. -1.
</event>
<event>
 7    1  0.2237500E-009  0.4778728E+02  0.7816164E-02  0.1312668E+00
        -11   -1    0    0    0    0  0.00000000000E+00  0.00000000000E+00  0.45593999997E+02  0.45594000000E+02  0.51100000000E-03 0. -1.
         11   -1    0    0    0    0 -0.00000000000E+00 -0.00000000000E+00 -0.45593999997E+02  0.45594000000E+02  0.51100000000E-03 0.  1.
    9900012    2    1    2    0    0  0.10007757428E+02  0.77862502116E+01 -0.41507129334E+02  0.47787277810E+02  0.20000030845E+02 0.  0.
         12    1    1    2    0    0 -0.10007757428E+02 -0.77862502116E+01  0.41507129334E+02  0.43400722190E+02  0.00000000000E+00 0. -1.
         11    1    3    3    0    0 -0.15247198860E+01  0.15458225743E+01 -0.45264285522E+00  0.22179323654E+01  0.51100000000E-03 0.  1.
        -11    1    3    3    0    0  0.98231424150E+01 -0.14926646372E+01 -0.12673318188E+02  0.16103886760E+02  0.51100000000E-03 0. -1.
        -12    1    3    3    0    0  0.17093348989E+01  0.77330922744E+01 -0.28381168291E+02  0.29465458684E+02  0.00000000000E+00 0.  1.
</event>
<event>
 7    1  0.2237500E-009  0.4778727E+02  0.7816164E-02  0.1312668E+00
        -11   -1    0    0    0    0  0.00000000000E+00  0.00000000000E+00  0.45593999997E+02  0.45594000000E+02  0.51100000000E-03 0.  1.
         11   -1    0    0    0    0 -0.00000000000E+00 -0.00000000000E+00 -0.45593999997E+02  0.45594000000E+02  0.51100000000E-03 0. -1.
    9900012    2    1    2    0    0 -0.27887615835E+02 -0.11127173156E+02  0.31338324935E+02  0.47787266030E+02  0.19999977137E+02 0.  0.
         12    1    1    2    0    0  0.27887615835E+02  0.11127173156E+02 -0.31338324935E+02  0.43400733970E+02  0.00000000000E+00 0. -1.
         11    1    3    3    0    0 -0.15216606840E+00 -0.37461061834E+00 -0.43566661063E+00  0.59438479497E+00  0.51100000000E-03 0. -1.
        -11    1    3    3    0    0 -0.56746512519E+01  0.51391003430E+01  0.59669178559E+01  0.97064992725E+01  0.51100000000E-03 0.  1.
        -12    1    3    3    0    0 -0.22060798515E+02 -0.15891662880E+02  0.25807073690E+02  0.37486381963E+02  0.00000000000E+00 0.  1.
</event>
<event>
 7    1  0.2237500E-009  0.4778726E+02  0.7816164E-02  0.1312668E+00
        -11   -1    0    0    0    0  0.00000000000E+00  0.00000000000E+00  0.45593999997E+02  0.45594000000E+02  0.51100000000E-03 0. -1.
         11   -1    0    0    0    0 -0.00000000000E+00 -0.00000000000E+00 -0.45593999997E+02  0.45594000000E+02  0.51100000000E-03 0.  1.
    9900012    2    1    2    0    0 -0.32474249732E+02 -0.20935834894E+02 -0.19767090578E+02  0.47787263275E+02  0.19999964577E+02 0.  0.
         12    1    1    2    0    0  0.32474249732E+02  0.20935834894E+02  0.19767090578E+02  0.43400736725E+02  0.00000000000E+00 0. -1.
         11    1    3    3    0    0 -0.97710344195E+01 -0.29907690638E+01 -0.11228151456E+02  0.15181870722E+02  0.51100000000E-03 0. -1.
        -11    1    3    3    0    0 -0.74434178779E+01 -0.15592524100E+01 -0.67062934316E+01  0.10139532022E+02  0.51100000000E-03 0.  1.
        -12    1    3    3    0    0 -0.15259797434E+02 -0.16385813420E+02 -0.18326456899E+01  0.22465860531E+02  0.00000000000E+00 0.  1.
</event>
<event>
 7    1  0.2237500E-009  0.4778730E+02  0.7816164E-02  0.1312668E+00
        -11   -1    0    0    0    0  0.00000000000E+00  0.00000000000E+00  0.45593999997E+02  0.45594000000E+02  0.51100000000E-03 0.  1.
         11   -1    0    0    0    0 -0.00000000000E+00 -0.00000000000E+00 -0.45593999997E+02  0.45594000000E+02  0.51100000000E-03 0. -1.
    9900012    2    1    2    0    0  0.81055226661E+01  0.36731622843E+02 -0.21649700326E+02  0.47787295644E+02  0.20000112158E+02 0.  0.
         12    1    1    2    0    0 -0.81055226661E+01 -0.36731622843E+02  0.21649700326E+02  0.43400704356E+02  0.00000000000E+00 0. -1.
         11    1    3    3    0    0  0.37672673792E+01  0.42048307195E+01 -0.87790318203E+00  0.57134594725E+01  0.51100000000E-03 0. -1.
        -11    1    3    3    0    0  0.73143134178E+01  0.70488549687E+01 -0.21686530984E+01  0.10386943423E+02  0.51100000000E-03 0.  1.
         12    1    3    3    0    0 -0.29760581310E+01  0.25477937155E+02 -0.18603144046E+02  0.31686892749E+02  0.00000000000E+00 0. -1.
</event>
<event>
 7    1  0.2237500E-009  0.4778727E+02  0.7816164E-02  0.1312668E+00
        -11   -1    0    0    0    0  0.00000000000E+00  0.00000000000E+00  0.45593999997E+02  0.45594000000E+02  0.51100000000E-03 0.  1.
         11   -1    0    0    0    0 -0.00000000000E+00 -0.00000000000E+00 -0.45593999997E+02  0.45594000000E+02  0.51100000000E-03 0. -1.
    9900012    2    1    2    0    0 -0.11800451774E+02 -0.28788201863E+02  0.30259078579E+02  0.47787273450E+02  0.20000010970E+02 0.  0.
         12    1    1    2    0    0  0.11800451774E+02  0.28788201863E+02 -0.30259078579E+02  0.43400726550E+02  0.00000000000E+00 0. -1.
         11    1    3    3    0    0 -0.22787554331E+01 -0.13561521838E+01 -0.15376916215E+01  0.30653500377E+01  0.51100000000E-03 0. -1.
        -11    1    3    3    0    0 -0.50309426216E+01 -0.17874437137E+02  0.11497874479E+02  0.21840490023E+02  0.51100000000E-03 0.  1.
         12    1    3    3    0    0 -0.44907537196E+01 -0.95576125416E+01  0.20298895722E+02  0.22881433390E+02  0.00000000000E+00 0. -1.
</event>
<event>
 7    1  0.2237500E-009  0.4778727E+02  0.7816164E-02  0.1312668E+00
        -11   -1    0    0    0    0  0.00000000000E+00  0.00000000000E+00  0.45593999997E+02  0.45594000000E+02  0.51100000000E-03 0. -1.
         11   -1    0    0    0    0 -0.00000000000E+00 -0.00000000000E+00 -0.45593999997E+02  0.45594000000E+02  0.51100000000E-03 0.  1.
    9900012    2    1    2    0    0  0.44074829075E+01 -0.33436564505E+02 -0.27316542857E+02  0.47787271145E+02  0.20000000459E+02 0.  0.
         12    1    1    2    0    0 -0.44074829075E+01  0.33436564505E+02  0.27316542857E+02  0.43400728855E+02  0.00000000000E+00 0. -1.
         11    1    3    3    0    0  0.29963817721E+01 -0.10865383439E+02 -0.38403611228E+01  0.11907276549E+02  0.51100000000E-03 0. -1.
        -11    1    3    3    0    0  0.29817242057E+01 -0.23040849402E+02 -0.24642766198E+02  0.33867939804E+02  0.51100000000E-03 0.  1.
        -12    1    3    3    0    0 -0.15706230702E+01  0.46966833606E+00  0.11665844641E+01  0.20120547921E+01  0.00000000000E+00 0.  1.
</event>
<event>
 7    1  0.2237500E-009  0.4778727E+02  0.7816164E-02  0.1312668E+00
        -11   -1    0    0    0    0  0.00000000000E+00  0.00000000000E+00  0.45593999997E+02  0.45594000000E+02  0.51100000000E-03 0. -1.
         11   -1    0    0    0    0 -0.00000000000E+00 -0.00000000000E+00 -0.45593999997E+02  0.45594000000E+02  0.51100000000E-03 0.  1.
    9900012    2    1    2    0    0 -0.17937889603E+02  0.25220816055E+02  0.30426400053E+02  0.47787271134E+02  0.20000000409E+02 0.  0.
         12    1    1    2    0    0  0.17937889603E+02 -0.25220816055E+02 -0.30426400053E+02  0.43400728866E+02  0.00000000000E+00 0. -1.
         11    1    3    3    0    0 -0.53363567812E+01  0.51689093211E+01  0.24387482825E+01  0.78193235457E+01  0.51100000000E-03 0. -1.
        -11    1    3    3    0    0 -0.15092338434E+02  0.13702738336E+02  0.15036133441E+02  0.25330397281E+02  0.51100000000E-03 0.  1.
         12    1    3    3    0    0  0.24908056123E+01  0.63491683980E+01  0.12951518330E+02  0.14637550307E+02  0.00000000000E+00 0. -1.
</event>
<event>
 7    1  0.2237500E-009  0.4778727E+02  0.7816164E-02  0.1312668E+00
        -11   -1    0    0    0    0  0.00000000000E+00  0.00000000000E+00  0.45593999997E+02  0.45594000000E+02  0.51100000000E-03 0.  1.
         11   -1    0    0    0    0 -0.00000000000E+00 -0.00000000000E+00 -0.45593999997E+02  0.45594000000E+02  0.51100000000E-03 0. -1.
    9900012    2    1    2    0    0 -0.18347470245E+02  0.18887380094E+02  0.34500149992E+02  0.47787272578E+02  0.20000006994E+02 0.  0.
         12    1    1    2    0    0  0.18347470245E+02 -0.18887380094E+02 -0.34500149992E+02  0.43400727422E+02  0.00000000000E+00 0. -1.
         11    1    3    3    0    0 -0.25968480396E+01 -0.10602435197E+01  0.17792741796E+01  0.33216792333E+01  0.51100000000E-03 0. -1.
        -11    1    3    3    0    0 -0.16525323378E+00 -0.23700304627E+01  0.78361669335E+00  0.25016811165E+01  0.51100000000E-03 0.  1.
        -12    1    3    3    0    0 -0.15585368972E+02  0.22317654077E+02  0.31937259119E+02  0.41963912229E+02  0.00000000000E+00 0.  1.
</event>
<event>
 7    1  0.2237500E-009  0.4778728E+02  0.7816164E-02  0.1312668E+00
        -11   -1    0    0    0    0  0.00000000000E+00  0.00000000000E+00  0.45593999997E+02  0.45594000000E+02  0.51100000000E-03 0.  1.
         11   -1    0    0    0    0 -0.00000000000E+00 -0.00000000000E+00 -0.45593999997E+02  0.45594000000E+02  0.51100000000E-03 0. -1.
    9900012    2    1    2    0    0 -0.39716545569E+01 -0.40966278180E+02  0.13769994973E+02  0.47787277086E+02  0.20000027547E+02 0.  0.
         12    1    1    2    0    0  0.39716545569E+01  0.40966278180E+02 -0.13769994973E+02  0.43400722914E+02  0.00000000000E+00 0. -1.
         11    1    3    3    0    0 -0.42623198397E+00 -0.43900441990E+01 -0.26312527909E+01  0.51359179592E+01  0.51100000000E-03 0. -1.
        -11    1    3    3    0    0 -0.20487441746E+01 -0.19008154476E+01  0.56719637066E+01  0.63231024512E+01  0.51100000000E-03 0.  1.
        -12    1    3    3    0    0 -0.14966783983E+01 -0.34675418534E+02  0.10729284057E+02  0.36328256676E+02  0.00000000000E+00 0.  1.
</event>
<event>
 7    1  0.2237500E-009  0.4778727E+02  0.7816164E-02  0.1312668E+00
        -11   -1    0    0    0    0  0.00000000000E+00  0.00000000000E+00  0.45593999997E+02  0.45594000000E+02  0.51100000000E-03 0.  1.
         11   -1    0    0    0    0 -0.00000000000E+00 -0.00000000000E+00 -0.45593999997E+02  0.45594000000E+02  0.51100000000E-03 0. -1.
    9900012    2    1    2    0    0  0.25092464111E+02 -0.33297458083E+02  0.12052833123E+02  0.47787271247E+02  0.20000000925E+02 0.  0.
         12    1    1    2    0    0 -0.25092464111E+02  0.33297458083E+02 -0.12052833123E+02  0.43400728753E+02  0.00000000000E+00 0. -1.
         11    1    3    3    0    0  0.10604272141E+02 -0.64900489590E+01  0.67439434716E+01  0.14143977409E+02  0.51100000000E-03 0. -1.
        -11    1    3    3    0    0  0.10510726573E+02 -0.18277195321E+02  0.97582794679E+01  0.23232633521E+02  0.51100000000E-03 0.  1.
         12    1    3    3    0    0  0.39774653981E+01 -0.85302138025E+01 -0.44493898161E+01  0.10410660317E+02  0.00000000000E+00 0. -1.
</event>
<event>
 7    1  0.2237500E-009  0.4778726E+02  0.7816164E-02  0.1312668E+00
        -11   -1    0    0    0    0  0.00000000000E+00  0.00000000000E+00  0.45593999997E+02  0.45594000000E+02  0.51100000000E-03 0.  1.
         11   -1    0    0    0    0 -0.00000000000E+00 -0.00000000000E+00 -0.45593999997E+02  0.45594000000E+02  0.51100000000E-03 0. -1.
    9900012    2    1    2    0    0  0.15330374172E+02  0.34144041951E+02  0.21972440270E+02  0.47787261476E+02  0.19999956374E+02 0.  0.
         12    1    1    2    0    0 -0.15330374172E+02 -0.34144041951E+02 -0.21972440270E+02  0.43400738524E+02  0.00000000000E+00 0. -1.
         11    1    3    3    0    0  0.17747232012E+00  0.19179140979E+02  0.51995291456E+01  0.19872243173E+02  0.51100000000E-03 0. -1.
        -11    1    3    3    0    0  0.56413377220E+01  0.79192397752E+01  0.40371907441E+01  0.10527960832E+02  0.51100000000E-03 0.  1.
         12    1    3    3    0    0  0.95115641303E+01  0.70456611962E+01  0.12735720380E+02  0.17387057471E+02  0.00000000000E+00 0. -1.
</event>
<event>
 7    1  0.2237500E-009  0.4778727E+02  0.7816164E-02  0.1312668E+00
        -11   -1    0    0    0    0  0.00000000000E+00  0.00000000000E+00  0.45593999997E+02  0.45594000000E+02  0.51100000000E-03 0.  1.
         11   -1    0    0    0    0 -0.00000000000E+00 -0.00000000000E+00 -0.45593999997E+02  0.45594000000E+02  0.51100000000E-03 0. -1.
    9900012    2    1    2    0    0 -0.20934414506E+01 -0.31395473512E+02  0.29892559300E+02  0.47787270102E+02  0.19999995702E+02 0.  0.
         12    1    1    2    0    0  0.20934414506E+01  0.31395473512E+02 -0.29892559300E+02  0.43400729898E+02  0.00000000000E+00 0. -1.
         11    1    3    3    0    0 -0.65373528336E+01 -0.95299850678E+01  0.11599530525E+02  0.16373964276E+02  0.51100000000E-03 0.  1.
        -11    1    3    3    0    0 -0.11541199976E+01 -0.11605885980E+01 -0.15056518207E+01  0.22239484097E+01  0.51100000000E-03 0. -1.
        -12    1    3    3    0    0  0.55980313807E+01 -0.20704899846E+02  0.19798680597E+02  0.29189357416E+02  0.00000000000E+00 0.  1.
</event>
<event>
 7    1  0.2237500E-009  0.4778727E+02  0.7816164E-02  0.1312668E+00
        -11   -1    0    0    0    0  0.00000000000E+00  0.00000000000E+00  0.45593999997E+02  0.45594000000E+02  0.51100000000E-03 0. -1.
         11   -1    0    0    0    0 -0.00000000000E+00 -0.00000000000E+00 -0.45593999997E+02  0.45594000000E+02  0.51100000000E-03 0.  1.
    9900012    2    1    2    0    0  0.11708504484E+02  0.40473715396E+02 -0.10412146341E+02  0.47787268362E+02  0.19999987771E+02 0.  0.
         12    1    1    2    0    0 -0.11708504484E+02 -0.40473715396E+02  0.10412146341E+02  0.43400731638E+02  0.00000000000E+00 0. -1.
         11    1    3    3    0    0  0.50529052539E+01  0.11835239127E+02  0.18607909053E+01  0.13002587426E+02  0.51100000000E-03 0. -1.
        -11    1    3    3    0    0 -0.62875857681E+00  0.66998017746E+01  0.26913486465E+01  0.72474850097E+01  0.51100000000E-03 0.  1.
        -12    1    3    3    0    0  0.72843578073E+01  0.21938674495E+02 -0.14964285893E+02  0.27537195927E+02  0.00000000000E+00 0.  1.
</event>
<event>
 7    1  0.2237500E-009  0.4778725E+02  0.7816164E-02  0.1312668E+00
        -11   -1    0    0    0    0  0.00000000000E+00  0.00000000000E+00  0.45593999997E+02  0.45594000000E+02  0.51100000000E-03 0.  1.
         11   -1    0    0    0    0 -0.00000000000E+00 -0.00000000000E+00 -0.45593999997E+02  0.45594000000E+02  0.51100000000E-03 0. -1.
    9900012    2    1    2    0    0  0.37841825155E+02 -0.61736202531E+01  0.20334895910E+02  0.47787247590E+02  0.19999893060E+02 0.  0.
         12    1    1    2    0    0 -0.37841825155E+02  0.61736202531E+01 -0.20334895910E+02  0.43400752410E+02  0.00000000000E+00 0. -1.
         11    1    3    3    0    0  0.58504837077E+01  0.34251116016E+01 -0.42906785111E+00  0.67929116422E+01  0.51100000000E-03 0. -1.
        -11    1    3    3    0    0  0.19745603098E+02 -0.39578682873E+01  0.60279689646E+01  0.21021179157E+02  0.51100000000E-03 0.  1.
        -12    1    3    3    0    0  0.12245738350E+02 -0.56408635674E+01  0.14735994796E+02  0.19973156790E+02  0.00000000000E+00 0.  1.
</event>
<event>
 7    1  0.2237500E-009  0.4778727E+02  0.7816164E-02  0.1312668E+00
        -11   -1    0    0    0    0  0.00000000000E+00  0.00000000000E+00  0.45593999997E+02  0.45594000000E+02  0.51100000000E-03 0.  1.
         11   -1    0    0    0    0 -0.00000000000E+00 -0.00000000000E+00 -0.45593999997E+02  0.45594000000E+02  0.51100000000E-03 0. -1.
    9900012    2    1    2    0    0 -0.26869869216E+02  0.32529562171E+02  0.10171586601E+02  0.47787268892E+02  0.19999990187E+02 0.  0.
         12    1    1    2    0    0  0.26869869216E+02 -0.32529562171E+02 -0.10171586601E+02  0.43400731108E+02  0.00000000000E+00 0. -1.
         11    1    3    3    0    0 -0.43485448233E+01  0.19620326365E+02  0.33783110987E+01  0.20378420814E+02  0.51100000000E-03 0. -1.
        -11    1    3    3    0    0 -0.38026010185E+01  0.48041615305E+01  0.10371000922E+01  0.62141225752E+01  0.51100000000E-03 0.  1.
        -12    1    3    3    0    0 -0.18718723374E+02  0.81050742753E+01  0.57561754106E+01  0.21194725503E+02  0.00000000000E+00 0.  1.
</event>
<event>
 7    1  0.2237500E-009  0.4778727E+02  0.7816164E-02  0.1312668E+00
        -11   -1    0    0    0    0  0.00000000000E+00  0.00000000000E+00  0.45593999997E+02  0.45594000000E+02  0.51100000000E-03 0. -1.
         11   -1    0    0    0    0 -0.00000000000E+00 -0.00000000000E+00 -0.45593999997E+02  0.45594000000E+02  0.51100000000E-03 0.  1.
    9900012    2    1    2    0    0 -0.25641090634E+02 -0.21726792043E+02  0.27460957632E+02  0.47787271718E+02  0.20000003070E+02 0.  0.
         12    1    1    2    0    0  0.25641090634E+02  0.21726792043E+02 -0.27460957632E+02  0.43400728282E+02  0.00000000000E+00 0. -1.
         11    1    3    3    0    0 -0.18346060581E+01 -0.31965620792E+00  0.14701957904E+01  0.23726431259E+01  0.51100000000E-03 0. -1.
        -11    1    3    3    0    0 -0.14311882238E+02 -0.13884373357E+02  0.40429291518E+01  0.20345787601E+02  0.51100000000E-03 0.  1.
         12    1    3    3    0    0 -0.94946023370E+01 -0.75227624780E+01  0.21947832690E+02  0.25068840991E+02  0.00000000000E+00 0. -1.
</event>
<event>
 7    1  0.2237500E-009  0.4778727E+02  0.7816164E-02  0.1312668E+00
        -11   -1    0    0    0    0  0.00000000000E+00  0.00000000000E+00  0.45593999997E+02  0.45594000000E+02  0.51100000000E-03 0.  1.
         11   -1    0    0    0    0 -0.00000000000E+00 -0.00000000000E+00 -0.45593999997E+02  0.45594000000E+02  0.51100000000E-03 0. -1.
    9900012    2    1    2    0    0  0.16813349677E+02  0.39941203480E+02  0.23737569309E+01  0.47787272071E+02  0.20000004683E+02 0.  0.
         12    1    1    2    0    0 -0.16813349677E+02 -0.39941203480E+02 -0.23737569309E+01  0.43400727929E+02  0.00000000000E+00 0. -1.
         11    1    3    3    0    0  0.10887586065E+01  0.13125793758E+02  0.22653475033E+00  0.13172819567E+02  0.51100000000E-03 0. -1.
        -11    1    3    3    0    0  0.16495086997E+02  0.28111318209E+02  0.32375182140E+01  0.32753864366E+02  0.51100000000E-03 0.  1.
        -12    1    3    3    0    0 -0.77049592693E+00 -0.12959084872E+01 -0.10902960334E+01  0.18605881384E+01  0.00000000000E+00 0.  1.
</event>
<event>
 7    1  0.2624670E-009  0.4778729E+02  0.7816164E-02  0.1312668E+00
        -11   -1    0    0    0    0  0.00000000000E+00  0.00000000000E+00  0.45593999997E+02  0.45594000000E+02  0.51100000000E-03 0.  1.
         11   -1    0    0    0    0 -0.00000000000E+00 -0.00000000000E+00 -0.45593999997E+02  0.45594000000E+02  0.51100000000E-03 0. -1.
    9900012    2    1    2    0    0  0.35409053556E+02  0.19294773778E+02  0.16047805880E+02  0.47787292144E+02  0.20000096199E+02 0.  0.
         12    1    1    2    0    0 -0.35409053556E+02 -0.19294773778E+02 -0.16047805880E+02  0.43400707856E+02  0.00000000000E+00 0. -1.
         11    1    3    3    0    0  0.12192247614E+01 -0.23815364124E+01 -0.22083860084E+00  0.26845846329E+01  0.51100000000E-03 0. -1.
        -11    1    3    3    0    0  0.17509727875E+02  0.76629554625E+01  0.23653768195E+01  0.19258932069E+02  0.51100000000E-03 0.  1.
        -12    1    3    3    0    0  0.16680100919E+02  0.14013354728E+02  0.13903267661E+02  0.25843775442E+02  0.00000000000E+00 0.  1.
</event>
<event>
 7    1  0.2237500E-009  0.4778727E+02  0.7816164E-02  0.1312668E+00
        -11   -1    0    0    0    0  0.00000000000E+00  0.00000000000E+00  0.45593999997E+02  0.45594000000E+02  0.51100000000E-03 0.  1.
         11   -1    0    0    0    0 -0.00000000000E+00 -0.00000000000E+00 -0.45593999997E+02  0.45594000000E+02  0.51100000000E-03 0. -1.
    9900012    2    1    2    0    0 -0.31057546785E+02 -0.24125908416E+02 -0.18357361554E+02  0.47787269679E+02  0.19999993774E+02 0.  0.
         12    1    1    2    0    0  0.31057546785E+02  0.24125908416E+02  0.18357361554E+02  0.43400730321E+02  0.00000000000E+00 0. -1.
         11    1    3    3    0    0 -0.23759031598E+02 -0.15209217062E+02 -0.13451560303E+02  0.31253101301E+02  0.51100000000E-03 0. -1.
        -11    1    3    3    0    0 -0.53557010312E+01  0.11850789382E+01 -0.13374790285E+01  0.56459539529E+01  0.51100000000E-03 0.  1.
        -12    1    3    3    0    0 -0.19428141564E+01 -0.10101770292E+02 -0.35683222225E+01  0.10888214425E+02  0.00000000000E+00 0.  1.
</event>
<event>
 7    1  0.2237500E-009  0.4778728E+02  0.7816164E-02  0.1312668E+00
        -11   -1    0    0    0    0  0.00000000000E+00  0.00000000000E+00  0.45593999997E+02  0.45594000000E+02  0.51100000000E-03 0.  1.
         11   -1    0    0    0    0 -0.00000000000E+00 -0.00000000000E+00 -0.45593999997E+02  0.45594000000E+02  0.51100000000E-03 0. -1.
    9900012    2    1    2    0    0 -0.14796036409E+02  0.40700556362E+02 -0.28574299756E+01  0.47787275493E+02  0.20000020284E+02 0.  0.
         12    1    1    2    0    0  0.14796036409E+02 -0.40700556362E+02  0.28574299756E+01  0.43400724507E+02  0.00000000000E+00 0. -1.
         11    1    3    3    0    0 -0.13573503901E+02  0.19485921134E+02 -0.69492880444E+01  0.24743357395E+02  0.51100000000E-03 0. -1.
        -11    1    3    3    0    0 -0.43445922389E+01  0.14603861442E+02  0.16008853124E+01  0.15320283444E+02  0.51100000000E-03 0.  1.
         12    1    3    3    0    0  0.31220597301E+01  0.66107737861E+01  0.24909727564E+01  0.77236346549E+01  0.00000000000E+00 0. -1.
</event>
<event>
 7    1  0.2237500E-009  0.4778727E+02  0.7816164E-02  0.1312668E+00
        -11   -1    0    0    0    0  0.00000000000E+00  0.00000000000E+00  0.45593999997E+02  0.45594000000E+02  0.51100000000E-03 0.  1.
         11   -1    0    0    0    0 -0.00000000000E+00 -0.00000000000E+00 -0.45593999997E+02  0.45594000000E+02  0.51100000000E-03 0. -1.
    9900012    2    1    2    0    0  0.21520774245E+02  0.12727546421E+02  0.35475185985E+02  0.47787274400E+02  0.20000015298E+02 0.  0.
         12    1    1    2    0    0 -0.21520774245E+02 -0.12727546421E+02 -0.35475185985E+02  0.43400725600E+02  0.00000000000E+00 0. -1.
         11    1    3    3    0    0  0.15200132158E+02  0.79702427923E+01  0.14713479093E+02  0.22606531248E+02  0.51100000000E-03 0. -1.
        -11    1    3    3    0    0  0.39906267510E+01  0.49416962321E+00  0.17110413392E+00  0.40247462489E+01  0.51100000000E-03 0.  1.
        -12    1    3    3    0    0  0.23300153354E+01  0.42631340059E+01  0.20590602758E+02  0.21155996902E+02  0.00000000000E+00 0.  1.
</event>
<event>
 7    1  0.2237500E-009  0.4778727E+02  0.7816164E-02  0.1312668E+00
        -11   -1    0    0    0    0  0.00000000000E+00  0.00000000000E+00  0.45593999997E+02  0.45594000000E+02  0.51100000000E-03 0.  1.
         11   -1    0    0    0    0 -0.00000000000E+00 -0.00000000000E+00 -0.45593999997E+02  0.45594000000E+02  0.51100000000E-03 0. -1.
    9900012    2    1    2    0    0  0.25673843500E+02 -0.12641270247E+02  0.32629363179E+02  0.47787270801E+02  0.19999998891E+02 0.  0.
         12    1    1    2    0    0 -0.25673843500E+02  0.12641270247E+02 -0.32629363179E+02  0.43400729199E+02  0.00000000000E+00 0. -1.
         11    1    3    3    0    0 -0.10047638938E+01 -0.20332147643E+01  0.52554963280E+01  0.57239631965E+01  0.51100000000E-03 0. -1.
        -11    1    3    3    0    0  0.28323150257E+02 -0.92270794913E+01  0.25637944640E+02  0.39301959774E+02  0.51100000000E-03 0.  1.
        -12    1    3    3    0    0 -0.16445428639E+01 -0.13809759912E+01  0.17359222111E+01  0.27613478308E+01  0.00000000000E+00 0.  1.
</event>
<event>
 7    1  0.2237500E-009  0.4778727E+02  0.7816164E-02  0.1312668E+00
        -11   -1    0    0    0    0  0.00000000000E+00  0.00000000000E+00  0.45593999997E+02  0.45594000000E+02  0.51100000000E-03 0. -1.
         11   -1    0    0    0    0 -0.00000000000E+00 -0.00000000000E+00 -0.45593999997E+02  0.45594000000E+02  0.51100000000E-03 0.  1.
    9900012    2    1    2    0    0 -0.42729154504E+02  0.46027394345E+01 -0.60545583307E+01  0.47787268076E+02  0.19999986468E+02 0.  0.
         12    1    1    2    0    0  0.42729154504E+02 -0.46027394345E+01  0.60545583307E+01  0.43400731924E+02  0.00000000000E+00 0. -1.
         11    1    3    3    0    0 -0.13072328323E+02 -0.32787698888E+01 -0.37924464252E+01  0.14000669624E+02  0.51100000000E-03 0. -1.
        -11    1    3    3    0    0 -0.21033203546E+02 -0.56992710689E+00 -0.44736034047E+01  0.21511243479E+02  0.51100000000E-03 0.  1.
         12    1    3    3    0    0 -0.86236226349E+01  0.84514364302E+01  0.22114914992E+01  0.12275354974E+02  0.00000000000E+00 0. -1.
</event>
<event>
 7    1  0.2237500E-009  0.4778727E+02  0.7816164E-02  0.1312668E+00
        -11   -1    0    0    0    0  0.00000000000E+00  0.00000000000E+00  0.45593999997E+02  0.45594000000E+02  0.51100000000E-03 0.  1.
         11   -1    0    0    0    0 -0.00000000000E+00 -0.00000000000E+00 -0.45593999997E+02  0.45594000000E+02  0.51100000000E-03 0. -1.
    9900012    2    1    2    0    0 -0.23511647738E+02 -0.53693761839E-01  0.36480443008E+02  0.47787272075E+02  0.20000004699E+02 0.  0.
         12    1    1    2    0    0  0.23511647738E+02  0.53693761839E-01 -0.36480443008E+02  0.43400727925E+02  0.00000000000E+00 0. -1.
         11    1    3    3    0    0 -0.57486438947E+01 -0.57076648167E+01  0.31895938740E+01  0.87061962779E+01  0.51100000000E-03 0. -1.
        -11    1    3    3    0    0 -0.34191494476E+01 -0.22223914698E+01  0.74962293132E+01  0.85336428895E+01  0.51100000000E-03 0.  1.
        -12    1    3    3    0    0 -0.14343854396E+02  0.78763625247E+01  0.25794619821E+02  0.30547432907E+02  0.00000000000E+00 0.  1.
</event>
<event>
 7    1  0.2237500E-009  0.4778727E+02  0.7816164E-02  0.1312668E+00
        -11   -1    0    0    0    0  0.00000000000E+00  0.00000000000E+00  0.45593999997E+02  0.45594000000E+02  0.51100000000E-03 0. -1.
         11   -1    0    0    0    0 -0.00000000000E+00 -0.00000000000E+00 -0.45593999997E+02  0.45594000000E+02  0.51100000000E-03 0.  1.
    9900012    2    1    2    0    0  0.48323412859E+01  0.31235823659E+02  0.29742142866E+02  0.47787271156E+02  0.20000000507E+02 0.  0.
         12    1    1    2    0    0 -0.48323412859E+01 -0.31235823659E+02 -0.29742142866E+02  0.43400728844E+02  0.00000000000E+00 0. -1.
         11    1    3    3    0    0  0.89927447327E+01  0.10722471209E+02  0.14079412856E+02  0.19851214404E+02  0.51100000000E-03 0. -1.
        -11    1    3    3    0    0  0.25537409518E+01  0.99791538261E+01  0.47265566246E+01  0.11333377331E+02  0.51100000000E-03 0.  1.
        -12    1    3    3    0    0 -0.67141443987E+01  0.10534198624E+02  0.10936173385E+02  0.16602679421E+02  0.00000000000E+00 0.  1.
</event>
<event>
 7    1  0.2237500E-009  0.4778728E+02  0.7816164E-02  0.1312668E+00
        -11   -1    0    0    0    0  0.00000000000E+00  0.00000000000E+00  0.45593999997E+02  0.45594000000E+02  0.51100000000E-03 0. -1.
         11   -1    0    0    0    0 -0.00000000000E+00 -0.00000000000E+00 -0.45593999997E+02  0.45594000000E+02  0.51100000000E-03 0.  1.
    9900012    2    1    2    0    0 -0.17219672671E+02  0.37743195891E+02 -0.12749775660E+02  0.47787277168E+02  0.20000027921E+02 0.  0.
         12    1    1    2    0    0  0.17219672671E+02 -0.37743195891E+02  0.12749775660E+02  0.43400722832E+02  0.00000000000E+00 0. -1.
         11    1    3    3    0    0 -0.10430188964E+02  0.17114067734E+02 -0.53379226516E+01  0.20740626190E+02  0.51100000000E-03 0.  1.
        -11    1    3    3    0    0 -0.67355220484E+01  0.15433276933E+01 -0.23821919689E+01  0.73091693421E+01  0.51100000000E-03 0. -1.
         12    1    3    3    0    0 -0.53961658503E-01  0.19085800463E+02 -0.50296610391E+01  0.19737481637E+02  0.00000000000E+00 0. -1.
</event>
<event>
 7    1  0.2237500E-009  0.4778727E+02  0.7816164E-02  0.1312668E+00
        -11   -1    0    0    0    0  0.00000000000E+00  0.00000000000E+00  0.45593999997E+02  0.45594000000E+02  0.51100000000E-03 0.  1.
         11   -1    0    0    0    0 -0.00000000000E+00 -0.00000000000E+00 -0.45593999997E+02  0.45594000000E+02  0.51100000000E-03 0. -1.
    9900012    2    1    2    0    0 -0.31202480163E+02  0.35907184924E+01  0.29952215746E+02  0.47787271254E+02  0.20000000956E+02 0.  0.
         12    1    1    2    0    0  0.31202480163E+02 -0.35907184924E+01 -0.29952215746E+02  0.43400728746E+02  0.00000000000E+00 0. -1.
         11    1    3    3    0    0 -0.64472459585E+01  0.30414671112E+01  0.12771397992E+02  0.14626213097E+02  0.51100000000E-03 0. -1.
        -11    1    3    3    0    0 -0.15743146696E+02  0.70151540660E+01  0.11266121821E+02  0.20590885255E+02  0.51100000000E-03 0.  1.
         12    1    3    3    0    0 -0.90120875089E+01 -0.64659026848E+01  0.59146959323E+01  0.12570172901E+02  0.00000000000E+00 0. -1.
</event>
<event>
 7    1  0.2237500E-009  0.4778727E+02  0.7816164E-02  0.1312668E+00
        -11   -1    0    0    0    0  0.00000000000E+00  0.00000000000E+00  0.45593999997E+02  0.45594000000E+02  0.51100000000E-03 0.  1.
         11   -1    0    0    0    0 -0.00000000000E+00 -0.00000000000E+00 -0.45593999997E+02  0.45594000000E+02  0.51100000000E-03 0. -1.
    9900012    2    1    2    0    0 -0.39166795284E+02 -0.13871473198E+02 -0.12536640587E+02  0.47787274445E+02  0.20000015505E+02 0.  0.
         12    1    1    2    0    0  0.39166795284E+02  0.13871473198E+02  0.12536640587E+02  0.43400725555E+02  0.00000000000E+00 0. -1.
         11    1    3    3    0    0 -0.19880968262E+02 -0.11789725242E+02 -0.66047002098E+01  0.24038980541E+02  0.51100000000E-03 0. -1.
        -11    1    3    3    0    0 -0.18112072773E+02 -0.33442652728E+01 -0.87918555429E+01  0.20409017970E+02  0.51100000000E-03 0.  1.
         12    1    3    3    0    0 -0.11737542486E+01  0.12625173172E+01  0.28599151653E+01  0.33392759342E+01  0.00000000000E+00 0. -1.
</event>
<event>
 7    1  0.2237500E-009  0.4778727E+02  0.7816164E-02  0.1312668E+00
        -11   -1    0    0    0    0  0.00000000000E+00  0.00000000000E+00  0.45593999997E+02  0.45594000000E+02  0.51100000000E-03 0.  1.
         11   -1    0    0    0    0 -0.00000000000E+00 -0.00000000000E+00 -0.45593999997E+02  0.45594000000E+02  0.51100000000E-03 0. -1.
    9900012    2    1    2    0    0  0.34650672204E+02 -0.23355516578E+02  0.11724935537E+02  0.47787270143E+02  0.19999995888E+02 0.  0.
         12    1    1    2    0    0 -0.34650672204E+02  0.23355516578E+02 -0.11724935537E+02  0.43400729857E+02  0.00000000000E+00 0. -1.
         11    1    3    3    0    0 -0.93131357486E+00  0.37040539477E+00 -0.90280422052E-01  0.10063279520E+01  0.51100000000E-03 0. -1.
        -11    1    3    3    0    0 -0.10176751100E+01 -0.31284444663E-01  0.17647847919E+01  0.20374265555E+01  0.51100000000E-03 0.  1.
        -12    1    3    3    0    0  0.36599660889E+02 -0.23694637528E+02  0.10050431167E+02  0.44743515635E+02  0.00000000000E+00 0.  1.
</event>
<event>
 7    1  0.2675179E-009  0.4778727E+02  0.7816164E-02  0.1312668E+00
        -11   -1    0    0    0    0  0.00000000000E+00  0.00000000000E+00  0.45593999997E+02  0.45594000000E+02  0.51100000000E-03 0. -1.
         11   -1    0    0    0    0 -0.00000000000E+00 -0.00000000000E+00 -0.45593999997E+02  0.45594000000E+02  0.51100000000E-03 0.  1.
    9900012    2    1    2    0    0 -0.36075897577E+02  0.24126196874E+02 -0.28181766869E+00  0.47787272094E+02  0.20000004785E+02 0.  0.
         12    1    1    2    0    0  0.36075897577E+02 -0.24126196874E+02  0.28181766869E+00  0.43400727906E+02  0.00000000000E+00 0. -1.
         11    1    3    3    0    0  0.59214362052E+00 -0.14960810726E+00  0.14438169659E+01  0.15676812001E+01  0.51100000000E-03 0. -1.
        -11    1    3    3    0    0 -0.42347108886E+01  0.89775328684E+01 -0.28967545828E+01  0.10340215669E+02  0.51100000000E-03 0.  1.
        -12    1    3    3    0    0 -0.32433330309E+02  0.15298272112E+02  0.11711199482E+01  0.35879375225E+02  0.00000000000E+00 0.  1.
</event>
<event>
 7    1  0.2237500E-009  0.4778726E+02  0.7816164E-02  0.1312668E+00
        -11   -1    0    0    0    0  0.00000000000E+00  0.00000000000E+00  0.45593999997E+02  0.45594000000E+02  0.51100000000E-03 0. -1.
         11   -1    0    0    0    0 -0.00000000000E+00 -0.00000000000E+00 -0.45593999997E+02  0.45594000000E+02  0.51100000000E-03 0.  1.
    9900012    2    1    2    0    0  0.32838916922E+02  0.24081110014E+02 -0.15010997766E+02  0.47787258324E+02  0.19999942001E+02 0.  0.
         12    1    1    2    0    0 -0.32838916922E+02 -0.24081110014E+02  0.15010997766E+02  0.43400741676E+02  0.00000000000E+00 0. -1.
         11    1    3    3    0    0  0.28459507083E+02  0.14693900823E+02 -0.13425635330E+02  0.34728978520E+02  0.51100000000E-03 0.  1.
        -11    1    3    3    0    0  0.31314014571E+01  0.18720638144E+01 -0.36548438302E+01  0.51641244848E+01  0.51100000000E-03 0. -1.
        -12    1    3    3    0    0  0.12480083824E+01  0.75151453767E+01  0.20694813940E+01  0.78941553187E+01  0.00000000000E+00 0.  1.
</event>
<event>
 7    1  0.2237500E-009  0.4778730E+02  0.7816164E-02  0.1312668E+00
        -11   -1    0    0    0    0  0.00000000000E+00  0.00000000000E+00  0.45593999997E+02  0.45594000000E+02  0.51100000000E-03 0. -1.
         11   -1    0    0    0    0 -0.00000000000E+00 -0.00000000000E+00 -0.45593999997E+02  0.45594000000E+02  0.51100000000E-03 0.  1.
    9900012    2    1    2    0    0  0.24683816667E+02  0.25195606596E+02 -0.25288554536E+02  0.47787304297E+02  0.20000151611E+02 0.  0.
         12    1    1    2    0    0 -0.24683816667E+02 -0.25195606596E+02  0.25288554536E+02  0.43400695703E+02  0.00000000000E+00 0. -1.
         11    1    3    3    0    0 -0.13891879841E+01  0.92466103863E+01 -0.27966710323E+01  0.97596626998E+01  0.51100000000E-03 0. -1.
        -11    1    3    3    0    0  0.51045510746E+01  0.42286757294E+01 -0.53195955386E+01  0.84991903763E+01  0.51100000000E-03 0.  1.
         12    1    3    3    0    0  0.20968453577E+02  0.11720320480E+02 -0.17172287965E+02  0.29528451221E+02  0.00000000000E+00 0. -1.
</event>
<event>
 7    1  0.2237500E-009  0.4778727E+02  0.7816164E-02  0.1312668E+00
        -11   -1    0    0    0    0  0.00000000000E+00  0.00000000000E+00  0.45593999997E+02  0.45594000000E+02  0.51100000000E-03 0.  1.
         11   -1    0    0    0    0 -0.00000000000E+00 -0.00000000000E+00 -0.45593999997E+02  0.45594000000E+02  0.51100000000E-03 0. -1.
    9900012    2    1    2    0    0 -0.43341129942E+02  0.16198312512E+01 -0.15955400620E+01  0.47787272518E+02  0.20000006716E+02 0.  0.
         12    1    1    2    0    0  0.43341129942E+02 -0.16198312512E+01  0.15955400620E+01  0.43400727482E+02  0.00000000000E+00 0. -1.
         11    1    3    3    0    0 -0.21108947037E+02 -0.15825798229E+01 -0.11230643045E+01  0.21197959279E+02  0.51100000000E-03 0. -1.
        -11    1    3    3    0    0 -0.19736410525E+02  0.60777765976E+01 -0.44049993713E+01  0.21115617171E+02  0.51100000000E-03 0.  1.
         12    1    3    3    0    0 -0.24957723795E+01 -0.28753655235E+01  0.39325236138E+01  0.54736960673E+01  0.00000000000E+00 0. -1.
</event>
<event>
 7    1  0.2237500E-009  0.4778727E+02  0.7816164E-02  0.1312668E+00
        -11   -1    0    0    0    0  0.00000000000E+00  0.00000000000E+00  0.45593999997E+02  0.45594000000E+02  0.51100000000E-03 0.  1.
         11   -1    0    0    0    0 -0.00000000000E+00 -0.00000000000E+00 -0.45593999997E+02  0.45594000000E+02  0.51100000000E-03 0. -1.
    9900012    2    1    2    0    0 -0.76085061623E+01 -0.18081975276E+02  0.38714026916E+02  0.47787273324E+02  0.20000010395E+02 0.  0.
         12    1    1    2    0    0  0.76085061623E+01  0.18081975276E+02 -0.38714026916E+02  0.43400726676E+02  0.00000000000E+00 0. -1.
         11    1    3    3    0    0  0.66116088991E-01  0.61603598280E+00  0.69198184108E+00  0.92882226440E+00  0.51100000000E-03 0. -1.
        -11    1    3    3    0    0 -0.38134782452E+01 -0.46619430019E+01  0.29247087585E+02  0.29860818163E+02  0.51100000000E-03 0.  1.
        -12    1    3    3    0    0 -0.38611440061E+01 -0.14036068257E+02  0.87749574899E+01  0.16997632897E+02  0.00000000000E+00 0.  1.
</event>
<event>
 7    1  0.2237500E-009  0.4778726E+02  0.7816164E-02  0.1312668E+00
        -11   -1    0    0    0    0  0.00000000000E+00  0.00000000000E+00  0.45593999997E+02  0.45594000000E+02  0.51100000000E-03 0. -1.
         11   -1    0    0    0    0 -0.00000000000E+00 -0.00000000000E+00 -0.45593999997E+02  0.45594000000E+02  0.51100000000E-03 0.  1.
    9900012    2    1    2    0    0 -0.28867684244E+02 -0.12452559891E+01 -0.32384103003E+02  0.47787262871E+02  0.19999962732E+02 0.  0.
         12    1    1    2    0    0  0.28867684244E+02  0.12452559891E+01  0.32384103003E+02  0.43400737129E+02  0.00000000000E+00 0. -1.
         11    1    3    3    0    0 -0.71826328344E+01  0.19254267963E+01 -0.25789020546E+01  0.78707190809E+01  0.51100000000E-03 0. -1.
        -11    1    3    3    0    0 -0.18849231984E+02  0.69351391059E+00 -0.14250314877E+02  0.23639923483E+02  0.51100000000E-03 0.  1.
        -12    1    3    3    0    0 -0.28358194254E+01 -0.38641966960E+01 -0.15554886071E+02  0.16276620307E+02  0.00000000000E+00 0.  1.
</event>
<event>
 7    1  0.2237500E-009  0.4778727E+02  0.7816164E-02  0.1312668E+00
        -11   -1    0    0    0    0  0.00000000000E+00  0.00000000000E+00  0.45593999997E+02  0.45594000000E+02  0.51100000000E-03 0. -1.
         11   -1    0    0    0    0 -0.00000000000E+00 -0.00000000000E+00 -0.45593999997E+02  0.45594000000E+02  0.51100000000E-03 0.  1.
    9900012    2    1    2    0    0  0.95819307418E+00 -0.22036048624E+02 -0.37378035494E+02  0.47787272928E+02  0.20000008589E+02 0.  0.
         12    1    1    2    0    0 -0.95819307418E+00  0.22036048624E+02  0.37378035494E+02  0.43400727072E+02  0.00000000000E+00 0. -1.
         11    1    3    3    0    0  0.13174809289E+01 -0.10215223222E+02 -0.20672717162E+02  0.23096488404E+02  0.51100000000E-03 0.  1.
        -11    1    3    3    0    0 -0.25902985775E+01 -0.70309964137E+01 -0.17783836884E+02  0.19297912112E+02  0.51100000000E-03 0. -1.
        -12    1    3    3    0    0  0.22310107229E+01 -0.47898289882E+01  0.10785185525E+01  0.53928724118E+01  0.00000000000E+00 0.  1.
</event>
<event>
 7    1  0.2237500E-009  0.4778727E+02  0.7816164E-02  0.1312668E+00
        -11   -1    0    0    0    0  0.00000000000E+00  0.00000000000E+00  0.45593999997E+02  0.45594000000E+02  0.51100000000E-03 0.  1.
         11   -1    0    0    0    0 -0.00000000000E+00 -0.00000000000E+00 -0.45593999997E+02  0.45594000000E+02  0.51100000000E-03 0. -1.
    9900012    2    1    2    0    0  0.12162523493E+02  0.36049938902E+02  0.20882976069E+02  0.47787265420E+02  0.19999974357E+02 0.  0.
         12    1    1    2    0    0 -0.12162523493E+02 -0.36049938902E+02 -0.20882976069E+02  0.43400734580E+02  0.00000000000E+00 0. -1.
         11    1    3    3    0    0  0.85570571855E+01  0.75703892859E+01  0.86943536975E+01  0.14357082158E+02  0.51100000000E-03 0. -1.
        -11    1    3    3    0    0  0.33513890756E+00  0.13677273336E+02  0.12109494514E+02  0.18270741135E+02  0.51100000000E-03 0.  1.
         12    1    3    3    0    0  0.32703273999E+01  0.14802276280E+02  0.79127857698E-01  0.15159442127E+02  0.00000000000E+00 0. -1.
</event>
<event>
 7    1  0.2237500E-009  0.4778727E+02  0.7816164E-02  0.1312668E+00
        -11   -1    0    0    0    0  0.00000000000E+00  0.00000000000E+00  0.45593999997E+02  0.45594000000E+02  0.51100000000E-03 0. -1.
         11   -1    0    0    0    0 -0.00000000000E+00 -0.00000000000E+00 -0.45593999997E+02  0.45594000000E+02  0.51100000000E-03 0.  1.
    9900012    2    1    2    0    0 -0.32118100213E+02 -0.28265573854E+02  0.72875419107E+01  0.47787270817E+02  0.19999998961E+02 0.  0.
         12    1    1    2    0    0  0.32118100213E+02  0.28265573854E+02 -0.72875419107E+01  0.43400729183E+02  0.00000000000E+00 0. -1.
         11    1    3    3    0    0 -0.11505198294E+02 -0.50665683242E+01  0.96072928347E+01  0.15822129384E+02  0.51100000000E-03 0. -1.
        -11    1    3    3    0    0 -0.20293128187E+01 -0.49933716306E+01  0.16765533982E+01  0.56447056890E+01  0.51100000000E-03 0.  1.
         12    1    3    3    0    0 -0.18583589100E+02 -0.18205633899E+02 -0.39963043222E+01  0.26320435744E+02  0.00000000000E+00 0. -1.
</event>
<event>
 7    1  0.2237500E-009  0.4778727E+02  0.7816164E-02  0.1312668E+00
        -11   -1    0    0    0    0  0.00000000000E+00  0.00000000000E+00  0.45593999997E+02  0.45594000000E+02  0.51100000000E-03 0.  1.
         11   -1    0    0    0    0 -0.00000000000E+00 -0.00000000000E+00 -0.45593999997E+02  0.45594000000E+02  0.51100000000E-03 0. -1.
    9900012    2    1    2    0    0  0.13715102672E+02 -0.15053424447E+02  0.38326406621E+02  0.47787273354E+02  0.20000010531E+02 0.  0.
         12    1    1    2    0    0 -0.13715102672E+02  0.15053424447E+02 -0.38326406621E+02  0.43400726646E+02  0.00000000000E+00 0. -1.
         11    1    3    3    0    0  0.80845801449E+01 -0.16790509286E+02  0.30197133360E+02  0.35484482547E+02  0.51100000000E-03 0. -1.
        -11    1    3    3    0    0 -0.13927049509E+01 -0.35182757544E+00  0.11084905969E+00  0.14407281139E+01  0.51100000000E-03 0.  1.
        -12    1    3    3    0    0  0.70232274777E+01  0.20889124140E+01  0.80184242015E+01  0.10862062693E+02  0.00000000000E+00 0.  1.
</event>
<event>
 7    1  0.2237500E-009  0.4778727E+02  0.7816164E-02  0.1312668E+00
        -11   -1    0    0    0    0  0.00000000000E+00  0.00000000000E+00  0.45593999997E+02  0.45594000000E+02  0.51100000000E-03 0.  1.
         11   -1    0    0    0    0 -0.00000000000E+00 -0.00000000000E+00 -0.45593999997E+02  0.45594000000E+02  0.51100000000E-03 0. -1.
    9900012    2    1    2    0    0  0.42084577507E+02  0.14668317594E+01  0.10505229188E+02  0.47787273052E+02  0.20000009154E+02 0.  0.
         12    1    1    2    0    0 -0.42084577507E+02 -0.14668317594E+01 -0.10505229188E+02  0.43400726948E+02  0.00000000000E+00 0. -1.
         11    1    3    3    0    0  0.21264041955E+02 -0.61500108871E+01 -0.17248498369E+01  0.22202639964E+02  0.51100000000E-03 0. -1.
        -11    1    3    3    0    0  0.83115817778E+01  0.17748745179E+01  0.61957275008E+01  0.10517585784E+02  0.51100000000E-03 0.  1.
         12    1    3    3    0    0  0.12508953774E+02  0.58419681286E+01  0.60343515238E+01  0.15067047304E+02  0.00000000000E+00 0. -1.
</event>
<event>
 7    1  0.2237500E-009  0.4778727E+02  0.7816164E-02  0.1312668E+00
        -11   -1    0    0    0    0  0.00000000000E+00  0.00000000000E+00  0.45593999997E+02  0.45594000000E+02  0.51100000000E-03 0.  1.
         11   -1    0    0    0    0 -0.00000000000E+00 -0.00000000000E+00 -0.45593999997E+02  0.45594000000E+02  0.51100000000E-03 0. -1.
    9900012    2    1    2    0    0  0.42172744300E+01 -0.19903365743E+02  0.38336584903E+02  0.47787272891E+02  0.20000008421E+02 0.  0.
         12    1    1    2    0    0 -0.42172744300E+01  0.19903365743E+02 -0.38336584903E+02  0.43400727109E+02  0.00000000000E+00 0. -1.
         11    1    3    3    0    0  0.16789734943E+01 -0.16942629239E+02  0.13533984455E+02  0.21749491328E+02  0.51100000000E-03 0. -1.
        -11    1    3    3    0    0  0.13289314363E+01 -0.50135388326E+01  0.12988034047E+02  0.13985373039E+02  0.51100000000E-03 0.  1.
        -12    1    3    3    0    0  0.12093694994E+01  0.20528023284E+01  0.11814566401E+02  0.12052408524E+02  0.00000000000E+00 0.  1.
</event>
<event>
 7    1  0.2237500E-009  0.4778727E+02  0.7816164E-02  0.1312668E+00
        -11   -1    0    0    0    0  0.00000000000E+00  0.00000000000E+00  0.45593999997E+02  0.45594000000E+02  0.51100000000E-03 0.  1.
         11   -1    0    0    0    0 -0.00000000000E+00 -0.00000000000E+00 -0.45593999997E+02  0.45594000000E+02  0.51100000000E-03 0. -1.
    9900012    2    1    2    0    0  0.28622243772E+02 -0.39390122977E+01  0.32386336536E+02  0.47787269008E+02  0.19999990715E+02 0.  0.
         12    1    1    2    0    0 -0.28622243772E+02  0.39390122977E+01 -0.32386336536E+02  0.43400730992E+02  0.00000000000E+00 0. -1.
         11    1    3    3    0    0  0.42916764802E+01  0.19158995734E+00  0.67497007712E-01  0.42964810985E+01  0.51100000000E-03 0. -1.
        -11    1    3    3    0    0  0.51818641368E+01  0.22403516821E+01  0.31334758518E+00  0.56541204942E+01  0.51100000000E-03 0.  1.
        -12    1    3    3    0    0  0.19148703155E+02 -0.63709539371E+01  0.32005491943E+02  0.37836667415E+02  0.00000000000E+00 0.  1.
</event>
<event>
 7    1  0.2237500E-009  0.4778727E+02  0.7816164E-02  0.1312668E+00
        -11   -1    0    0    0    0  0.00000000000E+00  0.00000000000E+00  0.45593999997E+02  0.45594000000E+02  0.51100000000E-03 0.  1.
         11   -1    0    0    0    0 -0.00000000000E+00 -0.00000000000E+00 -0.45593999997E+02  0.45594000000E+02  0.51100000000E-03 0. -1.
    9900012    2    1    2    0    0 -0.60731257197E+01 -0.14482392862E+02  0.40459863119E+02  0.47787273248E+02  0.20000010047E+02 0.  0.
         12    1    1    2    0    0  0.60731257197E+01  0.14482392862E+02 -0.40459863119E+02  0.43400726752E+02  0.00000000000E+00 0. -1.
         11    1    3    3    0    0 -0.31211825206E+01 -0.54504760225E+01  0.35616073999E+01  0.72204235839E+01  0.51100000000E-03 0. -1.
        -11    1    3    3    0    0 -0.77219068698E+01 -0.75792497397E+01  0.17819217705E+02  0.20846999597E+02  0.51100000000E-03 0.  1.
         12    1    3    3    0    0  0.47699636707E+01 -0.14526670994E+01  0.19079038014E+02  0.19719850067E+02  0.00000000000E+00 0. -1.
</event>
<event>
 7    1  0.2237500E-009  0.4778727E+02  0.7816164E-02  0.1312668E+00
        -11   -1    0    0    0    0  0.00000000000E+00  0.00000000000E+00  0.45593999997E+02  0.45594000000E+02  0.51100000000E-03 0.  1.
         11   -1    0    0    0    0 -0.00000000000E+00 -0.00000000000E+00 -0.45593999997E+02  0.45594000000E+02  0.51100000000E-03 0. -1.
    9900012    2    1    2    0    0 -0.40044790585E+02  0.16010354541E+02  0.48689417525E+01  0.47787270751E+02  0.19999998661E+02 0.  0.
         12    1    1    2    0    0  0.40044790585E+02 -0.16010354541E+02 -0.48689417525E+01  0.43400729249E+02  0.00000000000E+00 0. -1.
         11    1    3    3    0    0 -0.10109499332E+02  0.16079292257E+00  0.67654878951E+01  0.12165510998E+02  0.51100000000E-03 0. -1.
        -11    1    3    3    0    0 -0.84685192858E+01 -0.48878315288E+00 -0.16606066111E+01  0.86436301658E+01  0.51100000000E-03 0.  1.
        -12    1    3    3    0    0 -0.21466771967E+02  0.16338344771E+02 -0.23593953156E+00  0.26978129587E+02  0.00000000000E+00 0.  1.
</event>
<event>
 7    1  0.2237500E-009  0.4778723E+02  0.7816164E-02  0.1312668E+00
        -11   -1    0    0    0    0  0.00000000000E+00  0.00000000000E+00  0.45593999997E+02  0.45594000000E+02  0.51100000000E-03 0. -1.
         11   -1    0    0    0    0 -0.00000000000E+00 -0.00000000000E+00 -0.45593999997E+02  0.45594000000E+02  0.51100000000E-03 0.  1.
    9900012    2    1    2    0    0  0.39801260458E+02  0.12795503831E+02 -0.11651665028E+02  0.47787233299E+02  0.19999827904E+02 0.  0.
         12    1    1    2    0    0 -0.39801260458E+02 -0.12795503831E+02  0.11651665028E+02  0.43400766701E+02  0.00000000000E+00 0. -1.
         11    1    3    3    0    0  0.51010910287E+01  0.89604061863E+00 -0.69230949894E+01  0.86459969331E+01  0.51100000000E-03 0. -1.
        -11    1    3    3    0    0  0.15477537649E+02 -0.56226360896E+00 -0.48596114778E+01  0.16232256036E+02  0.51100000000E-03 0.  1.
        -12    1    3    3    0    0  0.19222631780E+02  0.12461726821E+02  0.13104143962E+00  0.22908980330E+02  0.00000000000E+00 0.  1.
</event>
<event>
 7    1  0.2237500E-009  0.4778727E+02  0.7816164E-02  0.1312668E+00
        -11   -1    0    0    0    0  0.00000000000E+00  0.00000000000E+00  0.45593999997E+02  0.45594000000E+02  0.51100000000E-03 0. -1.
         11   -1    0    0    0    0 -0.00000000000E+00 -0.00000000000E+00 -0.45593999997E+02  0.45594000000E+02  0.51100000000E-03 0.  1.
    9900012    2    1    2    0    0  0.86558708137E+01 -0.37962947692E+02 -0.19170641459E+02  0.47787274304E+02  0.20000014861E+02 0.  0.
         12    1    1    2    0    0 -0.86558708137E+01  0.37962947692E+02  0.19170641459E+02  0.43400725696E+02  0.00000000000E+00 0. -1.
         11    1    3    3    0    0 -0.33598599283E+01 -0.12972908569E+02 -0.42853455194E+01  0.14069442134E+02  0.51100000000E-03 0. -1.
        -11    1    3    3    0    0  0.19717379926E+01 -0.17460568360E+02 -0.71333629625E+01  0.18964283946E+02  0.51100000000E-03 0.  1.
         12    1    3    3    0    0  0.10043992749E+02 -0.75294707634E+01 -0.77519329772E+01  0.14753548224E+02  0.00000000000E+00 0. -1.
</event>
<event>
 7    1  0.2237500E-009  0.4778728E+02  0.7816164E-02  0.1312668E+00
        -11   -1    0    0    0    0  0.00000000000E+00  0.00000000000E+00  0.45593999997E+02  0.45594000000E+02  0.51100000000E-03 0.  1.
         11   -1    0    0    0    0 -0.00000000000E+00 -0.00000000000E+00 -0.45593999997E+02  0.45594000000E+02  0.51100000000E-03 0. -1.
    9900012    2    1    2    0    0 -0.30488313627E+02  0.23078081498E+02  0.20530166586E+02  0.47787275887E+02  0.20000022080E+02 0.  0.
         12    1    1    2    0    0  0.30488313627E+02 -0.23078081498E+02 -0.20530166586E+02  0.43400724113E+02  0.00000000000E+00 0. -1.
         11    1    3    3    0    0 -0.93125358263E+01  0.44051621754E+01  0.11423055274E+02  0.15382294022E+02  0.51100000000E-03 0. -1.
        -11    1    3    3    0    0 -0.19802370062E+02  0.15408420704E+02  0.12018011483E+02  0.27820601879E+02  0.51100000000E-03 0.  1.
         12    1    3    3    0    0 -0.13734077391E+01  0.32644986193E+01 -0.29109001714E+01  0.45843799866E+01  0.00000000000E+00 0. -1.
</event>
<event>
 7    1  0.2237500E-009  0.4778727E+02  0.7816164E-02  0.1312668E+00
        -11   -1    0    0    0    0  0.00000000000E+00  0.00000000000E+00  0.45593999997E+02  0.45594000000E+02  0.51100000000E-03 0. -1.
         11   -1    0    0    0    0 -0.00000000000E+00 -0.00000000000E+00 -0.45593999997E+02  0.45594000000E+02  0.51100000000E-03 0.  1.
    9900012    2    1    2    0    0 -0.17463131151E+02 -0.39658304074E+02  0.24251727927E+01  0.47787268500E+02  0.19999988399E+02 0.  0.
         12    1    1    2    0    0  0.17463131151E+02  0.39658304074E+02 -0.24251727927E+01  0.43400731500E+02  0.00000000000E+00 0. -1.
         11    1    3    3    0    0 -0.49115156435E+01 -0.70802987488E+01 -0.45055904140E+01  0.97238861330E+01  0.51100000000E-03 0. -1.
        -11    1    3    3    0    0 -0.30932793933E+01 -0.23349764806E+02  0.98881027080E+00  0.23574512507E+02  0.51100000000E-03 0.  1.
        -12    1    3    3    0    0 -0.94583361146E+01 -0.92282405192E+01  0.59419529359E+01  0.14488869860E+02  0.00000000000E+00 0.  1.
</event>
<event>
 7    1  0.2237500E-009  0.4778726E+02  0.7816164E-02  0.1312668E+00
        -11   -1    0    0    0    0  0.00000000000E+00  0.00000000000E+00  0.45593999997E+02  0.45594000000E+02  0.51100000000E-03 0. -1.
         11   -1    0    0    0    0 -0.00000000000E+00 -0.00000000000E+00 -0.45593999997E+02  0.45594000000E+02  0.51100000000E-03 0.  1.
    9900012    2    1    2    0    0 -0.10103209233E+02  0.41581566300E+02  0.72472552445E+01  0.47787260359E+02  0.19999951282E+02 0.  0.
         12    1    1    2    0    0  0.10103209233E+02 -0.41581566300E+02 -0.72472552445E+01  0.43400739641E+02  0.00000000000E+00 0. -1.
         11    1    3    3    0    0  0.18100430115E+01  0.17312467683E+02  0.40683466068E+01  0.17875940181E+02  0.51100000000E-03 0. -1.
        -11    1    3    3    0    0 -0.14080054977E+01  0.11782056259E+02  0.60867765172E+01  0.13335973073E+02  0.51100000000E-03 0.  1.
         12    1    3    3    0    0 -0.10505246746E+02  0.12487042358E+02 -0.29078678795E+01  0.16575347105E+02  0.00000000000E+00 0. -1.
</event>
<event>
 7    1  0.2237500E-009  0.4778728E+02  0.7816164E-02  0.1312668E+00
        -11   -1    0    0    0    0  0.00000000000E+00  0.00000000000E+00  0.45593999997E+02  0.45594000000E+02  0.51100000000E-03 0.  1.
         11   -1    0    0    0    0 -0.00000000000E+00 -0.00000000000E+00 -0.45593999997E+02  0.45594000000E+02  0.51100000000E-03 0. -1.
    9900012    2    1    2    0    0 -0.57895958665E+01  0.30073822908E+02  0.30751723390E+02  0.47787277240E+02  0.20000028249E+02 0.  0.
         12    1    1    2    0    0  0.57895958665E+01 -0.30073822908E+02 -0.30751723390E+02  0.43400722760E+02  0.00000000000E+00 0. -1.
         11    1    3    3    0    0  0.42222838674E+01  0.58856426459E+01  0.52497798473E+01  0.89458738599E+01  0.51100000000E-03 0.  1.
        -11    1    3    3    0    0 -0.21769323170E+01  0.10256443160E+02  0.24117501401E+01  0.10758726672E+02  0.51100000000E-03 0. -1.
        -12    1    3    3    0    0 -0.78349474169E+01  0.13931737103E+02  0.23090193403E+02  0.28082676708E+02  0.00000000000E+00 0.  1.
</event>
<event>
 7    1  0.2237500E-009  0.4778727E+02  0.7816164E-02  0.1312668E+00
        -11   -1    0    0    0    0  0.00000000000E+00  0.00000000000E+00  0.45593999997E+02  0.45594000000E+02  0.51100000000E-03 0.  1.
         11   -1    0    0    0    0 -0.00000000000E+00 -0.00000000000E+00 -0.45593999997E+02  0.45594000000E+02  0.51100000000E-03 0. -1.
    9900012    2    1    2    0    0 -0.34014053346E+02 -0.40289283194E+01  0.26653994231E+02  0.47787268475E+02  0.19999988286E+02 0.  0.
         12    1    1    2    0    0  0.34014053346E+02  0.40289283194E+01 -0.26653994231E+02  0.43400731525E+02  0.00000000000E+00 0. -1.
         11    1    3    3    0    0  0.76688743888E+00 -0.29208992282E+01  0.65774696652E+01  0.72376015436E+01  0.51100000000E-03 0. -1.
        -11    1    3    3    0    0 -0.75110431655E+01  0.20032185918E+01  0.48430563826E+01  0.91588126712E+01  0.51100000000E-03 0.  1.
         12    1    3    3    0    0 -0.27269897619E+02 -0.31112476831E+01  0.15233468183E+02  0.31390854260E+02  0.00000000000E+00 0. -1.
</event>
<event>
 7    1  0.2237500E-009  0.4778727E+02  0.7816164E-02  0.1312668E+00
        -11   -1    0    0    0    0  0.00000000000E+00  0.00000000000E+00  0.45593999997E+02  0.45594000000E+02  0.51100000000E-03 0. -1.
         11   -1    0    0    0    0 -0.00000000000E+00 -0.00000000000E+00 -0.45593999997E+02  0.45594000000E+02  0.51100000000E-03 0.  1.
    9900012    2    1    2    0    0  0.40384663223E+02 -0.40100653749E+01 -0.15382511314E+02  0.47787270717E+02  0.19999998509E+02 0.  0.
         12    1    1    2    0    0 -0.40384663223E+02  0.40100653749E+01  0.15382511314E+02  0.43400729283E+02  0.00000000000E+00 0. -1.
         11    1    3    3    0    0  0.13654823511E+02 -0.13948988068E+01  0.46404495396E+00  0.13733728037E+02  0.51100000000E-03 0. -1.
        -11    1    3    3    0    0  0.25522333134E+02  0.87619640192E+00 -0.10630163673E+02  0.27661482041E+02  0.51100000000E-03 0.  1.
        -12    1    3    3    0    0  0.12075065783E+01 -0.34913629700E+01 -0.52163925946E+01  0.63920606400E+01  0.00000000000E+00 0.  1.
</event>
<event>
 7    1  0.2237500E-009  0.4778727E+02  0.7816164E-02  0.1312668E+00
        -11   -1    0    0    0    0  0.00000000000E+00  0.00000000000E+00  0.45593999997E+02  0.45594000000E+02  0.51100000000E-03 0.  1.
         11   -1    0    0    0    0 -0.00000000000E+00 -0.00000000000E+00 -0.45593999997E+02  0.45594000000E+02  0.51100000000E-03 0. -1.
    9900012    2    1    2    0    0  0.74994250881E+01 -0.42565128084E+02  0.39486486675E+01  0.47787270377E+02  0.19999996959E+02 0.  0.
         12    1    1    2    0    0 -0.74994250881E+01  0.42565128084E+02 -0.39486486675E+01  0.43400729623E+02  0.00000000000E+00 0. -1.
         11    1    3    3    0    0 -0.10658711799E+01 -0.43869173919E+01  0.14626481308E+01  0.47455732416E+01  0.51100000000E-03 0. -1.
        -11    1    3    3    0    0  0.55757046349E+01 -0.38315340099E+02 -0.62627982481E+00  0.38723971849E+02  0.51100000000E-03 0.  1.
         12    1    3    3    0    0  0.29895916330E+01  0.13712940647E+00  0.31122803616E+01  0.43177252871E+01  0.00000000000E+00 0. -1.
</event>
<event>
 7    1  0.2237500E-009  0.4778727E+02  0.7816164E-02  0.1312668E+00
        -11   -1    0    0    0    0  0.00000000000E+00  0.00000000000E+00  0.45593999997E+02  0.45594000000E+02  0.51100000000E-03 0.  1.
         11   -1    0    0    0    0 -0.00000000000E+00 -0.00000000000E+00 -0.45593999997E+02  0.45594000000E+02  0.51100000000E-03 0. -1.
    9900012    2    1    2    0    0 -0.24284636997E+02  0.82317124028E+01  0.35015979061E+02  0.47787268753E+02  0.19999989554E+02 0.  0.
         12    1    1    2    0    0  0.24284636997E+02 -0.82317124028E+01 -0.35015979061E+02  0.43400731247E+02  0.00000000000E+00 0. -1.
         11    1    3    3    0    0 -0.29170111874E+01  0.19079436933E+01  0.31099813947E+01  0.46713154401E+01  0.51100000000E-03 0. -1.
        -11    1    3    3    0    0 -0.13040262915E+02  0.36450000231E+01  0.43761311996E+01  0.14229722647E+02  0.51100000000E-03 0.  1.
         12    1    3    3    0    0 -0.83273628945E+01  0.26787686865E+01  0.27529866466E+02  0.28886230666E+02  0.00000000000E+00 0. -1.
</event>
<event>
 7    1  0.2237500E-009  0.4778727E+02  0.7816164E-02  0.1312668E+00
        -11   -1    0    0    0    0  0.00000000000E+00  0.00000000000E+00  0.45593999997E+02  0.45594000000E+02  0.51100000000E-03 0.  1.
         11   -1    0    0    0    0 -0.00000000000E+00 -0.00000000000E+00 -0.45593999997E+02  0.45594000000E+02  0.51100000000E-03 0. -1.
    9900012    2    1    2    0    0  0.22468272805E+02  0.31585574493E+02  0.19523098309E+02  0.47787272281E+02  0.20000005640E+02 0.  0.
         12    1    1    2    0    0 -0.22468272805E+02 -0.31585574493E+02 -0.19523098309E+02  0.43400727719E+02  0.00000000000E+00 0. -1.
         11    1    3    3    0    0  0.51032193747E+01  0.49692514219E+01  0.10080895560E+02  0.12343450216E+02  0.51100000000E-03 0. -1.
        -11    1    3    3    0    0  0.15093359186E+02  0.18567334472E+02  0.11903935771E+02  0.26725626055E+02  0.51100000000E-03 0.  1.
        -12    1    3    3    0    0  0.22716942442E+01  0.80489885992E+01 -0.24617330219E+01  0.87181960106E+01  0.00000000000E+00 0.  1.
</event>
<event>
 7    1  0.2237500E-009  0.4778727E+02  0.7816164E-02  0.1312668E+00
        -11   -1    0    0    0    0  0.00000000000E+00  0.00000000000E+00  0.45593999997E+02  0.45594000000E+02  0.51100000000E-03 0. -1.
         11   -1    0    0    0    0 -0.00000000000E+00 -0.00000000000E+00 -0.45593999997E+02  0.45594000000E+02  0.51100000000E-03 0.  1.
    9900012    2    1    2    0    0  0.15624127664E+02  0.38180800380E+02  0.13480979436E+02  0.47787266257E+02  0.19999978171E+02 0.  0.
         12    1    1    2    0    0 -0.15624127664E+02 -0.38180800380E+02 -0.13480979436E+02  0.43400733743E+02  0.00000000000E+00 0. -1.
         11    1    3    3    0    0  0.49239911705E+01  0.12350509154E+02 -0.25550143636E+00  0.13298347516E+02  0.51100000000E-03 0. -1.
        -11    1    3    3    0    0  0.36846087824E+01 -0.83822232921E+00  0.23720770619E+00  0.37861888898E+01  0.51100000000E-03 0.  1.
         12    1    3    3    0    0  0.70155277116E+01  0.26668513555E+02  0.13499273166E+02  0.30702729851E+02  0.00000000000E+00 0. -1.
</event>
<event>
 7    1  0.2237500E-009  0.4778727E+02  0.7816164E-02  0.1312668E+00
        -11   -1    0    0    0    0  0.00000000000E+00  0.00000000000E+00  0.45593999997E+02  0.45594000000E+02  0.51100000000E-03 0. -1.
         11   -1    0    0    0    0 -0.00000000000E+00 -0.00000000000E+00 -0.45593999997E+02  0.45594000000E+02  0.51100000000E-03 0.  1.
    9900012    2    1    2    0    0  0.36934834459E+02  0.36991015704E+00 -0.22788252413E+02  0.47787270996E+02  0.19999999781E+02 0.  0.
         12    1    1    2    0    0 -0.36934834459E+02 -0.36991015704E+00  0.22788252413E+02  0.43400729004E+02  0.00000000000E+00 0. -1.
         11    1    3    3    0    0  0.59231229736E+01  0.32356314120E+01 -0.75502010759E+01  0.10127103877E+02  0.51100000000E-03 0. -1.
        -11    1    3    3    0    0  0.20331566115E+02  0.24575768324E+01 -0.15563807207E+02  0.25722448554E+02  0.51100000000E-03 0.  1.
         12    1    3    3    0    0  0.10680145370E+02 -0.53232980874E+01  0.32575586962E+00  0.11937718565E+02  0.00000000000E+00 0. -1.
</event>
<event>
 7    1  0.2237500E-009  0.4778727E+02  0.7816164E-02  0.1312668E+00
        -11   -1    0    0    0    0  0.00000000000E+00  0.00000000000E+00  0.45593999997E+02  0.45594000000E+02  0.51100000000E-03 0. -1.
         11   -1    0    0    0    0 -0.00000000000E+00 -0.00000000000E+00 -0.45593999997E+02  0.45594000000E+02  0.51100000000E-03 0.  1.
    9900012    2    1    2    0    0  0.90437848239E+01  0.13413942291E+02 -0.40272813592E+02  0.47787269519E+02  0.19999993043E+02 0.  0.
         12    1    1    2    0    0 -0.90437848239E+01 -0.13413942291E+02  0.40272813592E+02  0.43400730481E+02  0.00000000000E+00 0. -1.
         11    1    3    3    0    0  0.43949923615E+01  0.17212063720E+00 -0.11167672713E+02  0.12002603779E+02  0.51100000000E-03 0. -1.
        -11    1    3    3    0    0  0.87599298166E+01  0.13544701809E+02 -0.19332564391E+02  0.25178231941E+02  0.51100000000E-03 0.  1.
         12    1    3    3    0    0 -0.41111373542E+01 -0.30288015486E+00 -0.97725764874E+01  0.10606433799E+02  0.00000000000E+00 0. -1.
</event>
<event>
 7    1  0.2237500E-009  0.4778727E+02  0.7816164E-02  0.1312668E+00
        -11   -1    0    0    0    0  0.00000000000E+00  0.00000000000E+00  0.45593999997E+02  0.45594000000E+02  0.51100000000E-03 0.  1.
         11   -1    0    0    0    0 -0.00000000000E+00 -0.00000000000E+00 -0.45593999997E+02  0.45594000000E+02  0.51100000000E-03 0. -1.
    9900012    2    1    2    0    0  0.47736012477E+01 -0.46736553767E+01  0.42883477562E+02  0.47787274531E+02  0.20000015895E+02 0.  0.
         12    1    1    2    0    0 -0.47736012477E+01  0.46736553767E+01 -0.42883477562E+02  0.43400725469E+02  0.00000000000E+00 0. -1.
         11    1    3    3    0    0  0.17512595420E+01 -0.56598260525E+01  0.31852837775E+02  0.32399132944E+02  0.51100000000E-03 0.  1.
        -11    1    3    3    0    0  0.17831780827E+01  0.11810583148E+01  0.12933425050E+02  0.13109084888E+02  0.51100000000E-03 0. -1.
         12    1    3    3    0    0  0.12391636230E+01 -0.19488763900E+00 -0.19027852634E+01  0.22790566985E+01  0.00000000000E+00 0. -1.
</event>
<event>
 7    1  0.2237500E-009  0.4778728E+02  0.7816164E-02  0.1312668E+00
        -11   -1    0    0    0    0  0.00000000000E+00  0.00000000000E+00  0.45593999997E+02  0.45594000000E+02  0.51100000000E-03 0.  1.
         11   -1    0    0    0    0 -0.00000000000E+00 -0.00000000000E+00 -0.45593999997E+02  0.45594000000E+02  0.51100000000E-03 0. -1.
    9900012    2    1    2    0    0  0.63808855428E+01  0.30993960666E+02  0.29703218384E+02  0.47787280186E+02  0.20000041678E+02 0.  0.
         12    1    1    2    0    0 -0.63808855428E+01 -0.30993960666E+02 -0.29703218384E+02  0.43400719814E+02  0.00000000000E+00 0. -1.
         11    1    3    3    0    0  0.35509588126E+00  0.12598853855E+02  0.90311059410E+01  0.15505421192E+02  0.51100000000E-03 0. -1.
        -11    1    3    3    0    0  0.24666100887E+01 -0.25444944304E+01  0.26248709275E+01  0.44100527075E+01  0.51100000000E-03 0.  1.
        -12    1    3    3    0    0  0.35591795729E+01  0.20939601241E+02  0.18047241515E+02  0.27871806287E+02  0.00000000000E+00 0.  1.
</event>
<event>
 7    1  0.2237500E-009  0.4778727E+02  0.7816164E-02  0.1312668E+00
        -11   -1    0    0    0    0  0.00000000000E+00  0.00000000000E+00  0.45593999997E+02  0.45594000000E+02  0.51100000000E-03 0. -1.
         11   -1    0    0    0    0 -0.00000000000E+00 -0.00000000000E+00 -0.45593999997E+02  0.45594000000E+02  0.51100000000E-03 0.  1.
    9900012    2    1    2    0    0 -0.12984460008E+02 -0.15908721230E+02 -0.38235318896E+02  0.47787271620E+02  0.20000002623E+02 0.  0.
         12    1    1    2    0    0  0.12984460008E+02  0.15908721230E+02  0.38235318896E+02  0.43400728380E+02  0.00000000000E+00 0. -1.
         11    1    3    3    0    0 -0.16061095916E+02 -0.90533294228E+01 -0.31310180603E+02  0.36335230635E+02  0.51100000000E-03 0.  1.
        -11    1    3    3    0    0  0.66483740921E+00 -0.44149242082E+01 -0.66501984342E+01  0.80099128597E+01  0.51100000000E-03 0. -1.
        -12    1    3    3    0    0  0.24117984989E+01 -0.24404675993E+01 -0.27493985896E+00  0.34421281249E+01  0.00000000000E+00 0.  1.
</event>
<event>
 7    1  0.2237500E-009  0.4778727E+02  0.7816164E-02  0.1312668E+00
        -11   -1    0    0    0    0  0.00000000000E+00  0.00000000000E+00  0.45593999997E+02  0.45594000000E+02  0.51100000000E-03 0.  1.
         11   -1    0    0    0    0 -0.00000000000E+00 -0.00000000000E+00 -0.45593999997E+02  0.45594000000E+02  0.51100000000E-03 0. -1.
    9900012    2    1    2    0    0 -0.22095792945E+02  0.76722214317E+01  0.36558674587E+02  0.47787265731E+02  0.19999975772E+02 0.  0.
         12    1    1    2    0    0  0.22095792945E+02 -0.76722214317E+01 -0.36558674587E+02  0.43400734269E+02  0.00000000000E+00 0. -1.
         11    1    3    3    0    0 -0.33034147229E+01  0.19399142431E+01  0.27318348709E+01  0.47051820502E+01  0.51100000000E-03 0. -1.
        -11    1    3    3    0    0 -0.22390729368E+02  0.43093050190E+01  0.29297571145E+02  0.37124958540E+02  0.51100000000E-03 0.  1.
         12    1    3    3    0    0  0.35983511458E+01  0.14230021696E+01  0.45292685715E+01  0.59571251402E+01  0.00000000000E+00 0. -1.
</event>
<event>
 7    1  0.2237500E-009  0.4778727E+02  0.7816164E-02  0.1312668E+00
        -11   -1    0    0    0    0  0.00000000000E+00  0.00000000000E+00  0.45593999997E+02  0.45594000000E+02  0.51100000000E-03 0.  1.
         11   -1    0    0    0    0 -0.00000000000E+00 -0.00000000000E+00 -0.45593999997E+02  0.45594000000E+02  0.51100000000E-03 0. -1.
    9900012    2    1    2    0    0 -0.32183300418E+02  0.23508346752E+02  0.17181847450E+02  0.47787273340E+02  0.20000010466E+02 0.  0.
         12    1    1    2    0    0  0.32183300418E+02 -0.23508346752E+02 -0.17181847450E+02  0.43400726660E+02  0.00000000000E+00 0. -1.
         11    1    3    3    0    0 -0.47802128881E+01 -0.57346385658E-02  0.82629351326E+01  0.95460235390E+01  0.51100000000E-03 0. -1.
        -11    1    3    3    0    0 -0.34864009080E+01  0.46607397951E+01  0.47306407600E+01  0.75004299203E+01  0.51100000000E-03 0.  1.
        -12    1    3    3    0    0 -0.23916686622E+02  0.18853341596E+02  0.41882715578E+01  0.30740819881E+02  0.00000000000E+00 0.  1.
</event>
<event>
 7    1  0.2237500E-009  0.4778727E+02  0.7816164E-02  0.1312668E+00
        -11   -1    0    0    0    0  0.00000000000E+00  0.00000000000E+00  0.45593999997E+02  0.45594000000E+02  0.51100000000E-03 0.  1.
         11   -1    0    0    0    0 -0.00000000000E+00 -0.00000000000E+00 -0.45593999997E+02  0.45594000000E+02  0.51100000000E-03 0. -1.
    9900012    2    1    2    0    0  0.14858068191E+02  0.35978515710E+02  0.19193943344E+02  0.47787271387E+02  0.20000001563E+02 0.  0.
         12    1    1    2    0    0 -0.14858068191E+02 -0.35978515710E+02 -0.19193943344E+02  0.43400728613E+02  0.00000000000E+00 0. -1.
         11    1    3    3    0    0  0.37844236372E+01  0.14359478560E+02  0.15610405923E+00  0.14850618018E+02  0.51100000000E-03 0. -1.
        -11    1    3    3    0    0  0.33382400193E+01  0.17278678288E+02  0.15270346943E+02  0.23299786819E+02  0.51100000000E-03 0.  1.
         12    1    3    3    0    0  0.77354045344E+01  0.43403588621E+01  0.37674923412E+01  0.96368665500E+01  0.00000000000E+00 0. -1.
</event>
<event>
 7    1  0.2237500E-009  0.4778727E+02  0.7816164E-02  0.1312668E+00
        -11   -1    0    0    0    0  0.00000000000E+00  0.00000000000E+00  0.45593999997E+02  0.45594000000E+02  0.51100000000E-03 0. -1.
         11   -1    0    0    0    0 -0.00000000000E+00 -0.00000000000E+00 -0.45593999997E+02  0.45594000000E+02  0.51100000000E-03 0.  1.
    9900012    2    1    2    0    0  0.20321580307E+02  0.38000813439E+02 -0.51570194581E+01  0.47787270768E+02  0.19999998739E+02 0.  0.
         12    1    1    2    0    0 -0.20321580307E+02 -0.38000813439E+02  0.51570194581E+01  0.43400729232E+02  0.00000000000E+00 0. -1.
         11    1    3    3    0    0  0.85323536691E+01  0.68901989591E+01  0.36564465973E+01  0.11560514816E+02  0.51100000000E-03 0. -1.
        -11    1    3    3    0    0  0.40440181845E+00  0.53180724744E+01 -0.57893614963E+01  0.78716035513E+01  0.51100000000E-03 0.  1.
        -12    1    3    3    0    0  0.11384824819E+02  0.25792542006E+02 -0.30241045591E+01  0.28355152401E+02  0.00000000000E+00 0.  1.
</event>
<event>
 7    1  0.2237500E-009  0.4778727E+02  0.7816164E-02  0.1312668E+00
        -11   -1    0    0    0    0  0.00000000000E+00  0.00000000000E+00  0.45593999997E+02  0.45594000000E+02  0.51100000000E-03 0. -1.
         11   -1    0    0    0    0 -0.00000000000E+00 -0.00000000000E+00 -0.45593999997E+02  0.45594000000E+02  0.51100000000E-03 0.  1.
    9900012    2    1    2    0    0  0.69691299280E+00  0.37727897419E+02 -0.21441628482E+02  0.47787270014E+02  0.19999995303E+02 0.  0.
         12    1    1    2    0    0 -0.69691299280E+00 -0.37727897419E+02  0.21441628482E+02  0.43400729986E+02  0.00000000000E+00 0. -1.
         11    1    3    3    0    0  0.96116001883E+00  0.25951496857E+02 -0.16403753765E+02  0.30716236025E+02  0.51100000000E-03 0. -1.
        -11    1    3    3    0    0 -0.36851914573E+01  0.12300827342E+02 -0.41965826726E+01  0.13509341056E+02  0.51100000000E-03 0.  1.
         12    1    3    3    0    0  0.34209444312E+01 -0.52442678024E+00 -0.84129204392E+00  0.35616929335E+01  0.00000000000E+00 0. -1.
</event>
<event>
 7    1  0.2237500E-009  0.4778724E+02  0.7816164E-02  0.1312668E+00
        -11   -1    0    0    0    0  0.00000000000E+00  0.00000000000E+00  0.45593999997E+02  0.45594000000E+02  0.51100000000E-03 0.  1.
         11   -1    0    0    0    0 -0.00000000000E+00 -0.00000000000E+00 -0.45593999997E+02  0.45594000000E+02  0.51100000000E-03 0. -1.
    9900012    2    1    2    0    0  0.32648601604E+02  0.62895528640E+01  0.27895087584E+02  0.47787244555E+02  0.19999879223E+02 0.  0.
         12    1    1    2    0    0 -0.32648601604E+02 -0.62895528640E+01 -0.27895087584E+02  0.43400755445E+02  0.00000000000E+00 0. -1.
         11    1    3    3    0    0  0.29132238906E+02  0.25043881742E+01  0.17908342418E+02  0.34288015869E+02  0.51100000000E-03 0. -1.
        -11    1    3    3    0    0  0.57590840948E+01  0.29147930646E+01  0.84932948044E+01  0.10667667276E+02  0.51100000000E-03 0.  1.
        -12    1    3    3    0    0 -0.22427213976E+01  0.87037162528E+00  0.14934503618E+01  0.28315614096E+01  0.00000000000E+00 0.  1.
</event>
<event>
 7    1  0.2237500E-009  0.4778727E+02  0.7816164E-02  0.1312668E+00
        -11   -1    0    0    0    0  0.00000000000E+00  0.00000000000E+00  0.45593999997E+02  0.45594000000E+02  0.51100000000E-03 0.  1.
         11   -1    0    0    0    0 -0.00000000000E+00 -0.00000000000E+00 -0.45593999997E+02  0.45594000000E+02  0.51100000000E-03 0. -1.
    9900012    2    1    2    0    0  0.39299223879E+02 -0.14044671393E+02  0.11913920942E+02  0.47787270695E+02  0.19999998405E+02 0.  0.
         12    1    1    2    0    0 -0.39299223879E+02  0.14044671393E+02 -0.11913920942E+02  0.43400729305E+02  0.00000000000E+00 0. -1.
         11    1    3    3    0    0  0.26335773360E+01 -0.51829322258E+01  0.44352267822E+01  0.73123014785E+01  0.51100000000E-03 0. -1.
        -11    1    3    3    0    0  0.78405753805E+01 -0.75096048575E+01  0.30775515241E+01  0.11284507568E+02  0.51100000000E-03 0.  1.
        -12    1    3    3    0    0  0.28825071162E+02 -0.13521343099E+01  0.44011426361E+01  0.29190461648E+02  0.00000000000E+00 0.  1.
</event>
<event>
 7    1  0.2237500E-009  0.4778727E+02  0.7816164E-02  0.1312668E+00
        -11   -1    0    0    0    0  0.00000000000E+00  0.00000000000E+00  0.45593999997E+02  0.45594000000E+02  0.51100000000E-03 0. -1.
         11   -1    0    0    0    0 -0.00000000000E+00 -0.00000000000E+00 -0.45593999997E+02  0.45594000000E+02  0.51100000000E-03 0.  1.
    9900012    2    1    2    0    0  0.71900129301E+01  0.40230914819E+01 -0.42611519187E+02  0.47787272836E+02  0.20000008167E+02 0.  0.
         12    1    1    2    0    0 -0.71900129301E+01 -0.40230914819E+01  0.42611519187E+02  0.43400727164E+02  0.00000000000E+00 0. -1.
         11    1    3    3    0    0  0.69204684701E+01  0.50754239880E+01 -0.23796428552E+02  0.25296695923E+02  0.51100000000E-03 0. -1.
        -11    1    3    3    0    0  0.54614105004E+01  0.24844744549E+01 -0.10091383410E+02  0.11740342301E+02  0.51100000000E-03 0.  1.
         12    1    3    3    0    0 -0.51918660404E+01 -0.35368069610E+01 -0.87237072249E+01  0.10750234612E+02  0.00000000000E+00 0. -1.
</event>
<event>
 7    1  0.2237500E-009  0.4778727E+02  0.7816164E-02  0.1312668E+00
        -11   -1    0    0    0    0  0.00000000000E+00  0.00000000000E+00  0.45593999997E+02  0.45594000000E+02  0.51100000000E-03 0.  1.
         11   -1    0    0    0    0 -0.00000000000E+00 -0.00000000000E+00 -0.45593999997E+02  0.45594000000E+02  0.51100000000E-03 0. -1.
    9900012    2    1    2    0    0 -0.21848135580E+02  0.22409150276E+01  0.37433417046E+02  0.47787269129E+02  0.19999991265E+02 0.  0.
         12    1    1    2    0    0  0.21848135580E+02 -0.22409150276E+01 -0.37433417046E+02  0.43400730871E+02  0.00000000000E+00 0. -1.
         11    1    3    3    0    0 -0.50144123274E+01  0.34038495926E+01  0.44230540360E+01  0.75029281154E+01  0.51100000000E-03 0. -1.
        -11    1    3    3    0    0 -0.16281860392E+02  0.28304544087E+00  0.14789668611E+02  0.21998031513E+02  0.51100000000E-03 0.  1.
         12    1    3    3    0    0 -0.55186286044E+00 -0.14459800059E+01  0.18220694398E+02  0.18286309500E+02  0.00000000000E+00 0. -1.
</event>
<event>
 7    1  0.2237500E-009  0.4778727E+02  0.7816164E-02  0.1312668E+00
        -11   -1    0    0    0    0  0.00000000000E+00  0.00000000000E+00  0.45593999997E+02  0.45594000000E+02  0.51100000000E-03 0.  1.
         11   -1    0    0    0    0 -0.00000000000E+00 -0.00000000000E+00 -0.45593999997E+02  0.45594000000E+02  0.51100000000E-03 0. -1.
    9900012    2    1    2    0    0  0.42112667342E+02  0.67829219835E+01  0.80086726814E+01  0.47787267064E+02  0.19999981850E+02 0.  0.
         12    1    1    2    0    0 -0.42112667342E+02 -0.67829219835E+01 -0.80086726814E+01  0.43400732936E+02  0.00000000000E+00 0. -1.
         11    1    3    3    0    0  0.28427038743E+01  0.54114194516E+00 -0.14460381790E+01  0.32349384226E+01  0.51100000000E-03 0. -1.
        -11    1    3    3    0    0  0.26133048276E+02  0.12968949820E+01  0.14156096472E+02  0.29749171693E+02  0.51100000000E-03 0.  1.
        -12    1    3    3    0    0  0.13136915191E+02  0.49448850564E+01 -0.47013856121E+01  0.14803156948E+02  0.00000000000E+00 0.  1.
</event>
<event>
 7    1  0.2237500E-009  0.4778727E+02  0.7816164E-02  0.1312668E+00
        -11   -1    0    0    0    0  0.00000000000E+00  0.00000000000E+00  0.45593999997E+02  0.45594000000E+02  0.51100000000E-03 0. -1.
         11   -1    0    0    0    0 -0.00000000000E+00 -0.00000000000E+00 -0.45593999997E+02  0.45594000000E+02  0.51100000000E-03 0.  1.
    9900012    2    1    2    0    0  0.40690366477E+02 -0.93340692215E+01  0.11865604777E+02  0.47787270179E+02  0.19999996054E+02 0.  0.
         12    1    1    2    0    0 -0.40690366477E+02  0.93340692215E+01 -0.11865604777E+02  0.43400729821E+02  0.00000000000E+00 0. -1.
         11    1    3    3    0    0  0.14564938076E+02  0.34845286036E+01  0.21585866853E+01  0.15130725610E+02  0.51100000000E-03 0. -1.
        -11    1    3    3    0    0  0.14620779079E+02 -0.54548349756E+01 -0.48649693723E+00  0.15612785947E+02  0.51100000000E-03 0.  1.
        -12    1    3    3    0    0  0.11504649322E+02 -0.73637628495E+01  0.10193515029E+02  0.17043758622E+02  0.00000000000E+00 0.  1.
</event>
<event>
 7    1  0.2237500E-009  0.4778727E+02  0.7816164E-02  0.1312668E+00
        -11   -1    0    0    0    0  0.00000000000E+00  0.00000000000E+00  0.45593999997E+02  0.45594000000E+02  0.51100000000E-03 0. -1.
         11   -1    0    0    0    0 -0.00000000000E+00 -0.00000000000E+00 -0.45593999997E+02  0.45594000000E+02  0.51100000000E-03 0.  1.
    9900012    2    1    2    0    0  0.13216848442E+01 -0.27730225039E+02 -0.33360322503E+02  0.47787270178E+02  0.19999996050E+02 0.  0.
         12    1    1    2    0    0 -0.13216848442E+01  0.27730225039E+02  0.33360322503E+02  0.43400729822E+02  0.00000000000E+00 0. -1.
         11    1    3    3    0    0  0.38469736629E+01 -0.19080555274E+02 -0.23022613901E+02  0.30148093589E+02  0.51100000000E-03 0. -1.
        -11    1    3    3    0    0  0.40053050044E+01 -0.44705203297E+01 -0.21831488660E+01  0.63870305642E+01  0.51100000000E-03 0.  1.
         12    1    3    3    0    0 -0.65305938230E+01 -0.41791494357E+01 -0.81545597360E+01  0.11252146025E+02  0.00000000000E+00 0. -1.
</event>
<event>
 7    1  0.2237500E-009  0.4778727E+02  0.7816164E-02  0.1312668E+00
        -11   -1    0    0    0    0  0.00000000000E+00  0.00000000000E+00  0.45593999997E+02  0.45594000000E+02  0.51100000000E-03 0.  1.
         11   -1    0    0    0    0 -0.00000000000E+00 -0.00000000000E+00 -0.45593999997E+02  0.45594000000E+02  0.51100000000E-03 0. -1.
    9900012    2    1    2    0    0  0.27944591330E+01  0.34207960484E+02  0.26563694466E+02  0.47787269292E+02  0.19999992009E+02 0.  0.
         12    1    1    2    0    0 -0.27944591330E+01 -0.34207960484E+02 -0.26563694466E+02  0.43400730708E+02  0.00000000000E+00 0. -1.
         11    1    3    3    0    0 -0.57413156686E+01  0.17930512124E+02  0.55966134851E+01  0.19641488065E+02  0.51100000000E-03 0. -1.
        -11    1    3    3    0    0  0.55931715445E+00  0.34547750653E+01  0.55776702075E+01  0.65847332244E+01  0.51100000000E-03 0.  1.
        -12    1    3    3    0    0  0.79764576471E+01  0.12822673294E+02  0.15389410773E+02  0.21561048002E+02  0.00000000000E+00 0.  1.
</event>
<event>
 7    1  0.2237500E-009  0.4778727E+02  0.7816164E-02  0.1312668E+00
        -11   -1    0    0    0    0  0.00000000000E+00  0.00000000000E+00  0.45593999997E+02  0.45594000000E+02  0.51100000000E-03 0.  1.
         11   -1    0    0    0    0 -0.00000000000E+00 -0.00000000000E+00 -0.45593999997E+02  0.45594000000E+02  0.51100000000E-03 0. -1.
    9900012    2    1    2    0    0  0.36115897593E+02  0.26362588161E+01  0.23923110174E+02  0.47787272819E+02  0.20000008090E+02 0.  0.
         12    1    1    2    0    0 -0.36115897593E+02 -0.26362588161E+01 -0.23923110174E+02  0.43400727181E+02  0.00000000000E+00 0. -1.
         11    1    3    3    0    0  0.20633559543E+01  0.35048362241E+00 -0.19160014544E+01  0.28374880437E+01  0.51100000000E-03 0. -1.
        -11    1    3    3    0    0  0.14207439484E+02  0.70765510865E+01  0.77047449613E+01  0.17643469249E+02  0.51100000000E-03 0.  1.
        -12    1    3    3    0    0  0.19845102154E+02 -0.47907758928E+01  0.18134366667E+02  0.27306315526E+02  0.00000000000E+00 0.  1.
</event>
<event>
 7    1  0.2237500E-009  0.4778725E+02  0.7816164E-02  0.1312668E+00
        -11   -1    0    0    0    0  0.00000000000E+00  0.00000000000E+00  0.45593999997E+02  0.45594000000E+02  0.51100000000E-03 0.  1.
         11   -1    0    0    0    0 -0.00000000000E+00 -0.00000000000E+00 -0.45593999997E+02  0.45594000000E+02  0.51100000000E-03 0. -1.
    9900012    2    1    2    0    0  0.35265406610E+01 -0.42148886511E+02  0.97293239869E+01  0.47787252675E+02  0.19999916247E+02 0.  0.
         12    1    1    2    0    0 -0.35265406610E+01  0.42148886511E+02 -0.97293239869E+01  0.43400747325E+02  0.00000000000E+00 0. -1.
         11    1    3    3    0    0 -0.23871719800E+01 -0.19175052455E+02  0.36338784176E+01  0.19661797968E+02  0.51100000000E-03 0. -1.
        -11    1    3    3    0    0  0.66788430900E+00 -0.22131448105E+02  0.50636726142E+01  0.22713164581E+02  0.51100000000E-03 0.  1.
         12    1    3    3    0    0  0.52458283319E+01 -0.84238595035E+00  0.10317729552E+01  0.54122901260E+01  0.00000000000E+00 0. -1.
</event>
<event>
 7    1  0.2237500E-009  0.4778727E+02  0.7816164E-02  0.1312668E+00
        -11   -1    0    0    0    0  0.00000000000E+00  0.00000000000E+00  0.45593999997E+02  0.45594000000E+02  0.51100000000E-03 0.  1.
         11   -1    0    0    0    0 -0.00000000000E+00 -0.00000000000E+00 -0.45593999997E+02  0.45594000000E+02  0.51100000000E-03 0. -1.
    9900012    2    1    2    0    0 -0.34893381341E+02  0.13298594088E+02  0.22118376389E+02  0.47787271432E+02  0.20000001769E+02 0.  0.
         12    1    1    2    0    0  0.34893381341E+02 -0.13298594088E+02 -0.22118376389E+02  0.43400728568E+02  0.00000000000E+00 0. -1.
         11    1    3    3    0    0 -0.29907750760E+01 -0.14919826119E+01  0.25437658519E+01  0.42001776915E+01  0.51100000000E-03 0. -1.
        -11    1    3    3    0    0 -0.19164831170E+02  0.79010052680E+01  0.20166051920E+01  0.20827465876E+02  0.51100000000E-03 0.  1.
         12    1    3    3    0    0 -0.12737775094E+02  0.68895714323E+01  0.17558005345E+02  0.22759627865E+02  0.00000000000E+00 0. -1.
</event>
<event>
 7    1  0.2237500E-009  0.4778727E+02  0.7816164E-02  0.1312668E+00
        -11   -1    0    0    0    0  0.00000000000E+00  0.00000000000E+00  0.45593999997E+02  0.45594000000E+02  0.51100000000E-03 0.  1.
         11   -1    0    0    0    0 -0.00000000000E+00 -0.00000000000E+00 -0.45593999997E+02  0.45594000000E+02  0.51100000000E-03 0. -1.
    9900012    2    1    2    0    0  0.17437345099E+02  0.23255503959E+02  0.32229544150E+02  0.47787274377E+02  0.20000015194E+02 0.  0.
         12    1    1    2    0    0 -0.17437345099E+02 -0.23255503959E+02 -0.32229544150E+02  0.43400725623E+02  0.00000000000E+00 0. -1.
         11    1    3    3    0    0  0.64802338980E+01  0.16076298839E+01  0.92653721173E+01  0.11420377662E+02  0.51100000000E-03 0.  1.
        -11    1    3    3    0    0  0.27878976392E+01 -0.17659241746E+01  0.37555855200E+01  0.49995284074E+01  0.51100000000E-03 0. -1.
         12    1    3    3    0    0  0.81692135619E+01  0.23413798250E+02  0.19208586513E+02  0.31367368307E+02  0.00000000000E+00 0. -1.
</event>
<event>
 7    1  0.2237500E-009  0.4778727E+02  0.7816164E-02  0.1312668E+00
        -11   -1    0    0    0    0  0.00000000000E+00  0.00000000000E+00  0.45593999997E+02  0.45594000000E+02  0.51100000000E-03 0. -1.
         11   -1    0    0    0    0 -0.00000000000E+00 -0.00000000000E+00 -0.45593999997E+02  0.45594000000E+02  0.51100000000E-03 0.  1.
    9900012    2    1    2    0    0  0.40359641664E+02  0.15880378804E+02  0.15924345688E+01  0.47787274729E+02  0.20000016798E+02 0.  0.
         12    1    1    2    0    0 -0.40359641664E+02 -0.15880378804E+02 -0.15924345688E+01  0.43400725271E+02  0.00000000000E+00 0. -1.
         11    1    3    3    0    0  0.17537963789E+02  0.56345959002E+01  0.97975061698E+01  0.20864322952E+02  0.51100000000E-03 0. -1.
        -11    1    3    3    0    0  0.59568408532E+01  0.76746386117E+00 -0.37174187780E+01  0.70634379986E+01  0.51100000000E-03 0.  1.
         12    1    3    3    0    0  0.16864837022E+02  0.94783190421E+01 -0.44876528230E+01  0.19859513778E+02  0.00000000000E+00 0. -1.
</event>
<event>
 7    1  0.2237500E-009  0.4778728E+02  0.7816164E-02  0.1312668E+00
        -11   -1    0    0    0    0  0.00000000000E+00  0.00000000000E+00  0.45593999997E+02  0.45594000000E+02  0.51100000000E-03 0.  1.
         11   -1    0    0    0    0 -0.00000000000E+00 -0.00000000000E+00 -0.45593999997E+02  0.45594000000E+02  0.51100000000E-03 0. -1.
    9900012    2    1    2    0    0  0.15106111036E+02  0.80339337167E+01  0.39885887154E+02  0.47787277936E+02  0.20000031423E+02 0.  0.
         12    1    1    2    0    0 -0.15106111036E+02 -0.80339337167E+01 -0.39885887154E+02  0.43400722064E+02  0.00000000000E+00 0. -1.
         11    1    3    3    0    0  0.23387641560E+01  0.41893652924E+01  0.11574432826E+02  0.12529489010E+02  0.51100000000E-03 0. -1.
        -11    1    3    3    0    0  0.52599303144E+01  0.70404495982E+01  0.40795241680E+01  0.96890306613E+01  0.51100000000E-03 0.  1.
         12    1    3    3    0    0  0.75074165653E+01 -0.31958811739E+01  0.24231930160E+02  0.25568758265E+02  0.00000000000E+00 0. -1.
</event>
<event>
 7    1  0.2237500E-009  0.4778724E+02  0.7816164E-02  0.1312668E+00
        -11   -1    0    0    0    0  0.00000000000E+00  0.00000000000E+00  0.45593999997E+02  0.45594000000E+02  0.51100000000E-03 0.  1.
         11   -1    0    0    0    0 -0.00000000000E+00 -0.00000000000E+00 -0.45593999997E+02  0.45594000000E+02  0.51100000000E-03 0. -1.
    9900012    2    1    2    0    0  0.19885930271E+02  0.15208220738E+02  0.35452590216E+02  0.47787235562E+02  0.19999838223E+02 0.  0.
         12    1    1    2    0    0 -0.19885930271E+02 -0.15208220738E+02 -0.35452590216E+02  0.43400764438E+02  0.00000000000E+00 0. -1.
         11    1    3    3    0    0  0.76367190927E+01  0.13258870835E+02  0.14563204556E+02  0.21123542826E+02  0.51100000000E-03 0. -1.
        -11    1    3    3    0    0  0.73850982111E+01  0.34557120547E+01  0.41144147145E+01  0.91329091803E+01  0.51100000000E-03 0.  1.
        -12    1    3    3    0    0  0.48641129674E+01 -0.15063621515E+01  0.16774970945E+02  0.17530783557E+02  0.00000000000E+00 0.  1.
</event>
<event>
 7    1  0.2237500E-009  0.4778727E+02  0.7816164E-02  0.1312668E+00
        -11   -1    0    0    0    0  0.00000000000E+00  0.00000000000E+00  0.45593999997E+02  0.45594000000E+02  0.51100000000E-03 0.  1.
         11   -1    0    0    0    0 -0.00000000000E+00 -0.00000000000E+00 -0.45593999997E+02  0.45594000000E+02  0.51100000000E-03 0. -1.
    9900012    2    1    2    0    0  0.23757318973E+02  0.36190818291E+02 -0.30721274795E+01  0.47787268432E+02  0.19999988090E+02 0.  0.
         12    1    1    2    0    0 -0.23757318973E+02 -0.36190818291E+02  0.30721274795E+01  0.43400731568E+02  0.00000000000E+00 0. -1.
         11    1    3    3    0    0  0.54013230615E+01  0.97604604188E+01  0.42961759020E+01  0.11953995401E+02  0.51100000000E-03 0. -1.
        -11    1    3    3    0    0  0.55319500488E+01  0.15159686772E+02  0.21601141607E+01  0.16281420940E+02  0.51100000000E-03 0.  1.
        -12    1    3    3    0    0  0.12824045863E+02  0.11270671100E+02 -0.95284175422E+01  0.19551852091E+02  0.00000000000E+00 0.  1.
</event>
<event>
 7    1  0.2237500E-009  0.4778727E+02  0.7816164E-02  0.1312668E+00
        -11   -1    0    0    0    0  0.00000000000E+00  0.00000000000E+00  0.45593999997E+02  0.45594000000E+02  0.51100000000E-03 0.  1.
         11   -1    0    0    0    0 -0.00000000000E+00 -0.00000000000E+00 -0.45593999997E+02  0.45594000000E+02  0.51100000000E-03 0. -1.
    9900012    2    1    2    0    0  0.12967928222E+02  0.41418062168E+02 -0.73331935213E-02  0.47787273164E+02  0.20000009663E+02 0.  0.
         12    1    1    2    0    0 -0.12967928222E+02 -0.41418062168E+02  0.73331935213E-02  0.43400726836E+02  0.00000000000E+00 0. -1.
         11    1    3    3    0    0  0.71052636644E+01  0.59783264342E+01 -0.30850297928E+01  0.97848131192E+01  0.51100000000E-03 0. -1.
        -11    1    3    3    0    0  0.51373189171E+01  0.12268384690E+02  0.60833168347E+01  0.14625732547E+02  0.51100000000E-03 0.  1.
        -12    1    3    3    0    0  0.72534564016E+00  0.23171351044E+02 -0.30056202354E+01  0.23376727498E+02  0.00000000000E+00 0.  1.
</event>
<event>
 7    1  0.2237500E-009  0.4778726E+02  0.7816164E-02  0.1312668E+00
        -11   -1    0    0    0    0  0.00000000000E+00  0.00000000000E+00  0.45593999997E+02  0.45594000000E+02  0.51100000000E-03 0.  1.
         11   -1    0    0    0    0 -0.00000000000E+00 -0.00000000000E+00 -0.45593999997E+02  0.45594000000E+02  0.51100000000E-03 0. -1.
    9900012    2    1    2    0    0  0.81196134012E+01 -0.36381330720E+02 -0.22228236753E+02  0.47787264339E+02  0.19999969427E+02 0.  0.
         12    1    1    2    0    0 -0.81196134012E+01  0.36381330720E+02  0.22228236753E+02  0.43400735661E+02  0.00000000000E+00 0. -1.
         11    1    3    3    0    0 -0.45771762020E+01 -0.15800692818E+02 -0.74919581768E+01  0.18076002685E+02  0.51100000000E-03 0. -1.
        -11    1    3    3    0    0  0.33505275752E+01 -0.13104135749E+02 -0.10080241804E+02  0.16868778374E+02  0.51100000000E-03 0.  1.
        -12    1    3    3    0    0  0.93462620280E+01 -0.74765021538E+01 -0.46560367726E+01  0.12842483279E+02  0.00000000000E+00 0.  1.
</event>
<event>
 7    1  0.2237500E-009  0.4778727E+02  0.7816164E-02  0.1312668E+00
        -11   -1    0    0    0    0  0.00000000000E+00  0.00000000000E+00  0.45593999997E+02  0.45594000000E+02  0.51100000000E-03 0. -1.
         11   -1    0    0    0    0 -0.00000000000E+00 -0.00000000000E+00 -0.45593999997E+02  0.45594000000E+02  0.51100000000E-03 0.  1.
    9900012    2    1    2    0    0 -0.77956623059E+01 -0.28784493006E+02 -0.31532586649E+02  0.47787269486E+02  0.19999992894E+02 0.  0.
         12    1    1    2    0    0  0.77956623059E+01  0.28784493006E+02  0.31532586649E+02  0.43400730514E+02  0.00000000000E+00 0. -1.
         11    1    3    3    0    0  0.49047553849E+01 -0.38200745889E+01 -0.52848303980E+01  0.81595972846E+01  0.51100000000E-03 0.  1.
        -11    1    3    3    0    0 -0.26991569334E+01 -0.15676997496E+02 -0.12254662959E+02  0.20080599173E+02  0.51100000000E-03 0. -1.
        -12    1    3    3    0    0 -0.10001260757E+02 -0.92874209209E+01 -0.13993093291E+02  0.19547073028E+02  0.00000000000E+00 0.  1.
</event>
<event>
 7    1  0.2237500E-009  0.4778727E+02  0.7816164E-02  0.1312668E+00
        -11   -1    0    0    0    0  0.00000000000E+00  0.00000000000E+00  0.45593999997E+02  0.45594000000E+02  0.51100000000E-03 0.  1.
         11   -1    0    0    0    0 -0.00000000000E+00 -0.00000000000E+00 -0.45593999997E+02  0.45594000000E+02  0.51100000000E-03 0. -1.
    9900012    2    1    2    0    0 -0.17520734398E+01 -0.16763809358E+02  0.39994100321E+02  0.47787272748E+02  0.20000007765E+02 0.  0.
         12    1    1    2    0    0  0.17520734398E+01  0.16763809358E+02 -0.39994100321E+02  0.43400727252E+02  0.00000000000E+00 0. -1.
         11    1    3    3    0    0  0.44169853414E+01 -0.43268651834E+01  0.15851382569E+02  0.17014636389E+02  0.51100000000E-03 0. -1.
        -11    1    3    3    0    0  0.32146844252E+01 -0.56154005784E-01  0.22342981060E+01  0.39152825586E+01  0.51100000000E-03 0.  1.
        -12    1    3    3    0    0 -0.93837432065E+01 -0.12380790169E+02  0.21908419646E+02  0.26857353800E+02  0.00000000000E+00 0.  1.
</event>
<event>
 7    1  0.2237500E-009  0.4778727E+02  0.7816164E-02  0.1312668E+00
        -11   -1    0    0    0    0  0.00000000000E+00  0.00000000000E+00  0.45593999997E+02  0.45594000000E+02  0.51100000000E-03 0. -1.
         11   -1    0    0    0    0 -0.00000000000E+00 -0.00000000000E+00 -0.45593999997E+02  0.45594000000E+02  0.51100000000E-03 0.  1.
    9900012    2    1    2    0    0  0.40255837532E+02  0.98130448063E+01 -0.12914901407E+02  0.47787274406E+02  0.20000015326E+02 0.  0.
         12    1    1    2    0    0 -0.40255837532E+02 -0.98130448063E+01  0.12914901407E+02  0.43400725594E+02  0.00000000000E+00 0. -1.
         11    1    3    3    0    0  0.43190318189E+01 -0.24908423710E+01  0.13221280378E+00  0.49875657446E+01  0.51100000000E-03 0. -1.
        -11    1    3    3    0    0  0.20350403018E+02  0.15668966090E+01 -0.12358392287E+02  0.23860509805E+02  0.51100000000E-03 0.  1.
         12    1    3    3    0    0  0.15586402695E+02  0.10736990568E+02 -0.68872192385E+00  0.18939198857E+02  0.00000000000E+00 0. -1.
</event>
<event>
 7    1  0.2237500E-009  0.4778731E+02  0.7816164E-02  0.1312668E+00
        -11   -1    0    0    0    0  0.00000000000E+00  0.00000000000E+00  0.45593999997E+02  0.45594000000E+02  0.51100000000E-03 0.  1.
         11   -1    0    0    0    0 -0.00000000000E+00 -0.00000000000E+00 -0.45593999997E+02  0.45594000000E+02  0.51100000000E-03 0. -1.
    9900012    2    1    2    0    0  0.12898310662E+02  0.13218912909E+02  0.39274854920E+02  0.47787305242E+02  0.20000155922E+02 0.  0.
         12    1    1    2    0    0 -0.12898310662E+02 -0.13218912909E+02 -0.39274854920E+02  0.43400694758E+02  0.00000000000E+00 0. -1.
         11    1    3    3    0    0  0.31522426522E+01  0.16573527796E+01 -0.42307168363E+00  0.35864246660E+01  0.51100000000E-03 0. -1.
        -11    1    3    3    0    0  0.99550063657E+01  0.46368879844E+01  0.32061805313E+02  0.33890444702E+02  0.51100000000E-03 0.  1.
         12    1    3    3    0    0 -0.20893835577E+00  0.69246721447E+01  0.76361212913E+01  0.10310435875E+02  0.00000000000E+00 0. -1.
</event>
<event>
 7    1  0.2237500E-009  0.4778730E+02  0.7816164E-02  0.1312668E+00
        -11   -1    0    0    0    0  0.00000000000E+00  0.00000000000E+00  0.45593999997E+02  0.45594000000E+02  0.51100000000E-03 0. -1.
         11   -1    0    0    0    0 -0.00000000000E+00 -0.00000000000E+00 -0.45593999997E+02  0.45594000000E+02  0.51100000000E-03 0.  1.
    9900012    2    1    2    0    0 -0.15977158532E+02 -0.74230599243E+01 -0.39664211716E+02  0.47787296037E+02  0.20000113953E+02 0.  0.
         12    1    1    2    0    0  0.15977158532E+02  0.74230599243E+01  0.39664211716E+02  0.43400703963E+02  0.00000000000E+00 0. -1.
         11    1    3    3    0    0 -0.59133469805E+00 -0.50295877105E+01 -0.22911339824E+02  0.23464354286E+02  0.51100000000E-03 0.  1.
        -11    1    3    3    0    0 -0.74772795434E+00  0.58562993326E+00  0.82284106697E+00  0.12566332779E+01  0.51100000000E-03 0. -1.
        -12    1    3    3    0    0 -0.14638095880E+02 -0.29791021471E+01 -0.17575712959E+02  0.23066308474E+02  0.00000000000E+00 0.  1.
</event>
<event>
 7    1  0.2237500E-009  0.4778727E+02  0.7816164E-02  0.1312668E+00
        -11   -1    0    0    0    0  0.00000000000E+00  0.00000000000E+00  0.45593999997E+02  0.45594000000E+02  0.51100000000E-03 0.  1.
         11   -1    0    0    0    0 -0.00000000000E+00 -0.00000000000E+00 -0.45593999997E+02  0.45594000000E+02  0.51100000000E-03 0. -1.
    9900012    2    1    2    0    0  0.11017995838E+02  0.10854468512E+02  0.40551294084E+02  0.47787272231E+02  0.20000005411E+02 0.  0.
         12    1    1    2    0    0 -0.11017995838E+02 -0.10854468512E+02 -0.40551294084E+02  0.43400727769E+02  0.00000000000E+00 0. -1.
         11    1    3    3    0    0  0.86386261894E+01  0.31383984691E+01  0.18812544836E+02  0.20937699274E+02  0.51100000000E-03 0. -1.
        -11    1    3    3    0    0  0.73909347092E+01  0.56439187179E+01  0.87274801626E+01  0.12753377773E+02  0.51100000000E-03 0.  1.
         12    1    3    3    0    0 -0.50115650610E+01  0.20721513249E+01  0.13011269085E+02  0.14096195185E+02  0.00000000000E+00 0. -1.
</event>
<event>
 7    1  0.2237500E-009  0.4778727E+02  0.7816164E-02  0.1312668E+00
        -11   -1    0    0    0    0  0.00000000000E+00  0.00000000000E+00  0.45593999997E+02  0.45594000000E+02  0.51100000000E-03 0. -1.
         11   -1    0    0    0    0 -0.00000000000E+00 -0.00000000000E+00 -0.45593999997E+02  0.45594000000E+02  0.51100000000E-03 0.  1.
    9900012    2    1    2    0    0 -0.32725975509E+02 -0.99445150432E+01 -0.26715922132E+02  0.47787270193E+02  0.19999996116E+02 0.  0.
         12    1    1    2    0    0  0.32725975509E+02  0.99445150432E+01  0.26715922132E+02  0.43400729807E+02  0.00000000000E+00 0. -1.
         11    1    3    3    0    0 -0.18347186923E+02  0.46764715177E+00 -0.69780701237E+01  0.19634954157E+02  0.51100000000E-03 0. -1.
        -11    1    3    3    0    0 -0.84616925783E+01 -0.69193451644E+01 -0.52677308244E+01  0.12133695525E+02  0.51100000000E-03 0.  1.
        -12    1    3    3    0    0 -0.59170960073E+01 -0.34928170306E+01 -0.14470121184E+02  0.16018620510E+02  0.00000000000E+00 0.  1.
</event>
<event>
 7    1  0.2237500E-009  0.4778728E+02  0.7816164E-02  0.1312668E+00
        -11   -1    0    0    0    0  0.00000000000E+00  0.00000000000E+00  0.45593999997E+02  0.45594000000E+02  0.51100000000E-03 0. -1.
         11   -1    0    0    0    0 -0.00000000000E+00 -0.00000000000E+00 -0.45593999997E+02  0.45594000000E+02  0.51100000000E-03 0.  1.
    9900012    2    1    2    0    0  0.42797392775E+02 -0.63470197904E+01 -0.34236431525E+01  0.47787276262E+02  0.20000023788E+02 0.  0.
         12    1    1    2    0    0 -0.42797392775E+02  0.63470197904E+01  0.34236431525E+01  0.43400723738E+02  0.00000000000E+00 0. -1.
         11    1    3    3    0    0  0.19054855884E+02 -0.12491321707E+01 -0.10551112055E+02  0.21816824467E+02  0.51100000000E-03 0. -1.
        -11    1    3    3    0    0  0.10266557750E+02  0.45816600013E+00  0.17003003523E+01  0.10416484324E+02  0.51100000000E-03 0.  1.
         12    1    3    3    0    0  0.13475979140E+02 -0.55560536199E+01  0.54271685503E+01  0.15553967471E+02  0.00000000000E+00 0. -1.
</event>
<event>
 7    1  0.2237500E-009  0.4778728E+02  0.7816164E-02  0.1312668E+00
        -11   -1    0    0    0    0  0.00000000000E+00  0.00000000000E+00  0.45593999997E+02  0.45594000000E+02  0.51100000000E-03 0.  1.
         11   -1    0    0    0    0 -0.00000000000E+00 -0.00000000000E+00 -0.45593999997E+02  0.45594000000E+02  0.51100000000E-03 0. -1.
    9900012    2    1    2    0    0  0.11914718942E+02  0.22555403343E+02  0.35112904488E+02  0.47787276400E+02  0.20000024418E+02 0.  0.
         12    1    1    2    0    0 -0.11914718942E+02 -0.22555403343E+02 -0.35112904488E+02  0.43400723600E+02  0.00000000000E+00 0. -1.
         11    1    3    3    0    0  0.49279954606E+00  0.12332940821E+02  0.99355714900E+01  0.15844868626E+02  0.51100000000E-03 0. -1.
        -11    1    3    3    0    0  0.10554256989E+02  0.91924697549E+01  0.11268877062E+02  0.17968901783E+02  0.51100000000E-03 0.  1.
         12    1    3    3    0    0  0.86766240732E+00  0.10299927669E+01  0.13908455936E+02  0.13973505991E+02  0.00000000000E+00 0. -1.
</event>
<event>
 7    1  0.2237500E-009  0.4778727E+02  0.7816164E-02  0.1312668E+00
        -11   -1    0    0    0    0  0.00000000000E+00  0.00000000000E+00  0.45593999997E+02  0.45594000000E+02  0.51100000000E-03 0.  1.
         11   -1    0    0    0    0 -0.00000000000E+00 -0.00000000000E+00 -0.45593999997E+02  0.45594000000E+02  0.51100000000E-03 0. -1.
    9900012    2    1    2    0    0 -0.19709198960E+02 -0.24598695128E+02  0.29834127435E+02  0.47787268607E+02  0.19999988886E+02 0.  0.
         12    1    1    2    0    0  0.19709198960E+02  0.24598695128E+02 -0.29834127435E+02  0.43400731393E+02  0.00000000000E+00 0. -1.
         11    1    3    3    0    0 -0.11314560034E+01 -0.34221483754E+01  0.15402036326E+02  0.15818154615E+02  0.51100000000E-03 0. -1.
        -11    1    3    3    0    0 -0.68665504386E+00 -0.13164664724E+01  0.19952981918E+01  0.24871257020E+01  0.51100000000E-03 0.  1.
         12    1    3    3    0    0 -0.17891087912E+02 -0.19860080281E+02  0.12436792917E+02  0.29481988290E+02  0.00000000000E+00 0. -1.
</event>
<event>
 7    1  0.2237500E-009  0.4778727E+02  0.7816164E-02  0.1312668E+00
        -11   -1    0    0    0    0  0.00000000000E+00  0.00000000000E+00  0.45593999997E+02  0.45594000000E+02  0.51100000000E-03 0.  1.
         11   -1    0    0    0    0 -0.00000000000E+00 -0.00000000000E+00 -0.45593999997E+02  0.45594000000E+02  0.51100000000E-03 0. -1.
    9900012    2    1    2    0    0  0.99338659820E+01 -0.13829111873E+02  0.39921138780E+02  0.47787270167E+02  0.19999996001E+02 0.  0.
         12    1    1    2    0    0 -0.99338659820E+01  0.13829111873E+02 -0.39921138780E+02  0.43400729833E+02  0.00000000000E+00 0. -1.
         11    1    3    3    0    0  0.35378289273E+01 -0.39171248934E+01  0.15743057540E+01  0.55080431932E+01  0.51100000000E-03 0.  1.
        -11    1    3    3    0    0  0.20883290672E+01 -0.23136818124E+01  0.17591329616E+00  0.31217282987E+01  0.51100000000E-03 0. -1.
        -12    1    3    3    0    0  0.43077079875E+01 -0.75983051668E+01  0.38170919730E+02  0.39157498675E+02  0.00000000000E+00 0.  1.
</event>
<event>
 7    1  0.2237500E-009  0.4778727E+02  0.7816164E-02  0.1312668E+00
        -11   -1    0    0    0    0  0.00000000000E+00  0.00000000000E+00  0.45593999997E+02  0.45594000000E+02  0.51100000000E-03 0.  1.
         11   -1    0    0    0    0 -0.00000000000E+00 -0.00000000000E+00 -0.45593999997E+02  0.45594000000E+02  0.51100000000E-03 0. -1.
    9900012    2    1    2    0    0  0.12125460063E+02  0.43792450701E+01  0.41441750408E+02  0.47787271366E+02  0.20000001466E+02 0.  0.
         12    1    1    2    0    0 -0.12125460063E+02 -0.43792450701E+01 -0.41441750408E+02  0.43400728634E+02  0.00000000000E+00 0. -1.
         11    1    3    3    0    0 -0.11605315857E+01 -0.25355791898E+01  0.16465733310E+01  0.32383945690E+01  0.51100000000E-03 0.  1.
        -11    1    3    3    0    0 -0.85170038695E+00 -0.10369790973E+01 -0.23032955984E+00  0.13615326528E+01  0.51100000000E-03 0. -1.
        -12    1    3    3    0    0  0.14137692035E+02  0.79518033572E+01  0.40025506637E+02  0.43187344144E+02  0.00000000000E+00 0.  1.
</event>
<event>
 7    1  0.2237500E-009  0.4778727E+02  0.7816164E-02  0.1312668E+00
        -11   -1    0    0    0    0  0.00000000000E+00  0.00000000000E+00  0.45593999997E+02  0.45594000000E+02  0.51100000000E-03 0. -1.
         11   -1    0    0    0    0 -0.00000000000E+00 -0.00000000000E+00 -0.45593999997E+02  0.45594000000E+02  0.51100000000E-03 0.  1.
    9900012    2    1    2    0    0  0.36943022944E+02  0.10951828206E+02 -0.19972334149E+02  0.47787267096E+02  0.19999981996E+02 0.  0.
         12    1    1    2    0    0 -0.36943022944E+02 -0.10951828206E+02  0.19972334149E+02  0.43400732904E+02  0.00000000000E+00 0. -1.
         11    1    3    3    0    0  0.48109190334E+01  0.38895904205E+01 -0.79580789681E+01  0.10079924440E+02  0.51100000000E-03 0. -1.
        -11    1    3    3    0    0  0.25711311089E+02  0.63518609565E+01 -0.15166284486E+02  0.30519401057E+02  0.51100000000E-03 0.  1.
        -12    1    3    3    0    0  0.64207928213E+01  0.71037682893E+00  0.31520293046E+01  0.71879415990E+01  0.00000000000E+00 0.  1.
</event>
<event>
 7    1  0.2237500E-009  0.4778727E+02  0.7816164E-02  0.1312668E+00
        -11   -1    0    0    0    0  0.00000000000E+00  0.00000000000E+00  0.45593999997E+02  0.45594000000E+02  0.51100000000E-03 0. -1.
         11   -1    0    0    0    0 -0.00000000000E+00 -0.00000000000E+00 -0.45593999997E+02  0.45594000000E+02  0.51100000000E-03 0.  1.
    9900012    2    1    2    0    0 -0.35965702705E+02  0.20375625665E+02  0.13225933912E+02  0.47787271663E+02  0.20000002822E+02 0.  0.
         12    1    1    2    0    0  0.35965702705E+02 -0.20375625665E+02 -0.13225933912E+02  0.43400728337E+02  0.00000000000E+00 0. -1.
         11    1    3    3    0    0 -0.23918148472E+02  0.77699760947E+01  0.11757274834E+01  0.25176034045E+02  0.51100000000E-03 0. -1.
        -11    1    3    3    0    0  0.45427488664E+00 -0.67729847597E+00  0.97578825226E+00  0.12717161132E+01  0.51100000000E-03 0.  1.
        -12    1    3    3    0    0 -0.12501829119E+02  0.13282948047E+02  0.11074418176E+02  0.21339521505E+02  0.00000000000E+00 0.  1.
</event>
<event>
 7    1  0.2237500E-009  0.4778727E+02  0.7816164E-02  0.1312668E+00
        -11   -1    0    0    0    0  0.00000000000E+00  0.00000000000E+00  0.45593999997E+02  0.45594000000E+02  0.51100000000E-03 0.  1.
         11   -1    0    0    0    0 -0.00000000000E+00 -0.00000000000E+00 -0.45593999997E+02  0.45594000000E+02  0.51100000000E-03 0. -1.
    9900012    2    1    2    0    0 -0.80797157493E+00 -0.10728274484E+02  0.42046106903E+02  0.47787265015E+02  0.19999972511E+02 0.  0.
         12    1    1    2    0    0  0.80797157493E+00  0.10728274484E+02 -0.42046106903E+02  0.43400734985E+02  0.00000000000E+00 0. -1.
         11    1    3    3    0    0  0.54143710532E+01 -0.54105651976E+00  0.97130727036E+01  0.11133370454E+02  0.51100000000E-03 0.  1.
        -11    1    3    3    0    0  0.33402385039E+01 -0.57995846165E+01  0.11216648189E+02  0.13061606787E+02  0.51100000000E-03 0. -1.
         12    1    3    3    0    0 -0.95625811321E+01 -0.43876333474E+01  0.21116386011E+02  0.23592287775E+02  0.00000000000E+00 0. -1.
</event>
<event>
 7    1  0.2237500E-009  0.4778725E+02  0.7816164E-02  0.1312668E+00
        -11   -1    0    0    0    0  0.00000000000E+00  0.00000000000E+00  0.45593999997E+02  0.45594000000E+02  0.51100000000E-03 0.  1.
         11   -1    0    0    0    0 -0.00000000000E+00 -0.00000000000E+00 -0.45593999997E+02  0.45594000000E+02  0.51100000000E-03 0. -1.
    9900012    2    1    2    0    0  0.37402937081E+01 -0.30051983285E+02  0.31088797146E+02  0.47787253412E+02  0.19999919608E+02 0.  0.
         12    1    1    2    0    0 -0.37402937081E+01  0.30051983285E+02 -0.31088797146E+02  0.43400746588E+02  0.00000000000E+00 0. -1.
         11    1    3    3    0    0  0.37134094936E+00 -0.11481052365E+02  0.19060276178E+02  0.22254136374E+02  0.51100000000E-03 0.  1.
        -11    1    3    3    0    0  0.61943777201E+01 -0.17142715622E+02  0.12802054618E+02  0.22274101933E+02  0.51100000000E-03 0. -1.
         12    1    3    3    0    0 -0.28254249613E+01 -0.14282152983E+01 -0.77353364966E+00  0.32590151054E+01  0.00000000000E+00 0. -1.
</event>
<event>
 7    1  0.2237500E-009  0.4778727E+02  0.7816164E-02  0.1312668E+00
        -11   -1    0    0    0    0  0.00000000000E+00  0.00000000000E+00  0.45593999997E+02  0.45594000000E+02  0.51100000000E-03 0.  1.
         11   -1    0    0    0    0 -0.00000000000E+00 -0.00000000000E+00 -0.45593999997E+02  0.45594000000E+02  0.51100000000E-03 0. -1.
    9900012    2    1    2    0    0 -0.26938338415E+02  0.19646002012E+02  0.27784597688E+02  0.47787270279E+02  0.19999996512E+02 0.  0.
         12    1    1    2    0    0  0.26938338415E+02 -0.19646002012E+02 -0.27784597688E+02  0.43400729721E+02  0.00000000000E+00 0. -1.
         11    1    3    3    0    0 -0.14219634915E+01 -0.31275813836E+01  0.45246439975E+01  0.56812101745E+01  0.51100000000E-03 0. -1.
        -11    1    3    3    0    0 -0.97913582036E+01  0.10740995997E+02  0.14241592067E+02  0.20348529071E+02  0.51100000000E-03 0.  1.
        -12    1    3    3    0    0 -0.15725016720E+02  0.12032587398E+02  0.90183616235E+01  0.21757531034E+02  0.00000000000E+00 0.  1.
</event>
<event>
 7    1  0.2237500E-009  0.4778727E+02  0.7816164E-02  0.1312668E+00
        -11   -1    0    0    0    0  0.00000000000E+00  0.00000000000E+00  0.45593999997E+02  0.45594000000E+02  0.51100000000E-03 0.  1.
         11   -1    0    0    0    0 -0.00000000000E+00 -0.00000000000E+00 -0.45593999997E+02  0.45594000000E+02  0.51100000000E-03 0. -1.
    9900012    2    1    2    0    0  0.19862723400E+02  0.12812333306E+02  0.36399723352E+02  0.47787268143E+02  0.19999986770E+02 0.  0.
         12    1    1    2    0    0 -0.19862723400E+02 -0.12812333306E+02 -0.36399723352E+02  0.43400731857E+02  0.00000000000E+00 0. -1.
         11    1    3    3    0    0  0.11068400394E+02  0.61383332011E+01  0.11751537782E+02  0.17270994826E+02  0.51100000000E-03 0.  1.
        -11    1    3    3    0    0  0.55745737836E+01  0.87498419198E+01  0.71409290453E+01  0.12594779648E+02  0.51100000000E-03 0. -1.
         12    1    3    3    0    0  0.32197492224E+01 -0.20758418148E+01  0.17507256525E+02  0.17921493669E+02  0.00000000000E+00 0. -1.
</event>
<event>
 7    1  0.2237500E-009  0.4778725E+02  0.7816164E-02  0.1312668E+00
        -11   -1    0    0    0    0  0.00000000000E+00  0.00000000000E+00  0.45593999997E+02  0.45594000000E+02  0.51100000000E-03 0.  1.
         11   -1    0    0    0    0 -0.00000000000E+00 -0.00000000000E+00 -0.45593999997E+02  0.45594000000E+02  0.51100000000E-03 0. -1.
    9900012    2    1    2    0    0 -0.24399196452E+02  0.21421811829E+02  0.28799478619E+02  0.47787253713E+02  0.19999920980E+02 0.  0.
         12    1    1    2    0    0  0.24399196452E+02 -0.21421811829E+02 -0.28799478619E+02  0.43400746287E+02  0.00000000000E+00 0. -1.
         11    1    3    3    0    0  0.49391971609E-01 -0.50650924768E+00 -0.84911085211E+00  0.98993973813E+00  0.51100000000E-03 0. -1.
        -11    1    3    3    0    0 -0.95076317441E+01  0.62547347996E+00  0.12150430464E+02  0.15440830262E+02  0.51100000000E-03 0.  1.
        -12    1    3    3    0    0 -0.14940956679E+02  0.21302847597E+02  0.17498159008E+02  0.31356483713E+02  0.00000000000E+00 0.  1.
</event>
<event>
 7    1  0.2237500E-009  0.4778727E+02  0.7816164E-02  0.1312668E+00
        -11   -1    0    0    0    0  0.00000000000E+00  0.00000000000E+00  0.45593999997E+02  0.45594000000E+02  0.51100000000E-03 0. -1.
         11   -1    0    0    0    0 -0.00000000000E+00 -0.00000000000E+00 -0.45593999997E+02  0.45594000000E+02  0.51100000000E-03 0.  1.
    9900012    2    1    2    0    0  0.33456806590E+02 -0.24038535450E+02 -0.13653354908E+02  0.47787271964E+02  0.20000004194E+02 0.  0.
         12    1    1    2    0    0 -0.33456806590E+02  0.24038535450E+02  0.13653354908E+02  0.43400728036E+02  0.00000000000E+00 0. -1.
         11    1    3    3    0    0  0.11046072445E+02 -0.12494478549E+02 -0.77238719196E+00  0.16695037973E+02  0.51100000000E-03 0.  1.
        -11    1    3    3    0    0  0.83695590499E+01 -0.99197862377E+01 -0.17407961908E+01  0.13095115476E+02  0.51100000000E-03 0. -1.
         12    1    3    3    0    0  0.14041175095E+02 -0.16242706631E+01 -0.11140171525E+02  0.17997118515E+02  0.00000000000E+00 0. -1.
</event>
<event>
 7    1  0.2237500E-009  0.4778727E+02  0.7816164E-02  0.1312668E+00
        -11   -1    0    0    0    0  0.00000000000E+00  0.00000000000E+00  0.45593999997E+02  0.45594000000E+02  0.51100000000E-03 0. -1.
         11   -1    0    0    0    0 -0.00000000000E+00 -0.00000000000E+00 -0.45593999997E+02  0.45594000000E+02  0.51100000000E-03 0.  1.
    9900012    2    1    2    0    0  0.17531474498E+02 -0.28406539528E+02 -0.27736971800E+02  0.47787266243E+02  0.19999978108E+02 0.  0.
         12    1    1    2    0    0 -0.17531474498E+02  0.28406539528E+02  0.27736971800E+02  0.43400733757E+02  0.00000000000E+00 0. -1.
         11    1    3    3    0    0  0.23735724197E+01 -0.90555171498E+01 -0.51140346334E+01  0.10667220227E+02  0.51100000000E-03 0. -1.
        -11    1    3    3    0    0  0.62678554728E+01 -0.19503172458E+02 -0.16779676792E+02  0.26480507957E+02  0.51100000000E-03 0.  1.
        -12    1    3    3    0    0  0.88900466053E+01  0.15215008024E+00 -0.58432603746E+01  0.10639538058E+02  0.00000000000E+00 0.  1.
</event>
<event>
 7    1  0.2237500E-009  0.4778727E+02  0.7816164E-02  0.1312668E+00
        -11   -1    0    0    0    0  0.00000000000E+00  0.00000000000E+00  0.45593999997E+02  0.45594000000E+02  0.51100000000E-03 0. -1.
         11   -1    0    0    0    0 -0.00000000000E+00 -0.00000000000E+00 -0.45593999997E+02  0.45594000000E+02  0.51100000000E-03 0.  1.
    9900012    2    1    2    0    0 -0.39758977747E+01 -0.39907520655E+02 -0.16589314887E+02  0.47787270325E+02  0.19999996719E+02 0.  0.
         12    1    1    2    0    0  0.39758977747E+01  0.39907520655E+02  0.16589314887E+02  0.43400729675E+02  0.00000000000E+00 0. -1.
         11    1    3    3    0    0  0.48439001086E+01 -0.67201244948E+01  0.14532766201E-01  0.82839394584E+01  0.51100000000E-03 0. -1.
        -11    1    3    3    0    0  0.83388983496E+00 -0.14315453531E+02 -0.92590779046E+01  0.17069215154E+02  0.51100000000E-03 0.  1.
        -12    1    3    3    0    0 -0.96536877182E+01 -0.18871942629E+02 -0.73447697483E+01  0.22434115712E+02  0.00000000000E+00 0.  1.
</event>
<event>
 7    1  0.2237500E-009  0.4778727E+02  0.7816164E-02  0.1312668E+00
        -11   -1    0    0    0    0  0.00000000000E+00  0.00000000000E+00  0.45593999997E+02  0.45594000000E+02  0.51100000000E-03 0. -1.
         11   -1    0    0    0    0 -0.00000000000E+00 -0.00000000000E+00 -0.45593999997E+02  0.45594000000E+02  0.51100000000E-03 0.  1.
    9900012    2    1    2    0    0 -0.20490844303E+02 -0.35851568326E+02 -0.13357160784E+02  0.47787269638E+02  0.19999993589E+02 0.  0.
         12    1    1    2    0    0  0.20490844303E+02  0.35851568326E+02  0.13357160784E+02  0.43400730362E+02  0.00000000000E+00 0. -1.
         11    1    3    3    0    0 -0.73003801156E+01 -0.68567009982E+01  0.38353976027E+01  0.10724745845E+02  0.51100000000E-03 0. -1.
        -11    1    3    3    0    0 -0.96807618236E+01 -0.12297407326E+02 -0.98135608007E+01  0.18472935670E+02  0.51100000000E-03 0.  1.
        -12    1    3    3    0    0 -0.35097023638E+01 -0.16697460002E+02 -0.73789975859E+01  0.18589588123E+02  0.00000000000E+00 0.  1.
</event>
<event>
 7    1  0.2237500E-009  0.4778727E+02  0.7816164E-02  0.1312668E+00
        -11   -1    0    0    0    0  0.00000000000E+00  0.00000000000E+00  0.45593999997E+02  0.45594000000E+02  0.51100000000E-03 0.  1.
         11   -1    0    0    0    0 -0.00000000000E+00 -0.00000000000E+00 -0.45593999997E+02  0.45594000000E+02  0.51100000000E-03 0. -1.
    9900012    2    1    2    0    0 -0.24539158011E+00 -0.37730974098E+02  0.21446133651E+02  0.47787271066E+02  0.20000000099E+02 0.  0.
         12    1    1    2    0    0  0.24539158011E+00  0.37730974098E+02 -0.21446133651E+02  0.43400728934E+02  0.00000000000E+00 0. -1.
         11    1    3    3    0    0 -0.37793129205E+01 -0.72425894103E+01  0.41221319618E+01  0.91504251098E+01  0.51100000000E-03 0. -1.
        -11    1    3    3    0    0 -0.61301484633E+01 -0.10053121710E+02  0.76958475984E+01  0.14066628836E+02  0.51100000000E-03 0.  1.
         12    1    3    3    0    0  0.96640698037E+01 -0.20435262978E+02  0.96281540904E+01  0.24570217121E+02  0.00000000000E+00 0. -1.
</event>
<event>
 7    1  0.2237500E-009  0.4778727E+02  0.7816164E-02  0.1312668E+00
        -11   -1    0    0    0    0  0.00000000000E+00  0.00000000000E+00  0.45593999997E+02  0.45594000000E+02  0.51100000000E-03 0.  1.
         11   -1    0    0    0    0 -0.00000000000E+00 -0.00000000000E+00 -0.45593999997E+02  0.45594000000E+02  0.51100000000E-03 0. -1.
    9900012    2    1    2    0    0 -0.36913593972E+02 -0.19462439477E+02  0.11925744217E+02  0.47787270220E+02  0.19999996241E+02 0.  0.
         12    1    1    2    0    0  0.36913593972E+02  0.19462439477E+02 -0.11925744217E+02  0.43400729780E+02  0.00000000000E+00 0. -1.
         11    1    3    3    0    0 -0.11076886977E+02 -0.32900883549E+01 -0.31311543818E+01  0.11971893522E+02  0.51100000000E-03 0. -1.
        -11    1    3    3    0    0 -0.22460196328E+02 -0.10658175860E+02  0.77108816666E+01  0.26029115007E+02  0.51100000000E-03 0.  1.
        -12    1    3    3    0    0 -0.33765106677E+01 -0.55141752621E+01  0.73460169323E+01  0.97862616907E+01  0.00000000000E+00 0.  1.
</event>
<event>
 7    1  0.2237500E-009  0.4778727E+02  0.7816164E-02  0.1312668E+00
        -11   -1    0    0    0    0  0.00000000000E+00  0.00000000000E+00  0.45593999997E+02  0.45594000000E+02  0.51100000000E-03 0. -1.
         11   -1    0    0    0    0 -0.00000000000E+00 -0.00000000000E+00 -0.45593999997E+02  0.45594000000E+02  0.51100000000E-03 0.  1.
    9900012    2    1    2    0    0  0.39330171120E+02 -0.17805316107E+02  0.44420269998E+01  0.47787271367E+02  0.20000001471E+02 0.  0.
         12    1    1    2    0    0 -0.39330171120E+02  0.17805316107E+02 -0.44420269998E+01  0.43400728633E+02  0.00000000000E+00 0. -1.
         11    1    3    3    0    0  0.11743849599E+01 -0.29643483975E+01 -0.27703748576E+01  0.42239221784E+01  0.51100000000E-03 0. -1.
        -11    1    3    3    0    0  0.15328663883E+02 -0.63440356644E+01  0.94690850934E+01  0.19101787815E+02  0.51100000000E-03 0.  1.
         12    1    3    3    0    0  0.22827122277E+02 -0.84969320451E+01 -0.22566832359E+01  0.24461561374E+02  0.00000000000E+00 0. -1.
</event>
<event>
 7    1  0.2237500E-009  0.4778729E+02  0.7816164E-02  0.1312668E+00
        -11   -1    0    0    0    0  0.00000000000E+00  0.00000000000E+00  0.45593999997E+02  0.45594000000E+02  0.51100000000E-03 0.  1.
         11   -1    0    0    0    0 -0.00000000000E+00 -0.00000000000E+00 -0.45593999997E+02  0.45594000000E+02  0.51100000000E-03 0. -1.
    9900012    2    1    2    0    0  0.64876629775E+01  0.24004173419E+02  0.35571499391E+02  0.47787289391E+02  0.20000083648E+02 0.  0.
         12    1    1    2    0    0 -0.64876629775E+01 -0.24004173419E+02 -0.35571499391E+02  0.43400710609E+02  0.00000000000E+00 0. -1.
         11    1    3    3    0    0  0.40446126075E+01  0.26677944543E+01 -0.82515378877E+00  0.49149666765E+01  0.51100000000E-03 0. -1.
        -11    1    3    3    0    0  0.23945760893E+01  0.65990390092E+01  0.66243050964E+01  0.96520841668E+01  0.51100000000E-03 0.  1.
         12    1    3    3    0    0  0.48474280646E-01  0.14737339956E+02  0.29772348084E+02  0.33220238547E+02  0.00000000000E+00 0. -1.
</event>
<event>
 7    1  0.2237500E-009  0.4778727E+02  0.7816164E-02  0.1312668E+00
        -11   -1    0    0    0    0  0.00000000000E+00  0.00000000000E+00  0.45593999997E+02  0.45594000000E+02  0.51100000000E-03 0.  1.
         11   -1    0    0    0    0 -0.00000000000E+00 -0.00000000000E+00 -0.45593999997E+02  0.45594000000E+02  0.51100000000E-03 0. -1.
    9900012    2    1    2    0    0 -0.38697449804E+02 -0.10674365993E+02  0.16498137139E+02  0.47787271437E+02  0.20000001791E+02 0.  0.
         12    1    1    2    0    0  0.38697449804E+02  0.10674365993E+02 -0.16498137139E+02  0.43400728563E+02  0.00000000000E+00 0. -1.
         11    1    3    3    0    0 -0.80368378642E+00 -0.87862639905E+00  0.18146096610E+01  0.21704148130E+01  0.51100000000E-03 0. -1.
        -11    1    3    3    0    0 -0.28456507874E+02 -0.27131890901E+01  0.17458934489E+02  0.33495501626E+02  0.51100000000E-03 0.  1.
         12    1    3    3    0    0 -0.94372581436E+01 -0.70825505042E+01 -0.27754070106E+01  0.12121354998E+02  0.00000000000E+00 0. -1.
</event>
<event>
 7    1  0.2237500E-009  0.4778727E+02  0.7816164E-02  0.1312668E+00
        -11   -1    0    0    0    0  0.00000000000E+00  0.00000000000E+00  0.45593999997E+02  0.45594000000E+02  0.51100000000E-03 0.  1.
         11   -1    0    0    0    0 -0.00000000000E+00 -0.00000000000E+00 -0.45593999997E+02  0.45594000000E+02  0.51100000000E-03 0. -1.
    9900012    2    1    2    0    0 -0.16578610370E+02  0.30759156306E+01  0.39991394516E+02  0.47787271734E+02  0.20000003142E+02 0.  0.
         12    1    1    2    0    0  0.16578610370E+02 -0.30759156306E+01 -0.39991394516E+02  0.43400728266E+02  0.00000000000E+00 0. -1.
         11    1    3    3    0    0 -0.52451282064E-01 -0.58254903092E+00  0.17454603175E+02  0.17464400555E+02  0.51100000000E-03 0. -1.
        -11    1    3    3    0    0 -0.76090084302E+01  0.58549643680E+01  0.17207978294E+02  0.19705129643E+02  0.51100000000E-03 0.  1.
         12    1    3    3    0    0 -0.89171506575E+01 -0.21964997065E+01  0.53288130471E+01  0.10617741535E+02  0.00000000000E+00 0. -1.
</event>
<event>
 7    1  0.2237500E-009  0.4778727E+02  0.7816164E-02  0.1312668E+00
        -11   -1    0    0    0    0  0.00000000000E+00  0.00000000000E+00  0.45593999997E+02  0.45594000000E+02  0.51100000000E-03 0. -1.
         11   -1    0    0    0    0 -0.00000000000E+00 -0.00000000000E+00 -0.45593999997E+02  0.45594000000E+02  0.51100000000E-03 0.  1.
    9900012    2    1    2    0    0  0.32946618160E+02 -0.27812041843E+02  0.49632476602E+01  0.47787272506E+02  0.20000006665E+02 0.  0.
         12    1    1    2    0    0 -0.32946618160E+02  0.27812041843E+02 -0.49632476602E+01  0.43400727494E+02  0.00000000000E+00 0. -1.
         11    1    3    3    0    0 -0.83346540034E+00  0.19404718740E+01  0.28190441724E+00  0.21306257365E+01  0.51100000000E-03 0. -1.
        -11    1    3    3    0    0  0.73037926696E+01 -0.98824600607E+01  0.19335112678E+01  0.12439729511E+02  0.51100000000E-03 0.  1.
         12    1    3    3    0    0  0.26476290891E+02 -0.19870053656E+02  0.27478319751E+01  0.33216917259E+02  0.00000000000E+00 0. -1.
</event>
<event>
 7    1  0.2237500E-009  0.4778727E+02  0.7816164E-02  0.1312668E+00
        -11   -1    0    0    0    0  0.00000000000E+00  0.00000000000E+00  0.45593999997E+02  0.45594000000E+02  0.51100000000E-03 0. -1.
         11   -1    0    0    0    0 -0.00000000000E+00 -0.00000000000E+00 -0.45593999997E+02  0.45594000000E+02  0.51100000000E-03 0.  1.
    9900012    2    1    2    0    0  0.26235954560E+02 -0.34081780125E+02 -0.58077818758E+01  0.47787269839E+02  0.19999994505E+02 0.  0.
         12    1    1    2    0    0 -0.26235954560E+02  0.34081780125E+02  0.58077818758E+01  0.43400730161E+02  0.00000000000E+00 0. -1.
         11    1    3    3    0    0  0.73797259466E-02 -0.76167543158E+01 -0.41749455246E+01  0.86859179804E+01  0.51100000000E-03 0.  1.
        -11    1    3    3    0    0  0.17968850489E+00 -0.22518266326E+01  0.24156312092E+01  0.33073078995E+01  0.51100000000E-03 0. -1.
         12    1    3    3    0    0  0.26048886330E+02 -0.24213199176E+02 -0.40484675604E+01  0.35794043959E+02  0.00000000000E+00 0. -1.
</event>
<event>
 7    1  0.2237500E-009  0.4778728E+02  0.7816164E-02  0.1312668E+00
        -11   -1    0    0    0    0  0.00000000000E+00  0.00000000000E+00  0.45593999997E+02  0.45594000000E+02  0.51100000000E-03 0.  1.
         11   -1    0    0    0    0 -0.00000000000E+00 -0.00000000000E+00 -0.45593999997E+02  0.45594000000E+02  0.51100000000E-03 0. -1.
    9900012    2    1    2    0    0 -0.92989935648E+01  0.14218983359E+02  0.39937098919E+02  0.47787278357E+02  0.20000033342E+02 0.  0.
         12    1    1    2    0    0  0.92989935648E+01 -0.14218983359E+02 -0.39937098919E+02  0.43400721643E+02  0.00000000000E+00 0. -1.
         11    1    3    3    0    0  0.12572790632E+01  0.88867429023E+01  0.73122676266E+01  0.11576882489E+02  0.51100000000E-03 0. -1.
        -11    1    3    3    0    0  0.17613912923E+00  0.35670403460E+01  0.15631718939E+02  0.16034507759E+02  0.51100000000E-03 0.  1.
         12    1    3    3    0    0 -0.10732411757E+02  0.17652001105E+01  0.16993112353E+02  0.20175888109E+02  0.00000000000E+00 0. -1.
</event>
<event>
 7    1  0.2237500E-009  0.4778733E+02  0.7816164E-02  0.1312668E+00
        -11   -1    0    0    0    0  0.00000000000E+00  0.00000000000E+00  0.45593999997E+02  0.45594000000E+02  0.51100000000E-03 0.  1.
         11   -1    0    0    0    0 -0.00000000000E+00 -0.00000000000E+00 -0.45593999997E+02  0.45594000000E+02  0.51100000000E-03 0. -1.
    9900012    2    1    2    0    0  0.73341700151E-01 -0.40412880044E+02  0.15824416659E+02  0.47787327021E+02  0.20000255217E+02 0.  0.
         12    1    1    2    0    0 -0.73341700151E-01  0.40412880044E+02 -0.15824416659E+02  0.43400672979E+02  0.00000000000E+00 0. -1.
         11    1    3    3    0    0  0.36355246328E+01 -0.46933553410E+01  0.55104999788E+01  0.81000144438E+01  0.51100000000E-03 0. -1.
        -11    1    3    3    0    0  0.46779755917E+01 -0.89763997630E+01  0.89862549464E+00  0.10162024227E+02  0.51100000000E-03 0.  1.
         12    1    3    3    0    0 -0.82401585244E+01 -0.26743124940E+02  0.94152911856E+01  0.29525288350E+02  0.00000000000E+00 0. -1.
</event>
<event>
 7    1  0.2237500E-009  0.4778729E+02  0.7816164E-02  0.1312668E+00
        -11   -1    0    0    0    0  0.00000000000E+00  0.00000000000E+00  0.45593999997E+02  0.45594000000E+02  0.51100000000E-03 0. -1.
         11   -1    0    0    0    0 -0.00000000000E+00 -0.00000000000E+00 -0.45593999997E+02  0.45594000000E+02  0.51100000000E-03 0.  1.
    9900012    2    1    2    0    0  0.33177706175E+02  0.19644633428E+02 -0.19923603805E+02  0.47787288046E+02  0.20000077518E+02 0.  0.
         12    1    1    2    0    0 -0.33177706175E+02 -0.19644633428E+02  0.19923603805E+02  0.43400711954E+02  0.00000000000E+00 0. -1.
         11    1    3    3    0    0  0.90661036227E+01  0.86459252878E+00 -0.75765956606E+01  0.11846795229E+02  0.51100000000E-03 0. -1.
        -11    1    3    3    0    0  0.17410562728E+02  0.47480542729E+01 -0.49027814713E+01  0.18700507487E+02  0.51100000000E-03 0.  1.
         12    1    3    3    0    0  0.67010398245E+01  0.14031986626E+02 -0.74442266727E+01  0.17239985330E+02  0.00000000000E+00 0. -1.
</event>
<event>
 7    1  0.2237500E-009  0.4778727E+02  0.7816164E-02  0.1312668E+00
        -11   -1    0    0    0    0  0.00000000000E+00  0.00000000000E+00  0.45593999997E+02  0.45594000000E+02  0.51100000000E-03 0. -1.
         11   -1    0    0    0    0 -0.00000000000E+00 -0.00000000000E+00 -0.45593999997E+02  0.45594000000E+02  0.51100000000E-03 0.  1.
    9900012    2    1    2    0    0 -0.31241533573E+02 -0.12233513931E+02 -0.27530550585E+02  0.47787268455E+02  0.19999988195E+02 0.  0.
         12    1    1    2    0    0  0.31241533573E+02  0.12233513931E+02  0.27530550585E+02  0.43400731545E+02  0.00000000000E+00 0. -1.
         11    1    3    3    0    0 -0.11177086144E+02 -0.16978749403E+01 -0.23906838927E+01  0.11555319283E+02  0.51100000000E-03 0.  1.
        -11    1    3    3    0    0 -0.12690308029E+02 -0.50291500650E+00 -0.78681535204E+01  0.14940036193E+02  0.51100000000E-03 0. -1.
        -12    1    3    3    0    0 -0.73741393999E+01 -0.10032723984E+02 -0.17271713172E+02  0.21291912980E+02  0.00000000000E+00 0.  1.
</event>
<event>
 7    1  0.2237500E-009  0.4778727E+02  0.7816164E-02  0.1312668E+00
        -11   -1    0    0    0    0  0.00000000000E+00  0.00000000000E+00  0.45593999997E+02  0.45594000000E+02  0.51100000000E-03 0.  1.
         11   -1    0    0    0    0 -0.00000000000E+00 -0.00000000000E+00 -0.45593999997E+02  0.45594000000E+02  0.51100000000E-03 0. -1.
    9900012    2    1    2    0    0  0.38531115234E+02 -0.75042537440E+01  0.18511155614E+02  0.47787267891E+02  0.19999985621E+02 0.  0.
         12    1    1    2    0    0 -0.38531115234E+02  0.75042537440E+01 -0.18511155614E+02  0.43400732109E+02  0.00000000000E+00 0. -1.
         11    1    3    3    0    0  0.67208058293E+01 -0.30463861386E+01  0.15157583783E+01  0.75330752832E+01  0.51100000000E-03 0. -1.
        -11    1    3    3    0    0  0.22518881269E+02 -0.68964117200E+01  0.36824565887E+01  0.23837386497E+02  0.51100000000E-03 0.  1.
         12    1    3    3    0    0  0.92914281366E+01  0.24385441146E+01  0.13312940647E+02  0.16416806111E+02  0.00000000000E+00 0. -1.
</event>
<event>
 7    1  0.2237500E-009  0.4778722E+02  0.7816164E-02  0.1312668E+00
        -11   -1    0    0    0    0  0.00000000000E+00  0.00000000000E+00  0.45593999997E+02  0.45594000000E+02  0.51100000000E-03 0.  1.
         11   -1    0    0    0    0 -0.00000000000E+00 -0.00000000000E+00 -0.45593999997E+02  0.45594000000E+02  0.51100000000E-03 0. -1.
    9900012    2    1    2    0    0 -0.32168405015E+02 -0.25155527170E+02  0.14697660641E+02  0.47787215943E+02  0.19999748770E+02 0.  0.
         12    1    1    2    0    0  0.32168405015E+02  0.25155527170E+02 -0.14697660641E+02  0.43400784057E+02  0.00000000000E+00 0. -1.
         11    1    3    3    0    0  0.85408528189E+00 -0.39021596998E+01 -0.45515018412E+00  0.40203823130E+01  0.51100000000E-03 0. -1.
        -11    1    3    3    0    0 -0.75359079494E+01 -0.25742993216E+01  0.81636579790E+01  0.11404483218E+02  0.51100000000E-03 0.  1.
        -12    1    3    3    0    0 -0.25486582348E+02 -0.18679068149E+02  0.69891528463E+01  0.32362350412E+02  0.00000000000E+00 0.  1.
</event>
<event>
 7    1  0.2237500E-009  0.4778729E+02  0.7816164E-02  0.1312668E+00
        -11   -1    0    0    0    0  0.00000000000E+00  0.00000000000E+00  0.45593999997E+02  0.45594000000E+02  0.51100000000E-03 0. -1.
         11   -1    0    0    0    0 -0.00000000000E+00 -0.00000000000E+00 -0.45593999997E+02  0.45594000000E+02  0.51100000000E-03 0.  1.
    9900012    2    1    2    0    0 -0.28711348434E+00  0.20621831159E+02 -0.38187424894E+02  0.47787288318E+02  0.20000078756E+02 0.  0.
         12    1    1    2    0    0  0.28711348434E+00 -0.20621831159E+02  0.38187424894E+02  0.43400711682E+02  0.00000000000E+00 0. -1.
         11    1    3    3    0    0  0.34162919647E+01  0.63480450484E+01 -0.83254374869E+01  0.11012794211E+02  0.51100000000E-03 0. -1.
        -11    1    3    3    0    0  0.51316930522E+01  0.72290334136E+01 -0.70851376408E+01  0.11348672756E+02  0.51100000000E-03 0.  1.
         12    1    3    3    0    0 -0.88350985012E+01  0.70447526970E+01 -0.22776849766E+02  0.25425821351E+02  0.00000000000E+00 0. -1.
</event>
<event>
 7    1  0.2237500E-009  0.4778727E+02  0.7816164E-02  0.1312668E+00
        -11   -1    0    0    0    0  0.00000000000E+00  0.00000000000E+00  0.45593999997E+02  0.45594000000E+02  0.51100000000E-03 0.  1.
         11   -1    0    0    0    0 -0.00000000000E+00 -0.00000000000E+00 -0.45593999997E+02  0.45594000000E+02  0.51100000000E-03 0. -1.
    9900012    2    1    2    0    0  0.96782414823E+01 -0.34820638619E+02 -0.24030771796E+02  0.47787271606E+02  0.20000002561E+02 0.  0.
         12    1    1    2    0    0 -0.96782414823E+01  0.34820638619E+02  0.24030771796E+02  0.43400728394E+02  0.00000000000E+00 0. -1.
         11    1    3    3    0    0 -0.92512988188E+00  0.92601900657E+00 -0.39487027309E+01  0.41600036079E+01  0.51100000000E-03 0. -1.
        -11    1    3    3    0    0  0.37339479243E+01 -0.75988333880E+01 -0.16563923519E+00  0.84682980921E+01  0.51100000000E-03 0.  1.
         12    1    3    3    0    0  0.68694234399E+01 -0.28147824237E+02 -0.19916429830E+02  0.35158969906E+02  0.00000000000E+00 0. -1.
</event>
<event>
 7    1  0.2237500E-009  0.4778727E+02  0.7816164E-02  0.1312668E+00
        -11   -1    0    0    0    0  0.00000000000E+00  0.00000000000E+00  0.45593999997E+02  0.45594000000E+02  0.51100000000E-03 0. -1.
         11   -1    0    0    0    0 -0.00000000000E+00 -0.00000000000E+00 -0.45593999997E+02  0.45594000000E+02  0.51100000000E-03 0.  1.
    9900012    2    1    2    0    0  0.31228949524E+02  0.29791911719E+02  0.45626602094E+01  0.47787272351E+02  0.20000005957E+02 0.  0.
         12    1    1    2    0    0 -0.31228949524E+02 -0.29791911719E+02 -0.45626602094E+01  0.43400727649E+02  0.00000000000E+00 0. -1.
         11    1    3    3    0    0  0.75020860029E+01  0.42246377980E+01  0.59700462776E+01  0.10477132801E+02  0.51100000000E-03 0. -1.
        -11    1    3    3    0    0  0.37337161478E+01 -0.86819757628E+00 -0.16284138440E+01  0.41648691711E+01  0.51100000000E-03 0.  1.
        -12    1    3    3    0    0  0.19993147373E+02  0.26435471498E+02  0.22102777584E+00  0.33145270379E+02  0.00000000000E+00 0.  1.
</event>
<event>
 7    1  0.2237500E-009  0.4778727E+02  0.7816164E-02  0.1312668E+00
        -11   -1    0    0    0    0  0.00000000000E+00  0.00000000000E+00  0.45593999997E+02  0.45594000000E+02  0.51100000000E-03 0.  1.
         11   -1    0    0    0    0 -0.00000000000E+00 -0.00000000000E+00 -0.45593999997E+02  0.45594000000E+02  0.51100000000E-03 0. -1.
    9900012    2    1    2    0    0  0.33850731458E+02 -0.11259200009E+02  0.24718045260E+02  0.47787269977E+02  0.19999995134E+02 0.  0.
         12    1    1    2    0    0 -0.33850731458E+02  0.11259200009E+02 -0.24718045260E+02  0.43400730023E+02  0.00000000000E+00 0. -1.
         11    1    3    3    0    0  0.15515315353E+02 -0.27715808290E+01  0.54681376528E+01  0.16682541786E+02  0.51100000000E-03 0. -1.
        -11    1    3    3    0    0  0.13416682407E+02 -0.11061885296E+02  0.93219321902E+01  0.19729954211E+02  0.51100000000E-03 0.  1.
         12    1    3    3    0    0  0.49187336972E+01  0.25742661168E+01  0.99279754169E+01  0.11374773980E+02  0.00000000000E+00 0. -1.
</event>
<event>
 7    1  0.2237500E-009  0.4778727E+02  0.7816164E-02  0.1312668E+00
        -11   -1    0    0    0    0  0.00000000000E+00  0.00000000000E+00  0.45593999997E+02  0.45594000000E+02  0.51100000000E-03 0.  1.
         11   -1    0    0    0    0 -0.00000000000E+00 -0.00000000000E+00 -0.45593999997E+02  0.45594000000E+02  0.51100000000E-03 0. -1.
    9900012    2    1    2    0    0 -0.21231402709E+02  0.18792215539E+02  0.32858839566E+02  0.47787272316E+02  0.20000005797E+02 0.  0.
         12    1    1    2    0    0  0.21231402709E+02 -0.18792215539E+02 -0.32858839566E+02  0.43400727684E+02  0.00000000000E+00 0. -1.
         11    1    3    3    0    0 -0.13768079961E+01  0.73968324348E+01  0.43846480269E+01  0.87082644027E+01  0.51100000000E-03 0. -1.
        -11    1    3    3    0    0 -0.11676390724E+01  0.75758368076E+01  0.73835437574E+01  0.10642997840E+02  0.51100000000E-03 0.  1.
        -12    1    3    3    0    0 -0.18686955641E+02  0.38195462961E+01  0.21090647782E+02  0.28436010074E+02  0.00000000000E+00 0.  1.
</event>
<event>
 7    1  0.2237500E-009  0.4778727E+02  0.7816164E-02  0.1312668E+00
        -11   -1    0    0    0    0  0.00000000000E+00  0.00000000000E+00  0.45593999997E+02  0.45594000000E+02  0.51100000000E-03 0.  1.
         11   -1    0    0    0    0 -0.00000000000E+00 -0.00000000000E+00 -0.45593999997E+02  0.45594000000E+02  0.51100000000E-03 0. -1.
    9900012    2    1    2    0    0  0.10725427776E+02 -0.12876837256E+02  0.40034679305E+02  0.47787270908E+02  0.19999999378E+02 0.  0.
         12    1    1    2    0    0 -0.10725427776E+02  0.12876837256E+02 -0.40034679305E+02  0.43400729092E+02  0.00000000000E+00 0. -1.
         11    1    3    3    0    0  0.65744410897E+00 -0.13012800782E+02  0.11432705849E+02  0.17334127617E+02  0.51100000000E-03 0. -1.
        -11    1    3    3    0    0  0.18996531771E+01 -0.72876593241E+00  0.84487207943E+01  0.86902626714E+01  0.51100000000E-03 0.  1.
         12    1    3    3    0    0  0.81683304901E+01  0.86472945817E+00  0.20153252662E+02  0.21762880620E+02  0.00000000000E+00 0. -1.
</event>
<event>
 7    1  0.2886339E-009  0.4778727E+02  0.7816164E-02  0.1312668E+00
        -11   -1    0    0    0    0  0.00000000000E+00  0.00000000000E+00  0.45593999997E+02  0.45594000000E+02  0.51100000000E-03 0. -1.
         11   -1    0    0    0    0 -0.00000000000E+00 -0.00000000000E+00 -0.45593999997E+02  0.45594000000E+02  0.51100000000E-03 0.  1.
    9900012    2    1    2    0    0 -0.10007372157E+01  0.29334659601E+02 -0.31970292035E+02  0.47787270724E+02  0.19999998539E+02 0.  0.
         12    1    1    2    0    0  0.10007372157E+01 -0.29334659601E+02  0.31970292035E+02  0.43400729276E+02  0.00000000000E+00 0. -1.
         11    1    3    3    0    0  0.22363951429E+01  0.97334369274E+01 -0.45028386853E+01  0.10955218580E+02  0.51100000000E-03 0. -1.
        -11    1    3    3    0    0  0.26675196477E+01 -0.72911248256E+00 -0.63687360588E+01  0.69432028151E+01  0.51100000000E-03 0.  1.
        -12    1    3    3    0    0 -0.59046520062E+01  0.20330335156E+02 -0.21098717291E+02  0.29888849329E+02  0.00000000000E+00 0.  1.
</event>
<event>
 7    1  0.2237500E-009  0.4778727E+02  0.7816164E-02  0.1312668E+00
        -11   -1    0    0    0    0  0.00000000000E+00  0.00000000000E+00  0.45593999997E+02  0.45594000000E+02  0.51100000000E-03 0.  1.
         11   -1    0    0    0    0 -0.00000000000E+00 -0.00000000000E+00 -0.45593999997E+02  0.45594000000E+02  0.51100000000E-03 0. -1.
    9900012    2    1    2    0    0  0.38248072188E+02  0.13956599282E+02  0.15030684925E+02  0.47787272138E+02  0.20000004985E+02 0.  0.
         12    1    1    2    0    0 -0.38248072188E+02 -0.13956599282E+02 -0.15030684925E+02  0.43400727862E+02  0.00000000000E+00 0. -1.
         11    1    3    3    0    0  0.16876208457E+01  0.91228716824E+00  0.52681188942E+01  0.56065505385E+01  0.51100000000E-03 0. -1.
        -11    1    3    3    0    0  0.18976404322E+02  0.13280752012E+02  0.80098444949E+01  0.24507955934E+02  0.51100000000E-03 0.  1.
         12    1    3    3    0    0  0.17584047021E+02 -0.23643989818E+00  0.17527215364E+01  0.17672765665E+02  0.00000000000E+00 0. -1.
</event>
<event>
 7    1  0.2237500E-009  0.4778728E+02  0.7816164E-02  0.1312668E+00
        -11   -1    0    0    0    0  0.00000000000E+00  0.00000000000E+00  0.45593999997E+02  0.45594000000E+02  0.51100000000E-03 0. -1.
         11   -1    0    0    0    0 -0.00000000000E+00 -0.00000000000E+00 -0.45593999997E+02  0.45594000000E+02  0.51100000000E-03 0.  1.
    9900012    2    1    2    0    0  0.21301096220E+02 -0.19486462016E+02 -0.32406224320E+02  0.47787282532E+02  0.20000052375E+02 0.  0.
         12    1    1    2    0    0 -0.21301096220E+02  0.19486462016E+02  0.32406224320E+02  0.43400717468E+02  0.00000000000E+00 0. -1.
         11    1    3    3    0    0  0.18243233765E+02 -0.10157456401E+02 -0.15657042935E+02  0.26098515139E+02  0.51100000000E-03 0. -1.
        -11    1    3    3    0    0  0.50678722415E+01 -0.10959331424E+01 -0.77754310631E+01  0.93456795893E+01  0.51100000000E-03 0.  1.
        -12    1    3    3    0    0 -0.20100097857E+01 -0.82330724732E+01 -0.89737503216E+01  0.12343087803E+02  0.00000000000E+00 0.  1.
</event>
<event>
 7    1  0.2237500E-009  0.4778725E+02  0.7816164E-02  0.1312668E+00
        -11   -1    0    0    0    0  0.00000000000E+00  0.00000000000E+00  0.45593999997E+02  0.45594000000E+02  0.51100000000E-03 0. -1.
         11   -1    0    0    0    0 -0.00000000000E+00 -0.00000000000E+00 -0.45593999997E+02  0.45594000000E+02  0.51100000000E-03 0.  1.
    9900012    2    1    2    0    0  0.42143118089E+02 -0.61738130470E+01 -0.83346903957E+01  0.47787246161E+02  0.19999886545E+02 0.  0.
         12    1    1    2    0    0 -0.42143118089E+02  0.61738130470E+01  0.83346903957E+01  0.43400753839E+02  0.00000000000E+00 0. -1.
         11    1    3    3    0    0  0.20753337806E+02 -0.44703294650E+01 -0.67346233912E+01  0.22271956090E+02  0.51100000000E-03 0. -1.
        -11    1    3    3    0    0  0.23329725685E+02 -0.85278590032E+00 -0.15431721134E+01  0.23396254503E+02  0.51100000000E-03 0.  1.
         12    1    3    3    0    0 -0.19399454017E+01 -0.85069768173E+00 -0.56894891093E-01  0.21190355674E+01  0.00000000000E+00 0. -1.
</event>
<event>
 7    1  0.2237500E-009  0.4778727E+02  0.7816164E-02  0.1312668E+00
        -11   -1    0    0    0    0  0.00000000000E+00  0.00000000000E+00  0.45593999997E+02  0.45594000000E+02  0.51100000000E-03 0.  1.
         11   -1    0    0    0    0 -0.00000000000E+00 -0.00000000000E+00 -0.45593999997E+02  0.45594000000E+02  0.51100000000E-03 0. -1.
    9900012    2    1    2    0    0 -0.13867275495E+02 -0.14764849192E+02  0.38383867716E+02  0.47787269566E+02  0.19999993261E+02 0.  0.
         12    1    1    2    0    0  0.13867275495E+02  0.14764849192E+02 -0.38383867716E+02  0.43400730434E+02  0.00000000000E+00 0. -1.
         11    1    3    3    0    0 -0.11211711015E+02 -0.51029870083E+01  0.20889225508E+02  0.24250828499E+02  0.51100000000E-03 0.  1.
        -11    1    3    3    0    0  0.56106137086E+00  0.51697941802E+00  0.11030457993E+02  0.11056810633E+02  0.51100000000E-03 0. -1.
        -12    1    3    3    0    0 -0.32166258514E+01 -0.10178841602E+02  0.64641842153E+01  0.12479630435E+02  0.00000000000E+00 0.  1.
</event>
<event>
 7    1  0.2237500E-009  0.4778727E+02  0.7816164E-02  0.1312668E+00
        -11   -1    0    0    0    0  0.00000000000E+00  0.00000000000E+00  0.45593999997E+02  0.45594000000E+02  0.51100000000E-03 0. -1.
         11   -1    0    0    0    0 -0.00000000000E+00 -0.00000000000E+00 -0.45593999997E+02  0.45594000000E+02  0.51100000000E-03 0.  1.
    9900012    2    1    2    0    0 -0.11558805031E+01 -0.19842369493E+02 -0.38581959614E+02  0.47787270807E+02  0.19999998916E+02 0.  0.
         12    1    1    2    0    0  0.11558805031E+01  0.19842369493E+02  0.38581959614E+02  0.43400729193E+02  0.00000000000E+00 0. -1.
         11    1    3    3    0    0 -0.20767472345E+00  0.76101360952E+00 -0.33399765639E+01  0.34318674527E+01  0.51100000000E-03 0. -1.
        -11    1    3    3    0    0 -0.42493680319E+01 -0.12469195380E+02 -0.32641940911E+02  0.35199918591E+02  0.51100000000E-03 0.  1.
         12    1    3    3    0    0  0.33011622522E+01 -0.81341877226E+01 -0.26000421391E+01  0.91554847631E+01  0.00000000000E+00 0. -1.
</event>
<event>
 7    1  0.2237500E-009  0.4778727E+02  0.7816164E-02  0.1312668E+00
        -11   -1    0    0    0    0  0.00000000000E+00  0.00000000000E+00  0.45593999997E+02  0.45594000000E+02  0.51100000000E-03 0.  1.
         11   -1    0    0    0    0 -0.00000000000E+00 -0.00000000000E+00 -0.45593999997E+02  0.45594000000E+02  0.51100000000E-03 0. -1.
    9900012    2    1    2    0    0  0.33619826367E+01  0.43009057673E+02  0.47477796234E+01  0.47787269816E+02  0.19999994397E+02 0.  0.
         12    1    1    2    0    0 -0.33619826367E+01 -0.43009057673E+02 -0.47477796234E+01  0.43400730184E+02  0.00000000000E+00 0. -1.
         11    1    3    3    0    0 -0.36376680736E+01  0.70061072941E+01 -0.51755081080E+00  0.79111331384E+01  0.51100000000E-03 0. -1.
        -11    1    3    3    0    0 -0.45525652362E+01  0.77553399857E+01  0.16694173309E+01  0.91464803618E+01  0.51100000000E-03 0.  1.
         12    1    3    3    0    0  0.11552215946E+02  0.28247610393E+02  0.35959131033E+01  0.30729656315E+02  0.00000000000E+00 0. -1.
</event>
<event>
 7    1  0.2237500E-009  0.4778728E+02  0.7816164E-02  0.1312668E+00
        -11   -1    0    0    0    0  0.00000000000E+00  0.00000000000E+00  0.45593999997E+02  0.45594000000E+02  0.51100000000E-03 0.  1.
         11   -1    0    0    0    0 -0.00000000000E+00 -0.00000000000E+00 -0.45593999997E+02  0.45594000000E+02  0.51100000000E-03 0. -1.
    9900012    2    1    2    0    0 -0.69250473724E+00 -0.56045778446E+01  0.43031749205E+02  0.47787282318E+02  0.20000051401E+02 0.  0.
         12    1    1    2    0    0  0.69250473724E+00  0.56045778446E+01 -0.43031749205E+02  0.43400717682E+02  0.00000000000E+00 0. -1.
         11    1    3    3    0    0 -0.81944882037E+01 -0.36189698531E+01  0.11585541738E+02  0.14644840639E+02  0.51100000000E-03 0. -1.
        -11    1    3    3    0    0  0.54397516351E+01 -0.33288115179E+01  0.12458805893E+02  0.13996204075E+02  0.51100000000E-03 0.  1.
        -12    1    3    3    0    0  0.20622318313E+01  0.13432035264E+01  0.18987401574E+02  0.19146237604E+02  0.00000000000E+00 0.  1.
</event>
<event>
 7    1  0.2237500E-009  0.4778727E+02  0.7816164E-02  0.1312668E+00
        -11   -1    0    0    0    0  0.00000000000E+00  0.00000000000E+00  0.45593999997E+02  0.45594000000E+02  0.51100000000E-03 0. -1.
         11   -1    0    0    0    0 -0.00000000000E+00 -0.00000000000E+00 -0.45593999997E+02  0.45594000000E+02  0.51100000000E-03 0.  1.
    9900012    2    1    2    0    0  0.19985630973E+01  0.29723928334E+02 -0.31561320155E+02  0.47787273048E+02  0.20000009136E+02 0.  0.
         12    1    1    2    0    0 -0.19985630973E+01 -0.29723928334E+02  0.31561320155E+02  0.43400726952E+02  0.00000000000E+00 0. -1.
         11    1    3    3    0    0  0.26399737307E+01 -0.89910633926E+00 -0.14085556338E+00  0.27924351486E+01  0.51100000000E-03 0. -1.
        -11    1    3    3    0    0  0.27799362031E+01  0.87371654501E+01 -0.14349041174E+02  0.17028243840E+02  0.51100000000E-03 0.  1.
        -12    1    3    3    0    0 -0.34213468366E+01  0.21885869223E+02 -0.17071423417E+02  0.27966594060E+02  0.00000000000E+00 0.  1.
</event>
<event>
 7    1  0.2237500E-009  0.4778727E+02  0.7816164E-02  0.1312668E+00
        -11   -1    0    0    0    0  0.00000000000E+00  0.00000000000E+00  0.45593999997E+02  0.45594000000E+02  0.51100000000E-03 0.  1.
         11   -1    0    0    0    0 -0.00000000000E+00 -0.00000000000E+00 -0.45593999997E+02  0.45594000000E+02  0.51100000000E-03 0. -1.
    9900012    2    1    2    0    0 -0.92599103766E+01 -0.32428249022E+02  0.27318231146E+02  0.47787273880E+02  0.20000012927E+02 0.  0.
         12    1    1    2    0    0  0.92599103766E+01  0.32428249022E+02 -0.27318231146E+02  0.43400726120E+02  0.00000000000E+00 0. -1.
         11    1    3    3    0    0  0.33033867184E+01 -0.86140685427E+01  0.77537104998E+00  0.92582796024E+01  0.51100000000E-03 0. -1.
        -11    1    3    3    0    0  0.70241626138E+00 -0.25630358317E+01  0.12758747562E+01  0.29479480887E+01  0.51100000000E-03 0.  1.
        -12    1    3    3    0    0 -0.13265713356E+02 -0.21251144647E+02  0.25266985340E+02  0.35581046188E+02  0.00000000000E+00 0.  1.
</event>
<event>
 7    1  0.2237500E-009  0.4778727E+02  0.7816164E-02  0.1312668E+00
        -11   -1    0    0    0    0  0.00000000000E+00  0.00000000000E+00  0.45593999997E+02  0.45594000000E+02  0.51100000000E-03 0.  1.
         11   -1    0    0    0    0 -0.00000000000E+00 -0.00000000000E+00 -0.45593999997E+02  0.45594000000E+02  0.51100000000E-03 0. -1.
    9900012    2    1    2    0    0  0.54125998992E+01 -0.80459475895E+01  0.42303544172E+02  0.47787270055E+02  0.19999995487E+02 0.  0.
         12    1    1    2    0    0 -0.54125998992E+01  0.80459475895E+01 -0.42303544172E+02  0.43400729945E+02  0.00000000000E+00 0. -1.
         11    1    3    3    0    0  0.85264254302E+00  0.29775448642E+01  0.24823512883E+02  0.25015986185E+02  0.51100000000E-03 0. -1.
        -11    1    3    3    0    0  0.51012504794E+01 -0.22365179707E+01  0.87541178272E+01  0.10375902288E+02  0.51100000000E-03 0.  1.
        -12    1    3    3    0    0 -0.54129312325E+00 -0.87869744829E+01  0.87259134621E+01  0.12395381582E+02  0.00000000000E+00 0.  1.
</event>
<event>
 7    1  0.2237500E-009  0.4778726E+02  0.7816164E-02  0.1312668E+00
        -11   -1    0    0    0    0  0.00000000000E+00  0.00000000000E+00  0.45593999997E+02  0.45594000000E+02  0.51100000000E-03 0.  1.
         11   -1    0    0    0    0 -0.00000000000E+00 -0.00000000000E+00 -0.45593999997E+02  0.45594000000E+02  0.51100000000E-03 0. -1.
    9900012    2    1    2    0    0  0.87870605552E+01 -0.33018220921E+02  0.26762082208E+02  0.47787258185E+02  0.19999941369E+02 0.  0.
         12    1    1    2    0    0 -0.87870605552E+01  0.33018220921E+02 -0.26762082208E+02  0.43400741815E+02  0.00000000000E+00 0. -1.
         11    1    3    3    0    0  0.25124273323E+01 -0.94578739472E+00  0.38403824090E+01  0.46856528046E+01  0.51100000000E-03 0.  1.
        -11    1    3    3    0    0 -0.11831303928E+00  0.17279901653E+01 -0.57095587046E-01  0.17329766743E+01  0.51100000000E-03 0. -1.
         12    1    3    3    0    0  0.63929462622E+01 -0.33800423691E+02  0.22978795386E+02  0.41368628706E+02  0.00000000000E+00 0. -1.
</event>
<event>
 7    1  0.2237500E-009  0.4778727E+02  0.7816164E-02  0.1312668E+00
        -11   -1    0    0    0    0  0.00000000000E+00  0.00000000000E+00  0.45593999997E+02  0.45594000000E+02  0.51100000000E-03 0.  1.
         11   -1    0    0    0    0 -0.00000000000E+00 -0.00000000000E+00 -0.45593999997E+02  0.45594000000E+02  0.51100000000E-03 0. -1.
    9900012    2    1    2    0    0  0.17592542598E+02  0.21448857128E+02  0.33377725059E+02  0.47787267779E+02  0.19999985112E+02 0.  0.
         12    1    1    2    0    0 -0.17592542598E+02 -0.21448857128E+02 -0.33377725059E+02  0.43400732221E+02  0.00000000000E+00 0. -1.
         11    1    3    3    0    0  0.17962420845E+02  0.85629038869E+01  0.15301530863E+02  0.25101966708E+02  0.51100000000E-03 0. -1.
        -11    1    3    3    0    0  0.66158684461E+00 -0.19471737213E-01  0.15970660450E+01  0.17287846930E+01  0.51100000000E-03 0.  1.
        -12    1    3    3    0    0 -0.10314650909E+01  0.12905424978E+02  0.16479128151E+02  0.20956516379E+02  0.00000000000E+00 0.  1.
</event>
<event>
 7    1  0.2237500E-009  0.4778727E+02  0.7816164E-02  0.1312668E+00
        -11   -1    0    0    0    0  0.00000000000E+00  0.00000000000E+00  0.45593999997E+02  0.45594000000E+02  0.51100000000E-03 0.  1.
         11   -1    0    0    0    0 -0.00000000000E+00 -0.00000000000E+00 -0.45593999997E+02  0.45594000000E+02  0.51100000000E-03 0. -1.
    9900012    2    1    2    0    0 -0.27560575954E+02 -0.28878545396E+02  0.17031375419E+02  0.47787268673E+02  0.19999989187E+02 0.  0.
         12    1    1    2    0    0  0.27560575954E+02  0.28878545396E+02 -0.17031375419E+02  0.43400731327E+02  0.00000000000E+00 0. -1.
         11    1    3    3    0    0 -0.61200282210E+01 -0.25986882609E+01  0.90525212799E+01  0.11231921825E+02  0.51100000000E-03 0. -1.
        -11    1    3    3    0    0  0.31756077115E+00 -0.31984789599E+01  0.30938657602E+01  0.44612910803E+01  0.51100000000E-03 0.  1.
         12    1    3    3    0    0 -0.21758108504E+02 -0.23081378175E+02  0.48849883786E+01  0.32094055767E+02  0.00000000000E+00 0. -1.
</event>
<event>
 7    1  0.2237500E-009  0.4778728E+02  0.7816164E-02  0.1312668E+00
        -11   -1    0    0    0    0  0.00000000000E+00  0.00000000000E+00  0.45593999997E+02  0.45594000000E+02  0.51100000000E-03 0.  1.
         11   -1    0    0    0    0 -0.00000000000E+00 -0.00000000000E+00 -0.45593999997E+02  0.45594000000E+02  0.51100000000E-03 0. -1.
    9900012    2    1    2    0    0  0.15653292021E+01  0.24683125076E+02  0.35663922473E+02  0.47787282435E+02  0.20000051934E+02 0.  0.
         12    1    1    2    0    0 -0.15653292021E+01 -0.24683125076E+02 -0.35663922473E+02  0.43400717565E+02  0.00000000000E+00 0. -1.
         11    1    3    3    0    0  0.56722616810E+01  0.92338454700E+01  0.43106169053E+01  0.11662755811E+02  0.51100000000E-03 0.  1.
        -11    1    3    3    0    0  0.23406800045E+01  0.64610047074E+01  0.12586567466E+02  0.14340329339E+02  0.51100000000E-03 0. -1.
         12    1    3    3    0    0 -0.64476124834E+01  0.89882748982E+01  0.18766738102E+02  0.21784197285E+02  0.00000000000E+00 0. -1.
</event>
<event>
 7    1  0.2237500E-009  0.4778727E+02  0.7816164E-02  0.1312668E+00
        -11   -1    0    0    0    0  0.00000000000E+00  0.00000000000E+00  0.45593999997E+02  0.45594000000E+02  0.51100000000E-03 0.  1.
         11   -1    0    0    0    0 -0.00000000000E+00 -0.00000000000E+00 -0.45593999997E+02  0.45594000000E+02  0.51100000000E-03 0. -1.
    9900012    2    1    2    0    0  0.20044493305E+02 -0.18256868801E+01  0.38451377043E+02  0.47787271424E+02  0.20000001731E+02 0.  0.
         12    1    1    2    0    0 -0.20044493305E+02  0.18256868801E+01 -0.38451377043E+02  0.43400728576E+02  0.00000000000E+00 0. -1.
         11    1    3    3    0    0 -0.20288640413E+00 -0.43494990887E+01  0.84949571796E+01  0.95458683712E+01  0.51100000000E-03 0. -1.
        -11    1    3    3    0    0  0.20696703746E+01  0.49217387079E+01  0.53867590405E+01  0.75844723343E+01  0.51100000000E-03 0.  1.
        -12    1    3    3    0    0  0.18177709335E+02 -0.23979264993E+01  0.24569660823E+02  0.30656930719E+02  0.00000000000E+00 0.  1.
</event>
<event>
 7    1  0.2237500E-009  0.4778727E+02  0.7816164E-02  0.1312668E+00
        -11   -1    0    0    0    0  0.00000000000E+00  0.00000000000E+00  0.45593999997E+02  0.45594000000E+02  0.51100000000E-03 0. -1.
         11   -1    0    0    0    0 -0.00000000000E+00 -0.00000000000E+00 -0.45593999997E+02  0.45594000000E+02  0.51100000000E-03 0.  1.
    9900012    2    1    2    0    0  0.38808418837E+02 -0.18874520746E+02  0.46132895187E+01  0.47787270211E+02  0.19999996198E+02 0.  0.
         12    1    1    2    0    0 -0.38808418837E+02  0.18874520746E+02 -0.46132895187E+01  0.43400729789E+02  0.00000000000E+00 0. -1.
         11    1    3    3    0    0  0.14413249852E+00 -0.45439478771E+01 -0.45903247800E+00  0.45693487023E+01  0.51100000000E-03 0. -1.
        -11    1    3    3    0    0  0.15681092956E+02 -0.10781161629E+02  0.59722179476E+01  0.19944861740E+02  0.51100000000E-03 0.  1.
         12    1    3    3    0    0  0.22983193383E+02 -0.35494112403E+01 -0.89989595091E+00  0.23273059768E+02  0.00000000000E+00 0. -1.
</event>
<event>
 7    1  0.2237500E-009  0.4778727E+02  0.7816164E-02  0.1312668E+00
        -11   -1    0    0    0    0  0.00000000000E+00  0.00000000000E+00  0.45593999997E+02  0.45594000000E+02  0.51100000000E-03 0. -1.
         11   -1    0    0    0    0 -0.00000000000E+00 -0.00000000000E+00 -0.45593999997E+02  0.45594000000E+02  0.51100000000E-03 0.  1.
    9900012    2    1    2    0    0  0.19457824923E+01 -0.36576764615E+02 -0.23280416429E+02  0.47787267652E+02  0.19999984534E+02 0.  0.
         12    1    1    2    0    0 -0.19457824923E+01  0.36576764615E+02  0.23280416429E+02  0.43400732348E+02  0.00000000000E+00 0. -1.
         11    1    3    3    0    0  0.21765826958E+01 -0.21377641869E+02 -0.12213084417E+02  0.24716401748E+02  0.51100000000E-03 0. -1.
        -11    1    3    3    0    0 -0.62746623066E+01 -0.11079939595E+02 -0.54593154724E+01  0.13854261950E+02  0.51100000000E-03 0.  1.
         12    1    3    3    0    0  0.60438621031E+01 -0.41191831509E+01 -0.56080165389E+01  0.92166039544E+01  0.00000000000E+00 0. -1.
</event>
<event>
 7    1  0.2237500E-009  0.4778727E+02  0.7816164E-02  0.1312668E+00
        -11   -1    0    0    0    0  0.00000000000E+00  0.00000000000E+00  0.45593999997E+02  0.45594000000E+02  0.51100000000E-03 0.  1.
         11   -1    0    0    0    0 -0.00000000000E+00 -0.00000000000E+00 -0.45593999997E+02  0.45594000000E+02  0.51100000000E-03 0. -1.
    9900012    2    1    2    0    0  0.26091857290E+02 -0.30444720090E+02  0.16611958043E+02  0.47787272492E+02  0.20000006600E+02 0.  0.
         12    1    1    2    0    0 -0.26091857290E+02  0.30444720090E+02 -0.16611958043E+02  0.43400727508E+02  0.00000000000E+00 0. -1.
         11    1    3    3    0    0 -0.15363255454E+01 -0.79810995249E+01  0.59911490739E+01  0.10097133915E+02  0.51100000000E-03 0. -1.
        -11    1    3    3    0    0  0.57104551368E+01 -0.24394353647E+01  0.15451079755E+00  0.62116033852E+01  0.51100000000E-03 0.  1.
        -12    1    3    3    0    0  0.21917727698E+02 -0.20024185201E+02  0.10466298172E+02  0.31478535192E+02  0.00000000000E+00 0.  1.
</event>
<event>
 7    1  0.2237500E-009  0.4778727E+02  0.7816164E-02  0.1312668E+00
        -11   -1    0    0    0    0  0.00000000000E+00  0.00000000000E+00  0.45593999997E+02  0.45594000000E+02  0.51100000000E-03 0. -1.
         11   -1    0    0    0    0 -0.00000000000E+00 -0.00000000000E+00 -0.45593999997E+02  0.45594000000E+02  0.51100000000E-03 0.  1.
    9900012    2    1    2    0    0 -0.42105614480E+02 -0.10071044768E+02 -0.30519515676E+01  0.47787272796E+02  0.20000007985E+02 0.  0.
         12    1    1    2    0    0  0.42105614480E+02  0.10071044768E+02  0.30519515676E+01  0.43400727204E+02  0.00000000000E+00 0. -1.
         11    1    3    3    0    0 -0.73258178052E+01 -0.10232595594E+02 -0.34267657862E+00  0.12589322723E+02  0.51100000000E-03 0. -1.
        -11    1    3    3    0    0 -0.19328409088E+02 -0.21093211066E+01 -0.74379048202E+00  0.19457385691E+02  0.51100000000E-03 0.  1.
         12    1    3    3    0    0 -0.15451387588E+02  0.22708719334E+01 -0.19654845069E+01  0.15740564382E+02  0.00000000000E+00 0. -1.
</event>
<event>
 7    1  0.2237500E-009  0.4778727E+02  0.7816164E-02  0.1312668E+00
        -11   -1    0    0    0    0  0.00000000000E+00  0.00000000000E+00  0.45593999997E+02  0.45594000000E+02  0.51100000000E-03 0.  1.
         11   -1    0    0    0    0 -0.00000000000E+00 -0.00000000000E+00 -0.45593999997E+02  0.45594000000E+02  0.51100000000E-03 0. -1.
    9900012    2    1    2    0    0  0.11902802950E+02 -0.11674569173E+02  0.40070574240E+02  0.47787271856E+02  0.20000003702E+02 0.  0.
         12    1    1    2    0    0 -0.11902802950E+02  0.11674569173E+02 -0.40070574240E+02  0.43400728144E+02  0.00000000000E+00 0. -1.
         11    1    3    3    0    0  0.12355468513E+01 -0.19654608690E-01  0.15179635720E+01  0.19573390081E+01  0.51100000000E-03 0. -1.
        -11    1    3    3    0    0  0.93973242908E+01  0.30728868661E+01  0.17610869586E+02  0.20196412190E+02  0.51100000000E-03 0.  1.
        -12    1    3    3    0    0  0.12699318084E+01 -0.14727801430E+02  0.20941741083E+02  0.25633520658E+02  0.00000000000E+00 0.  1.
</event>
<event>
 7    1  0.2237500E-009  0.4778727E+02  0.7816164E-02  0.1312668E+00
        -11   -1    0    0    0    0  0.00000000000E+00  0.00000000000E+00  0.45593999997E+02  0.45594000000E+02  0.51100000000E-03 0. -1.
         11   -1    0    0    0    0 -0.00000000000E+00 -0.00000000000E+00 -0.45593999997E+02  0.45594000000E+02  0.51100000000E-03 0.  1.
    9900012    2    1    2    0    0  0.29477634929E+02  0.29544259312E+02  0.11909206437E+02  0.47787269393E+02  0.19999992470E+02 0.  0.
         12    1    1    2    0    0 -0.29477634929E+02 -0.29544259312E+02 -0.11909206437E+02  0.43400730607E+02  0.00000000000E+00 0. -1.
         11    1    3    3    0    0  0.10791071578E+02  0.28692722942E+01  0.20586325517E+01  0.11354202638E+02  0.51100000000E-03 0. -1.
        -11    1    3    3    0    0  0.15394924146E+02  0.12520079730E+02  0.92361296481E+01  0.21887489053E+02  0.51100000000E-03 0.  1.
        -12    1    3    3    0    0  0.32916392050E+01  0.14154907287E+02  0.61444423670E+00  0.14545577702E+02  0.00000000000E+00 0.  1.
</event>
<event>
 7    1  0.2237500E-009  0.4778726E+02  0.7816164E-02  0.1312668E+00
        -11   -1    0    0    0    0  0.00000000000E+00  0.00000000000E+00  0.45593999997E+02  0.45594000000E+02  0.51100000000E-03 0.  1.
         11   -1    0    0    0    0 -0.00000000000E+00 -0.00000000000E+00 -0.45593999997E+02  0.45594000000E+02  0.51100000000E-03 0. -1.
    9900012    2    1    2    0    0  0.56961882587E+01  0.41772416205E+02 -0.10307402594E+02  0.47787264240E+02  0.19999968977E+02 0.  0.
         12    1    1    2    0    0 -0.56961882587E+01 -0.41772416205E+02  0.10307402594E+02  0.43400735760E+02  0.00000000000E+00 0. -1.
         11    1    3    3    0    0 -0.15631018673E+01  0.80461090645E+01  0.34320616822E+01  0.88860680943E+01  0.51100000000E-03 0. -1.
        -11    1    3    3    0    0  0.58996327034E+01  0.14836663085E+02 -0.84342260598E+00  0.15988858605E+02  0.51100000000E-03 0.  1.
         12    1    3    3    0    0  0.13596574226E+01  0.18889644055E+02 -0.12896041670E+02  0.22912337541E+02  0.00000000000E+00 0. -1.
</event>
<event>
 7    1  0.2237500E-009  0.4778727E+02  0.7816164E-02  0.1312668E+00
        -11   -1    0    0    0    0  0.00000000000E+00  0.00000000000E+00  0.45593999997E+02  0.45594000000E+02  0.51100000000E-03 0.  1.
         11   -1    0    0    0    0 -0.00000000000E+00 -0.00000000000E+00 -0.45593999997E+02  0.45594000000E+02  0.51100000000E-03 0. -1.
    9900012    2    1    2    0    0 -0.15999156526E+01 -0.42699308536E+02  0.76047824570E+01  0.47787269640E+02  0.19999993598E+02 0.  0.
         12    1    1    2    0    0  0.15999156526E+01  0.42699308536E+02 -0.76047824570E+01  0.43400730360E+02  0.00000000000E+00 0. -1.
         11    1    3    3    0    0  0.14744810512E+01 -0.81139217119E+01 -0.46022829876E+01  0.94440896267E+01  0.51100000000E-03 0. -1.
        -11    1    3    3    0    0 -0.48888632925E+01 -0.85246356414E+01  0.87020092228E+00  0.98654775362E+01  0.51100000000E-03 0.  1.
        -12    1    3    3    0    0  0.18144665887E+01 -0.26060751182E+02  0.11336864522E+02  0.28477702477E+02  0.00000000000E+00 0.  1.
</event>
<event>
 7    1  0.2353812E-009  0.4778727E+02  0.7816164E-02  0.1312668E+00
        -11   -1    0    0    0    0  0.00000000000E+00  0.00000000000E+00  0.45593999997E+02  0.45594000000E+02  0.51100000000E-03 0. -1.
         11   -1    0    0    0    0 -0.00000000000E+00 -0.00000000000E+00 -0.45593999997E+02  0.45594000000E+02  0.51100000000E-03 0.  1.
    9900012    2    1    2    0    0  0.38120866746E+02  0.18206128220E+01 -0.20666592375E+02  0.47787272438E+02  0.20000006356E+02 0.  0.
         12    1    1    2    0    0 -0.38120866746E+02 -0.18206128220E+01  0.20666592375E+02  0.43400727562E+02  0.00000000000E+00 0. -1.
         11    1    3    3    0    0  0.67650905807E+01  0.11352245376E+01  0.22179293114E+01  0.72093270149E+01  0.51100000000E-03 0. -1.
        -11    1    3    3    0    0 -0.19448345112E+00  0.19248235622E+01 -0.13277440218E+01  0.23464172704E+01  0.51100000000E-03 0.  1.
        -12    1    3    3    0    0  0.31550259616E+02 -0.12394352779E+01 -0.21556777664E+02  0.38231528153E+02  0.00000000000E+00 0.  1.
</event>
<event>
 7    1  0.2237500E-009  0.4778727E+02  0.7816164E-02  0.1312668E+00
        -11   -1    0    0    0    0  0.00000000000E+00  0.00000000000E+00  0.45593999997E+02  0.45594000000E+02  0.51100000000E-03 0.  1.
         11   -1    0    0    0    0 -0.00000000000E+00 -0.00000000000E+00 -0.45593999997E+02  0.45594000000E+02  0.51100000000E-03 0. -1.
    9900012    2    1    2    0    0  0.20180383633E+02  0.37501703743E+02  0.83664740401E+01  0.47787267805E+02  0.19999985232E+02 0.  0.
         12    1    1    2    0    0 -0.20180383633E+02 -0.37501703743E+02 -0.83664740401E+01  0.43400732195E+02  0.00000000000E+00 0. -1.
         11    1    3    3    0    0  0.51268770831E+01  0.17921179658E+02  0.26837480846E+00  0.18642037825E+02  0.51100000000E-03 0. -1.
        -11    1    3    3    0    0  0.12048424933E+02  0.58781882659E+01  0.10520492195E+01  0.13447098143E+02  0.51100000000E-03 0.  1.
         12    1    3    3    0    0  0.30050816167E+01  0.13702335819E+02  0.70460500121E+01  0.15698131837E+02  0.00000000000E+00 0. -1.
</event>
<event>
 7    1  0.2237500E-009  0.4778727E+02  0.7816164E-02  0.1312668E+00
        -11   -1    0    0    0    0  0.00000000000E+00  0.00000000000E+00  0.45593999997E+02  0.45594000000E+02  0.51100000000E-03 0.  1.
         11   -1    0    0    0    0 -0.00000000000E+00 -0.00000000000E+00 -0.45593999997E+02  0.45594000000E+02  0.51100000000E-03 0. -1.
    9900012    2    1    2    0    0  0.28511115237E+01  0.26871172615E+02  0.33962255852E+02  0.47787267550E+02  0.19999984069E+02 0.  0.
         12    1    1    2    0    0 -0.28511115237E+01 -0.26871172615E+02 -0.33962255852E+02  0.43400732450E+02  0.00000000000E+00 0. -1.
         11    1    3    3    0    0 -0.24236622727E+01  0.85182774163E+01  0.38455569757E+01  0.96552316216E+01  0.51100000000E-03 0. -1.
        -11    1    3    3    0    0 -0.15157082632E+01  0.15112899998E+02  0.24150757915E+02  0.28529918087E+02  0.51100000000E-03 0.  1.
         12    1    3    3    0    0  0.67904820596E+01  0.32399952008E+01  0.59659409607E+01  0.96021178419E+01  0.00000000000E+00 0. -1.
</event>
<event>
 7    1  0.2237500E-009  0.4778727E+02  0.7816164E-02  0.1312668E+00
        -11   -1    0    0    0    0  0.00000000000E+00  0.00000000000E+00  0.45593999997E+02  0.45594000000E+02  0.51100000000E-03 0.  1.
         11   -1    0    0    0    0 -0.00000000000E+00 -0.00000000000E+00 -0.45593999997E+02  0.45594000000E+02  0.51100000000E-03 0. -1.
    9900012    2    1    2    0    0 -0.25964809120E+02  0.83414235573E+00  0.34767172866E+02  0.47787269417E+02  0.19999992579E+02 0.  0.
         12    1    1    2    0    0  0.25964809120E+02 -0.83414235573E+00 -0.34767172866E+02  0.43400730583E+02  0.00000000000E+00 0. -1.
         11    1    3    3    0    0 -0.12446194102E+02 -0.56136023157E+01  0.11511324188E+02  0.17858635541E+02  0.51100000000E-03 0. -1.
        -11    1    3    3    0    0 -0.93067511622E+01  0.45833482514E+00  0.57403434906E+01  0.10944278490E+02  0.51100000000E-03 0.  1.
        -12    1    3    3    0    0 -0.42118638554E+01  0.59894098463E+01  0.17515505187E+02  0.18984355386E+02  0.00000000000E+00 0.  1.
</event>
<event>
 7    1  0.2237500E-009  0.4778727E+02  0.7816164E-02  0.1312668E+00
        -11   -1    0    0    0    0  0.00000000000E+00  0.00000000000E+00  0.45593999997E+02  0.45594000000E+02  0.51100000000E-03 0. -1.
         11   -1    0    0    0    0 -0.00000000000E+00 -0.00000000000E+00 -0.45593999997E+02  0.45594000000E+02  0.51100000000E-03 0.  1.
    9900012    2    1    2    0    0 -0.38855045467E+02  0.16951026502E+02 -0.93043811233E+01  0.47787269985E+02  0.19999995171E+02 0.  0.
         12    1    1    2    0    0  0.38855045467E+02 -0.16951026502E+02  0.93043811233E+01  0.43400730015E+02  0.00000000000E+00 0. -1.
         11    1    3    3    0    0 -0.32304925517E+01  0.41023680409E+01 -0.17318762773E+01  0.55013545033E+01  0.51100000000E-03 0. -1.
        -11    1    3    3    0    0 -0.22108347629E+02  0.25054402936E+01  0.26895379420E+01  0.22411824570E+02  0.51100000000E-03 0.  1.
        -12    1    3    3    0    0 -0.13516205286E+02  0.10343218167E+02 -0.10262042788E+02  0.19874090912E+02  0.00000000000E+00 0.  1.
</event>
<event>
 7    1  0.2237500E-009  0.4778727E+02  0.7816164E-02  0.1312668E+00
        -11   -1    0    0    0    0  0.00000000000E+00  0.00000000000E+00  0.45593999997E+02  0.45594000000E+02  0.51100000000E-03 0. -1.
         11   -1    0    0    0    0 -0.00000000000E+00 -0.00000000000E+00 -0.45593999997E+02  0.45594000000E+02  0.51100000000E-03 0.  1.
    9900012    2    1    2    0    0 -0.31146051197E+02  0.18516620864E+02 -0.23888947060E+02  0.47787267921E+02  0.19999985758E+02 0.  0.
         12    1    1    2    0    0  0.31146051197E+02 -0.18516620864E+02  0.23888947060E+02  0.43400732079E+02  0.00000000000E+00 0. -1.
         11    1    3    3    0    0 -0.65438572559E+01 -0.65663696713E+00 -0.38306850804E+01  0.76110044237E+01  0.51100000000E-03 0. -1.
        -11    1    3    3    0    0 -0.16503360404E+02  0.65555672569E+01 -0.17564686968E+02  0.24977081399E+02  0.51100000000E-03 0.  1.
         12    1    3    3    0    0 -0.80988335373E+01  0.12617690575E+02 -0.24935750114E+01  0.15199182098E+02  0.00000000000E+00 0. -1.
</event>
<event>
 7    1  0.2237500E-009  0.4778727E+02  0.7816164E-02  0.1312668E+00
        -11   -1    0    0    0    0  0.00000000000E+00  0.00000000000E+00  0.45593999997E+02  0.45594000000E+02  0.51100000000E-03 0. -1.
         11   -1    0    0    0    0 -0.00000000000E+00 -0.00000000000E+00 -0.45593999997E+02  0.45594000000E+02  0.51100000000E-03 0.  1.
    9900012    2    1    2    0    0  0.17371891102E+02  0.15260723691E+02 -0.36728069445E+02  0.47787269900E+02  0.19999994783E+02 0.  0.
         12    1    1    2    0    0 -0.17371891102E+02 -0.15260723691E+02  0.36728069445E+02  0.43400730100E+02  0.00000000000E+00 0. -1.
         11    1    3    3    0    0 -0.33713761314E+00  0.13664853032E+01 -0.82875222074E+01  0.84061863204E+01  0.51100000000E-03 0. -1.
        -11    1    3    3    0    0  0.10786141574E+02  0.97707196407E+01 -0.27698344044E+02  0.31289072779E+02  0.51100000000E-03 0.  1.
         12    1    3    3    0    0  0.69228871411E+01  0.41235187467E+01 -0.74220319442E+00  0.80920108011E+01  0.00000000000E+00 0. -1.
</event>
<event>
 7    1  0.2237500E-009  0.4778727E+02  0.7816164E-02  0.1312668E+00
        -11   -1    0    0    0    0  0.00000000000E+00  0.00000000000E+00  0.45593999997E+02  0.45594000000E+02  0.51100000000E-03 0.  1.
         11   -1    0    0    0    0 -0.00000000000E+00 -0.00000000000E+00 -0.45593999997E+02  0.45594000000E+02  0.51100000000E-03 0. -1.
    9900012    2    1    2    0    0  0.18972589891E+02 -0.20708823057E+01  0.38979172333E+02  0.47787267328E+02  0.19999983055E+02 0.  0.
         12    1    1    2    0    0 -0.18972589891E+02  0.20708823057E+01 -0.38979172333E+02  0.43400732672E+02  0.00000000000E+00 0. -1.
         11    1    3    3    0    0  0.15912249602E+02 -0.28814343813E+01  0.16807858744E+02  0.23323946221E+02  0.51100000000E-03 0. -1.
        -11    1    3    3    0    0  0.31100154725E+01  0.11857165114E+01  0.12760130659E+01  0.35645938745E+01  0.51100000000E-03 0.  1.
        -12    1    3    3    0    0 -0.49675184094E-01 -0.37516443580E+00  0.20895300523E+02  0.20898727233E+02  0.00000000000E+00 0.  1.
</event>
<event>
 7    1  0.2237500E-009  0.4778726E+02  0.7816164E-02  0.1312668E+00
        -11   -1    0    0    0    0  0.00000000000E+00  0.00000000000E+00  0.45593999997E+02  0.45594000000E+02  0.51100000000E-03 0. -1.
         11   -1    0    0    0    0 -0.00000000000E+00 -0.00000000000E+00 -0.45593999997E+02  0.45594000000E+02  0.51100000000E-03 0.  1.
    9900012    2    1    2    0    0  0.31575464621E+02 -0.28183451255E+02 -0.96076556868E+01  0.47787263388E+02  0.19999965091E+02 0.  0.
         12    1    1    2    0    0 -0.31575464621E+02  0.28183451255E+02  0.96076556868E+01  0.43400736612E+02  0.00000000000E+00 0. -1.
         11    1    3    3    0    0  0.15755279424E+02 -0.88258445608E+01 -0.97851460951E+01  0.20539558085E+02  0.51100000000E-03 0. -1.
        -11    1    3    3    0    0  0.68383544549E+01 -0.75938851562E+01 -0.52431391201E+01  0.11485673315E+02  0.51100000000E-03 0.  1.
         12    1    3    3    0    0  0.89818307415E+01 -0.11763721538E+02  0.54206295284E+01  0.15762031988E+02  0.00000000000E+00 0. -1.
</event>
<event>
 7    1  0.2237500E-009  0.4778733E+02  0.7816164E-02  0.1312667E+00
        -11   -1    0    0    0    0  0.00000000000E+00  0.00000000000E+00  0.45593999997E+02  0.45594000000E+02  0.51100000000E-03 0.  1.
         11   -1    0    0    0    0 -0.00000000000E+00 -0.00000000000E+00 -0.45593999997E+02  0.45594000000E+02  0.51100000000E-03 0. -1.
    9900012    2    1    2    0    0  0.28765468152E+02 -0.22847766214E+02  0.23111590809E+02  0.47787329398E+02  0.20000266054E+02 0.  0.
         12    1    1    2    0    0 -0.28765468152E+02  0.22847766214E+02 -0.23111590809E+02  0.43400670602E+02  0.00000000000E+00 0. -1.
         11    1    3    3    0    0  0.80213017885E-01 -0.14332998284E+01  0.55584149094E+00  0.15393968139E+01  0.51100000000E-03 0. -1.
        -11    1    3    3    0    0  0.27105991344E+01 -0.12342100038E+02  0.48795243166E+01  0.13545646490E+02  0.51100000000E-03 0.  1.
         12    1    3    3    0    0  0.25974656000E+02 -0.90723663481E+01  0.17676225002E+02  0.32702286094E+02  0.00000000000E+00 0. -1.
</event>
<event>
 7    1  0.2237500E-009  0.4778727E+02  0.7816164E-02  0.1312668E+00
        -11   -1    0    0    0    0  0.00000000000E+00  0.00000000000E+00  0.45593999997E+02  0.45594000000E+02  0.51100000000E-03 0.  1.
         11   -1    0    0    0    0 -0.00000000000E+00 -0.00000000000E+00 -0.45593999997E+02  0.45594000000E+02  0.51100000000E-03 0. -1.
    9900012    2    1    2    0    0  0.17363772203E+01 -0.40421978245E+02  0.15705791908E+02  0.47787271544E+02  0.20000002276E+02 0.  0.
         12    1    1    2    0    0 -0.17363772203E+01  0.40421978245E+02 -0.15705791908E+02  0.43400728456E+02  0.00000000000E+00 0. -1.
         11    1    3    3    0    0 -0.52384558258E+01 -0.14195778498E+02  0.32588659463E+01  0.15478428671E+02  0.51100000000E-03 0. -1.
        -11    1    3    3    0    0  0.11889985596E+01 -0.23296275424E+02  0.95485168903E+01  0.25205244321E+02  0.51100000000E-03 0.  1.
        -12    1    3    3    0    0  0.57858344866E+01 -0.29299243235E+01  0.28984090712E+01  0.71035985522E+01  0.00000000000E+00 0.  1.
</event>
<event>
 7    1  0.2237500E-009  0.4778725E+02  0.7816164E-02  0.1312668E+00
        -11   -1    0    0    0    0  0.00000000000E+00  0.00000000000E+00  0.45593999997E+02  0.45594000000E+02  0.51100000000E-03 0.  1.
         11   -1    0    0    0    0 -0.00000000000E+00 -0.00000000000E+00 -0.45593999997E+02  0.45594000000E+02  0.51100000000E-03 0. -1.
    9900012    2    1    2    0    0  0.23111702893E+02 -0.34635226074E+02 -0.12242359062E+02  0.47787250569E+02  0.19999906644E+02 0.  0.
         12    1    1    2    0    0 -0.23111702893E+02  0.34635226074E+02  0.12242359062E+02  0.43400749431E+02  0.00000000000E+00 0. -1.
         11    1    3    3    0    0  0.10812436948E+02 -0.88730462044E+01  0.31523734536E+01  0.14337963605E+02  0.51100000000E-03 0. -1.
        -11    1    3    3    0    0  0.44600854737E+01 -0.30486377352E+01 -0.46500503475E+01  0.71280798936E+01  0.51100000000E-03 0.  1.
        -12    1    3    3    0    0  0.78391804716E+01 -0.22713542134E+02 -0.10744682168E+02  0.26321207070E+02  0.00000000000E+00 0.  1.
</event>
<event>
 7    1  0.2237500E-009  0.4778727E+02  0.7816164E-02  0.1312668E+00
        -11   -1    0    0    0    0  0.00000000000E+00  0.00000000000E+00  0.45593999997E+02  0.45594000000E+02  0.51100000000E-03 0.  1.
         11   -1    0    0    0    0 -0.00000000000E+00 -0.00000000000E+00 -0.45593999997E+02  0.45594000000E+02  0.51100000000E-03 0. -1.
    9900012    2    1    2    0    0 -0.27035825931E+02  0.32843116738E+02  0.86033247434E+01  0.47787269620E+02  0.19999993506E+02 0.  0.
         12    1    1    2    0    0  0.27035825931E+02 -0.32843116738E+02 -0.86033247434E+01  0.43400730380E+02  0.00000000000E+00 0. -1.
         11    1    3    3    0    0 -0.21706063613E+02  0.16149552017E+02 -0.10716867198E+01  0.27075999346E+02  0.51100000000E-03 0. -1.
        -11    1    3    3    0    0  0.88010724807E-01  0.46592455056E+01  0.46675018700E+01  0.65955961472E+01  0.51100000000E-03 0.  1.
        -12    1    3    3    0    0 -0.54177730436E+01  0.12034319216E+02  0.50075095933E+01  0.14115674127E+02  0.00000000000E+00 0.  1.
</event>
<event>
 7    1  0.2237500E-009  0.4778727E+02  0.7816164E-02  0.1312668E+00
        -11   -1    0    0    0    0  0.00000000000E+00  0.00000000000E+00  0.45593999997E+02  0.45594000000E+02  0.51100000000E-03 0. -1.
         11   -1    0    0    0    0 -0.00000000000E+00 -0.00000000000E+00 -0.45593999997E+02  0.45594000000E+02  0.51100000000E-03 0.  1.
    9900012    2    1    2    0    0 -0.27956249014E+02  0.12390253042E+01 -0.33174331085E+02  0.47787270910E+02  0.19999999386E+02 0.  0.
         12    1    1    2    0    0  0.27956249014E+02 -0.12390253042E+01  0.33174331085E+02  0.43400729090E+02  0.00000000000E+00 0. -1.
         11    1    3    3    0    0 -0.77835418204E+01 -0.13345651348E+01 -0.12685255093E+02  0.14942566192E+02  0.51100000000E-03 0. -1.
        -11    1    3    3    0    0 -0.21188931386E+02 -0.15786218732E+01 -0.15657736720E+02  0.26393703411E+02  0.51100000000E-03 0.  1.
         12    1    3    3    0    0  0.10162241929E+01  0.41522123122E+01 -0.48313392725E+01  0.64510013069E+01  0.00000000000E+00 0. -1.
</event>
<event>
 7    1  0.2237500E-009  0.4778727E+02  0.7816164E-02  0.1312668E+00
        -11   -1    0    0    0    0  0.00000000000E+00  0.00000000000E+00  0.45593999997E+02  0.45594000000E+02  0.51100000000E-03 0.  1.
         11   -1    0    0    0    0 -0.00000000000E+00 -0.00000000000E+00 -0.45593999997E+02  0.45594000000E+02  0.51100000000E-03 0. -1.
    9900012    2    1    2    0    0  0.13926977511E+02 -0.28780514823E+02  0.29348674174E+02  0.47787269455E+02  0.19999992752E+02 0.  0.
         12    1    1    2    0    0 -0.13926977511E+02  0.28780514823E+02 -0.29348674174E+02  0.43400730545E+02  0.00000000000E+00 0. -1.
         11    1    3    3    0    0  0.13744188125E+01 -0.38707626841E+00 -0.70130397065E+00  0.15908119405E+01  0.51100000000E-03 0. -1.
        -11    1    3    3    0    0  0.10743818503E+02 -0.14505251695E+02  0.25936157213E+02  0.31599307176E+02  0.51100000000E-03 0.  1.
         12    1    3    3    0    0  0.18087401949E+01 -0.13888186859E+02  0.41138209319E+01  0.14597150338E+02  0.00000000000E+00 0. -1.
</event>
<event>
 7    1  0.2237500E-009  0.4778727E+02  0.7816164E-02  0.1312668E+00
        -11   -1    0    0    0    0  0.00000000000E+00  0.00000000000E+00  0.45593999997E+02  0.45594000000E+02  0.51100000000E-03 0.  1.
         11   -1    0    0    0    0 -0.00000000000E+00 -0.00000000000E+00 -0.45593999997E+02  0.45594000000E+02  0.51100000000E-03 0. -1.
    9900012    2    1    2    0    0  0.56557547640E+01  0.17380626914E+02  0.39364316205E+02  0.47787272539E+02  0.20000006812E+02 0.  0.
         12    1    1    2    0    0 -0.56557547640E+01 -0.17380626914E+02 -0.39364316205E+02  0.43400727461E+02  0.00000000000E+00 0. -1.
         11    1    3    3    0    0 -0.49125489026E+00 -0.33597213753E+00 -0.21487711244E+00  0.63275672970E+00  0.51100000000E-03 0. -1.
        -11    1    3    3    0    0 -0.25389625377E+00 -0.31217961188E+01  0.20183444882E+01  0.37260956844E+01  0.51100000000E-03 0.  1.
         12    1    3    3    0    0  0.64009059081E+01  0.20838395171E+02  0.37560848829E+02  0.43428420124E+02  0.00000000000E+00 0. -1.
</event>
<event>
 7    1  0.2237500E-009  0.4778727E+02  0.7816164E-02  0.1312668E+00
        -11   -1    0    0    0    0  0.00000000000E+00  0.00000000000E+00  0.45593999997E+02  0.45594000000E+02  0.51100000000E-03 0. -1.
         11   -1    0    0    0    0 -0.00000000000E+00 -0.00000000000E+00 -0.45593999997E+02  0.45594000000E+02  0.51100000000E-03 0.  1.
    9900012    2    1    2    0    0 -0.43336676424E+02  0.62856093717E+00 -0.22716361006E+01  0.47787274857E+02  0.20000017385E+02 0.  0.
         12    1    1    2    0    0  0.43336676424E+02 -0.62856093717E+00  0.22716361006E+01  0.43400725143E+02  0.00000000000E+00 0. -1.
         11    1    3    3    0    0 -0.19000794143E+02  0.66487896586E+01 -0.64764951330E+00  0.20140904452E+02  0.51100000000E-03 0. -1.
        -11    1    3    3    0    0 -0.19468998063E+02 -0.26318555864E+00 -0.37175362069E+01  0.19822492980E+02  0.51100000000E-03 0.  1.
         12    1    3    3    0    0 -0.48668842183E+01 -0.57570431628E+01  0.20935496196E+01  0.78238774263E+01  0.00000000000E+00 0. -1.
</event>
<event>
 7    1  0.2237500E-009  0.4778727E+02  0.7816164E-02  0.1312668E+00
        -11   -1    0    0    0    0  0.00000000000E+00  0.00000000000E+00  0.45593999997E+02  0.45594000000E+02  0.51100000000E-03 0.  1.
         11   -1    0    0    0    0 -0.00000000000E+00 -0.00000000000E+00 -0.45593999997E+02  0.45594000000E+02  0.51100000000E-03 0. -1.
    9900012    2    1    2    0    0 -0.26523267018E+02 -0.29536988865E+02  0.17541555389E+02  0.47787267633E+02  0.19999984446E+02 0.  0.
         12    1    1    2    0    0  0.26523267018E+02  0.29536988865E+02 -0.17541555389E+02  0.43400732367E+02  0.00000000000E+00 0. -1.
         11    1    3    3    0    0 -0.17101219568E+01  0.95894796618E+00 -0.55183507295E+00  0.20368162701E+01  0.51100000000E-03 0. -1.
        -11    1    3    3    0    0 -0.17922864878E+02 -0.14213386897E+02  0.41832285870E+01  0.23254007272E+02  0.51100000000E-03 0.  1.
        -12    1    3    3    0    0 -0.68902801829E+01 -0.16282549934E+02  0.13910161875E+02  0.22496444091E+02  0.00000000000E+00 0.  1.
</event>
<event>
 7    1  0.2237500E-009  0.4778727E+02  0.7816164E-02  0.1312668E+00
        -11   -1    0    0    0    0  0.00000000000E+00  0.00000000000E+00  0.45593999997E+02  0.45594000000E+02  0.51100000000E-03 0.  1.
         11   -1    0    0    0    0 -0.00000000000E+00 -0.00000000000E+00 -0.45593999997E+02  0.45594000000E+02  0.51100000000E-03 0. -1.
    9900012    2    1    2    0    0 -0.23177712988E+02  0.18686530982E+02  0.31578951873E+02  0.47787273959E+02  0.20000013287E+02 0.  0.
         12    1    1    2    0    0  0.23177712988E+02 -0.18686530982E+02 -0.31578951873E+02  0.43400726041E+02  0.00000000000E+00 0. -1.
         11    1    3    3    0    0 -0.10368003505E+02  0.73356253212E+01  0.21911917168E+02  0.25326646240E+02  0.51100000000E-03 0. -1.
        -11    1    3    3    0    0 -0.19433942894E+01  0.73610507830E+00  0.66582676780E+01  0.69750384073E+01  0.51100000000E-03 0.  1.
        -12    1    3    3    0    0 -0.10866315194E+02  0.10614800582E+02  0.30087670273E+01  0.15485589311E+02  0.00000000000E+00 0.  1.
</event>
<event>
 7    1  0.2237500E-009  0.4778727E+02  0.7816164E-02  0.1312668E+00
        -11   -1    0    0    0    0  0.00000000000E+00  0.00000000000E+00  0.45593999997E+02  0.45594000000E+02  0.51100000000E-03 0.  1.
         11   -1    0    0    0    0 -0.00000000000E+00 -0.00000000000E+00 -0.45593999997E+02  0.45594000000E+02  0.51100000000E-03 0. -1.
    9900012    2    1    2    0    0  0.22919368891E+02  0.46565175295E+01  0.36560129074E+02  0.47787266552E+02  0.19999979519E+02 0.  0.
         12    1    1    2    0    0 -0.22919368891E+02 -0.46565175295E+01 -0.36560129074E+02  0.43400733448E+02  0.00000000000E+00 0. -1.
         11    1    3    3    0    0  0.82802031421E+01  0.22562795835E+01  0.18324169774E+02  0.20234321333E+02  0.51100000000E-03 0. -1.
        -11    1    3    3    0    0  0.16956200159E+02  0.13360344062E+01  0.18324457650E+02  0.25001669149E+02  0.51100000000E-03 0.  1.
         12    1    3    3    0    0 -0.23170344103E+01  0.10642035398E+01 -0.88498350035E-01  0.25512760710E+01  0.00000000000E+00 0. -1.
</event>
<event>
 7    1  0.2237500E-009  0.4778727E+02  0.7816164E-02  0.1312668E+00
        -11   -1    0    0    0    0  0.00000000000E+00  0.00000000000E+00  0.45593999997E+02  0.45594000000E+02  0.51100000000E-03 0. -1.
         11   -1    0    0    0    0 -0.00000000000E+00 -0.00000000000E+00 -0.45593999997E+02  0.45594000000E+02  0.51100000000E-03 0.  1.
    9900012    2    1    2    0    0 -0.33574541642E+02  0.27119826735E+02  0.45703653744E+01  0.47787273183E+02  0.20000009749E+02 0.  0.
         12    1    1    2    0    0  0.33574541642E+02 -0.27119826735E+02 -0.45703653744E+01  0.43400726817E+02  0.00000000000E+00 0. -1.
         11    1    3    3    0    0 -0.29242869367E+01  0.26997651246E+01  0.72857732290E+01  0.83019682981E+01  0.51100000000E-03 0. -1.
        -11    1    3    3    0    0 -0.61856004819E+01  0.34698507073E+01 -0.15231953074E+01  0.72540775746E+01  0.51100000000E-03 0.  1.
         12    1    3    3    0    0 -0.24464654223E+02  0.20950210903E+02 -0.11922125473E+01  0.32231227310E+02  0.00000000000E+00 0. -1.
</event>
<event>
 7    1  0.2237500E-009  0.4778727E+02  0.7816164E-02  0.1312668E+00
        -11   -1    0    0    0    0  0.00000000000E+00  0.00000000000E+00  0.45593999997E+02  0.45594000000E+02  0.51100000000E-03 0. -1.
         11   -1    0    0    0    0 -0.00000000000E+00 -0.00000000000E+00 -0.45593999997E+02  0.45594000000E+02  0.51100000000E-03 0.  1.
    9900012    2    1    2    0    0 -0.17760929858E+02 -0.13436045276E+02 -0.37251110702E+02  0.47787272003E+02  0.20000004373E+02 0.  0.
         12    1    1    2    0    0  0.17760929858E+02  0.13436045276E+02  0.37251110702E+02  0.43400727997E+02  0.00000000000E+00 0. -1.
         11    1    3    3    0    0 -0.16428472700E+01  0.17516164457E+01  0.10176407561E+00  0.24036354785E+01  0.51100000000E-03 0. -1.
        -11    1    3    3    0    0 -0.50276313327E+01  0.10754197829E+01 -0.34865978339E+01  0.62120825207E+01  0.51100000000E-03 0.  1.
         12    1    3    3    0    0 -0.11090451255E+02 -0.16263081505E+02 -0.33866276944E+02  0.39171554004E+02  0.00000000000E+00 0. -1.
</event>
<event>
 7    1  0.2237500E-009  0.4778727E+02  0.7816164E-02  0.1312668E+00
        -11   -1    0    0    0    0  0.00000000000E+00  0.00000000000E+00  0.45593999997E+02  0.45594000000E+02  0.51100000000E-03 0.  1.
         11   -1    0    0    0    0 -0.00000000000E+00 -0.00000000000E+00 -0.45593999997E+02  0.45594000000E+02  0.51100000000E-03 0. -1.
    9900012    2    1    2    0    0  0.68299759988E+01 -0.10332373024E+02  0.41595873474E+02  0.47787271958E+02  0.20000004167E+02 0.  0.
         12    1    1    2    0    0 -0.68299759988E+01  0.10332373024E+02 -0.41595873474E+02  0.43400728042E+02  0.00000000000E+00 0. -1.
         11    1    3    3    0    0 -0.40838029618E+01  0.57467273131E+00  0.82500645104E+01  0.92234082673E+01  0.51100000000E-03 0. -1.
        -11    1    3    3    0    0 -0.13461554709E+00  0.11065660990E+01  0.10094227163E+02  0.10155591177E+02  0.51100000000E-03 0.  1.
        -12    1    3    3    0    0  0.11048394508E+02 -0.12013611854E+02  0.23251581801E+02  0.28408272514E+02  0.00000000000E+00 0.  1.
</event>
<event>
 7    1  0.2237500E-009  0.4778725E+02  0.7816164E-02  0.1312668E+00
        -11   -1    0    0    0    0  0.00000000000E+00  0.00000000000E+00  0.45593999997E+02  0.45594000000E+02  0.51100000000E-03 0.  1.
         11   -1    0    0    0    0 -0.00000000000E+00 -0.00000000000E+00 -0.45593999997E+02  0.45594000000E+02  0.51100000000E-03 0. -1.
    9900012    2    1    2    0    0  0.34362859754E+02 -0.70797238690E+01  0.25547919250E+02  0.47787253479E+02  0.19999919914E+02 0.  0.
         12    1    1    2    0    0 -0.34362859754E+02  0.70797238690E+01 -0.25547919250E+02  0.43400746521E+02  0.00000000000E+00 0. -1.
         11    1    3    3    0    0  0.22188689881E+02 -0.10773823218E+01  0.82184247538E+01  0.23686308640E+02  0.51100000000E-03 0. -1.
        -11    1    3    3    0    0  0.35391955290E+01 -0.29217878335E+01  0.10747301789E+00  0.45906753149E+01  0.51100000000E-03 0.  1.
        -12    1    3    3    0    0  0.86349743440E+01 -0.30805537137E+01  0.17222021478E+02  0.19510269524E+02  0.00000000000E+00 0.  1.
</event>
<event>
 7    1  0.2237500E-009  0.4778727E+02  0.7816164E-02  0.1312668E+00
        -11   -1    0    0    0    0  0.00000000000E+00  0.00000000000E+00  0.45593999997E+02  0.45594000000E+02  0.51100000000E-03 0.  1.
         11   -1    0    0    0    0 -0.00000000000E+00 -0.00000000000E+00 -0.45593999997E+02  0.45594000000E+02  0.51100000000E-03 0. -1.
    9900012    2    1    2    0    0  0.22457002172E+02 -0.20487806476E+02  0.30976705374E+02  0.47787269170E+02  0.19999991454E+02 0.  0.
         12    1    1    2    0    0 -0.22457002172E+02  0.20487806476E+02 -0.30976705374E+02  0.43400730830E+02  0.00000000000E+00 0. -1.
         11    1    3    3    0    0  0.10065734245E+02 -0.11681079097E+02  0.87453099810E+01  0.17727015025E+02  0.51100000000E-03 0. -1.
        -11    1    3    3    0    0  0.11071730692E+02 -0.12050538458E+02  0.20253077497E+02  0.26038161340E+02  0.51100000000E-03 0.  1.
         12    1    3    3    0    0  0.13195372347E+01  0.32438110791E+01  0.19783178965E+01  0.40220928048E+01  0.00000000000E+00 0. -1.
</event>
<event>
 7    1  0.2237500E-009  0.4778727E+02  0.7816164E-02  0.1312668E+00
        -11   -1    0    0    0    0  0.00000000000E+00  0.00000000000E+00  0.45593999997E+02  0.45594000000E+02  0.51100000000E-03 0.  1.
         11   -1    0    0    0    0 -0.00000000000E+00 -0.00000000000E+00 -0.45593999997E+02  0.45594000000E+02  0.51100000000E-03 0. -1.
    9900012    2    1    2    0    0  0.39901979082E+02  0.77087695276E+01  0.15232533647E+02  0.47787272545E+02  0.20000006843E+02 0.  0.
         12    1    1    2    0    0 -0.39901979082E+02 -0.77087695276E+01 -0.15232533647E+02  0.43400727455E+02  0.00000000000E+00 0. -1.
         11    1    3    3    0    0  0.12029328817E+02 -0.20668472691E+01  0.36725785684E+01  0.12746154049E+02  0.51100000000E-03 0. -1.
        -11    1    3    3    0    0  0.20117741262E+02  0.35256661643E+00  0.35185202389E+01  0.20426154842E+02  0.51100000000E-03 0.  1.
        -12    1    3    3    0    0  0.77549090029E+01  0.94230501803E+01  0.80414348400E+01  0.14614963655E+02  0.00000000000E+00 0.  1.
</event>
<event>
 7    1  0.2237500E-009  0.4778727E+02  0.7816164E-02  0.1312668E+00
        -11   -1    0    0    0    0  0.00000000000E+00  0.00000000000E+00  0.45593999997E+02  0.45594000000E+02  0.51100000000E-03 0. -1.
         11   -1    0    0    0    0 -0.00000000000E+00 -0.00000000000E+00 -0.45593999997E+02  0.45594000000E+02  0.51100000000E-03 0.  1.
    9900012    2    1    2    0    0  0.69122404251E+01 -0.24298971726E+01 -0.42777794584E+02  0.47787272156E+02  0.20000005067E+02 0.  0.
         12    1    1    2    0    0 -0.69122404251E+01  0.24298971726E+01  0.42777794584E+02  0.43400727844E+02  0.00000000000E+00 0. -1.
         11    1    3    3    0    0  0.63576659580E+01 -0.13514031151E+01 -0.28210636917E+02  0.28949719210E+02  0.51100000000E-03 0. -1.
        -11    1    3    3    0    0 -0.46805110296E+00 -0.62981219901E+01 -0.99978701151E+01  0.11825515614E+02  0.51100000000E-03 0.  1.
         12    1    3    3    0    0  0.10226255701E+01  0.52196279326E+01 -0.45692875516E+01  0.70120373317E+01  0.00000000000E+00 0. -1.
</event>
<event>
 7    1  0.2237500E-009  0.4778727E+02  0.7816164E-02  0.1312668E+00
        -11   -1    0    0    0    0  0.00000000000E+00  0.00000000000E+00  0.45593999997E+02  0.45594000000E+02  0.51100000000E-03 0. -1.
         11   -1    0    0    0    0 -0.00000000000E+00 -0.00000000000E+00 -0.45593999997E+02  0.45594000000E+02  0.51100000000E-03 0.  1.
    9900012    2    1    2    0    0 -0.12883813812E+02 -0.98321213532E+00 -0.41432644605E+02  0.47787269552E+02  0.19999993195E+02 0.  0.
         12    1    1    2    0    0  0.12883813812E+02  0.98321213532E+00  0.41432644605E+02  0.43400730448E+02  0.00000000000E+00 0. -1.
         11    1    3    3    0    0 -0.74460713486E+01  0.39307799011E+01 -0.23325359255E+02  0.24798536122E+02  0.51100000000E-03 0. -1.
        -11    1    3    3    0    0 -0.53721913998E+01  0.27456708899E+01 -0.51297273448E+01  0.79191699038E+01  0.51100000000E-03 0.  1.
        -12    1    3    3    0    0 -0.65551063589E-01 -0.76596629264E+01 -0.12977558005E+02  0.15069563526E+02  0.00000000000E+00 0.  1.
</event>
<event>
 7    1  0.2237500E-009  0.4778727E+02  0.7816164E-02  0.1312668E+00
        -11   -1    0    0    0    0  0.00000000000E+00  0.00000000000E+00  0.45593999997E+02  0.45594000000E+02  0.51100000000E-03 0.  1.
         11   -1    0    0    0    0 -0.00000000000E+00 -0.00000000000E+00 -0.45593999997E+02  0.45594000000E+02  0.51100000000E-03 0. -1.
    9900012    2    1    2    0    0 -0.56674092903E+01  0.21231591285E+02  0.37426237552E+02  0.47787271276E+02  0.20000001054E+02 0.  0.
         12    1    1    2    0    0  0.56674092903E+01 -0.21231591285E+02 -0.37426237552E+02  0.43400728724E+02  0.00000000000E+00 0. -1.
         11    1    3    3    0    0  0.33197632891E+00 -0.36185214098E+01  0.58402906606E+01  0.68784373761E+01  0.51100000000E-03 0. -1.
        -11    1    3    3    0    0 -0.17325970150E+01  0.32482287080E+01  0.69642311874E+01  0.78773979491E+01  0.51100000000E-03 0.  1.
         12    1    3    3    0    0 -0.42667886042E+01  0.21601883986E+02  0.24621715704E+02  0.33031435950E+02  0.00000000000E+00 0. -1.
</event>
<event>
 7    1  0.2237500E-009  0.4778727E+02  0.7816164E-02  0.1312668E+00
        -11   -1    0    0    0    0  0.00000000000E+00  0.00000000000E+00  0.45593999997E+02  0.45594000000E+02  0.51100000000E-03 0.  1.
         11   -1    0    0    0    0 -0.00000000000E+00 -0.00000000000E+00 -0.45593999997E+02  0.45594000000E+02  0.51100000000E-03 0. -1.
    9900012    2    1    2    0    0  0.38963842789E+02 -0.88008158080E+01  0.16970201459E+02  0.47787272571E+02  0.20000006962E+02 0.  0.
         12    1    1    2    0    0 -0.38963842789E+02  0.88008158080E+01 -0.16970201459E+02  0.43400727429E+02  0.00000000000E+00 0. -1.
         11    1    3    3    0    0  0.15399499688E+02 -0.76302177354E+01  0.14347719405E+02  0.22387984852E+02  0.51100000000E-03 0. -1.
        -11    1    3    3    0    0  0.11631064922E+02 -0.50415132288E+01  0.59091759635E+00  0.12690457467E+02  0.51100000000E-03 0.  1.
        -12    1    3    3    0    0  0.11933278179E+02  0.38709151562E+01  0.20315644574E+01  0.12708830253E+02  0.00000000000E+00 0.  1.
</event>
<event>
 7    1  0.2237500E-009  0.4778727E+02  0.7816164E-02  0.1312668E+00
        -11   -1    0    0    0    0  0.00000000000E+00  0.00000000000E+00  0.45593999997E+02  0.45594000000E+02  0.51100000000E-03 0.  1.
         11   -1    0    0    0    0 -0.00000000000E+00 -0.00000000000E+00 -0.45593999997E+02  0.45594000000E+02  0.51100000000E-03 0. -1.
    9900012    2    1    2    0    0  0.19412277610E+02 -0.24668342275E+02  0.29970974845E+02  0.47787274594E+02  0.20000016185E+02 0.  0.
         12    1    1    2    0    0 -0.19412277610E+02  0.24668342275E+02 -0.29970974845E+02  0.43400725406E+02  0.00000000000E+00 0. -1.
         11    1    3    3    0    0  0.66829298265E+01 -0.30002591879E+01  0.54306927682E+01  0.91189654272E+01  0.51100000000E-03 0. -1.
        -11    1    3    3    0    0  0.11428750014E+01 -0.45081137139E+00  0.10783820634E+02  0.10853579220E+02  0.51100000000E-03 0.  1.
         12    1    3    3    0    0  0.11586472782E+02 -0.21217271716E+02  0.13756461443E+02  0.27814729947E+02  0.00000000000E+00 0. -1.
</event>
<event>
 7    1  0.2237500E-009  0.4778727E+02  0.7816164E-02  0.1312668E+00
        -11   -1    0    0    0    0  0.00000000000E+00  0.00000000000E+00  0.45593999997E+02  0.45594000000E+02  0.51100000000E-03 0.  1.
         11   -1    0    0    0    0 -0.00000000000E+00 -0.00000000000E+00 -0.45593999997E+02  0.45594000000E+02  0.51100000000E-03 0. -1.
    9900012    2    1    2    0    0 -0.23209079869E+02 -0.12727853503E+02  0.34394239532E+02  0.47787270097E+02  0.19999995678E+02 0.  0.
         12    1    1    2    0    0  0.23209079869E+02  0.12727853503E+02 -0.34394239532E+02  0.43400729903E+02  0.00000000000E+00 0. -1.
         11    1    3    3    0    0 -0.13083552107E+02 -0.94417460242E+01  0.80068121505E+01  0.18012077748E+02  0.51100000000E-03 0. -1.
        -11    1    3    3    0    0 -0.97285635886E+00 -0.10090219406E+01 -0.33162738225E+00  0.14403304320E+01  0.51100000000E-03 0.  1.
        -12    1    3    3    0    0 -0.91526714035E+01 -0.22770855379E+01  0.26719054764E+02  0.28334861917E+02  0.00000000000E+00 0.  1.
</event>
<event>
 7    1  0.2237500E-009  0.4778722E+02  0.7816164E-02  0.1312668E+00
        -11   -1    0    0    0    0  0.00000000000E+00  0.00000000000E+00  0.45593999997E+02  0.45594000000E+02  0.51100000000E-03 0. -1.
         11   -1    0    0    0    0 -0.00000000000E+00 -0.00000000000E+00 -0.45593999997E+02  0.45594000000E+02  0.51100000000E-03 0.  1.
    9900012    2    1    2    0    0 -0.31381312414E+02  0.20812129203E+02  0.21579995951E+02  0.47787219869E+02  0.19999766668E+02 0.  0.
         12    1    1    2    0    0  0.31381312414E+02 -0.20812129203E+02 -0.21579995951E+02  0.43400780131E+02  0.00000000000E+00 0. -1.
         11    1    3    3    0    0 -0.31844723363E+01  0.10292681476E+00 -0.22985633886E+01  0.39287214081E+01  0.51100000000E-03 0. -1.
        -11    1    3    3    0    0 -0.59248463897E+01 -0.56879926992E+00  0.31893492076E+01  0.67527243376E+01  0.51100000000E-03 0.  1.
        -12    1    3    3    0    0 -0.22271993688E+02  0.21278001658E+02  0.20689210132E+02  0.37105774123E+02  0.00000000000E+00 0.  1.
</event>
<event>
 7    1  0.2237500E-009  0.4778729E+02  0.7816164E-02  0.1312668E+00
        -11   -1    0    0    0    0  0.00000000000E+00  0.00000000000E+00  0.45593999997E+02  0.45594000000E+02  0.51100000000E-03 0.  1.
         11   -1    0    0    0    0 -0.00000000000E+00 -0.00000000000E+00 -0.45593999997E+02  0.45594000000E+02  0.51100000000E-03 0. -1.
    9900012    2    1    2    0    0 -0.25382181497E+02  0.19058450057E+02  0.29599691747E+02  0.47787292544E+02  0.20000098025E+02 0.  0.
         12    1    1    2    0    0  0.25382181497E+02 -0.19058450057E+02 -0.29599691747E+02  0.43400707456E+02  0.00000000000E+00 0. -1.
         11    1    3    3    0    0 -0.63222737290E+00  0.39406356201E+01  0.10378160221E+01  0.41237583463E+01  0.51100000000E-03 0. -1.
        -11    1    3    3    0    0 -0.39328242768E+01 -0.51741450148E-01 -0.13787724883E+01  0.41678289079E+01  0.51100000000E-03 0.  1.
        -12    1    3    3    0    0 -0.20817129848E+02  0.15169555887E+02  0.29940648213E+02  0.39495705290E+02  0.00000000000E+00 0.  1.
</event>
<event>
 7    1  0.2237500E-009  0.4778728E+02  0.7816164E-02  0.1312668E+00
        -11   -1    0    0    0    0  0.00000000000E+00  0.00000000000E+00  0.45593999997E+02  0.45594000000E+02  0.51100000000E-03 0. -1.
         11   -1    0    0    0    0 -0.00000000000E+00 -0.00000000000E+00 -0.45593999997E+02  0.45594000000E+02  0.51100000000E-03 0.  1.
    9900012    2    1    2    0    0 -0.39424368954E+02 -0.53469444434E+01 -0.17342198622E+02  0.47787279553E+02  0.20000038792E+02 0.  0.
         12    1    1    2    0    0  0.39424368954E+02  0.53469444434E+01  0.17342198622E+02  0.43400720447E+02  0.00000000000E+00 0. -1.
         11    1    3    3    0    0 -0.90525607546E+01  0.40722160142E+01 -0.72852375120E+01  0.12312858537E+02  0.51100000000E-03 0. -1.
        -11    1    3    3    0    0 -0.10823128653E+02 -0.42464200592E+01 -0.98718935930E+01  0.15252097578E+02  0.51100000000E-03 0.  1.
         12    1    3    3    0    0 -0.19548679546E+02 -0.51727403984E+01 -0.18506751718E+00  0.20222323437E+02  0.00000000000E+00 0. -1.
</event>
<event>
 7    1  0.2237500E-009  0.4778728E+02  0.7816164E-02  0.1312668E+00
        -11   -1    0    0    0    0  0.00000000000E+00  0.00000000000E+00  0.45593999997E+02  0.45594000000E+02  0.51100000000E-03 0.  1.
         11   -1    0    0    0    0 -0.00000000000E+00 -0.00000000000E+00 -0.45593999997E+02  0.45594000000E+02  0.51100000000E-03 0. -1.
    9900012    2    1    2    0    0  0.29754286824E+01 -0.51584245135E+01  0.42990231636E+02  0.47787279552E+02  0.20000038789E+02 0.  0.
         12    1    1    2    0    0 -0.29754286824E+01  0.51584245135E+01 -0.42990231636E+02  0.43400720448E+02  0.00000000000E+00 0. -1.
         11    1    3    3    0    0 -0.20418873734E+01 -0.18732177428E+01  0.21371306083E+01  0.34993679794E+01  0.51100000000E-03 0. -1.
        -11    1    3    3    0    0 -0.64807268173E+00 -0.21485433731E+01  0.37580086947E+02  0.37647034040E+02  0.51100000000E-03 0.  1.
        -12    1    3    3    0    0  0.56653887376E+01 -0.11366633976E+01  0.32730140811E+01  0.66408775326E+01  0.00000000000E+00 0.  1.
</event>
<event>
 7    1  0.2237500E-009  0.4778727E+02  0.7816164E-02  0.1312668E+00
        -11   -1    0    0    0    0  0.00000000000E+00  0.00000000000E+00  0.45593999997E+02  0.45594000000E+02  0.51100000000E-03 0.  1.
         11   -1    0    0    0    0 -0.00000000000E+00 -0.00000000000E+00 -0.45593999997E+02  0.45594000000E+02  0.51100000000E-03 0. -1.
    9900012    2    1    2    0    0  0.11496304020E+02 -0.33005904727E+02  0.25730686482E+02  0.47787274432E+02  0.20000015446E+02 0.  0.
         12    1    1    2    0    0 -0.11496304020E+02  0.33005904727E+02 -0.25730686482E+02  0.43400725568E+02  0.00000000000E+00 0. -1.
         11    1    3    3    0    0 -0.11820538741E+01 -0.82139210555E+01  0.43193414286E+01  0.93553439864E+01  0.51100000000E-03 0.  1.
        -11    1    3    3    0    0  0.11682334268E+02 -0.22313539628E+02  0.10653049828E+02  0.27347000851E+02  0.51100000000E-03 0. -1.
         12    1    3    3    0    0  0.99602362574E+00 -0.24784440440E+01  0.10758295226E+02  0.11084929594E+02  0.00000000000E+00 0. -1.
</event>
<event>
 7    1  0.2237500E-009  0.4778727E+02  0.7816164E-02  0.1312668E+00
        -11   -1    0    0    0    0  0.00000000000E+00  0.00000000000E+00  0.45593999997E+02  0.45594000000E+02  0.51100000000E-03 0.  1.
         11   -1    0    0    0    0 -0.00000000000E+00 -0.00000000000E+00 -0.45593999997E+02  0.45594000000E+02  0.51100000000E-03 0. -1.
    9900012    2    1    2    0    0  0.14045593533E+01 -0.29453474343E+02  0.31845616115E+02  0.47787271854E+02  0.20000003693E+02 0.  0.
         12    1    1    2    0    0 -0.14045593533E+01  0.29453474343E+02 -0.31845616115E+02  0.43400728146E+02  0.00000000000E+00 0. -1.
         11    1    3    3    0    0  0.58650201500E+00 -0.18635088272E+02  0.11849429021E+02  0.22091162665E+02  0.51100000000E-03 0.  1.
        -11    1    3    3    0    0 -0.27067012422E+01 -0.93446233975E+00 -0.26811229819E+00  0.28759930363E+01  0.51100000000E-03 0. -1.
        -12    1    3    3    0    0  0.35247585805E+01 -0.98839237310E+01  0.20264299392E+02  0.22820116153E+02  0.00000000000E+00 0.  1.
</event>
<event>
 7    1  0.2237500E-009  0.4778727E+02  0.7816164E-02  0.1312668E+00
        -11   -1    0    0    0    0  0.00000000000E+00  0.00000000000E+00  0.45593999997E+02  0.45594000000E+02  0.51100000000E-03 0.  1.
         11   -1    0    0    0    0 -0.00000000000E+00 -0.00000000000E+00 -0.45593999997E+02  0.45594000000E+02  0.51100000000E-03 0. -1.
    9900012    2    1    2    0    0 -0.37628509893E+02 -0.10393186736E+02  0.18965761951E+02  0.47787271738E+02  0.20000003163E+02 0.  0.
         12    1    1    2    0    0  0.37628509893E+02  0.10393186736E+02 -0.18965761951E+02  0.43400728262E+02  0.00000000000E+00 0. -1.
         11    1    3    3    0    0 -0.53083350261E+01 -0.18429147952E+01 -0.40880365776E+01  0.69488703407E+01  0.51100000000E-03 0. -1.
        -11    1    3    3    0    0 -0.12893444866E+02 -0.31121918075E+01  0.66504576988E+01  0.14837629400E+02  0.51100000000E-03 0.  1.
         12    1    3    3    0    0 -0.19426730001E+02 -0.54380801335E+01  0.16403340830E+02  0.26000771997E+02  0.00000000000E+00 0. -1.
</event>
<event>
 7    1  0.2237500E-009  0.4778727E+02  0.7816164E-02  0.1312668E+00
        -11   -1    0    0    0    0  0.00000000000E+00  0.00000000000E+00  0.45593999997E+02  0.45594000000E+02  0.51100000000E-03 0.  1.
         11   -1    0    0    0    0 -0.00000000000E+00 -0.00000000000E+00 -0.45593999997E+02  0.45594000000E+02  0.51100000000E-03 0. -1.
    9900012    2    1    2    0    0  0.26655967392E+02 -0.33548323881E+02  0.68987639350E+01  0.47787267556E+02  0.19999984095E+02 0.  0.
         12    1    1    2    0    0 -0.26655967392E+02  0.33548323881E+02 -0.68987639350E+01  0.43400732444E+02  0.00000000000E+00 0. -1.
         11    1    3    3    0    0  0.16515296502E+02 -0.76379433054E+01  0.38139729874E+01  0.18591384744E+02  0.51100000000E-03 0.  1.
        -11    1    3    3    0    0 -0.11665636148E+01 -0.93160410335E+00 -0.42773454823E+00  0.15529694065E+01  0.51100000000E-03 0. -1.
        -12    1    3    3    0    0  0.11307234505E+02 -0.24978776472E+02  0.35125254959E+01  0.27642913406E+02  0.00000000000E+00 0.  1.
</event>
<event>
 7    1  0.2237500E-009  0.4778727E+02  0.7816164E-02  0.1312668E+00
        -11   -1    0    0    0    0  0.00000000000E+00  0.00000000000E+00  0.45593999997E+02  0.45594000000E+02  0.51100000000E-03 0.  1.
         11   -1    0    0    0    0 -0.00000000000E+00 -0.00000000000E+00 -0.45593999997E+02  0.45594000000E+02  0.51100000000E-03 0. -1.
    9900012    2    1    2    0    0  0.27338682888E+02 -0.32516123656E+02  0.88837556051E+01  0.47787274277E+02  0.20000014737E+02 0.  0.
         12    1    1    2    0    0 -0.27338682888E+02  0.32516123656E+02 -0.88837556051E+01  0.43400725723E+02  0.00000000000E+00 0. -1.
         11    1    3    3    0    0  0.42570983530E+01 -0.55552124132E+01 -0.15417581097E+00  0.70005029666E+01  0.51100000000E-03 0. -1.
        -11    1    3    3    0    0  0.10368131094E+01  0.22514362397E+01  0.26642835532E+01  0.36390044900E+01  0.51100000000E-03 0.  1.
        -12    1    3    3    0    0  0.22044771426E+02 -0.29212347482E+02  0.63736478628E+01  0.37147766820E+02  0.00000000000E+00 0.  1.
</event>
<event>
 7    1  0.2237500E-009  0.4778727E+02  0.7816164E-02  0.1312668E+00
        -11   -1    0    0    0    0  0.00000000000E+00  0.00000000000E+00  0.45593999997E+02  0.45594000000E+02  0.51100000000E-03 0. -1.
         11   -1    0    0    0    0 -0.00000000000E+00 -0.00000000000E+00 -0.45593999997E+02  0.45594000000E+02  0.51100000000E-03 0.  1.
    9900012    2    1    2    0    0  0.32387198838E+02 -0.28223624085E+02 -0.61741201500E+01  0.47787269999E+02  0.19999995232E+02 0.  0.
         12    1    1    2    0    0 -0.32387198838E+02  0.28223624085E+02  0.61741201500E+01  0.43400730001E+02  0.00000000000E+00 0. -1.
         11    1    3    3    0    0  0.58279419722E+00 -0.10087793544E+01  0.27289235402E+01  0.29672055560E+01  0.51100000000E-03 0. -1.
        -11    1    3    3    0    0 -0.60517210698E-01  0.11430194718E+01  0.29829683563E+00  0.11828512624E+01  0.51100000000E-03 0.  1.
        -12    1    3    3    0    0  0.31864921851E+02 -0.28357864202E+02 -0.92013405258E+01  0.43637213180E+02  0.00000000000E+00 0.  1.
</event>
<event>
 7    1  0.2237500E-009  0.4778727E+02  0.7816164E-02  0.1312668E+00
        -11   -1    0    0    0    0  0.00000000000E+00  0.00000000000E+00  0.45593999997E+02  0.45594000000E+02  0.51100000000E-03 0.  1.
         11   -1    0    0    0    0 -0.00000000000E+00 -0.00000000000E+00 -0.45593999997E+02  0.45594000000E+02  0.51100000000E-03 0. -1.
    9900012    2    1    2    0    0  0.54048052714E+00 -0.24075494994E+01  0.43330528539E+02  0.47787272849E+02  0.20000008226E+02 0.  0.
         12    1    1    2    0    0 -0.54048052714E+00  0.24075494994E+01 -0.43330528539E+02  0.43400727151E+02  0.00000000000E+00 0. -1.
         11    1    3    3    0    0  0.14899776191E+01 -0.14126251324E+01 -0.15646337650E-01  0.20532384516E+01  0.51100000000E-03 0. -1.
        -11    1    3    3    0    0  0.17761169959E+01 -0.72622117711E+01  0.18201292737E+02  0.19676924784E+02  0.51100000000E-03 0.  1.
        -12    1    3    3    0    0 -0.27256140878E+01  0.62672874041E+01  0.25144882140E+02  0.26057109613E+02  0.00000000000E+00 0.  1.
</event>
<event>
 7    1  0.2237500E-009  0.4778727E+02  0.7816164E-02  0.1312668E+00
        -11   -1    0    0    0    0  0.00000000000E+00  0.00000000000E+00  0.45593999997E+02  0.45594000000E+02  0.51100000000E-03 0. -1.
         11   -1    0    0    0    0 -0.00000000000E+00 -0.00000000000E+00 -0.45593999997E+02  0.45594000000E+02  0.51100000000E-03 0.  1.
    9900012    2    1    2    0    0  0.18802413538E+02  0.36170415105E+02 -0.14892728635E+02  0.47787273625E+02  0.20000011765E+02 0.  0.
         12    1    1    2    0    0 -0.18802413538E+02 -0.36170415105E+02  0.14892728635E+02  0.43400726375E+02  0.00000000000E+00 0. -1.
         11    1    3    3    0    0  0.11111982737E+02  0.56464381020E+01 -0.13812482383E+01  0.12540584936E+02  0.51100000000E-03 0. -1.
        -11    1    3    3    0    0 -0.16148437018E+01  0.67074371644E+01 -0.39349624672E+01  0.79423776902E+01  0.51100000000E-03 0.  1.
        -12    1    3    3    0    0  0.93052745033E+01  0.23816539838E+02 -0.95765179300E+01  0.27304310999E+02  0.00000000000E+00 0.  1.
</event>
<event>
 7    1  0.2237500E-009  0.4778727E+02  0.7816164E-02  0.1312668E+00
        -11   -1    0    0    0    0  0.00000000000E+00  0.00000000000E+00  0.45593999997E+02  0.45594000000E+02  0.51100000000E-03 0.  1.
         11   -1    0    0    0    0 -0.00000000000E+00 -0.00000000000E+00 -0.45593999997E+02  0.45594000000E+02  0.51100000000E-03 0. -1.
    9900012    2    1    2    0    0 -0.22260702781E+02  0.24075630374E+02  0.28433232293E+02  0.47787267692E+02  0.19999984717E+02 0.  0.
         12    1    1    2    0    0  0.22260702781E+02 -0.24075630374E+02 -0.28433232293E+02  0.43400732308E+02  0.00000000000E+00 0. -1.
         11    1    3    3    0    0 -0.14688655708E+02  0.10936916795E+02  0.12378035377E+02  0.22104038445E+02  0.51100000000E-03 0.  1.
        -11    1    3    3    0    0 -0.22861628261E+00  0.19550880488E+00  0.93606179181E+01  0.93654501849E+01  0.51100000000E-03 0. -1.
         12    1    3    3    0    0 -0.73434307902E+01  0.12943204774E+02  0.66945789975E+01  0.16317779063E+02  0.00000000000E+00 0. -1.
</event>
<event>
 7    1  0.2237500E-009  0.4778727E+02  0.7816164E-02  0.1312668E+00
        -11   -1    0    0    0    0  0.00000000000E+00  0.00000000000E+00  0.45593999997E+02  0.45594000000E+02  0.51100000000E-03 0. -1.
         11   -1    0    0    0    0 -0.00000000000E+00 -0.00000000000E+00 -0.45593999997E+02  0.45594000000E+02  0.51100000000E-03 0.  1.
    9900012    2    1    2    0    0 -0.41508085144E+02  0.12649713863E+02 -0.82867790919E+00  0.47787273045E+02  0.20000009120E+02 0.  0.
         12    1    1    2    0    0  0.41508085144E+02 -0.12649713863E+02  0.82867790919E+00  0.43400726955E+02  0.00000000000E+00 0. -1.
         11    1    3    3    0    0 -0.85315108009E+01 -0.11758834417E+00 -0.29058370584E+01  0.90135671538E+01  0.51100000000E-03 0. -1.
        -11    1    3    3    0    0 -0.18125240234E+02  0.74425178818E+01 -0.67146769591E+01  0.20712370528E+02  0.51100000000E-03 0.  1.
         12    1    3    3    0    0 -0.14851334109E+02  0.53247843257E+01  0.87918361083E+01  0.18061335363E+02  0.00000000000E+00 0. -1.
</event>
<event>
 7    1  0.2237500E-009  0.4778728E+02  0.7816164E-02  0.1312668E+00
        -11   -1    0    0    0    0  0.00000000000E+00  0.00000000000E+00  0.45593999997E+02  0.45594000000E+02  0.51100000000E-03 0. -1.
         11   -1    0    0    0    0 -0.00000000000E+00 -0.00000000000E+00 -0.45593999997E+02  0.45594000000E+02  0.51100000000E-03 0.  1.
    9900012    2    1    2    0    0 -0.37258768836E+02  0.38248319776E+01 -0.21926635115E+02  0.47787279703E+02  0.20000039479E+02 0.  0.
         12    1    1    2    0    0  0.37258768836E+02 -0.38248319776E+01  0.21926635115E+02  0.43400720297E+02  0.00000000000E+00 0. -1.
         11    1    3    3    0    0 -0.68259395362E+01 -0.40341948457E+01 -0.52987512172E+01  0.95365058239E+01  0.51100000000E-03 0. -1.
        -11    1    3    3    0    0 -0.29464691119E+02  0.31493362258E+01 -0.14569155802E+02  0.33020397370E+02  0.51100000000E-03 0.  1.
         12    1    3    3    0    0 -0.96813818030E+00  0.47096905976E+01 -0.20587280961E+01  0.52303765098E+01  0.00000000000E+00 0. -1.
</event>
<event>
 7    1  0.2237500E-009  0.4778727E+02  0.7816164E-02  0.1312668E+00
        -11   -1    0    0    0    0  0.00000000000E+00  0.00000000000E+00  0.45593999997E+02  0.45594000000E+02  0.51100000000E-03 0. -1.
         11   -1    0    0    0    0 -0.00000000000E+00 -0.00000000000E+00 -0.45593999997E+02  0.45594000000E+02  0.51100000000E-03 0.  1.
    9900012    2    1    2    0    0 -0.23094717774E+02 -0.29997437282E+02 -0.21222888177E+02  0.47787271722E+02  0.20000003087E+02 0.  0.
         12    1    1    2    0    0  0.23094717774E+02  0.29997437282E+02  0.21222888177E+02  0.43400728278E+02  0.00000000000E+00 0. -1.
         11    1    3    3    0    0 -0.48200383245E+01 -0.13275717377E+02 -0.57118241641E+01  0.15234906526E+02  0.51100000000E-03 0. -1.
        -11    1    3    3    0    0 -0.67485616664E+01 -0.15544726181E+02 -0.10447955637E+02  0.19908324235E+02  0.51100000000E-03 0.  1.
         12    1    3    3    0    0 -0.11526117783E+02 -0.11769937239E+01 -0.50631083761E+01  0.12644040960E+02  0.00000000000E+00 0. -1.
</event>
<event>
 7    1  0.2237500E-009  0.4778727E+02  0.7816164E-02  0.1312668E+00
        -11   -1    0    0    0    0  0.00000000000E+00  0.00000000000E+00  0.45593999997E+02  0.45594000000E+02  0.51100000000E-03 0.  1.
         11   -1    0    0    0    0 -0.00000000000E+00 -0.00000000000E+00 -0.45593999997E+02  0.45594000000E+02  0.51100000000E-03 0. -1.
    9900012    2    1    2    0    0  0.17268059549E+02  0.15389297448E+02  0.36723382928E+02  0.47787271777E+02  0.20000003342E+02 0.  0.
         12    1    1    2    0    0 -0.17268059549E+02 -0.15389297448E+02 -0.36723382928E+02  0.43400728223E+02  0.00000000000E+00 0. -1.
         11    1    3    3    0    0  0.41569333937E+01 -0.11803856511E+01  0.95417572586E+01  0.10474661683E+02  0.51100000000E-03 0. -1.
        -11    1    3    3    0    0  0.15217430696E+02  0.99025949445E+01  0.22438194497E+02  0.28863543722E+02  0.51100000000E-03 0.  1.
         12    1    3    3    0    0 -0.21063045410E+01  0.66670881548E+01  0.47434311725E+01  0.84490663728E+01  0.00000000000E+00 0. -1.
</event>
<event>
 7    1  0.2237500E-009  0.4778727E+02  0.7816164E-02  0.1312668E+00
        -11   -1    0    0    0    0  0.00000000000E+00  0.00000000000E+00  0.45593999997E+02  0.45594000000E+02  0.51100000000E-03 0.  1.
         11   -1    0    0    0    0 -0.00000000000E+00 -0.00000000000E+00 -0.45593999997E+02  0.45594000000E+02  0.51100000000E-03 0. -1.
    9900012    2    1    2    0    0 -0.29884333362E+02  0.30407785560E+02 -0.81189104720E+01  0.47787268319E+02  0.19999987575E+02 0.  0.
         12    1    1    2    0    0  0.29884333362E+02 -0.30407785560E+02  0.81189104720E+01  0.43400731681E+02  0.00000000000E+00 0. -1.
         11    1    3    3    0    0 -0.37430227890E+01  0.16336096778E+02 -0.33049267090E+01  0.17082178385E+02  0.51100000000E-03 0. -1.
        -11    1    3    3    0    0 -0.28603947945E+01  0.93511713171E+00 -0.24292054421E+01  0.38674722716E+01  0.51100000000E-03 0.  1.
        -12    1    3    3    0    0 -0.23280915778E+02  0.13136571650E+02 -0.23847783209E+01  0.26837617663E+02  0.00000000000E+00 0.  1.
</event>
<event>
 7    1  0.2262745E-009  0.4778727E+02  0.7816164E-02  0.1312668E+00
        -11   -1    0    0    0    0  0.00000000000E+00  0.00000000000E+00  0.45593999997E+02  0.45594000000E+02  0.51100000000E-03 0. -1.
         11   -1    0    0    0    0 -0.00000000000E+00 -0.00000000000E+00 -0.45593999997E+02  0.45594000000E+02  0.51100000000E-03 0.  1.
    9900012    2    1    2    0    0 -0.19176390840E+02  0.37201881072E+02  0.11485192217E+02  0.47787267734E+02  0.19999984906E+02 0.  0.
         12    1    1    2    0    0  0.19176390840E+02 -0.37201881072E+02 -0.11485192217E+02  0.43400732266E+02  0.00000000000E+00 0. -1.
         11    1    3    3    0    0  0.48352101595E+00  0.10988295272E+02  0.72039496815E+01  0.13148129785E+02  0.51100000000E-03 0. -1.
        -11    1    3    3    0    0 -0.10582607278E+02  0.19218802105E+02  0.66737703270E+01  0.22932360144E+02  0.51100000000E-03 0.  1.
        -12    1    3    3    0    0 -0.90773045781E+01  0.69947836955E+01 -0.23925277910E+01  0.11706777805E+02  0.00000000000E+00 0.  1.
</event>
<event>
 7    1  0.2237500E-009  0.4778727E+02  0.7816164E-02  0.1312668E+00
        -11   -1    0    0    0    0  0.00000000000E+00  0.00000000000E+00  0.45593999997E+02  0.45594000000E+02  0.51100000000E-03 0.  1.
         11   -1    0    0    0    0 -0.00000000000E+00 -0.00000000000E+00 -0.45593999997E+02  0.45594000000E+02  0.51100000000E-03 0. -1.
    9900012    2    1    2    0    0 -0.18567462955E+02 -0.39982233800E+01  0.39024184436E+02  0.47787269111E+02  0.19999991185E+02 0.  0.
         12    1    1    2    0    0  0.18567462955E+02  0.39982233800E+01 -0.39024184436E+02  0.43400730889E+02  0.00000000000E+00 0. -1.
         11    1    3    3    0    0 -0.58820936076E+01 -0.34280228878E+01  0.47421172628E+01  0.82968694411E+01  0.51100000000E-03 0. -1.
        -11    1    3    3    0    0 -0.70945101410E+01 -0.54516467131E+01  0.74255355760E+01  0.11627170975E+02  0.51100000000E-03 0.  1.
        -12    1    3    3    0    0 -0.55908592066E+01  0.48814462209E+01  0.26856531597E+02  0.27863228695E+02  0.00000000000E+00 0.  1.
</event>
<event>
 7    1  0.2237500E-009  0.4778727E+02  0.7816164E-02  0.1312668E+00
        -11   -1    0    0    0    0  0.00000000000E+00  0.00000000000E+00  0.45593999997E+02  0.45594000000E+02  0.51100000000E-03 0. -1.
         11   -1    0    0    0    0 -0.00000000000E+00 -0.00000000000E+00 -0.45593999997E+02  0.45594000000E+02  0.51100000000E-03 0.  1.
    9900012    2    1    2    0    0  0.16257280572E+02  0.28456105613E+02 -0.28453017890E+02  0.47787270222E+02  0.19999996250E+02 0.  0.
         12    1    1    2    0    0 -0.16257280572E+02 -0.28456105613E+02  0.28453017890E+02  0.43400729778E+02  0.00000000000E+00 0. -1.
         11    1    3    3    0    0  0.10616573188E+02  0.18497720084E+02 -0.14801644163E+02  0.25960854084E+02  0.51100000000E-03 0. -1.
        -11    1    3    3    0    0  0.73430496458E+01  0.11919805781E+02 -0.13096162738E+02  0.19170592758E+02  0.51100000000E-03 0.  1.
         12    1    3    3    0    0 -0.17023422625E+01 -0.19614202523E+01 -0.55521098857E+00  0.26558233802E+01  0.00000000000E+00 0. -1.
</event>
<event>
 7    1  0.2237500E-009  0.4778727E+02  0.7816164E-02  0.1312668E+00
        -11   -1    0    0    0    0  0.00000000000E+00  0.00000000000E+00  0.45593999997E+02  0.45594000000E+02  0.51100000000E-03 0. -1.
         11   -1    0    0    0    0 -0.00000000000E+00 -0.00000000000E+00 -0.45593999997E+02  0.45594000000E+02  0.51100000000E-03 0.  1.
    9900012    2    1    2    0    0 -0.28331826774E+02 -0.30057720072E+02  0.13321578856E+02  0.47787269505E+02  0.19999992981E+02 0.  0.
         12    1    1    2    0    0  0.28331826774E+02  0.30057720072E+02 -0.13321578856E+02  0.43400730495E+02  0.00000000000E+00 0. -1.
         11    1    3    3    0    0  0.28335883152E+00 -0.37803741175E-02 -0.19154560405E+01  0.19363054054E+01  0.51100000000E-03 0. -1.
        -11    1    3    3    0    0 -0.10734408154E+02 -0.93874869066E+01 -0.58673427746E+00  0.14272234801E+02  0.51100000000E-03 0.  1.
        -12    1    3    3    0    0 -0.17880777452E+02 -0.20666452791E+02  0.15823769174E+02  0.31578729299E+02  0.00000000000E+00 0.  1.
</event>
<event>
 7    1  0.2237500E-009  0.4778728E+02  0.7816164E-02  0.1312668E+00
        -11   -1    0    0    0    0  0.00000000000E+00  0.00000000000E+00  0.45593999997E+02  0.45594000000E+02  0.51100000000E-03 0.  1.
         11   -1    0    0    0    0 -0.00000000000E+00 -0.00000000000E+00 -0.45593999997E+02  0.45594000000E+02  0.51100000000E-03 0. -1.
    9900012    2    1    2    0    0 -0.33081096226E+02  0.26911790467E+02  0.80634365449E+01  0.47787281082E+02  0.20000045767E+02 0.  0.
         12    1    1    2    0    0  0.33081096226E+02 -0.26911790467E+02 -0.80634365449E+01  0.43400718918E+02  0.00000000000E+00 0. -1.
         11    1    3    3    0    0 -0.23732498286E+02  0.19732999709E+02  0.79786636628E+01  0.31879175437E+02  0.51100000000E-03 0. -1.
        -11    1    3    3    0    0 -0.79076211009E+01  0.97356164206E+01  0.15321923097E+01  0.12635676163E+02  0.51100000000E-03 0.  1.
         12    1    3    3    0    0 -0.14409768390E+01 -0.25568256626E+01 -0.14474194276E+01  0.32724294826E+01  0.00000000000E+00 0. -1.
</event>
<event>
 7    1  0.2237500E-009  0.4778730E+02  0.7816164E-02  0.1312668E+00
        -11   -1    0    0    0    0  0.00000000000E+00  0.00000000000E+00  0.45593999997E+02  0.45594000000E+02  0.51100000000E-03 0.  1.
         11   -1    0    0    0    0 -0.00000000000E+00 -0.00000000000E+00 -0.45593999997E+02  0.45594000000E+02  0.51100000000E-03 0. -1.
    9900012    2    1    2    0    0 -0.24072720317E+02 -0.26447462357E+02  0.24589768857E+02  0.47787298841E+02  0.20000126737E+02 0.  0.
         12    1    1    2    0    0  0.24072720317E+02  0.26447462357E+02 -0.24589768857E+02  0.43400701159E+02  0.00000000000E+00 0. -1.
         11    1    3    3    0    0  0.66229176633E+00 -0.16171438397E+01  0.67706376016E+01  0.69925187433E+01  0.51100000000E-03 0. -1.
        -11    1    3    3    0    0 -0.55630105198E+01 -0.12861932779E+02  0.81608567479E+01  0.16216534278E+02  0.51100000000E-03 0.  1.
        -12    1    3    3    0    0 -0.19172001564E+02 -0.11968385739E+02  0.96582745077E+01  0.24578245820E+02  0.00000000000E+00 0.  1.
</event>
<event>
 7    1  0.2237500E-009  0.4778727E+02  0.7816164E-02  0.1312668E+00
        -11   -1    0    0    0    0  0.00000000000E+00  0.00000000000E+00  0.45593999997E+02  0.45594000000E+02  0.51100000000E-03 0.  1.
         11   -1    0    0    0    0 -0.00000000000E+00 -0.00000000000E+00 -0.45593999997E+02  0.45594000000E+02  0.51100000000E-03 0. -1.
    9900012    2    1    2    0    0 -0.33984791671E+02 -0.27020366400E+01  0.26858077524E+02  0.47787269647E+02  0.19999993626E+02 0.  0.
         12    1    1    2    0    0  0.33984791671E+02  0.27020366400E+01 -0.26858077524E+02  0.43400730353E+02  0.00000000000E+00 0. -1.
         11    1    3    3    0    0 -0.14408314118E+02  0.23446108896E+01  0.46486830919E+01  0.15320149174E+02  0.51100000000E-03 0. -1.
        -11    1    3    3    0    0 -0.14041162888E+02 -0.52792358198E+00  0.70774000659E+01  0.15732849409E+02  0.51100000000E-03 0.  1.
        -12    1    3    3    0    0 -0.55353146644E+01 -0.45187239476E+01  0.15131994366E+02  0.16734271064E+02  0.00000000000E+00 0.  1.
</event>
<event>
 7    1  0.2237500E-009  0.4778729E+02  0.7816164E-02  0.1312668E+00
        -11   -1    0    0    0    0  0.00000000000E+00  0.00000000000E+00  0.45593999997E+02  0.45594000000E+02  0.51100000000E-03 0.  1.
         11   -1    0    0    0    0 -0.00000000000E+00 -0.00000000000E+00 -0.45593999997E+02  0.45594000000E+02  0.51100000000E-03 0. -1.
    9900012    2    1    2    0    0 -0.51309840620E+00 -0.11751873885E+02  0.41776213815E+02  0.47787287443E+02  0.20000074766E+02 0.  0.
         12    1    1    2    0    0  0.51309840620E+00  0.11751873885E+02 -0.41776213815E+02  0.43400712557E+02  0.00000000000E+00 0. -1.
         11    1    3    3    0    0 -0.10384341802E+01 -0.71960893043E+01  0.19332978941E+02  0.20654929722E+02  0.51100000000E-03 0. -1.
        -11    1    3    3    0    0 -0.51912059812E+01 -0.20430319245E+01  0.19399322413E+02  0.20185547041E+02  0.51100000000E-03 0.  1.
         12    1    3    3    0    0  0.57165417552E+01 -0.25127526563E+01  0.30439124601E+01  0.69468106794E+01  0.00000000000E+00 0. -1.
</event>
<event>
 7    1  0.2237500E-009  0.4778727E+02  0.7816164E-02  0.1312668E+00
        -11   -1    0    0    0    0  0.00000000000E+00  0.00000000000E+00  0.45593999997E+02  0.45594000000E+02  0.51100000000E-03 0. -1.
         11   -1    0    0    0    0 -0.00000000000E+00 -0.00000000000E+00 -0.45593999997E+02  0.45594000000E+02  0.51100000000E-03 0.  1.
    9900012    2    1    2    0    0  0.68389389759E+00 -0.30468146291E+02 -0.30900609272E+02  0.47787270713E+02  0.19999998489E+02 0.  0.
         12    1    1    2    0    0 -0.68389389759E+00  0.30468146291E+02  0.30900609272E+02  0.43400729287E+02  0.00000000000E+00 0. -1.
         11    1    3    3    0    0 -0.14173631628E+01 -0.42280344033E+01 -0.33210673189E+01  0.55600972697E+01  0.51100000000E-03 0. -1.
        -11    1    3    3    0    0  0.15895669614E+01 -0.20354915969E+02 -0.29622089727E+02  0.35976624735E+02  0.51100000000E-03 0.  1.
         12    1    3    3    0    0  0.51169009898E+00 -0.58851959178E+01  0.20425477738E+01  0.62505487084E+01  0.00000000000E+00 0. -1.
</event>
<event>
 7    1  0.2237500E-009  0.4778727E+02  0.7816164E-02  0.1312668E+00
        -11   -1    0    0    0    0  0.00000000000E+00  0.00000000000E+00  0.45593999997E+02  0.45594000000E+02  0.51100000000E-03 0.  1.
         11   -1    0    0    0    0 -0.00000000000E+00 -0.00000000000E+00 -0.45593999997E+02  0.45594000000E+02  0.51100000000E-03 0. -1.
    9900012    2    1    2    0    0 -0.24644434937E+02  0.12424366928E+02  0.33494928082E+02  0.47787271041E+02  0.19999999984E+02 0.  0.
         12    1    1    2    0    0  0.24644434937E+02 -0.12424366928E+02 -0.33494928082E+02  0.43400728959E+02  0.00000000000E+00 0. -1.
         11    1    3    3    0    0 -0.45266780923E+01 -0.27231150951E+01  0.46261025479E+01  0.70218940050E+01  0.51100000000E-03 0. -1.
        -11    1    3    3    0    0 -0.95590793109E+01  0.24683171505E+00  0.52468637272E+01  0.10907176647E+02  0.51100000000E-03 0.  1.
        -12    1    3    3    0    0 -0.10558677534E+02  0.14900650308E+02  0.23621961807E+02  0.29858200389E+02  0.00000000000E+00 0.  1.
</event>
<event>
 7    1  0.2237500E-009  0.4778727E+02  0.7816164E-02  0.1312668E+00
        -11   -1    0    0    0    0  0.00000000000E+00  0.00000000000E+00  0.45593999997E+02  0.45594000000E+02  0.51100000000E-03 0.  1.
         11   -1    0    0    0    0 -0.00000000000E+00 -0.00000000000E+00 -0.45593999997E+02  0.45594000000E+02  0.51100000000E-03 0. -1.
    9900012    2    1    2    0    0  0.82295831658E+01 -0.28622033657E+02  0.31570179869E+02  0.47787272970E+02  0.20000008780E+02 0.  0.
         12    1    1    2    0    0 -0.82295831658E+01  0.28622033657E+02 -0.31570179869E+02  0.43400727030E+02  0.00000000000E+00 0. -1.
         11    1    3    3    0    0  0.19610957489E+01 -0.11747186780E+02  0.16966741878E+01  0.12030004046E+02  0.51100000000E-03 0. -1.
        -11    1    3    3    0    0 -0.15217576799E+01 -0.65008301449E+01  0.10314762009E+02  0.12287019759E+02  0.51100000000E-03 0.  1.
         12    1    3    3    0    0  0.77902450968E+01 -0.10374016733E+02  0.19558743672E+02  0.23470249165E+02  0.00000000000E+00 0. -1.
</event>
<event>
 7    1  0.2237500E-009  0.4778727E+02  0.7816164E-02  0.1312668E+00
        -11   -1    0    0    0    0  0.00000000000E+00  0.00000000000E+00  0.45593999997E+02  0.45594000000E+02  0.51100000000E-03 0.  1.
         11   -1    0    0    0    0 -0.00000000000E+00 -0.00000000000E+00 -0.45593999997E+02  0.45594000000E+02  0.51100000000E-03 0. -1.
    9900012    2    1    2    0    0  0.90601812313E+01  0.16220740949E+02  0.39222751053E+02  0.47787268196E+02  0.19999987015E+02 0.  0.
         12    1    1    2    0    0 -0.90601812313E+01 -0.16220740949E+02 -0.39222751053E+02  0.43400731804E+02  0.00000000000E+00 0. -1.
         11    1    3    3    0    0 -0.99681650969E+00  0.57181991142E+01  0.12570266920E+02  0.13845687233E+02  0.51100000000E-03 0.  1.
        -11    1    3    3    0    0  0.30502951198E+01  0.11425747023E+02  0.23278661460E+02  0.26110305915E+02  0.51100000000E-03 0. -1.
         12    1    3    3    0    0  0.70067026212E+01 -0.92320518847E+00  0.33738226738E+01  0.78312750479E+01  0.00000000000E+00 0. -1.
</event>
<event>
 7    1  0.2237500E-009  0.4778727E+02  0.7816164E-02  0.1312668E+00
        -11   -1    0    0    0    0  0.00000000000E+00  0.00000000000E+00  0.45593999997E+02  0.45594000000E+02  0.51100000000E-03 0.  1.
         11   -1    0    0    0    0 -0.00000000000E+00 -0.00000000000E+00 -0.45593999997E+02  0.45594000000E+02  0.51100000000E-03 0. -1.
    9900012    2    1    2    0    0  0.21414045540E+02 -0.81061058073E+01  0.36869402872E+02  0.47787272288E+02  0.20000005671E+02 0.  0.
         12    1    1    2    0    0 -0.21414045540E+02  0.81061058073E+01 -0.36869402872E+02  0.43400727712E+02  0.00000000000E+00 0. -1.
         11    1    3    3    0    0  0.45186176823E+01 -0.79644719971E+01  0.11619689024E+02  0.14794184439E+02  0.51100000000E-03 0. -1.
        -11    1    3    3    0    0  0.87109624127E+01 -0.15273776640E+01  0.22617053669E+02  0.24284663177E+02  0.51100000000E-03 0.  1.
        -12    1    3    3    0    0  0.81844654454E+01  0.13857438538E+01  0.26326601792E+01  0.87084246724E+01  0.00000000000E+00 0.  1.
</event>
<event>
 7    1  0.2237500E-009  0.4778728E+02  0.7816164E-02  0.1312668E+00
        -11   -1    0    0    0    0  0.00000000000E+00  0.00000000000E+00  0.45593999997E+02  0.45594000000E+02  0.51100000000E-03 0.  1.
         11   -1    0    0    0    0 -0.00000000000E+00 -0.00000000000E+00 -0.45593999997E+02  0.45594000000E+02  0.51100000000E-03 0. -1.
    9900012    2    1    2    0    0 -0.28275236573E+02  0.18986755196E+02  0.26900502789E+02  0.47787275048E+02  0.20000018252E+02 0.  0.
         12    1    1    2    0    0  0.28275236573E+02 -0.18986755196E+02 -0.26900502789E+02  0.43400724952E+02  0.00000000000E+00 0. -1.
         11    1    3    3    0    0  0.96178529755E-01  0.19460413791E+00  0.35999887864E+01  0.36065274993E+01  0.51100000000E-03 0. -1.
        -11    1    3    3    0    0 -0.17323719974E+01  0.12866986389E+01  0.89800943830E+01  0.92357350283E+01  0.51100000000E-03 0.  1.
         12    1    3    3    0    0 -0.26639043105E+02  0.17505452419E+02  0.14320419620E+02  0.34945012520E+02  0.00000000000E+00 0. -1.
</event>
<event>
 7    1  0.2237500E-009  0.4778727E+02  0.7816164E-02  0.1312668E+00
        -11   -1    0    0    0    0  0.00000000000E+00  0.00000000000E+00  0.45593999997E+02  0.45594000000E+02  0.51100000000E-03 0.  1.
         11   -1    0    0    0    0 -0.00000000000E+00 -0.00000000000E+00 -0.45593999997E+02  0.45594000000E+02  0.51100000000E-03 0. -1.
    9900012    2    1    2    0    0  0.36252947797E+02  0.23857881996E+02  0.38536011735E+00  0.47787271207E+02  0.20000000743E+02 0.  0.
         12    1    1    2    0    0 -0.36252947797E+02 -0.23857881996E+02 -0.38536011735E+00  0.43400728793E+02  0.00000000000E+00 0. -1.
         11    1    3    3    0    0  0.87830356486E+01  0.12148200000E+02 -0.47422104544E+01  0.15722882646E+02  0.51100000000E-03 0. -1.
        -11    1    3    3    0    0  0.91908374351E+01  0.63408462252E+01  0.65755385183E+01  0.12958222512E+02  0.51100000000E-03 0.  1.
        -12    1    3    3    0    0  0.18279074714E+02  0.53688357701E+01 -0.14479679465E+01  0.19106166049E+02  0.00000000000E+00 0.  1.
</event>
<event>
 7    1  0.2237500E-009  0.4778727E+02  0.7816164E-02  0.1312668E+00
        -11   -1    0    0    0    0  0.00000000000E+00  0.00000000000E+00  0.45593999997E+02  0.45594000000E+02  0.51100000000E-03 0.  1.
         11   -1    0    0    0    0 -0.00000000000E+00 -0.00000000000E+00 -0.45593999997E+02  0.45594000000E+02  0.51100000000E-03 0. -1.
    9900012    2    1    2    0    0 -0.87535050800E+01 -0.25702676988E+02  0.33858114295E+02  0.47787270062E+02  0.19999995520E+02 0.  0.
         12    1    1    2    0    0  0.87535050800E+01  0.25702676988E+02 -0.33858114295E+02  0.43400729938E+02  0.00000000000E+00 0. -1.
         11    1    3    3    0    0 -0.21844541450E+01 -0.10426634776E+02  0.17432931933E+02  0.20430214603E+02  0.51100000000E-03 0. -1.
        -11    1    3    3    0    0 -0.42418191059E-01 -0.12768114979E+02  0.15833362462E+02  0.20340155518E+02  0.51100000000E-03 0.  1.
         12    1    3    3    0    0 -0.65266327440E+01 -0.25079272338E+01  0.59181990017E+00  0.70168999408E+01  0.00000000000E+00 0. -1.
</event>
<event>
 7    1  0.2237500E-009  0.4778727E+02  0.7816164E-02  0.1312668E+00
        -11   -1    0    0    0    0  0.00000000000E+00  0.00000000000E+00  0.45593999997E+02  0.45594000000E+02  0.51100000000E-03 0. -1.
         11   -1    0    0    0    0 -0.00000000000E+00 -0.00000000000E+00 -0.45593999997E+02  0.45594000000E+02  0.51100000000E-03 0.  1.
    9900012    2    1    2    0    0  0.31206748603E+02  0.24336272592E+02 -0.17818744699E+02  0.47787274376E+02  0.20000015189E+02 0.  0.
         12    1    1    2    0    0 -0.31206748603E+02 -0.24336272592E+02  0.17818744699E+02  0.43400725624E+02  0.00000000000E+00 0. -1.
         11    1    3    3    0    0  0.90226372059E+01  0.21332162682E+01 -0.78213564008E+01  0.12129806676E+02  0.51100000000E-03 0. -1.
        -11    1    3    3    0    0  0.13821160419E+02  0.53876748630E+01 -0.77693110779E+01  0.16745557937E+02  0.51100000000E-03 0.  1.
         12    1    3    3    0    0  0.83629509788E+01  0.16815381461E+02 -0.22280772200E+01  0.18911909762E+02  0.00000000000E+00 0. -1.
</event>
<event>
 7    1  0.2237500E-009  0.4778727E+02  0.7816164E-02  0.1312668E+00
        -11   -1    0    0    0    0  0.00000000000E+00  0.00000000000E+00  0.45593999997E+02  0.45594000000E+02  0.51100000000E-03 0.  1.
         11   -1    0    0    0    0 -0.00000000000E+00 -0.00000000000E+00 -0.45593999997E+02  0.45594000000E+02  0.51100000000E-03 0. -1.
    9900012    2    1    2    0    0 -0.19352586475E+02 -0.27006875452E+02  0.27923630285E+02  0.47787273586E+02  0.20000011589E+02 0.  0.
         12    1    1    2    0    0  0.19352586475E+02  0.27006875452E+02 -0.27923630285E+02  0.43400726414E+02  0.00000000000E+00 0. -1.
         11    1    3    3    0    0 -0.17732683085E+01 -0.32497622690E+01 -0.89761670988E+00  0.38093505113E+01  0.51100000000E-03 0. -1.
        -11    1    3    3    0    0 -0.12985642751E+02 -0.89587108980E+01  0.71094731112E+01  0.17304046544E+02  0.51100000000E-03 0.  1.
        -12    1    3    3    0    0 -0.45936754149E+01 -0.14798402285E+02  0.21711773884E+02  0.26673876531E+02  0.00000000000E+00 0.  1.
</event>
<event>
 7    1  0.2237500E-009  0.4778727E+02  0.7816164E-02  0.1312668E+00
        -11   -1    0    0    0    0  0.00000000000E+00  0.00000000000E+00  0.45593999997E+02  0.45594000000E+02  0.51100000000E-03 0.  1.
         11   -1    0    0    0    0 -0.00000000000E+00 -0.00000000000E+00 -0.45593999997E+02  0.45594000000E+02  0.51100000000E-03 0. -1.
    9900012    2    1    2    0    0  0.21772720835E+02 -0.37509954727E+02 -0.16048940984E+01  0.47787265430E+02  0.19999974400E+02 0.  0.
         12    1    1    2    0    0 -0.21772720835E+02  0.37509954727E+02  0.16048940984E+01  0.43400734570E+02  0.00000000000E+00 0. -1.
         11    1    3    3    0    0  0.13111479500E+02 -0.32961855161E+02 -0.43895739931E+01  0.35744414255E+02  0.51100000000E-03 0. -1.
        -11    1    3    3    0    0  0.12292534651E+01 -0.92016965475E+00 -0.19743117387E+01  0.25011364172E+01  0.51100000000E-03 0.  1.
        -12    1    3    3    0    0  0.74319878702E+01 -0.36279299109E+01  0.47589916334E+01  0.95417147572E+01  0.00000000000E+00 0.  1.
</event>
<event>
 7    1  0.2237500E-009  0.4778727E+02  0.7816164E-02  0.1312668E+00
        -11   -1    0    0    0    0  0.00000000000E+00  0.00000000000E+00  0.45593999997E+02  0.45594000000E+02  0.51100000000E-03 0.  1.
         11   -1    0    0    0    0 -0.00000000000E+00 -0.00000000000E+00 -0.45593999997E+02  0.45594000000E+02  0.51100000000E-03 0. -1.
    9900012    2    1    2    0    0  0.16981585420E+02  0.14146947893E+01  0.39915506544E+02  0.47787271120E+02  0.20000000343E+02 0.  0.
         12    1    1    2    0    0 -0.16981585420E+02 -0.14146947893E+01 -0.39915506544E+02  0.43400728880E+02  0.00000000000E+00 0. -1.
         11    1    3    3    0    0  0.77515306824E+01  0.62907469511E+01  0.13110140033E+02  0.16478334171E+02  0.51100000000E-03 0. -1.
        -11    1    3    3    0    0 -0.24465728493E+01  0.13510708189E+01  0.64578724621E+01  0.70367057678E+01  0.51100000000E-03 0.  1.
        -12    1    3    3    0    0  0.11676627586E+02 -0.62271229807E+01  0.20347494049E+02  0.24272231181E+02  0.00000000000E+00 0.  1.
</event>
<event>
 7    1  0.2237500E-009  0.4778727E+02  0.7816164E-02  0.1312668E+00
        -11   -1    0    0    0    0  0.00000000000E+00  0.00000000000E+00  0.45593999997E+02  0.45594000000E+02  0.51100000000E-03 0.  1.
         11   -1    0    0    0    0 -0.00000000000E+00 -0.00000000000E+00 -0.45593999997E+02  0.45594000000E+02  0.51100000000E-03 0. -1.
    9900012    2    1    2    0    0 -0.27321476018E+02 -0.16776473810E+02  0.29252524010E+02  0.47787270902E+02  0.19999999350E+02 0.  0.
         12    1    1    2    0    0  0.27321476018E+02  0.16776473810E+02 -0.29252524010E+02  0.43400729098E+02  0.00000000000E+00 0. -1.
         11    1    3    3    0    0 -0.61960365233E+01 -0.10172964520E+02  0.19580774731E+02  0.22919136438E+02  0.51100000000E-03 0.  1.
        -11    1    3    3    0    0 -0.14252057543E+02 -0.54993659711E+01  0.93261070213E+01  0.17898056954E+02  0.51100000000E-03 0. -1.
        -12    1    3    3    0    0 -0.68733819520E+01 -0.11041433189E+01  0.34564225735E+00  0.69700775101E+01  0.00000000000E+00 0.  1.
</event>
<event>
 7    1  0.2237500E-009  0.4778727E+02  0.7816164E-02  0.1312668E+00
        -11   -1    0    0    0    0  0.00000000000E+00  0.00000000000E+00  0.45593999997E+02  0.45594000000E+02  0.51100000000E-03 0.  1.
         11   -1    0    0    0    0 -0.00000000000E+00 -0.00000000000E+00 -0.45593999997E+02  0.45594000000E+02  0.51100000000E-03 0. -1.
    9900012    2    1    2    0    0 -0.10575774959E+01 -0.22332066867E+02  0.37199240188E+02  0.47787272457E+02  0.20000006439E+02 0.  0.
         12    1    1    2    0    0  0.10575774959E+01  0.22332066867E+02 -0.37199240188E+02  0.43400727543E+02  0.00000000000E+00 0. -1.
         11    1    3    3    0    0  0.19424097058E+01 -0.80043605149E+01  0.28425770023E+02  0.29595052701E+02  0.51100000000E-03 0.  1.
        -11    1    3    3    0    0  0.12415971389E+01 -0.50547561054E+00  0.12912785591E+00  0.13467528773E+01  0.51100000000E-03 0. -1.
         12    1    3    3    0    0 -0.42415843407E+01 -0.13822230741E+02  0.86443423090E+01  0.16845466878E+02  0.00000000000E+00 0. -1.
</event>
<event>
 7    1  0.2237500E-009  0.4778728E+02  0.7816164E-02  0.1312668E+00
        -11   -1    0    0    0    0  0.00000000000E+00  0.00000000000E+00  0.45593999997E+02  0.45594000000E+02  0.51100000000E-03 0.  1.
         11   -1    0    0    0    0 -0.00000000000E+00 -0.00000000000E+00 -0.45593999997E+02  0.45594000000E+02  0.51100000000E-03 0. -1.
    9900012    2    1    2    0    0  0.60253564187E+00 -0.42602822122E+02  0.82619246854E+01  0.47787275335E+02  0.20000019560E+02 0.  0.
         12    1    1    2    0    0 -0.60253564187E+00  0.42602822122E+02 -0.82619246854E+01  0.43400724665E+02  0.00000000000E+00 0. -1.
         11    1    3    3    0    0  0.34864958641E+01 -0.13772389651E+02  0.26547330759E+01  0.14452749845E+02  0.51100000000E-03 0. -1.
        -11    1    3    3    0    0  0.21658671322E+01 -0.20811211619E+02 -0.22230613049E+01  0.21041376175E+02  0.51100000000E-03 0.  1.
         12    1    3    3    0    0 -0.50498273544E+01 -0.80192208520E+01  0.78302529144E+01  0.12293149315E+02  0.00000000000E+00 0. -1.
</event>
<event>
 7    1  0.2237500E-009  0.4778727E+02  0.7816164E-02  0.1312668E+00
        -11   -1    0    0    0    0  0.00000000000E+00  0.00000000000E+00  0.45593999997E+02  0.45594000000E+02  0.51100000000E-03 0.  1.
         11   -1    0    0    0    0 -0.00000000000E+00 -0.00000000000E+00 -0.45593999997E+02  0.45594000000E+02  0.51100000000E-03 0. -1.
    9900012    2    1    2    0    0  0.28984598149E+02  0.30133519663E+02  0.11639900203E+02  0.47787271736E+02  0.20000003152E+02 0.  0.
         12    1    1    2    0    0 -0.28984598149E+02 -0.30133519663E+02 -0.11639900203E+02  0.43400728264E+02  0.00000000000E+00 0. -1.
         11    1    3    3    0    0 -0.11219645703E+01  0.93355734537E+00  0.38658203259E+01  0.41321787071E+01  0.51100000000E-03 0. -1.
        -11    1    3    3    0    0  0.11997699773E+02  0.12603683217E+02  0.78539724500E+01  0.19091425143E+02  0.51100000000E-03 0.  1.
         12    1    3    3    0    0  0.18108862946E+02  0.16596279100E+02 -0.79892572655E-01  0.24563667886E+02  0.00000000000E+00 0. -1.
</event>
<event>
 7    1  0.2237500E-009  0.4778727E+02  0.7816164E-02  0.1312668E+00
        -11   -1    0    0    0    0  0.00000000000E+00  0.00000000000E+00  0.45593999997E+02  0.45594000000E+02  0.51100000000E-03 0.  1.
         11   -1    0    0    0    0 -0.00000000000E+00 -0.00000000000E+00 -0.45593999997E+02  0.45594000000E+02  0.51100000000E-03 0. -1.
    9900012    2    1    2    0    0 -0.24128111039E+02 -0.31063856880E+02  0.18343774805E+02  0.47787273961E+02  0.20000013299E+02 0.  0.
         12    1    1    2    0    0  0.24128111039E+02  0.31063856880E+02 -0.18343774805E+02  0.43400726039E+02  0.00000000000E+00 0. -1.
         11    1    3    3    0    0 -0.15521634300E+02 -0.13069297266E+02  0.58208268078E+01  0.21109469140E+02  0.51100000000E-03 0. -1.
        -11    1    3    3    0    0 -0.29980251000E+01  0.89504976622E+00  0.43198417154E+01  0.53338823845E+01  0.51100000000E-03 0.  1.
         12    1    3    3    0    0 -0.56084516390E+01 -0.18889609380E+02  0.82031062822E+01  0.21343922437E+02  0.00000000000E+00 0. -1.
</event>
<event>
 7    1  0.2237500E-009  0.4778727E+02  0.7816164E-02  0.1312668E+00
        -11   -1    0    0    0    0  0.00000000000E+00  0.00000000000E+00  0.45593999997E+02  0.45594000000E+02  0.51100000000E-03 0. -1.
         11   -1    0    0    0    0 -0.00000000000E+00 -0.00000000000E+00 -0.45593999997E+02  0.45594000000E+02  0.51100000000E-03 0.  1.
    9900012    2    1    2    0    0  0.38556865245E+02 -0.10904836253E+02 -0.16675603264E+02  0.47787273561E+02  0.20000011475E+02 0.  0.
         12    1    1    2    0    0 -0.38556865245E+02  0.10904836253E+02  0.16675603264E+02  0.43400726439E+02  0.00000000000E+00 0. -1.
         11    1    3    3    0    0  0.12185045755E+02 -0.31478984437E+01 -0.13138020338E+02  0.18193190576E+02  0.51100000000E-03 0. -1.
        -11    1    3    3    0    0  0.75103728521E+01  0.10526751739E+01  0.23860917056E+01  0.79502993206E+01  0.51100000000E-03 0.  1.
        -12    1    3    3    0    0  0.18861446638E+02 -0.88096129835E+01 -0.59236746313E+01  0.21643783665E+02  0.00000000000E+00 0.  1.
</event>
<event>
 7    1  0.2237500E-009  0.4778727E+02  0.7816164E-02  0.1312668E+00
        -11   -1    0    0    0    0  0.00000000000E+00  0.00000000000E+00  0.45593999997E+02  0.45594000000E+02  0.51100000000E-03 0. -1.
         11   -1    0    0    0    0 -0.00000000000E+00 -0.00000000000E+00 -0.45593999997E+02  0.45594000000E+02  0.51100000000E-03 0.  1.
    9900012    2    1    2    0    0 -0.20830107859E+02  0.36017532302E+02  0.12347757411E+02  0.47787272591E+02  0.20000007052E+02 0.  0.
         12    1    1    2    0    0  0.20830107859E+02 -0.36017532302E+02 -0.12347757411E+02  0.43400727409E+02  0.00000000000E+00 0. -1.
         11    1    3    3    0    0 -0.22691886958E+00  0.43620746409E+00  0.28002101812E+01  0.28430523113E+01  0.51100000000E-03 0. -1.
        -11    1    3    3    0    0 -0.10069539205E+02  0.27180588080E+02  0.11778252309E+02  0.31287492963E+02  0.51100000000E-03 0.  1.
         12    1    3    3    0    0 -0.10533649784E+02  0.84007367575E+01 -0.22307050796E+01  0.13656727316E+02  0.00000000000E+00 0. -1.
</event>
<event>
 7    1  0.2237500E-009  0.4778727E+02  0.7816164E-02  0.1312668E+00
        -11   -1    0    0    0    0  0.00000000000E+00  0.00000000000E+00  0.45593999997E+02  0.45594000000E+02  0.51100000000E-03 0.  1.
         11   -1    0    0    0    0 -0.00000000000E+00 -0.00000000000E+00 -0.45593999997E+02  0.45594000000E+02  0.51100000000E-03 0. -1.
    9900012    2    1    2    0    0  0.10241533836E+02 -0.33595610682E+02  0.25496458891E+02  0.47787268573E+02  0.19999988731E+02 0.  0.
         12    1    1    2    0    0 -0.10241533836E+02  0.33595610682E+02 -0.25496458891E+02  0.43400731427E+02  0.00000000000E+00 0. -1.
         11    1    3    3    0    0  0.84535234053E+01 -0.11902611377E+02  0.12443840094E+02  0.19182892694E+02  0.51100000000E-03 0. -1.
        -11    1    3    3    0    0 -0.86969051961E-01 -0.46464013047E+01  0.10214155381E+02  0.11221656701E+02  0.51100000000E-03 0.  1.
         12    1    3    3    0    0  0.18749794825E+01 -0.17046598001E+02  0.28384634154E+01  0.17382719178E+02  0.00000000000E+00 0. -1.
</event>
<event>
 7    1  0.2237500E-009  0.4778726E+02  0.7816164E-02  0.1312668E+00
        -11   -1    0    0    0    0  0.00000000000E+00  0.00000000000E+00  0.45593999997E+02  0.45594000000E+02  0.51100000000E-03 0.  1.
         11   -1    0    0    0    0 -0.00000000000E+00 -0.00000000000E+00 -0.45593999997E+02  0.45594000000E+02  0.51100000000E-03 0. -1.
    9900012    2    1    2    0    0  0.33749743170E+02  0.24948376181E+02  0.11052507953E+02  0.47787256111E+02  0.19999931912E+02 0.  0.
         12    1    1    2    0    0 -0.33749743170E+02 -0.24948376181E+02 -0.11052507953E+02  0.43400743889E+02  0.00000000000E+00 0. -1.
         11    1    3    3    0    0  0.24975123410E+02  0.13097548613E+02  0.10998984611E+02  0.30270121105E+02  0.51100000000E-03 0. -1.
        -11    1    3    3    0    0  0.10377742947E+02  0.87731937582E+01  0.16654702823E+01  0.13690882693E+02  0.51100000000E-03 0.  1.
        -12    1    3    3    0    0 -0.16031231872E+01  0.30776338098E+01 -0.16119469402E+01  0.38262523125E+01  0.00000000000E+00 0.  1.
</event>
<event>
 7    1  0.2237500E-009  0.4778728E+02  0.7816164E-02  0.1312668E+00
        -11   -1    0    0    0    0  0.00000000000E+00  0.00000000000E+00  0.45593999997E+02  0.45594000000E+02  0.51100000000E-03 0.  1.
         11   -1    0    0    0    0 -0.00000000000E+00 -0.00000000000E+00 -0.45593999997E+02  0.45594000000E+02  0.51100000000E-03 0. -1.
    9900012    2    1    2    0    0  0.51368220343E+01  0.41843649147E+02  0.10312363834E+02  0.47787276937E+02  0.20000026869E+02 0.  0.
         12    1    1    2    0    0 -0.51368220343E+01 -0.41843649147E+02 -0.10312363834E+02  0.43400723063E+02  0.00000000000E+00 0. -1.
         11    1    3    3    0    0  0.73376205067E+01  0.11293862111E+02 -0.47532710551E+00  0.13476569749E+02  0.51100000000E-03 0. -1.
        -11    1    3    3    0    0  0.49780131681E+00  0.12143434583E+02 -0.11481624994E+01  0.12207747008E+02  0.51100000000E-03 0.  1.
        -12    1    3    3    0    0 -0.26985997892E+01  0.18406352453E+02  0.11935853439E+02  0.22102960181E+02  0.00000000000E+00 0.  1.
</event>
<event>
 7    1  0.2237500E-009  0.4778729E+02  0.7816164E-02  0.1312668E+00
        -11   -1    0    0    0    0  0.00000000000E+00  0.00000000000E+00  0.45593999997E+02  0.45594000000E+02  0.51100000000E-03 0.  1.
         11   -1    0    0    0    0 -0.00000000000E+00 -0.00000000000E+00 -0.45593999997E+02  0.45594000000E+02  0.51100000000E-03 0. -1.
    9900012    2    1    2    0    0 -0.42412679829E+01  0.35526410385E+02  0.24566380104E+02  0.47787294702E+02  0.20000107864E+02 0.  0.
         12    1    1    2    0    0  0.42412679829E+01 -0.35526410385E+02 -0.24566380104E+02  0.43400705298E+02  0.00000000000E+00 0. -1.
         11    1    3    3    0    0  0.36593527841E+01  0.12360786177E+02  0.34191197576E+01  0.13336801636E+02  0.51100000000E-03 0. -1.
        -11    1    3    3    0    0  0.22692505102E+01  0.10809720985E+02  0.10420192693E+02  0.15184860278E+02  0.51100000000E-03 0.  1.
         12    1    3    3    0    0 -0.10169871277E+02  0.12355903223E+02  0.10727067653E+02  0.19265632787E+02  0.00000000000E+00 0. -1.
</event>
<event>
 7    1  0.2237500E-009  0.4778726E+02  0.7816164E-02  0.1312668E+00
        -11   -1    0    0    0    0  0.00000000000E+00  0.00000000000E+00  0.45593999997E+02  0.45594000000E+02  0.51100000000E-03 0.  1.
         11   -1    0    0    0    0 -0.00000000000E+00 -0.00000000000E+00 -0.45593999997E+02  0.45594000000E+02  0.51100000000E-03 0. -1.
    9900012    2    1    2    0    0 -0.10839333010E+02  0.14559663764E+02  0.39422695161E+02  0.47787264490E+02  0.19999970115E+02 0.  0.
         12    1    1    2    0    0  0.10839333010E+02 -0.14559663764E+02 -0.39422695161E+02  0.43400735510E+02  0.00000000000E+00 0. -1.
         11    1    3    3    0    0 -0.24516834342E+01  0.13198236246E+02  0.23196751288E+02  0.26800997411E+02  0.51100000000E-03 0. -1.
        -11    1    3    3    0    0 -0.97681283671E+00  0.45283956944E+01  0.91743921772E+01  0.10277645789E+02  0.51100000000E-03 0.  1.
         12    1    3    3    0    0 -0.74108367393E+01 -0.31669681758E+01  0.70515516962E+01  0.10708621290E+02  0.00000000000E+00 0. -1.
</event>
<event>
 7    1  0.2237500E-009  0.4778727E+02  0.7816164E-02  0.1312668E+00
        -11   -1    0    0    0    0  0.00000000000E+00  0.00000000000E+00  0.45593999997E+02  0.45594000000E+02  0.51100000000E-03 0.  1.
         11   -1    0    0    0    0 -0.00000000000E+00 -0.00000000000E+00 -0.45593999997E+02  0.45594000000E+02  0.51100000000E-03 0. -1.
    9900012    2    1    2    0    0  0.15736409064E+02  0.15671235281E+02  0.37288080502E+02  0.47787272667E+02  0.20000007399E+02 0.  0.
         12    1    1    2    0    0 -0.15736409064E+02 -0.15671235281E+02 -0.37288080502E+02  0.43400727333E+02  0.00000000000E+00 0. -1.
         11    1    3    3    0    0  0.11353157402E+01  0.31776694536E+01 -0.12844783327E+01  0.36105968807E+01  0.51100000000E-03 0. -1.
        -11    1    3    3    0    0 -0.84323152669E+00  0.36216389523E+01  0.63134150786E+01  0.73271084559E+01  0.51100000000E-03 0.  1.
        -12    1    3    3    0    0  0.15444324851E+02  0.88719268753E+01  0.32259143756E+02  0.36849567331E+02  0.00000000000E+00 0.  1.
</event>
<event>
 7    1  0.2237500E-009  0.4778727E+02  0.7816164E-02  0.1312668E+00
        -11   -1    0    0    0    0  0.00000000000E+00  0.00000000000E+00  0.45593999997E+02  0.45594000000E+02  0.51100000000E-03 0. -1.
         11   -1    0    0    0    0 -0.00000000000E+00 -0.00000000000E+00 -0.45593999997E+02  0.45594000000E+02  0.51100000000E-03 0.  1.
    9900012    2    1    2    0    0 -0.38084990447E+02  0.20726907553E+02  0.18847313267E+01  0.47787269520E+02  0.19999993050E+02 0.  0.
         12    1    1    2    0    0  0.38084990447E+02 -0.20726907553E+02 -0.18847313267E+01  0.43400730480E+02  0.00000000000E+00 0. -1.
         11    1    3    3    0    0 -0.12968083207E+02  0.48495229340E+01 -0.13383412213E+01  0.13909716469E+02  0.51100000000E-03 0. -1.
        -11    1    3    3    0    0 -0.14821487870E+02  0.33256020022E+01 -0.45801913645E+01  0.15865506123E+02  0.51100000000E-03 0.  1.
         12    1    3    3    0    0 -0.10295419369E+02  0.12551782616E+02  0.78032639125E+01  0.18012046928E+02  0.00000000000E+00 0. -1.
</event>
<event>
 7    1  0.2237500E-009  0.4778727E+02  0.7816164E-02  0.1312668E+00
        -11   -1    0    0    0    0  0.00000000000E+00  0.00000000000E+00  0.45593999997E+02  0.45594000000E+02  0.51100000000E-03 0. -1.
         11   -1    0    0    0    0 -0.00000000000E+00 -0.00000000000E+00 -0.45593999997E+02  0.45594000000E+02  0.51100000000E-03 0.  1.
    9900012    2    1    2    0    0 -0.22427284956E+02  0.24584001768E+02 -0.27861571135E+02  0.47787269596E+02  0.19999993398E+02 0.  0.
         12    1    1    2    0    0  0.22427284956E+02 -0.24584001768E+02  0.27861571135E+02  0.43400730404E+02  0.00000000000E+00 0. -1.
         11    1    3    3    0    0 -0.51347614961E+01  0.61538320002E+01 -0.46170927436E+00  0.80279885167E+01  0.51100000000E-03 0. -1.
        -11    1    3    3    0    0 -0.46193818745E+01  0.45653098022E+01 -0.17198228701E+02  0.18383683342E+02  0.51100000000E-03 0.  1.
        -12    1    3    3    0    0 -0.12673141586E+02  0.13864859966E+02 -0.10201633159E+02  0.21375597738E+02  0.00000000000E+00 0.  1.
</event>
<event>
 7    1  0.2237500E-009  0.4778727E+02  0.7816164E-02  0.1312668E+00
        -11   -1    0    0    0    0  0.00000000000E+00  0.00000000000E+00  0.45593999997E+02  0.45594000000E+02  0.51100000000E-03 0.  1.
         11   -1    0    0    0    0 -0.00000000000E+00 -0.00000000000E+00 -0.45593999997E+02  0.45594000000E+02  0.51100000000E-03 0. -1.
    9900012    2    1    2    0    0  0.92835862638E+01  0.12099139307E+02  0.40633107664E+02  0.47787267468E+02  0.19999983694E+02 0.  0.
         12    1    1    2    0    0 -0.92835862638E+01 -0.12099139307E+02 -0.40633107664E+02  0.43400732532E+02  0.00000000000E+00 0. -1.
         11    1    3    3    0    0  0.20524959772E+01  0.12595076198E+02  0.17900833028E+02  0.21983823769E+02  0.51100000000E-03 0. -1.
        -11    1    3    3    0    0  0.56540203866E+01  0.13233669624E+01  0.43278690266E+01  0.72422163197E+01  0.51100000000E-03 0.  1.
        -12    1    3    3    0    0  0.15770699000E+01 -0.18193038536E+01  0.18404405609E+02  0.18561227379E+02  0.00000000000E+00 0.  1.
</event>
<event>
 7    1  0.2237500E-009  0.4778727E+02  0.7816164E-02  0.1312668E+00
        -11   -1    0    0    0    0  0.00000000000E+00  0.00000000000E+00  0.45593999997E+02  0.45594000000E+02  0.51100000000E-03 0.  1.
         11   -1    0    0    0    0 -0.00000000000E+00 -0.00000000000E+00 -0.45593999997E+02  0.45594000000E+02  0.51100000000E-03 0. -1.
    9900012    2    1    2    0    0 -0.44763228738E+01  0.12721592151E+02  0.41252234209E+02  0.47787271889E+02  0.20000003852E+02 0.  0.
         12    1    1    2    0    0  0.44763228738E+01 -0.12721592151E+02 -0.41252234209E+02  0.43400728111E+02  0.00000000000E+00 0. -1.
         11    1    3    3    0    0  0.15252177815E+01 -0.21138129505E+01  0.13171917615E+01  0.29205288680E+01  0.51100000000E-03 0. -1.
        -11    1    3    3    0    0  0.21803744171E+01 -0.46599567326E+00  0.10186304551E+02  0.10427463030E+02  0.51100000000E-03 0.  1.
         12    1    3    3    0    0 -0.81819150725E+01  0.15301400775E+02  0.29748737896E+02  0.34439279991E+02  0.00000000000E+00 0. -1.
</event>
<event>
 7    1  0.2237500E-009  0.4778727E+02  0.7816164E-02  0.1312668E+00
        -11   -1    0    0    0    0  0.00000000000E+00  0.00000000000E+00  0.45593999997E+02  0.45594000000E+02  0.51100000000E-03 0. -1.
         11   -1    0    0    0    0 -0.00000000000E+00 -0.00000000000E+00 -0.45593999997E+02  0.45594000000E+02  0.51100000000E-03 0.  1.
    9900012    2    1    2    0    0 -0.12779737762E+02 -0.21041988020E+02 -0.35742636348E+02  0.47787274082E+02  0.20000013849E+02 0.  0.
         12    1    1    2    0    0  0.12779737762E+02  0.21041988020E+02  0.35742636348E+02  0.43400725918E+02  0.00000000000E+00 0. -1.
         11    1    3    3    0    0 -0.80065063900E+01 -0.25023270179E+00 -0.70063771053E+01  0.10642184051E+02  0.51100000000E-03 0. -1.
        -11    1    3    3    0    0 -0.49635579137E+01 -0.78351531518E+01 -0.62237841969E+01  0.11169692121E+02  0.51100000000E-03 0.  1.
         12    1    3    3    0    0  0.19032654177E+00 -0.12956602166E+02 -0.22512475046E+02  0.25975397910E+02  0.00000000000E+00 0. -1.
</event>
<event>
 7    1  0.2237500E-009  0.4778726E+02  0.7816164E-02  0.1312668E+00
        -11   -1    0    0    0    0  0.00000000000E+00  0.00000000000E+00  0.45593999997E+02  0.45594000000E+02  0.51100000000E-03 0.  1.
         11   -1    0    0    0    0 -0.00000000000E+00 -0.00000000000E+00 -0.45593999997E+02  0.45594000000E+02  0.51100000000E-03 0. -1.
    9900012    2    1    2    0    0  0.51923118908E+01 -0.16262707210E+02  0.39902239660E+02  0.47787257167E+02  0.19999936727E+02 0.  0.
         12    1    1    2    0    0 -0.51923118908E+01  0.16262707210E+02 -0.39902239660E+02  0.43400742833E+02  0.00000000000E+00 0. -1.
         11    1    3    3    0    0  0.11305187809E+00 -0.59533455962E+01  0.15838235484E+01  0.61614610125E+01  0.51100000000E-03 0. -1.
        -11    1    3    3    0    0  0.80738023109E+00  0.25392548037E+01  0.51072434901E+01  0.57605220357E+01  0.51100000000E-03 0.  1.
        -12    1    3    3    0    0  0.42718797816E+01 -0.12848616417E+02  0.33211172622E+02  0.35865274119E+02  0.00000000000E+00 0.  1.
</event>
<event>
 7    1  0.2237500E-009  0.4778727E+02  0.7816164E-02  0.1312668E+00
        -11   -1    0    0    0    0  0.00000000000E+00  0.00000000000E+00  0.45593999997E+02  0.45594000000E+02  0.51100000000E-03 0. -1.
         11   -1    0    0    0    0 -0.00000000000E+00 -0.00000000000E+00 -0.45593999997E+02  0.45594000000E+02  0.51100000000E-03 0.  1.
    9900012    2    1    2    0    0  0.18752127375E+02  0.67144745469E+01 -0.38560302399E+02  0.47787269929E+02  0.19999994916E+02 0.  0.
         12    1    1    2    0    0 -0.18752127375E+02 -0.67144745469E+01  0.38560302399E+02  0.43400730071E+02  0.00000000000E+00 0. -1.
         11    1    3    3    0    0  0.31446600157E+01  0.39527150112E+01 -0.81252887434E+01  0.95672963787E+01  0.51100000000E-03 0.  1.
        -11    1    3    3    0    0  0.30997029848E+01  0.55229195323E+01 -0.14015294560E+01  0.64865309551E+01  0.51100000000E-03 0. -1.
         12    1    3    3    0    0  0.12507764374E+02 -0.27611599966E+01 -0.29033484200E+02  0.31733442596E+02  0.00000000000E+00 0. -1.
</event>
<event>
 7    1  0.2237500E-009  0.4778727E+02  0.7816164E-02  0.1312668E+00
        -11   -1    0    0    0    0  0.00000000000E+00  0.00000000000E+00  0.45593999997E+02  0.45594000000E+02  0.51100000000E-03 0.  1.
         11   -1    0    0    0    0 -0.00000000000E+00 -0.00000000000E+00 -0.45593999997E+02  0.45594000000E+02  0.51100000000E-03 0. -1.
    9900012    2    1    2    0    0  0.22347130935E+02  0.32437175287E+02  0.18222476887E+02  0.47787271140E+02  0.20000000438E+02 0.  0.
         12    1    1    2    0    0 -0.22347130935E+02 -0.32437175287E+02 -0.18222476887E+02  0.43400728860E+02  0.00000000000E+00 0. -1.
         11    1    3    3    0    0  0.14533074367E+02  0.13660937727E+02  0.72789508615E+01  0.21232394967E+02  0.51100000000E-03 0. -1.
        -11    1    3    3    0    0  0.10877449120E+02  0.17907761956E+02  0.88544064203E+01  0.22746589875E+02  0.51100000000E-03 0.  1.
         12    1    3    3    0    0 -0.30633925521E+01  0.86847560426E+00  0.20891196057E+01  0.38082862984E+01  0.00000000000E+00 0. -1.
</event>
<event>
 7    1  0.2237500E-009  0.4778728E+02  0.7816164E-02  0.1312668E+00
        -11   -1    0    0    0    0  0.00000000000E+00  0.00000000000E+00  0.45593999997E+02  0.45594000000E+02  0.51100000000E-03 0.  1.
         11   -1    0    0    0    0 -0.00000000000E+00 -0.00000000000E+00 -0.45593999997E+02  0.45594000000E+02  0.51100000000E-03 0. -1.
    9900012    2    1    2    0    0 -0.10530736508E+02 -0.23201225394E+01  0.42039780269E+02  0.47787279901E+02  0.20000040383E+02 0.  0.
         12    1    1    2    0    0  0.10530736508E+02  0.23201225394E+01 -0.42039780269E+02  0.43400720099E+02  0.00000000000E+00 0. -1.
         11    1    3    3    0    0  0.27168450330E+00  0.17234553303E+01  0.18212562894E+01  0.25221192434E+01  0.51100000000E-03 0. -1.
        -11    1    3    3    0    0 -0.11377019551E+02 -0.47551884589E+01  0.12593900505E+02  0.17625399892E+02  0.51100000000E-03 0.  1.
        -12    1    3    3    0    0  0.57459853978E+00  0.71161058924E+00  0.27624623474E+02  0.27639760766E+02  0.00000000000E+00 0.  1.
</event>
<event>
 7    1  0.2237500E-009  0.4778727E+02  0.7816164E-02  0.1312668E+00
        -11   -1    0    0    0    0  0.00000000000E+00  0.00000000000E+00  0.45593999997E+02  0.45594000000E+02  0.51100000000E-03 0.  1.
         11   -1    0    0    0    0 -0.00000000000E+00 -0.00000000000E+00 -0.45593999997E+02  0.45594000000E+02  0.51100000000E-03 0. -1.
    9900012    2    1    2    0    0  0.96472215129E+01 -0.58731410158E+01  0.41905379037E+02  0.47787268893E+02  0.19999990193E+02 0.  0.
         12    1    1    2    0    0 -0.96472215129E+01  0.58731410158E+01 -0.41905379037E+02  0.43400731107E+02  0.00000000000E+00 0. -1.
         11    1    3    3    0    0 -0.70649637859E+00  0.28906847334E+01  0.18924514475E+02  0.19157046843E+02  0.51100000000E-03 0. -1.
        -11    1    3    3    0    0  0.71701504138E+01  0.29621667387E+00  0.12512791788E+02  0.14424588724E+02  0.51100000000E-03 0.  1.
        -12    1    3    3    0    0  0.31835674777E+01 -0.90600424231E+01  0.10468072775E+02  0.14205633327E+02  0.00000000000E+00 0.  1.
</event>
<event>
 7    1  0.2237500E-009  0.4778727E+02  0.7816164E-02  0.1312668E+00
        -11   -1    0    0    0    0  0.00000000000E+00  0.00000000000E+00  0.45593999997E+02  0.45594000000E+02  0.51100000000E-03 0. -1.
         11   -1    0    0    0    0 -0.00000000000E+00 -0.00000000000E+00 -0.45593999997E+02  0.45594000000E+02  0.51100000000E-03 0.  1.
    9900012    2    1    2    0    0 -0.14450673547E+02  0.48055894060E+01 -0.40641205029E+02  0.47787271876E+02  0.20000003792E+02 0.  0.
         12    1    1    2    0    0  0.14450673547E+02 -0.48055894060E+01  0.40641205029E+02  0.43400728124E+02  0.00000000000E+00 0. -1.
         11    1    3    3    0    0 -0.50616702269E+01  0.29052886429E+01 -0.43718552620E+01  0.72920728381E+01  0.51100000000E-03 0. -1.
        -11    1    3    3    0    0 -0.54600275961E+01  0.12168371245E+00 -0.17901158085E+01  0.57472796300E+01  0.51100000000E-03 0.  1.
        -12    1    3    3    0    0 -0.39289757238E+01  0.17786170506E+01 -0.34479233958E+02  0.34747919408E+02  0.00000000000E+00 0.  1.
</event>
<event>
 7    1  0.2237500E-009  0.4778727E+02  0.7816164E-02  0.1312668E+00
        -11   -1    0    0    0    0  0.00000000000E+00  0.00000000000E+00  0.45593999997E+02  0.45594000000E+02  0.51100000000E-03 0. -1.
         11   -1    0    0    0    0 -0.00000000000E+00 -0.00000000000E+00 -0.45593999997E+02  0.45594000000E+02  0.51100000000E-03 0.  1.
    9900012    2    1    2    0    0  0.17409052408E+02 -0.34688889293E+02 -0.19422389978E+02  0.47787269839E+02  0.19999994502E+02 0.  0.
         12    1    1    2    0    0 -0.17409052408E+02  0.34688889293E+02  0.19422389978E+02  0.43400730161E+02  0.00000000000E+00 0. -1.
         11    1    3    3    0    0  0.44006751234E+01  0.76007249913E+00 -0.52254717147E+01  0.68738058343E+01  0.51100000000E-03 0. -1.
        -11    1    3    3    0    0  0.57224443036E+01 -0.12792511917E+02 -0.86759647713E+01  0.16482326745E+02  0.51100000000E-03 0.  1.
         12    1    3    3    0    0  0.72859329808E+01 -0.22656449875E+02 -0.55209534917E+01  0.24431137260E+02  0.00000000000E+00 0. -1.
</event>
<event>
 7    1  0.2237500E-009  0.4778729E+02  0.7816164E-02  0.1312668E+00
        -11   -1    0    0    0    0  0.00000000000E+00  0.00000000000E+00  0.45593999997E+02  0.45594000000E+02  0.51100000000E-03 0. -1.
         11   -1    0    0    0    0 -0.00000000000E+00 -0.00000000000E+00 -0.45593999997E+02  0.45594000000E+02  0.51100000000E-03 0.  1.
    9900012    2    1    2    0    0 -0.18476319383E+01  0.13946832050E+02 -0.41057202615E+02  0.47787288548E+02  0.20000079805E+02 0.  0.
         12    1    1    2    0    0  0.18476319383E+01 -0.13946832050E+02  0.41057202615E+02  0.43400711452E+02  0.00000000000E+00 0. -1.
         11    1    3    3    0    0  0.18347404715E+01  0.63193919128E+01 -0.37070023444E+01  0.75526719369E+01  0.51100000000E-03 0. -1.
        -11    1    3    3    0    0  0.27506921027E+01  0.52354560185E+01 -0.28103803568E+02  0.28719332896E+02  0.51100000000E-03 0.  1.
         12    1    3    3    0    0 -0.64330645125E+01  0.23919841184E+01 -0.92463967024E+01  0.11515283714E+02  0.00000000000E+00 0. -1.
</event>
<event>
 7    1  0.2237500E-009  0.4778727E+02  0.7816164E-02  0.1312668E+00
        -11   -1    0    0    0    0  0.00000000000E+00  0.00000000000E+00  0.45593999997E+02  0.45594000000E+02  0.51100000000E-03 0.  1.
         11   -1    0    0    0    0 -0.00000000000E+00 -0.00000000000E+00 -0.45593999997E+02  0.45594000000E+02  0.51100000000E-03 0. -1.
    9900012    2    1    2    0    0  0.25740815011E+01  0.13760991403E+02  0.41080803885E+02  0.47787271575E+02  0.20000002420E+02 0.  0.
         12    1    1    2    0    0 -0.25740815011E+01 -0.13760991403E+02 -0.41080803885E+02  0.43400728425E+02  0.00000000000E+00 0. -1.
         11    1    3    3    0    0  0.26384637912E+01 -0.30180542624E+01  0.50655223889E+01  0.64598498467E+01  0.51100000000E-03 0. -1.
        -11    1    3    3    0    0  0.15062827123E+01  0.38980828976E+01  0.21307856456E+02  0.21713790201E+02  0.51100000000E-03 0.  1.
         12    1    3    3    0    0 -0.15706650024E+01  0.12880962768E+02  0.14707425040E+02  0.19613631527E+02  0.00000000000E+00 0. -1.
</event>
<event>
 7    1  0.2237500E-009  0.4778727E+02  0.7816164E-02  0.1312668E+00
        -11   -1    0    0    0    0  0.00000000000E+00  0.00000000000E+00  0.45593999997E+02  0.45594000000E+02  0.51100000000E-03 0.  1.
         11   -1    0    0    0    0 -0.00000000000E+00 -0.00000000000E+00 -0.45593999997E+02  0.45594000000E+02  0.51100000000E-03 0. -1.
    9900012    2    1    2    0    0  0.86949140109E+01  0.26432040989E+02  0.33307191429E+02  0.47787270497E+02  0.19999997502E+02 0.  0.
         12    1    1    2    0    0 -0.86949140109E+01 -0.26432040989E+02 -0.33307191429E+02  0.43400729503E+02  0.00000000000E+00 0. -1.
         11    1    3    3    0    0 -0.46854081326E+00 -0.92484430367E+00 -0.12882766084E+01  0.16536397312E+01  0.51100000000E-03 0. -1.
        -11    1    3    3    0    0  0.20733527839E+01  0.11899465084E+02  0.77376871924E+01  0.14344610988E+02  0.51100000000E-03 0.  1.
        -12    1    3    3    0    0  0.70901020403E+01  0.15457420209E+02  0.26857780845E+02  0.31789019777E+02  0.00000000000E+00 0.  1.
</event>
<event>
 7    1  0.2237500E-009  0.4778727E+02  0.7816164E-02  0.1312668E+00
        -11   -1    0    0    0    0  0.00000000000E+00  0.00000000000E+00  0.45593999997E+02  0.45594000000E+02  0.51100000000E-03 0. -1.
         11   -1    0    0    0    0 -0.00000000000E+00 -0.00000000000E+00 -0.45593999997E+02  0.45594000000E+02  0.51100000000E-03 0.  1.
    9900012    2    1    2    0    0  0.68829078426E+01  0.20141868444E+02 -0.37822667407E+02  0.47787268963E+02  0.19999990508E+02 0.  0.
         12    1    1    2    0    0 -0.68829078426E+01 -0.20141868444E+02  0.37822667407E+02  0.43400731037E+02  0.00000000000E+00 0. -1.
         11    1    3    3    0    0  0.25813177147E+01 -0.48837590940E+00 -0.78718006849E+00  0.27425106917E+01  0.51100000000E-03 0.  1.
        -11    1    3    3    0    0  0.89471304278E+01  0.84133280357E+01 -0.14589663700E+02  0.19070750344E+02  0.51100000000E-03 0. -1.
        -12    1    3    3    0    0 -0.46455402998E+01  0.12216916317E+02 -0.22445823638E+02  0.25974007927E+02  0.00000000000E+00 0.  1.
</event>
<event>
 7    1  0.2237500E-009  0.4778727E+02  0.7816164E-02  0.1312668E+00
        -11   -1    0    0    0    0  0.00000000000E+00  0.00000000000E+00  0.45593999997E+02  0.45594000000E+02  0.51100000000E-03 0. -1.
         11   -1    0    0    0    0 -0.00000000000E+00 -0.00000000000E+00 -0.45593999997E+02  0.45594000000E+02  0.51100000000E-03 0.  1.
    9900012    2    1    2    0    0  0.61386369403E+01  0.15661392987E+02 -0.40008266956E+02  0.47787268225E+02  0.19999987145E+02 0.  0.
         12    1    1    2    0    0 -0.61386369403E+01 -0.15661392987E+02  0.40008266956E+02  0.43400731775E+02  0.00000000000E+00 0. -1.
         11    1    3    3    0    0  0.83427931193E+01  0.91225456275E+01 -0.16435949915E+02  0.20566076087E+02  0.51100000000E-03 0. -1.
        -11    1    3    3    0    0  0.53649847809E+00  0.92292108594E+01 -0.12835773395E+02  0.15818446277E+02  0.51100000000E-03 0.  1.
         12    1    3    3    0    0 -0.27406546571E+01 -0.26903634996E+01 -0.10736543646E+02  0.11402745861E+02  0.00000000000E+00 0. -1.
</event>
<event>
 7    1  0.2237500E-009  0.4778727E+02  0.7816164E-02  0.1312668E+00
        -11   -1    0    0    0    0  0.00000000000E+00  0.00000000000E+00  0.45593999997E+02  0.45594000000E+02  0.51100000000E-03 0.  1.
         11   -1    0    0    0    0 -0.00000000000E+00 -0.00000000000E+00 -0.45593999997E+02  0.45594000000E+02  0.51100000000E-03 0. -1.
    9900012    2    1    2    0    0 -0.22608104039E+02  0.31721158629E+02  0.19138053996E+02  0.47787269779E+02  0.19999994229E+02 0.  0.
         12    1    1    2    0    0  0.22608104039E+02 -0.31721158629E+02 -0.19138053996E+02  0.43400730221E+02  0.00000000000E+00 0. -1.
         11    1    3    3    0    0 -0.23201905609E+01  0.23289650067E+01  0.24286431053E+01  0.40872570062E+01  0.51100000000E-03 0. -1.
        -11    1    3    3    0    0 -0.19607788652E+02  0.27334144839E+02  0.78017377361E+01  0.34532418998E+02  0.51100000000E-03 0.  1.
         12    1    3    3    0    0 -0.68012482624E+00  0.20580487828E+01  0.89076731551E+01  0.91675937742E+01  0.00000000000E+00 0. -1.
</event>
<event>
 7    1  0.2237500E-009  0.4778727E+02  0.7816164E-02  0.1312668E+00
        -11   -1    0    0    0    0  0.00000000000E+00  0.00000000000E+00  0.45593999997E+02  0.45594000000E+02  0.51100000000E-03 0.  1.
         11   -1    0    0    0    0 -0.00000000000E+00 -0.00000000000E+00 -0.45593999997E+02  0.45594000000E+02  0.51100000000E-03 0. -1.
    9900012    2    1    2    0    0  0.18928783983E+02  0.32575130502E+02  0.21544956266E+02  0.47787272692E+02  0.20000007514E+02 0.  0.
         12    1    1    2    0    0 -0.18928783983E+02 -0.32575130502E+02 -0.21544956266E+02  0.43400727308E+02  0.00000000000E+00 0. -1.
         11    1    3    3    0    0 -0.11238680577E+01 -0.12027549862E+01  0.16657642995E+01  0.23418945174E+01  0.51100000000E-03 0. -1.
        -11    1    3    3    0    0  0.22056839790E+01  0.12651517740E+02  0.92079305807E+01  0.15802276063E+02  0.51100000000E-03 0.  1.
        -12    1    3    3    0    0  0.17846968062E+02  0.21126367749E+02  0.10671261386E+02  0.29643102112E+02  0.00000000000E+00 0.  1.
</event>
<event>
 7    1  0.2237500E-009  0.4778725E+02  0.7816164E-02  0.1312668E+00
        -11   -1    0    0    0    0  0.00000000000E+00  0.00000000000E+00  0.45593999997E+02  0.45594000000E+02  0.51100000000E-03 0. -1.
         11   -1    0    0    0    0 -0.00000000000E+00 -0.00000000000E+00 -0.45593999997E+02  0.45594000000E+02  0.51100000000E-03 0.  1.
    9900012    2    1    2    0    0 -0.11581519605E+02 -0.28802388296E+02 -0.30330116509E+02  0.47787249599E+02  0.19999902221E+02 0.  0.
         12    1    1    2    0    0  0.11581519605E+02  0.28802388296E+02  0.30330116509E+02  0.43400750401E+02  0.00000000000E+00 0. -1.
         11    1    3    3    0    0 -0.64324887872E+01 -0.46061641356E+01 -0.62261981571E+01  0.10067730817E+02  0.51100000000E-03 0. -1.
        -11    1    3    3    0    0 -0.55434968437E+01 -0.25881293238E+02 -0.19721359111E+02  0.33007630972E+02  0.51100000000E-03 0.  1.
         12    1    3    3    0    0  0.39446602569E+00  0.16850690772E+01 -0.43825592406E+01  0.47118878104E+01  0.00000000000E+00 0. -1.
</event>
<event>
 7    1  0.2237500E-009  0.4778727E+02  0.7816164E-02  0.1312668E+00
        -11   -1    0    0    0    0  0.00000000000E+00  0.00000000000E+00  0.45593999997E+02  0.45594000000E+02  0.51100000000E-03 0.  1.
         11   -1    0    0    0    0 -0.00000000000E+00 -0.00000000000E+00 -0.45593999997E+02  0.45594000000E+02  0.51100000000E-03 0. -1.
    9900012    2    1    2    0    0 -0.23091539793E+02 -0.34672164017E+02  0.12175594343E+02  0.47787271144E+02  0.20000000454E+02 0.  0.
         12    1    1    2    0    0  0.23091539793E+02  0.34672164017E+02 -0.12175594343E+02  0.43400728856E+02  0.00000000000E+00 0. -1.
         11    1    3    3    0    0 -0.75092840607E+01 -0.87369608669E+01  0.68696638694E+01  0.13413281263E+02  0.51100000000E-03 0. -1.
        -11    1    3    3    0    0 -0.15860354527E+02 -0.27356846238E+02  0.67436714926E+01  0.32333032448E+02  0.51100000000E-03 0.  1.
         12    1    3    3    0    0  0.27809879489E+00  0.14216430876E+01 -0.14377410191E+01  0.20409574337E+01  0.00000000000E+00 0. -1.
</event>
<event>
 7    1  0.2237500E-009  0.4778726E+02  0.7816164E-02  0.1312668E+00
        -11   -1    0    0    0    0  0.00000000000E+00  0.00000000000E+00  0.45593999997E+02  0.45594000000E+02  0.51100000000E-03 0.  1.
         11   -1    0    0    0    0 -0.00000000000E+00 -0.00000000000E+00 -0.45593999997E+02  0.45594000000E+02  0.51100000000E-03 0. -1.
    9900012    2    1    2    0    0  0.24907145867E+01  0.43265676884E+02  0.23455630933E+01  0.47787261279E+02  0.19999955473E+02 0.  0.
         12    1    1    2    0    0 -0.24907145867E+01 -0.43265676884E+02 -0.23455630933E+01  0.43400738721E+02  0.00000000000E+00 0. -1.
         11    1    3    3    0    0  0.28782558233E+01  0.14349247363E+02  0.81709481616E+00  0.14657861395E+02  0.51100000000E-03 0. -1.
        -11    1    3    3    0    0  0.28146125818E+01  0.26065296834E+02  0.60420302994E+01  0.26904049388E+02  0.51100000000E-03 0.  1.
         12    1    3    3    0    0 -0.32021538184E+01  0.28511326862E+01 -0.45135620223E+01  0.62253504962E+01  0.00000000000E+00 0. -1.
</event>
<event>
 7    1  0.2237500E-009  0.4778727E+02  0.7816164E-02  0.1312668E+00
        -11   -1    0    0    0    0  0.00000000000E+00  0.00000000000E+00  0.45593999997E+02  0.45594000000E+02  0.51100000000E-03 0. -1.
         11   -1    0    0    0    0 -0.00000000000E+00 -0.00000000000E+00 -0.45593999997E+02  0.45594000000E+02  0.51100000000E-03 0.  1.
    9900012    2    1    2    0    0 -0.48821317125E+01 -0.42639734589E+02 -0.64529951449E+01  0.47787270487E+02  0.19999997458E+02 0.  0.
         12    1    1    2    0    0  0.48821317125E+01  0.42639734589E+02  0.64529951449E+01  0.43400729513E+02  0.00000000000E+00 0. -1.
         11    1    3    3    0    0  0.46737757385E+01 -0.12957661615E+02 -0.66294814677E+00  0.13790745980E+02  0.51100000000E-03 0. -1.
        -11    1    3    3    0    0 -0.89591440111E+01 -0.86737965628E+01 -0.16974404600E+01  0.12585003480E+02  0.51100000000E-03 0.  1.
         12    1    3    3    0    0 -0.59676343988E+00 -0.21008276411E+02 -0.40926065381E+01  0.21411521026E+02  0.00000000000E+00 0. -1.
</event>
<event>
 7    1  0.2237500E-009  0.4778727E+02  0.7816164E-02  0.1312668E+00
        -11   -1    0    0    0    0  0.00000000000E+00  0.00000000000E+00  0.45593999997E+02  0.45594000000E+02  0.51100000000E-03 0.  1.
         11   -1    0    0    0    0 -0.00000000000E+00 -0.00000000000E+00 -0.45593999997E+02  0.45594000000E+02  0.51100000000E-03 0. -1.
    9900012    2    1    2    0    0 -0.12475318748E+02 -0.31967789967E+02  0.26571601760E+02  0.47787271972E+02  0.20000004230E+02 0.  0.
         12    1    1    2    0    0  0.12475318748E+02  0.31967789967E+02 -0.26571601760E+02  0.43400728028E+02  0.00000000000E+00 0. -1.
         11    1    3    3    0    0 -0.20713715643E+00 -0.47136544607E+01 -0.79189431138E+00  0.47841970108E+01  0.51100000000E-03 0. -1.
        -11    1    3    3    0    0 -0.83606747339E+01 -0.36079460829E+01  0.90704968218E+01  0.12852706711E+02  0.51100000000E-03 0.  1.
         12    1    3    3    0    0 -0.39075068576E+01 -0.23646189423E+02  0.18292999250E+02  0.30150368250E+02  0.00000000000E+00 0. -1.
</event>
<event>
 7    1  0.2237500E-009  0.4778727E+02  0.7816164E-02  0.1312668E+00
        -11   -1    0    0    0    0  0.00000000000E+00  0.00000000000E+00  0.45593999997E+02  0.45594000000E+02  0.51100000000E-03 0.  1.
         11   -1    0    0    0    0 -0.00000000000E+00 -0.00000000000E+00 -0.45593999997E+02  0.45594000000E+02  0.51100000000E-03 0. -1.
    9900012    2    1    2    0    0  0.40537703601E+02 -0.87501296311E+01  0.12796623192E+02  0.47787265595E+02  0.19999975153E+02 0.  0.
         12    1    1    2    0    0 -0.40537703601E+02  0.87501296311E+01 -0.12796623192E+02  0.43400734405E+02  0.00000000000E+00 0. -1.
         11    1    3    3    0    0  0.14814554483E+01  0.38384792849E+00  0.26933577061E+01  0.30977775052E+01  0.51100000000E-03 0. -1.
        -11    1    3    3    0    0  0.16576041327E+02 -0.51396416443E+01  0.12986891733E+02  0.21675802625E+02  0.51100000000E-03 0.  1.
         12    1    3    3    0    0  0.22480206826E+02 -0.39943359153E+01 -0.28836262468E+01  0.23013685465E+02  0.00000000000E+00 0. -1.
</event>
<event>
 7    1  0.2237500E-009  0.4778727E+02  0.7816164E-02  0.1312668E+00
        -11   -1    0    0    0    0  0.00000000000E+00  0.00000000000E+00  0.45593999997E+02  0.45594000000E+02  0.51100000000E-03 0.  1.
         11   -1    0    0    0    0 -0.00000000000E+00 -0.00000000000E+00 -0.45593999997E+02  0.45594000000E+02  0.51100000000E-03 0. -1.
    9900012    2    1    2    0    0 -0.40427103127E+02 -0.42624397338E+01  0.15202124776E+02  0.47787266626E+02  0.19999979855E+02 0.  0.
         12    1    1    2    0    0  0.40427103127E+02  0.42624397338E+01 -0.15202124776E+02  0.43400733374E+02  0.00000000000E+00 0. -1.
         11    1    3    3    0    0 -0.70681769705E+00  0.11483074040E+01 -0.14182234933E+00  0.13558447518E+01  0.51100000000E-03 0. -1.
        -11    1    3    3    0    0 -0.81029632673E+01 -0.85714315577E+01  0.64100398427E+01  0.13424457669E+02  0.51100000000E-03 0.  1.
         12    1    3    3    0    0 -0.31617322162E+02  0.31606844199E+01  0.89339072825E+01  0.33006964205E+02  0.00000000000E+00 0. -1.
</event>
<event>
 7    1  0.2237500E-009  0.4778727E+02  0.7816164E-02  0.1312668E+00
        -11   -1    0    0    0    0  0.00000000000E+00  0.00000000000E+00  0.45593999997E+02  0.45594000000E+02  0.51100000000E-03 0.  1.
         11   -1    0    0    0    0 -0.00000000000E+00 -0.00000000000E+00 -0.45593999997E+02  0.45594000000E+02  0.51100000000E-03 0. -1.
    9900012    2    1    2    0    0 -0.21736856478E+02  0.36447394404E+02  0.90950309639E+01  0.47787273317E+02  0.20000010361E+02 0.  0.
         12    1    1    2    0    0  0.21736856478E+02 -0.36447394404E+02 -0.90950309639E+01  0.43400726683E+02  0.00000000000E+00 0. -1.
         11    1    3    3    0    0 -0.82714608785E+00 -0.15551838427E+01  0.20918305274E+00  0.17738447638E+01  0.51100000000E-03 0. -1.
        -11    1    3    3    0    0 -0.40689629726E+01  0.71964946380E+01 -0.32258631689E+01  0.88742429645E+01  0.51100000000E-03 0.  1.
         12    1    3    3    0    0 -0.16840747417E+02  0.30806083609E+02  0.12111711080E+02  0.37139185589E+02  0.00000000000E+00 0. -1.
</event>
<event>
 7    1  0.2237500E-009  0.4778727E+02  0.7816164E-02  0.1312668E+00
        -11   -1    0    0    0    0  0.00000000000E+00  0.00000000000E+00  0.45593999997E+02  0.45594000000E+02  0.51100000000E-03 0. -1.
         11   -1    0    0    0    0 -0.00000000000E+00 -0.00000000000E+00 -0.45593999997E+02  0.45594000000E+02  0.51100000000E-03 0.  1.
    9900012    2    1    2    0    0 -0.73346619514E+01  0.20401175266E+02 -0.37598110405E+02  0.47787272768E+02  0.20000007861E+02 0.  0.
         12    1    1    2    0    0  0.73346619514E+01 -0.20401175266E+02  0.37598110405E+02  0.43400727232E+02  0.00000000000E+00 0. -1.
         11    1    3    3    0    0 -0.23979319939E+01  0.21623981137E+01 -0.53199674675E+01  0.62231903044E+01  0.51100000000E-03 0.  1.
        -11    1    3    3    0    0 -0.60173219586E+01  0.18162011293E+01 -0.20184350817E+02  0.21140358755E+02  0.51100000000E-03 0. -1.
         12    1    3    3    0    0  0.10805920011E+01  0.16422576023E+02 -0.12093792120E+02  0.20423723709E+02  0.00000000000E+00 0. -1.
</event>
<event>
 7    1  0.2237500E-009  0.4778727E+02  0.7816164E-02  0.1312668E+00
        -11   -1    0    0    0    0  0.00000000000E+00  0.00000000000E+00  0.45593999997E+02  0.45594000000E+02  0.51100000000E-03 0.  1.
         11   -1    0    0    0    0 -0.00000000000E+00 -0.00000000000E+00 -0.45593999997E+02  0.45594000000E+02  0.51100000000E-03 0. -1.
    9900012    2    1    2    0    0  0.24518992589E+02  0.21246448152E+02  0.28827606001E+02  0.47787269310E+02  0.19999992093E+02 0.  0.
         12    1    1    2    0    0 -0.24518992589E+02 -0.21246448152E+02 -0.28827606001E+02  0.43400730690E+02  0.00000000000E+00 0. -1.
         11    1    3    3    0    0  0.97532597834E+01  0.48257417204E+01  0.11835561475E+02  0.16077760269E+02  0.51100000000E-03 0. -1.
        -11    1    3    3    0    0  0.14301513090E+02  0.86789624838E+01  0.17142344003E+02  0.23952403317E+02  0.51100000000E-03 0.  1.
         12    1    3    3    0    0  0.46421971629E+00  0.77417439478E+01 -0.15029947805E+00  0.77571057252E+01  0.00000000000E+00 0. -1.
</event>
<event>
 7    1  0.2237500E-009  0.4778727E+02  0.7816164E-02  0.1312668E+00
        -11   -1    0    0    0    0  0.00000000000E+00  0.00000000000E+00  0.45593999997E+02  0.45594000000E+02  0.51100000000E-03 0.  1.
         11   -1    0    0    0    0 -0.00000000000E+00 -0.00000000000E+00 -0.45593999997E+02  0.45594000000E+02  0.51100000000E-03 0. -1.
    9900012    2    1    2    0    0  0.12983786342E+02  0.29487119912E+02  0.29078412098E+02  0.47787274216E+02  0.20000014459E+02 0.  0.
         12    1    1    2    0    0 -0.12983786342E+02 -0.29487119912E+02 -0.29078412098E+02  0.43400725784E+02  0.00000000000E+00 0. -1.
         11    1    3    3    0    0  0.40521653630E+01  0.90484345915E+01  0.94094472547E+01  0.13668646992E+02  0.51100000000E-03 0. -1.
        -11    1    3    3    0    0  0.63827904508E+01  0.22278409345E+02  0.20419021533E+02  0.30886954811E+02  0.51100000000E-03 0.  1.
         12    1    3    3    0    0  0.25488305281E+01 -0.18397240244E+01 -0.75005668964E+00  0.32316724129E+01  0.00000000000E+00 0. -1.
</event>
<event>
 7    1  0.2237500E-009  0.4778727E+02  0.7816164E-02  0.1312668E+00
        -11   -1    0    0    0    0  0.00000000000E+00  0.00000000000E+00  0.45593999997E+02  0.45594000000E+02  0.51100000000E-03 0.  1.
         11   -1    0    0    0    0 -0.00000000000E+00 -0.00000000000E+00 -0.45593999997E+02  0.45594000000E+02  0.51100000000E-03 0. -1.
    9900012    2    1    2    0    0 -0.36232337752E+02  0.52892248600E+01  0.23299464306E+02  0.47787271486E+02  0.20000002015E+02 0.  0.
         12    1    1    2    0    0  0.36232337752E+02 -0.52892248600E+01 -0.23299464306E+02  0.43400728514E+02  0.00000000000E+00 0. -1.
         11    1    3    3    0    0 -0.30318976249E+01 -0.31789238174E+01 -0.75681522324E+00  0.44576596312E+01  0.51100000000E-03 0. -1.
        -11    1    3    3    0    0 -0.92118101281E+01 -0.26501250195E+01  0.58942848095E+01  0.11252697549E+02  0.51100000000E-03 0.  1.
         12    1    3    3    0    0 -0.23988629999E+02  0.11118273697E+02  0.18161994720E+02  0.32076914306E+02  0.00000000000E+00 0. -1.
</event>
<event>
 7    1  0.2237500E-009  0.4778726E+02  0.7816164E-02  0.1312668E+00
        -11   -1    0    0    0    0  0.00000000000E+00  0.00000000000E+00  0.45593999997E+02  0.45594000000E+02  0.51100000000E-03 0. -1.
         11   -1    0    0    0    0 -0.00000000000E+00 -0.00000000000E+00 -0.45593999997E+02  0.45594000000E+02  0.51100000000E-03 0.  1.
    9900012    2    1    2    0    0 -0.25413062673E+02  0.33929941005E+02  0.93037198867E+01  0.47787264352E+02  0.19999969486E+02 0.  0.
         12    1    1    2    0    0  0.25413062673E+02 -0.33929941005E+02 -0.93037198867E+01  0.43400735648E+02  0.00000000000E+00 0. -1.
         11    1    3    3    0    0 -0.18112774879E+02  0.19950432759E+02  0.18419924195E+01  0.27008985865E+02  0.51100000000E-03 0. -1.
        -11    1    3    3    0    0 -0.36633138075E+01  0.56557978173E+00 -0.17554922283E+01  0.41014024146E+01  0.51100000000E-03 0.  1.
         12    1    3    3    0    0 -0.36369739865E+01  0.13413928465E+02  0.92172196955E+01  0.16676876073E+02  0.00000000000E+00 0. -1.
</event>
<event>
 7    1  0.2237500E-009  0.4778728E+02  0.7816164E-02  0.1312668E+00
        -11   -1    0    0    0    0  0.00000000000E+00  0.00000000000E+00  0.45593999997E+02  0.45594000000E+02  0.51100000000E-03 0.  1.
         11   -1    0    0    0    0 -0.00000000000E+00 -0.00000000000E+00 -0.45593999997E+02  0.45594000000E+02  0.51100000000E-03 0. -1.
    9900012    2    1    2    0    0 -0.34499633463E+02  0.69167302853E+01  0.25407812642E+02  0.47787276387E+02  0.20000024357E+02 0.  0.
         12    1    1    2    0    0  0.34499633463E+02 -0.69167302853E+01 -0.25407812642E+02  0.43400723613E+02  0.00000000000E+00 0. -1.
         11    1    3    3    0    0 -0.11503315196E+01 -0.10024921334E+01 -0.46512970368E+00  0.15951799224E+01  0.51100000000E-03 0. -1.
        -11    1    3    3    0    0 -0.16576008412E+02  0.11622817400E+02  0.18759173061E+02  0.27600009300E+02  0.51100000000E-03 0.  1.
        -12    1    3    3    0    0 -0.16773293531E+02 -0.37035949810E+01  0.71137692847E+01  0.18592087164E+02  0.00000000000E+00 0.  1.
</event>
<event>
 7    1  0.2751393E-009  0.4778726E+02  0.7816164E-02  0.1312668E+00
        -11   -1    0    0    0    0  0.00000000000E+00  0.00000000000E+00  0.45593999997E+02  0.45594000000E+02  0.51100000000E-03 0. -1.
         11   -1    0    0    0    0 -0.00000000000E+00 -0.00000000000E+00 -0.45593999997E+02  0.45594000000E+02  0.51100000000E-03 0.  1.
    9900012    2    1    2    0    0  0.16851865479E+02 -0.13345978789E+02 -0.37703097016E+02  0.47787262166E+02  0.19999959519E+02 0.  0.
         12    1    1    2    0    0 -0.16851865479E+02  0.13345978789E+02  0.37703097016E+02  0.43400737834E+02  0.00000000000E+00 0. -1.
         11    1    3    3    0    0 -0.21067985587E+01 -0.19629415891E+01 -0.14167038029E+01  0.32091727556E+01  0.51100000000E-03 0. -1.
        -11    1    3    3    0    0  0.44895522624E+01 -0.36006434261E+01 -0.22209212073E+02  0.22942750789E+02  0.51100000000E-03 0.  1.
        -12    1    3    3    0    0  0.14469111775E+02 -0.77823937735E+01 -0.14077181140E+02  0.21635338621E+02  0.00000000000E+00 0.  1.
</event>
<event>
 7    1  0.2237500E-009  0.4778728E+02  0.7816164E-02  0.1312668E+00
        -11   -1    0    0    0    0  0.00000000000E+00  0.00000000000E+00  0.45593999997E+02  0.45594000000E+02  0.51100000000E-03 0.  1.
         11   -1    0    0    0    0 -0.00000000000E+00 -0.00000000000E+00 -0.45593999997E+02  0.45594000000E+02  0.51100000000E-03 0. -1.
    9900012    2    1    2    0    0 -0.61663127170E+01 -0.14550413444E+02  0.40421339130E+02  0.47787278796E+02  0.20000035344E+02 0.  0.
         12    1    1    2    0    0  0.61663127170E+01  0.14550413444E+02 -0.40421339130E+02  0.43400721204E+02  0.00000000000E+00 0. -1.
         11    1    3    3    0    0 -0.14992459218E+01 -0.31135674448E+01 -0.79504994691E+00  0.35460041239E+01  0.51100000000E-03 0. -1.
        -11    1    3    3    0    0 -0.20734817782E+01 -0.80708856874E+01  0.11384903449E+02  0.14108669294E+02  0.51100000000E-03 0.  1.
        -12    1    3    3    0    0 -0.25935850171E+01 -0.33659603121E+01  0.29831485628E+02  0.30132605378E+02  0.00000000000E+00 0.  1.
</event>
<event>
 7    1  0.2237500E-009  0.4778727E+02  0.7816164E-02  0.1312668E+00
        -11   -1    0    0    0    0  0.00000000000E+00  0.00000000000E+00  0.45593999997E+02  0.45594000000E+02  0.51100000000E-03 0.  1.
         11   -1    0    0    0    0 -0.00000000000E+00 -0.00000000000E+00 -0.45593999997E+02  0.45594000000E+02  0.51100000000E-03 0. -1.
    9900012    2    1    2    0    0  0.12900255001E+02 -0.41359713010E+02  0.25653809174E+01  0.47787267073E+02  0.19999981891E+02 0.  0.
         12    1    1    2    0    0 -0.12900255001E+02  0.41359713010E+02 -0.25653809174E+01  0.43400732927E+02  0.00000000000E+00 0. -1.
         11    1    3    3    0    0  0.39141375271E+01 -0.26077433807E+02 -0.35547206233E+01  0.26608063919E+02  0.51100000000E-03 0. -1.
        -11    1    3    3    0    0 -0.14761911784E+01 -0.35332549377E+00 -0.75571776774E+00  0.16956087123E+01  0.51100000000E-03 0.  1.
        -12    1    3    3    0    0  0.10462308652E+02 -0.14928953710E+02  0.68758193084E+01  0.19483594441E+02  0.00000000000E+00 0.  1.
</event>
<event>
 7    1  0.2237500E-009  0.4778727E+02  0.7816164E-02  0.1312668E+00
        -11   -1    0    0    0    0  0.00000000000E+00  0.00000000000E+00  0.45593999997E+02  0.45594000000E+02  0.51100000000E-03 0.  1.
         11   -1    0    0    0    0 -0.00000000000E+00 -0.00000000000E+00 -0.45593999997E+02  0.45594000000E+02  0.51100000000E-03 0. -1.
    9900012    2    1    2    0    0  0.25113081437E+02  0.51619718080E+01  0.35018722078E+02  0.47787266042E+02  0.19999977190E+02 0.  0.
         12    1    1    2    0    0 -0.25113081437E+02 -0.51619718080E+01 -0.35018722078E+02  0.43400733958E+02  0.00000000000E+00 0. -1.
         11    1    3    3    0    0  0.24761280145E+01 -0.23533848922E+01  0.42694604953E+01  0.54678993752E+01  0.51100000000E-03 0. -1.
        -11    1    3    3    0    0  0.12327969569E+02 -0.11171209874E+01  0.24589806472E+02  0.27529718044E+02  0.51100000000E-03 0.  1.
         12    1    3    3    0    0  0.10308983853E+02  0.86324776876E+01  0.61594551101E+01  0.14789648622E+02  0.00000000000E+00 0. -1.
</event>
<event>
 7    1  0.2237500E-009  0.4778727E+02  0.7816164E-02  0.1312668E+00
        -11   -1    0    0    0    0  0.00000000000E+00  0.00000000000E+00  0.45593999997E+02  0.45594000000E+02  0.51100000000E-03 0.  1.
         11   -1    0    0    0    0 -0.00000000000E+00 -0.00000000000E+00 -0.45593999997E+02  0.45594000000E+02  0.51100000000E-03 0. -1.
    9900012    2    1    2    0    0 -0.28986787887E+02 -0.12397339672E+02  0.29827761148E+02  0.47787271457E+02  0.20000001883E+02 0.  0.
         12    1    1    2    0    0  0.28986787887E+02  0.12397339672E+02 -0.29827761148E+02  0.43400728543E+02  0.00000000000E+00 0. -1.
         11    1    3    3    0    0  0.17034294639E+01 -0.11542629929E+01  0.41816693507E+00  0.20997282781E+01  0.51100000000E-03 0. -1.
        -11    1    3    3    0    0 -0.14503359562E+02 -0.11866218117E+02  0.16638344967E+02  0.25059710582E+02  0.51100000000E-03 0.  1.
         12    1    3    3    0    0 -0.16186857789E+02  0.62314143856E+00  0.12771249246E+02  0.20627832597E+02  0.00000000000E+00 0. -1.
</event>
<event>
 7    1  0.2237500E-009  0.4778727E+02  0.7816164E-02  0.1312668E+00
        -11   -1    0    0    0    0  0.00000000000E+00  0.00000000000E+00  0.45593999997E+02  0.45594000000E+02  0.51100000000E-03 0. -1.
         11   -1    0    0    0    0 -0.00000000000E+00 -0.00000000000E+00 -0.45593999997E+02  0.45594000000E+02  0.51100000000E-03 0.  1.
    9900012    2    1    2    0    0 -0.28222519379E+02  0.33919210415E+01 -0.32796459938E+02  0.47787268291E+02  0.19999987446E+02 0.  0.
         12    1    1    2    0    0  0.28222519379E+02 -0.33919210415E+01  0.32796459938E+02  0.43400731709E+02  0.00000000000E+00 0. -1.
         11    1    3    3    0    0 -0.34912162467E+01  0.42964387513E+01 -0.32748365635E+01  0.64321482884E+01  0.51100000000E-03 0. -1.
        -11    1    3    3    0    0 -0.21139275590E+02  0.52218976336E+01 -0.20859514139E+02  0.30153880642E+02  0.51100000000E-03 0.  1.
         12    1    3    3    0    0 -0.35920275424E+01 -0.61264153434E+01 -0.86621092347E+01  0.11201239361E+02  0.00000000000E+00 0. -1.
</event>
<event>
 7    1  0.2237500E-009  0.4778727E+02  0.7816164E-02  0.1312668E+00
        -11   -1    0    0    0    0  0.00000000000E+00  0.00000000000E+00  0.45593999997E+02  0.45594000000E+02  0.51100000000E-03 0.  1.
         11   -1    0    0    0    0 -0.00000000000E+00 -0.00000000000E+00 -0.45593999997E+02  0.45594000000E+02  0.51100000000E-03 0. -1.
    9900012    2    1    2    0    0  0.43012418500E+02  0.36527690109E+01  0.44958361014E+01  0.47787269489E+02  0.19999992908E+02 0.  0.
         12    1    1    2    0    0 -0.43012418500E+02 -0.36527690109E+01 -0.44958361014E+01  0.43400730511E+02  0.00000000000E+00 0. -1.
         11    1    3    3    0    0  0.10028991468E+02  0.60671505127E+01 -0.22547909640E+01  0.11936292044E+02  0.51100000000E-03 0. -1.
        -11    1    3    3    0    0  0.16103694473E+01  0.17606002473E+01  0.32161858582E+01  0.40046041905E+01  0.51100000000E-03 0.  1.
        -12    1    3    3    0    0  0.31373057584E+02 -0.41749817490E+01  0.35344412072E+01  0.31846373254E+02  0.00000000000E+00 0.  1.
</event>
<event>
 7    1  0.2237500E-009  0.4778728E+02  0.7816164E-02  0.1312668E+00
        -11   -1    0    0    0    0  0.00000000000E+00  0.00000000000E+00  0.45593999997E+02  0.45594000000E+02  0.51100000000E-03 0. -1.
         11   -1    0    0    0    0 -0.00000000000E+00 -0.00000000000E+00 -0.45593999997E+02  0.45594000000E+02  0.51100000000E-03 0.  1.
    9900012    2    1    2    0    0 -0.40182247065E+02  0.16292632185E+02 -0.18867108009E+01  0.47787279725E+02  0.20000039579E+02 0.  0.
         12    1    1    2    0    0  0.40182247065E+02 -0.16292632185E+02  0.18867108009E+01  0.43400720275E+02  0.00000000000E+00 0. -1.
         11    1    3    3    0    0 -0.21535619530E+02  0.14073994232E+02  0.46803770432E+01  0.26148922572E+02  0.51100000000E-03 0. -1.
        -11    1    3    3    0    0 -0.40988237773E+01  0.29745078410E+00  0.20799852068E+01  0.46059930577E+01  0.51100000000E-03 0.  1.
        -12    1    3    3    0    0 -0.14547803758E+02  0.19211871690E+01 -0.86470730509E+01  0.17032364095E+02  0.00000000000E+00 0.  1.
</event>
<event>
 7    1  0.2237500E-009  0.4778727E+02  0.7816164E-02  0.1312668E+00
        -11   -1    0    0    0    0  0.00000000000E+00  0.00000000000E+00  0.45593999997E+02  0.45594000000E+02  0.51100000000E-03 0. -1.
         11   -1    0    0    0    0 -0.00000000000E+00 -0.00000000000E+00 -0.45593999997E+02  0.45594000000E+02  0.51100000000E-03 0.  1.
    9900012    2    1    2    0    0 -0.10561240282E+02  0.41570385074E+02 -0.66322632899E+01  0.47787266966E+02  0.19999981406E+02 0.  0.
         12    1    1    2    0    0  0.10561240282E+02 -0.41570385074E+02  0.66322632899E+01  0.43400733034E+02  0.00000000000E+00 0. -1.
         11    1    3    3    0    0 -0.78371025360E+01  0.83993465223E+01  0.12310727982E+01  0.11553559567E+02  0.51100000000E-03 0. -1.
        -11    1    3    3    0    0 -0.24642950181E+01  0.24465479873E+02 -0.13482245016E+00  0.24589644827E+02  0.51100000000E-03 0.  1.
        -12    1    3    3    0    0 -0.25984272806E+00  0.87055586789E+01 -0.77285136380E+01  0.11644062573E+02  0.00000000000E+00 0.  1.
</event>
<event>
 7    1  0.2237500E-009  0.4778727E+02  0.7816164E-02  0.1312668E+00
        -11   -1    0    0    0    0  0.00000000000E+00  0.00000000000E+00  0.45593999997E+02  0.45594000000E+02  0.51100000000E-03 0.  1.
         11   -1    0    0    0    0 -0.00000000000E+00 -0.00000000000E+00 -0.45593999997E+02  0.45594000000E+02  0.51100000000E-03 0. -1.
    9900012    2    1    2    0    0  0.12664280012E+02  0.24707009300E+02  0.33358699780E+02  0.47787272497E+02  0.20000006622E+02 0.  0.
         12    1    1    2    0    0 -0.12664280012E+02 -0.24707009300E+02 -0.33358699780E+02  0.43400727503E+02  0.00000000000E+00 0. -1.
         11    1    3    3    0    0  0.84525596533E+01  0.10913937820E+02  0.15086358137E+02  0.20448912087E+02  0.51100000000E-03 0. -1.
        -11    1    3    3    0    0  0.57125487143E+01  0.10603347348E+02  0.20050672585E+02  0.23390033330E+02  0.51100000000E-03 0.  1.
         12    1    3    3    0    0 -0.15008283551E+01  0.31897241317E+01 -0.17783309426E+01  0.39483270798E+01  0.00000000000E+00 0. -1.
</event>
<event>
 7    1  0.2237500E-009  0.4778727E+02  0.7816164E-02  0.1312668E+00
        -11   -1    0    0    0    0  0.00000000000E+00  0.00000000000E+00  0.45593999997E+02  0.45594000000E+02  0.51100000000E-03 0.  1.
         11   -1    0    0    0    0 -0.00000000000E+00 -0.00000000000E+00 -0.45593999997E+02  0.45594000000E+02  0.51100000000E-03 0. -1.
    9900012    2    1    2    0    0 -0.21996551339E+02  0.12410516113E+02  0.35295247540E+02  0.47787266367E+02  0.19999978673E+02 0.  0.
         12    1    1    2    0    0  0.21996551339E+02 -0.12410516113E+02 -0.35295247540E+02  0.43400733633E+02  0.00000000000E+00 0. -1.
         11    1    3    3    0    0 -0.10093466566E+01  0.12973620910E+01 -0.15746249987E+01  0.22762629936E+01  0.51100000000E-03 0.  1.
        -11    1    3    3    0    0 -0.86921738406E+01 -0.17127501143E+01  0.10924642522E+02  0.14065390628E+02  0.51100000000E-03 0. -1.
        -12    1    3    3    0    0 -0.12295030842E+02  0.12825904136E+02  0.25945230017E+02  0.31445612745E+02  0.00000000000E+00 0.  1.
</event>
<event>
 7    1  0.2237500E-009  0.4778727E+02  0.7816164E-02  0.1312668E+00
        -11   -1    0    0    0    0  0.00000000000E+00  0.00000000000E+00  0.45593999997E+02  0.45594000000E+02  0.51100000000E-03 0.  1.
         11   -1    0    0    0    0 -0.00000000000E+00 -0.00000000000E+00 -0.45593999997E+02  0.45594000000E+02  0.51100000000E-03 0. -1.
    9900012    2    1    2    0    0  0.16572000915E+02  0.38291740024E+02  0.11947157654E+02  0.47787272536E+02  0.20000006799E+02 0.  0.
         12    1    1    2    0    0 -0.16572000915E+02 -0.38291740024E+02 -0.11947157654E+02  0.43400727464E+02  0.00000000000E+00 0. -1.
         11    1    3    3    0    0  0.44625617628E+01  0.71959988998E+00  0.16029593023E+00  0.45230494730E+01  0.51100000000E-03 0. -1.
        -11    1    3    3    0    0  0.17669774836E+01 -0.73279451246E-01  0.26219162460E+01  0.31625977246E+01  0.51100000000E-03 0.  1.
        -12    1    3    3    0    0  0.10342461668E+02  0.37645419586E+02  0.91649454776E+01  0.40101625338E+02  0.00000000000E+00 0.  1.
</event>
<event>
 7    1  0.2237500E-009  0.4778727E+02  0.7816164E-02  0.1312668E+00
        -11   -1    0    0    0    0  0.00000000000E+00  0.00000000000E+00  0.45593999997E+02  0.45594000000E+02  0.51100000000E-03 0.  1.
         11   -1    0    0    0    0 -0.00000000000E+00 -0.00000000000E+00 -0.45593999997E+02  0.45594000000E+02  0.51100000000E-03 0. -1.
    9900012    2    1    2    0    0 -0.32609483939E+02  0.20690854365E+01  0.28565077609E+02  0.47787271710E+02  0.20000003034E+02 0.  0.
         12    1    1    2    0    0  0.32609483939E+02 -0.20690854365E+01 -0.28565077609E+02  0.43400728290E+02  0.00000000000E+00 0. -1.
         11    1    3    3    0    0 -0.81586090431E+01 -0.54596055392E+01  0.51179556434E+01  0.11070847501E+02  0.51100000000E-03 0. -1.
        -11    1    3    3    0    0 -0.47936184154E+01  0.30932755850E+00 -0.58670847167E+00  0.48392859125E+01  0.51100000000E-03 0.  1.
        -12    1    3    3    0    0 -0.19657256481E+02  0.72193634171E+01  0.24033830437E+02  0.31877138296E+02  0.00000000000E+00 0.  1.
</event>
<event>
 7    1  0.2237500E-009  0.4778727E+02  0.7816164E-02  0.1312668E+00
        -11   -1    0    0    0    0  0.00000000000E+00  0.00000000000E+00  0.45593999997E+02  0.45594000000E+02  0.51100000000E-03 0.  1.
         11   -1    0    0    0    0 -0.00000000000E+00 -0.00000000000E+00 -0.45593999997E+02  0.45594000000E+02  0.51100000000E-03 0. -1.
    9900012    2    1    2    0    0 -0.31510958292E+02  0.26194843436E+02  0.14300804352E+02  0.47787270511E+02  0.19999997567E+02 0.  0.
         12    1    1    2    0    0  0.31510958292E+02 -0.26194843436E+02 -0.14300804352E+02  0.43400729489E+02  0.00000000000E+00 0. -1.
         11    1    3    3    0    0 -0.16123932770E+02  0.12120387815E+02 -0.23890769986E+00  0.20172805603E+02  0.51100000000E-03 0. -1.
        -11    1    3    3    0    0 -0.16120475451E+02  0.10993471458E+02  0.95982226439E+01  0.21745160879E+02  0.51100000000E-03 0.  1.
        -12    1    3    3    0    0  0.73344992927E+00  0.30809841624E+01  0.49414894081E+01  0.58693040285E+01  0.00000000000E+00 0.  1.
</event>
<event>
 7    1  0.2237500E-009  0.4778727E+02  0.7816164E-02  0.1312668E+00
        -11   -1    0    0    0    0  0.00000000000E+00  0.00000000000E+00  0.45593999997E+02  0.45594000000E+02  0.51100000000E-03 0.  1.
         11   -1    0    0    0    0 -0.00000000000E+00 -0.00000000000E+00 -0.45593999997E+02  0.45594000000E+02  0.51100000000E-03 0. -1.
    9900012    2    1    2    0    0 -0.57235668444E+01 -0.40120702783E+02  0.15530402933E+02  0.47787269309E+02  0.19999992088E+02 0.  0.
         12    1    1    2    0    0  0.57235668444E+01  0.40120702783E+02 -0.15530402933E+02  0.43400730691E+02  0.00000000000E+00 0. -1.
         11    1    3    3    0    0  0.29525859252E+01 -0.63223659832E+01 -0.17726756706E+01  0.71994759924E+01  0.51100000000E-03 0. -1.
        -11    1    3    3    0    0  0.27360670055E+01 -0.81125082394E+01  0.49142889579E+01  0.98716305044E+01  0.51100000000E-03 0.  1.
        -12    1    3    3    0    0 -0.11412219775E+02 -0.25685828561E+02  0.12388789645E+02  0.30716162812E+02  0.00000000000E+00 0.  1.
</event>
<event>
 7    1  0.2237500E-009  0.4778727E+02  0.7816164E-02  0.1312668E+00
        -11   -1    0    0    0    0  0.00000000000E+00  0.00000000000E+00  0.45593999997E+02  0.45594000000E+02  0.51100000000E-03 0.  1.
         11   -1    0    0    0    0 -0.00000000000E+00 -0.00000000000E+00 -0.45593999997E+02  0.45594000000E+02  0.51100000000E-03 0. -1.
    9900012    2    1    2    0    0  0.32857730092E+02 -0.20427273821E+02  0.19665183631E+02  0.47787269709E+02  0.19999993911E+02 0.  0.
         12    1    1    2    0    0 -0.32857730092E+02  0.20427273821E+02 -0.19665183631E+02  0.43400730291E+02  0.00000000000E+00 0. -1.
         11    1    3    3    0    0  0.21947468144E+00  0.30359809544E+00 -0.80627879296E+00  0.88905944259E+00  0.51100000000E-03 0. -1.
        -11    1    3    3    0    0  0.21248647350E+02 -0.44777181983E+01  0.66416281681E+01  0.22708284820E+02  0.51100000000E-03 0.  1.
         12    1    3    3    0    0  0.11389608060E+02 -0.16253153718E+02  0.13829834256E+02  0.24189925447E+02  0.00000000000E+00 0. -1.
</event>
<event>
 7    1  0.2237500E-009  0.4778727E+02  0.7816164E-02  0.1312668E+00
        -11   -1    0    0    0    0  0.00000000000E+00  0.00000000000E+00  0.45593999997E+02  0.45594000000E+02  0.51100000000E-03 0. -1.
         11   -1    0    0    0    0 -0.00000000000E+00 -0.00000000000E+00 -0.45593999997E+02  0.45594000000E+02  0.51100000000E-03 0.  1.
    9900012    2    1    2    0    0  0.85350977329E+01  0.27263979674E+02 -0.32671866939E+02  0.47787269934E+02  0.19999994936E+02 0.  0.
         12    1    1    2    0    0 -0.85350977329E+01 -0.27263979674E+02  0.32671866939E+02  0.43400730066E+02  0.00000000000E+00 0. -1.
         11    1    3    3    0    0 -0.27947298026E+01  0.91360086321E+01 -0.14025982432E+02  0.16970720428E+02  0.51100000000E-03 0. -1.
        -11    1    3    3    0    0  0.47175540786E+01  0.14018459503E+02 -0.17554729983E+02  0.22955196979E+02  0.51100000000E-03 0.  1.
        -12    1    3    3    0    0  0.66122734569E+01  0.41095115392E+01 -0.10911545247E+01  0.78613525272E+01  0.00000000000E+00 0.  1.
</event>
<event>
 7    1  0.2237500E-009  0.4778727E+02  0.7816164E-02  0.1312668E+00
        -11   -1    0    0    0    0  0.00000000000E+00  0.00000000000E+00  0.45593999997E+02  0.45594000000E+02  0.51100000000E-03 0.  1.
         11   -1    0    0    0    0 -0.00000000000E+00 -0.00000000000E+00 -0.45593999997E+02  0.45594000000E+02  0.51100000000E-03 0. -1.
    9900012    2    1    2    0    0  0.26640199446E+02  0.34224456702E+02 -0.16155714079E+01  0.47787265743E+02  0.19999975828E+02 0.  0.
         12    1    1    2    0    0 -0.26640199446E+02 -0.34224456702E+02  0.16155714079E+01  0.43400734257E+02  0.00000000000E+00 0. -1.
         11    1    3    3    0    0  0.35072244739E+00  0.27964317388E+01 -0.36509516944E+01  0.46122104506E+01  0.51100000000E-03 0. -1.
        -11    1    3    3    0    0  0.11250508446E+02  0.65613936260E+01 -0.37308550150E+01  0.13547881975E+02  0.51100000000E-03 0.  1.
        -12    1    3    3    0    0  0.15038968553E+02  0.24866631337E+02  0.57662353016E+01  0.29627173317E+02  0.00000000000E+00 0.  1.
</event>
<event>
 7    1  0.2237500E-009  0.4778727E+02  0.7816164E-02  0.1312668E+00
        -11   -1    0    0    0    0  0.00000000000E+00  0.00000000000E+00  0.45593999997E+02  0.45594000000E+02  0.51100000000E-03 0. -1.
         11   -1    0    0    0    0 -0.00000000000E+00 -0.00000000000E+00 -0.45593999997E+02  0.45594000000E+02  0.51100000000E-03 0.  1.
    9900012    2    1    2    0    0 -0.19053386705E+02 -0.11173685274E+02 -0.37359607849E+02  0.47787273207E+02  0.20000009860E+02 0.  0.
         12    1    1    2    0    0  0.19053386705E+02  0.11173685274E+02  0.37359607849E+02  0.43400726793E+02  0.00000000000E+00 0. -1.
         11    1    3    3    0    0 -0.47925790270E+01 -0.76572059872E+01 -0.92681203908E+01  0.12942166476E+02  0.51100000000E-03 0. -1.
        -11    1    3    3    0    0 -0.11073116708E+02 -0.88191386008E+01 -0.16792989507E+02  0.21963506463E+02  0.51100000000E-03 0.  1.
         12    1    3    3    0    0 -0.31876909692E+01  0.53026593138E+01 -0.11298497951E+02  0.12881600268E+02  0.00000000000E+00 0. -1.
</event>
<event>
 7    1  0.2237500E-009  0.4778726E+02  0.7816164E-02  0.1312668E+00
        -11   -1    0    0    0    0  0.00000000000E+00  0.00000000000E+00  0.45593999997E+02  0.45594000000E+02  0.51100000000E-03 0. -1.
         11   -1    0    0    0    0 -0.00000000000E+00 -0.00000000000E+00 -0.45593999997E+02  0.45594000000E+02  0.51100000000E-03 0.  1.
    9900012    2    1    2    0    0 -0.24926186461E+02 -0.20203789598E+01 -0.35471498668E+02  0.47787263596E+02  0.19999966041E+02 0.  0.
         12    1    1    2    0    0  0.24926186461E+02  0.20203789598E+01  0.35471498668E+02  0.43400736404E+02  0.00000000000E+00 0. -1.
         11    1    3    3    0    0  0.17679348043E+01 -0.13825227573E+01 -0.57530274197E+01  0.61752965435E+01  0.51100000000E-03 0. -1.
        -11    1    3    3    0    0 -0.11602519082E+02  0.47560028225E+01 -0.90807656875E+01  0.15482193566E+02  0.51100000000E-03 0.  1.
        -12    1    3    3    0    0 -0.15091602184E+02 -0.53938590250E+01 -0.20637705560E+02  0.26129773486E+02  0.00000000000E+00 0.  1.
</event>
<event>
 7    1  0.2237500E-009  0.4778727E+02  0.7816164E-02  0.1312668E+00
        -11   -1    0    0    0    0  0.00000000000E+00  0.00000000000E+00  0.45593999997E+02  0.45594000000E+02  0.51100000000E-03 0. -1.
         11   -1    0    0    0    0 -0.00000000000E+00 -0.00000000000E+00 -0.45593999997E+02  0.45594000000E+02  0.51100000000E-03 0.  1.
    9900012    2    1    2    0    0 -0.15081944093E+02  0.38457014770E+02 -0.13312257549E+02  0.47787271622E+02  0.20000002635E+02 0.  0.
         12    1    1    2    0    0  0.15081944093E+02 -0.38457014770E+02  0.13312257549E+02  0.43400728378E+02  0.00000000000E+00 0. -1.
         11    1    3    3    0    0 -0.12523125126E+00  0.11696350411E+01 -0.68230645341E+01  0.69237229070E+01  0.51100000000E-03 0. -1.
        -11    1    3    3    0    0 -0.14826011750E+01  0.72908413825E+01 -0.17129068783E+01  0.76346921708E+01  0.51100000000E-03 0.  1.
         12    1    3    3    0    0 -0.13474111666E+02  0.29996538347E+02 -0.47762861366E+01  0.33228856544E+02  0.00000000000E+00 0. -1.
</event>
<event>
 7    1  0.2237500E-009  0.4778727E+02  0.7816164E-02  0.1312668E+00
        -11   -1    0    0    0    0  0.00000000000E+00  0.00000000000E+00  0.45593999997E+02  0.45594000000E+02  0.51100000000E-03 0.  1.
         11   -1    0    0    0    0 -0.00000000000E+00 -0.00000000000E+00 -0.45593999997E+02  0.45594000000E+02  0.51100000000E-03 0. -1.
    9900012    2    1    2    0    0 -0.21114589297E+02  0.13184215455E+02  0.35552411629E+02  0.47787269695E+02  0.19999993848E+02 0.  0.
         12    1    1    2    0    0  0.21114589297E+02 -0.13184215455E+02 -0.35552411629E+02  0.43400730305E+02  0.00000000000E+00 0. -1.
         11    1    3    3    0    0  0.19215511897E+01  0.57979991730E+01  0.66496194306E+01  0.90292077292E+01  0.51100000000E-03 0. -1.
        -11    1    3    3    0    0 -0.84079740344E+01  0.47605736488E+01  0.17631768266E+02  0.20105629592E+02  0.51100000000E-03 0.  1.
        -12    1    3    3    0    0 -0.14628166452E+02  0.26256426336E+01  0.11271023932E+02  0.18652432374E+02  0.00000000000E+00 0.  1.
</event>
<event>
 7    1  0.2237500E-009  0.4778727E+02  0.7816164E-02  0.1312668E+00
        -11   -1    0    0    0    0  0.00000000000E+00  0.00000000000E+00  0.45593999997E+02  0.45594000000E+02  0.51100000000E-03 0.  1.
         11   -1    0    0    0    0 -0.00000000000E+00 -0.00000000000E+00 -0.45593999997E+02  0.45594000000E+02  0.51100000000E-03 0. -1.
    9900012    2    1    2    0    0 -0.13979199714E+02  0.39425026092E+02  0.11570339868E+02  0.47787268766E+02  0.19999989610E+02 0.  0.
         12    1    1    2    0    0  0.13979199714E+02 -0.39425026092E+02 -0.11570339868E+02  0.43400731234E+02  0.00000000000E+00 0. -1.
         11    1    3    3    0    0 -0.95123208830E+01  0.26204385181E+02  0.12805049494E+02  0.30677733686E+02  0.51100000000E-03 0.  1.
        -11    1    3    3    0    0 -0.56992328396E+01  0.14136185698E+02 -0.17273262273E+00  0.15242796262E+02  0.51100000000E-03 0. -1.
        -12    1    3    3    0    0  0.12323540084E+01 -0.91554478730E+00 -0.10619770030E+01  0.18667388180E+01  0.00000000000E+00 0.  1.
</event>
<event>
 7    1  0.2237500E-009  0.4778727E+02  0.7816164E-02  0.1312668E+00
        -11   -1    0    0    0    0  0.00000000000E+00  0.00000000000E+00  0.45593999997E+02  0.45594000000E+02  0.51100000000E-03 0.  1.
         11   -1    0    0    0    0 -0.00000000000E+00 -0.00000000000E+00 -0.45593999997E+02  0.45594000000E+02  0.51100000000E-03 0. -1.
    9900012    2    1    2    0    0 -0.18077907912E+02 -0.27121045694E+02  0.28657656160E+02  0.47787272695E+02  0.20000007525E+02 0.  0.
         12    1    1    2    0    0  0.18077907912E+02  0.27121045694E+02 -0.28657656160E+02  0.43400727305E+02  0.00000000000E+00 0. -1.
         11    1    3    3    0    0  0.22818076798E+01 -0.62410766909E+01  0.70354846234E+01  0.96775889919E+01  0.51100000000E-03 0. -1.
        -11    1    3    3    0    0 -0.14174661486E+01  0.13745393599E+01  0.24973729933E+01  0.31836207159E+01  0.51100000000E-03 0.  1.
        -12    1    3    3    0    0 -0.18942249443E+02 -0.22254508363E+02  0.19124798544E+02  0.34926062987E+02  0.00000000000E+00 0.  1.
</event>
<event>
 7    1  0.2237500E-009  0.4778726E+02  0.7816164E-02  0.1312668E+00
        -11   -1    0    0    0    0  0.00000000000E+00  0.00000000000E+00  0.45593999997E+02  0.45594000000E+02  0.51100000000E-03 0. -1.
         11   -1    0    0    0    0 -0.00000000000E+00 -0.00000000000E+00 -0.45593999997E+02  0.45594000000E+02  0.51100000000E-03 0.  1.
    9900012    2    1    2    0    0 -0.25691488217E+01 -0.40854155981E+02  0.14420862857E+02  0.47787264152E+02  0.19999968576E+02 0.  0.
         12    1    1    2    0    0  0.25691488217E+01  0.40854155981E+02 -0.14420862857E+02  0.43400735848E+02  0.00000000000E+00 0. -1.
         11    1    3    3    0    0 -0.50242358218E+01 -0.19330894287E+02  0.31845092637E+01  0.20225417648E+02  0.51100000000E-03 0. -1.
        -11    1    3    3    0    0 -0.40028419807E+01 -0.83273945366E+01  0.29562146967E+00  0.92442217631E+01  0.51100000000E-03 0.  1.
         12    1    3    3    0    0  0.64579289808E+01 -0.13195867157E+02  0.10940732123E+02  0.18317624741E+02  0.00000000000E+00 0. -1.
</event>
<event>
 7    1  0.2237500E-009  0.4778728E+02  0.7816164E-02  0.1312668E+00
        -11   -1    0    0    0    0  0.00000000000E+00  0.00000000000E+00  0.45593999997E+02  0.45594000000E+02  0.51100000000E-03 0.  1.
         11   -1    0    0    0    0 -0.00000000000E+00 -0.00000000000E+00 -0.45593999997E+02  0.45594000000E+02  0.51100000000E-03 0. -1.
    9900012    2    1    2    0    0  0.31584357284E+02  0.17389751729E+02  0.24158793193E+02  0.47787281356E+02  0.20000047014E+02 0.  0.
         12    1    1    2    0    0 -0.31584357284E+02 -0.17389751729E+02 -0.24158793193E+02  0.43400718644E+02  0.00000000000E+00 0. -1.
         11    1    3    3    0    0 -0.25744299560E+00 -0.12469487452E+00  0.46332410851E+01  0.46420630027E+01  0.51100000000E-03 0. -1.
        -11    1    3    3    0    0  0.33314922288E+01  0.44109106712E+01 -0.10456597138E+01  0.56256891061E+01  0.51100000000E-03 0.  1.
        -12    1    3    3    0    0  0.28510308051E+02  0.13103535933E+02  0.20571211822E+02  0.37519529247E+02  0.00000000000E+00 0.  1.
</event>
<event>
 7    1  0.2237500E-009  0.4778726E+02  0.7816164E-02  0.1312668E+00
        -11   -1    0    0    0    0  0.00000000000E+00  0.00000000000E+00  0.45593999997E+02  0.45594000000E+02  0.51100000000E-03 0.  1.
         11   -1    0    0    0    0 -0.00000000000E+00 -0.00000000000E+00 -0.45593999997E+02  0.45594000000E+02  0.51100000000E-03 0. -1.
    9900012    2    1    2    0    0 -0.38314477080E+02 -0.19756017935E+01  0.20290925726E+02  0.47787264716E+02  0.19999971146E+02 0.  0.
         12    1    1    2    0    0  0.38314477080E+02  0.19756017935E+01 -0.20290925726E+02  0.43400735284E+02  0.00000000000E+00 0. -1.
         11    1    3    3    0    0 -0.26209982308E+02  0.10094444916E+01  0.19631055672E+02  0.32762180908E+02  0.51100000000E-03 0. -1.
        -11    1    3    3    0    0 -0.10407364718E+02 -0.38022285834E+01  0.34976006897E+01  0.11619096067E+02  0.51100000000E-03 0.  1.
         12    1    3    3    0    0 -0.16971300540E+01  0.81718229834E+00 -0.28377306359E+01  0.34059877409E+01  0.00000000000E+00 0. -1.
</event>
<event>
 7    1  0.2403446E-009  0.4778727E+02  0.7816164E-02  0.1312668E+00
        -11   -1    0    0    0    0  0.00000000000E+00  0.00000000000E+00  0.45593999997E+02  0.45594000000E+02  0.51100000000E-03 0.  1.
         11   -1    0    0    0    0 -0.00000000000E+00 -0.00000000000E+00 -0.45593999997E+02  0.45594000000E+02  0.51100000000E-03 0. -1.
    9900012    2    1    2    0    0 -0.41872482427E+02  0.26021494312E+01  0.11115174758E+02  0.47787273322E+02  0.20000010385E+02 0.  0.
         12    1    1    2    0    0  0.41872482427E+02 -0.26021494312E+01 -0.11115174758E+02  0.43400726678E+02  0.00000000000E+00 0. -1.
         11    1    3    3    0    0 -0.57289060281E+01 -0.19709564944E+00 -0.43090921304E+01  0.71712959933E+01  0.51100000000E-03 0. -1.
        -11    1    3    3    0    0 -0.11631422601E+02 -0.37125974775E+01  0.51723856521E+01  0.13259975315E+02  0.51100000000E-03 0.  1.
        -12    1    3    3    0    0 -0.24512153798E+02  0.65118425581E+01  0.10251881237E+02  0.27356002014E+02  0.00000000000E+00 0.  1.
</event>
<event>
 7    1  0.2237500E-009  0.4778727E+02  0.7816164E-02  0.1312668E+00
        -11   -1    0    0    0    0  0.00000000000E+00  0.00000000000E+00  0.45593999997E+02  0.45594000000E+02  0.51100000000E-03 0.  1.
         11   -1    0    0    0    0 -0.00000000000E+00 -0.00000000000E+00 -0.45593999997E+02  0.45594000000E+02  0.51100000000E-03 0. -1.
    9900012    2    1    2    0    0  0.35312183076E+02  0.11240845071E+02  0.22590186295E+02  0.47787269725E+02  0.19999993986E+02 0.  0.
         12    1    1    2    0    0 -0.35312183076E+02 -0.11240845071E+02 -0.22590186295E+02  0.43400730275E+02  0.00000000000E+00 0. -1.
         11    1    3    3    0    0  0.73953404490E+01 -0.46413923930E+01  0.56220072234E+01  0.10384630431E+02  0.51100000000E-03 0. -1.
        -11    1    3    3    0    0  0.65641348917E+01 -0.15319830589E+00  0.24531457274E+01  0.70092268346E+01  0.51100000000E-03 0.  1.
        -12    1    3    3    0    0  0.21352707736E+02  0.16035435770E+02  0.14515033344E+02  0.30393412460E+02  0.00000000000E+00 0.  1.
</event>
<event>
 7    1  0.2237500E-009  0.4778727E+02  0.7816164E-02  0.1312668E+00
        -11   -1    0    0    0    0  0.00000000000E+00  0.00000000000E+00  0.45593999997E+02  0.45594000000E+02  0.51100000000E-03 0. -1.
         11   -1    0    0    0    0 -0.00000000000E+00 -0.00000000000E+00 -0.45593999997E+02  0.45594000000E+02  0.51100000000E-03 0.  1.
    9900012    2    1    2    0    0  0.97349383482E+01  0.24859208898E+02 -0.34218037950E+02  0.47787269444E+02  0.19999992703E+02 0.  0.
         12    1    1    2    0    0 -0.97349383482E+01 -0.24859208898E+02  0.34218037950E+02  0.43400730556E+02  0.00000000000E+00 0. -1.
         11    1    3    3    0    0  0.13288343256E+01 -0.93066662923E-01  0.36677281184E+00  0.13816600976E+01  0.51100000000E-03 0. -1.
        -11    1    3    3    0    0  0.18250744494E+01  0.14512197683E+02 -0.29750050139E+02  0.33151172859E+02  0.51100000000E-03 0.  1.
        -12    1    3    3    0    0  0.65810295732E+01  0.10440077878E+02 -0.48347606219E+01  0.13254436488E+02  0.00000000000E+00 0.  1.
</event>
<event>
 7    1  0.2237500E-009  0.4778728E+02  0.7816164E-02  0.1312668E+00
        -11   -1    0    0    0    0  0.00000000000E+00  0.00000000000E+00  0.45593999997E+02  0.45594000000E+02  0.51100000000E-03 0. -1.
         11   -1    0    0    0    0 -0.00000000000E+00 -0.00000000000E+00 -0.45593999997E+02  0.45594000000E+02  0.51100000000E-03 0.  1.
    9900012    2    1    2    0    0  0.79463898022E+01 -0.41969344379E+02 -0.76844706269E+01  0.47787284945E+02  0.20000063377E+02 0.  0.
         12    1    1    2    0    0 -0.79463898022E+01  0.41969344379E+02  0.76844706269E+01  0.43400715055E+02  0.00000000000E+00 0. -1.
         11    1    3    3    0    0  0.84521408383E+01 -0.69496725236E+01 -0.19681518235E+01  0.11118014877E+02  0.51100000000E-03 0. -1.
        -11    1    3    3    0    0 -0.18131360770E+01 -0.81746798983E+00 -0.45202098347E+00  0.20396175080E+01  0.51100000000E-03 0.  1.
        -12    1    3    3    0    0  0.13073850409E+01 -0.34202203866E+02 -0.52642978199E+01  0.34629652560E+02  0.00000000000E+00 0.  1.
</event>
<event>
 7    1  0.2237500E-009  0.4778727E+02  0.7816164E-02  0.1312668E+00
        -11   -1    0    0    0    0  0.00000000000E+00  0.00000000000E+00  0.45593999997E+02  0.45594000000E+02  0.51100000000E-03 0. -1.
         11   -1    0    0    0    0 -0.00000000000E+00 -0.00000000000E+00 -0.45593999997E+02  0.45594000000E+02  0.51100000000E-03 0.  1.
    9900012    2    1    2    0    0  0.98942791959E+01 -0.41036363404E+02 -0.10086797787E+02  0.47787269916E+02  0.19999994855E+02 0.  0.
         12    1    1    2    0    0 -0.98942791959E+01  0.41036363404E+02  0.10086797787E+02  0.43400730084E+02  0.00000000000E+00 0. -1.
         11    1    3    3    0    0  0.45748680295E+01 -0.17833161789E+02 -0.10024384076E+01  0.18437894671E+02  0.51100000000E-03 0. -1.
        -11    1    3    3    0    0  0.95919260806E+01 -0.12812149946E+02 -0.84445352200E+01  0.18096032922E+02  0.51100000000E-03 0.  1.
         12    1    3    3    0    0 -0.42725149142E+01 -0.10391051669E+02 -0.63982415951E+00  0.11253342323E+02  0.00000000000E+00 0. -1.
</event>
<event>
 7    1  0.2237500E-009  0.4778727E+02  0.7816164E-02  0.1312668E+00
        -11   -1    0    0    0    0  0.00000000000E+00  0.00000000000E+00  0.45593999997E+02  0.45594000000E+02  0.51100000000E-03 0.  1.
         11   -1    0    0    0    0 -0.00000000000E+00 -0.00000000000E+00 -0.45593999997E+02  0.45594000000E+02  0.51100000000E-03 0. -1.
    9900012    2    1    2    0    0 -0.32298763087E+02 -0.55196932061E+00  0.28984627482E+02  0.47787269622E+02  0.19999993513E+02 0.  0.
         12    1    1    2    0    0  0.32298763087E+02  0.55196932061E+00 -0.28984627482E+02  0.43400730378E+02  0.00000000000E+00 0. -1.
         11    1    3    3    0    0 -0.23234095117E+01 -0.12723080717E+01 -0.11852782333E+01  0.29020483008E+01  0.51100000000E-03 0. -1.
        -11    1    3    3    0    0 -0.18239915447E+02 -0.15029512022E+01  0.85833485329E+01  0.20214530668E+02  0.51100000000E-03 0.  1.
        -12    1    3    3    0    0 -0.11735438128E+02  0.22232899533E+01  0.21586557183E+02  0.24670690652E+02  0.00000000000E+00 0.  1.
</event>
<event>
 7    1  0.2237500E-009  0.4778727E+02  0.7816164E-02  0.1312668E+00
        -11   -1    0    0    0    0  0.00000000000E+00  0.00000000000E+00  0.45593999997E+02  0.45594000000E+02  0.51100000000E-03 0.  1.
         11   -1    0    0    0    0 -0.00000000000E+00 -0.00000000000E+00 -0.45593999997E+02  0.45594000000E+02  0.51100000000E-03 0. -1.
    9900012    2    1    2    0    0  0.14249833419E+02  0.35244059220E+02  0.20938528851E+02  0.47787268978E+02  0.19999990578E+02 0.  0.
         12    1    1    2    0    0 -0.14249833419E+02 -0.35244059220E+02 -0.20938528851E+02  0.43400731022E+02  0.00000000000E+00 0. -1.
         11    1    3    3    0    0  0.78419134593E+01  0.46479653821E+01  0.74444498073E+01  0.11769410439E+02  0.51100000000E-03 0. -1.
        -11    1    3    3    0    0  0.30288377839E+01  0.11953543504E+02  0.11680156183E+02  0.16984908282E+02  0.51100000000E-03 0.  1.
         12    1    3    3    0    0  0.33790821759E+01  0.18642550334E+02  0.18139228607E+01  0.19032950257E+02  0.00000000000E+00 0. -1.
</event>
<event>
 7    1  0.2237500E-009  0.4778727E+02  0.7816164E-02  0.1312668E+00
        -11   -1    0    0    0    0  0.00000000000E+00  0.00000000000E+00  0.45593999997E+02  0.45594000000E+02  0.51100000000E-03 0.  1.
         11   -1    0    0    0    0 -0.00000000000E+00 -0.00000000000E+00 -0.45593999997E+02  0.45594000000E+02  0.51100000000E-03 0. -1.
    9900012    2    1    2    0    0  0.13077192845E+02 -0.35964060883E+02  0.20474294892E+02  0.47787269600E+02  0.19999993415E+02 0.  0.
         12    1    1    2    0    0 -0.13077192845E+02  0.35964060883E+02 -0.20474294892E+02  0.43400730400E+02  0.00000000000E+00 0. -1.
         11    1    3    3    0    0  0.76094558720E+01 -0.13290350738E+02  0.14967148993E+02  0.21413845770E+02  0.51100000000E-03 0.  1.
        -11    1    3    3    0    0  0.94696473188E+00 -0.13353890371E+01  0.42166940853E+01  0.45233301178E+01  0.51100000000E-03 0. -1.
        -12    1    3    3    0    0  0.45207722406E+01 -0.21338321108E+02  0.12904518134E+01  0.21850093713E+02  0.00000000000E+00 0.  1.
</event>
<event>
 7    1  0.2237500E-009  0.4778727E+02  0.7816164E-02  0.1312668E+00
        -11   -1    0    0    0    0  0.00000000000E+00  0.00000000000E+00  0.45593999997E+02  0.45594000000E+02  0.51100000000E-03 0. -1.
         11   -1    0    0    0    0 -0.00000000000E+00 -0.00000000000E+00 -0.45593999997E+02  0.45594000000E+02  0.51100000000E-03 0.  1.
    9900012    2    1    2    0    0 -0.52544833460E+01  0.40058247742E+02 -0.15854031528E+02  0.47787272782E+02  0.20000007920E+02 0.  0.
         12    1    1    2    0    0  0.52544833460E+01 -0.40058247742E+02  0.15854031528E+02  0.43400727218E+02  0.00000000000E+00 0. -1.
         11    1    3    3    0    0 -0.10855442534E+02  0.18778394748E+02 -0.11129300970E+02  0.24378885993E+02  0.51100000000E-03 0. -1.
        -11    1    3    3    0    0 -0.89656389111E+00  0.39685490411E+01  0.72246382256E+00  0.41322103696E+01  0.51100000000E-03 0.  1.
        -12    1    3    3    0    0  0.64975230791E+01  0.17311303953E+02 -0.54471943809E+01  0.19276176419E+02  0.00000000000E+00 0.  1.
</event>
<event>
 7    1  0.2237500E-009  0.4778727E+02  0.7816164E-02  0.1312668E+00
        -11   -1    0    0    0    0  0.00000000000E+00  0.00000000000E+00  0.45593999997E+02  0.45594000000E+02  0.51100000000E-03 0.  1.
         11   -1    0    0    0    0 -0.00000000000E+00 -0.00000000000E+00 -0.45593999997E+02  0.45594000000E+02  0.51100000000E-03 0. -1.
    9900012    2    1    2    0    0 -0.68419453478E+01  0.30544547850E+02  0.30063955206E+02  0.47787273944E+02  0.20000013222E+02 0.  0.
         12    1    1    2    0    0  0.68419453478E+01 -0.30544547850E+02 -0.30063955206E+02  0.43400726056E+02  0.00000000000E+00 0. -1.
         11    1    3    3    0    0 -0.28433227527E+01  0.41908881185E+01  0.34825033580E+01  0.61462067486E+01  0.51100000000E-03 0. -1.
        -11    1    3    3    0    0  0.66389830947E+01  0.14947456487E+02  0.11954447687E+02  0.20258612285E+02  0.51100000000E-03 0.  1.
        -12    1    3    3    0    0 -0.10637605690E+02  0.11406203245E+02  0.14627004162E+02  0.21382454911E+02  0.00000000000E+00 0.  1.
</event>
<event>
 7    1  0.2237500E-009  0.4778727E+02  0.7816164E-02  0.1312668E+00
        -11   -1    0    0    0    0  0.00000000000E+00  0.00000000000E+00  0.45593999997E+02  0.45594000000E+02  0.51100000000E-03 0. -1.
         11   -1    0    0    0    0 -0.00000000000E+00 -0.00000000000E+00 -0.45593999997E+02  0.45594000000E+02  0.51100000000E-03 0.  1.
    9900012    2    1    2    0    0  0.40621626184E+02  0.14541665296E+02 -0.46953986011E+01  0.47787270612E+02  0.19999998029E+02 0.  0.
         12    1    1    2    0    0 -0.40621626184E+02 -0.14541665296E+02  0.46953986011E+01  0.43400729388E+02  0.00000000000E+00 0. -1.
         11    1    3    3    0    0  0.50908015662E+01  0.12454016417E+01 -0.30531274547E+01  0.60653831991E+01  0.51100000000E-03 0. -1.
        -11    1    3    3    0    0  0.11244882767E+02  0.54622907014E+01 -0.87178719512E+01  0.15240908758E+02  0.51100000000E-03 0.  1.
         12    1    3    3    0    0  0.24285941850E+02  0.78339729529E+01  0.70756008048E+01  0.26480978655E+02  0.00000000000E+00 0. -1.
</event>
<event>
 7    1  0.2237500E-009  0.4778727E+02  0.7816164E-02  0.1312668E+00
        -11   -1    0    0    0    0  0.00000000000E+00  0.00000000000E+00  0.45593999997E+02  0.45594000000E+02  0.51100000000E-03 0.  1.
         11   -1    0    0    0    0 -0.00000000000E+00 -0.00000000000E+00 -0.45593999997E+02  0.45594000000E+02  0.51100000000E-03 0. -1.
    9900012    2    1    2    0    0  0.14763567497E+02  0.12447581111E+02  0.38867958172E+02  0.47787269900E+02  0.19999994782E+02 0.  0.
         12    1    1    2    0    0 -0.14763567497E+02 -0.12447581111E+02 -0.38867958172E+02  0.43400730100E+02  0.00000000000E+00 0. -1.
         11    1    3    3    0    0 -0.14548317391E+01  0.37718949633E+01  0.39670197499E+01  0.56640067938E+01  0.51100000000E-03 0. -1.
        -11    1    3    3    0    0  0.87693744172E+01  0.11946569727E+02  0.17623930973E+02  0.23026623702E+02  0.51100000000E-03 0.  1.
         12    1    3    3    0    0  0.74490248190E+01 -0.32708835791E+01  0.17277007449E+02  0.19096639405E+02  0.00000000000E+00 0. -1.
</event>
<event>
 7    1  0.2237500E-009  0.4778727E+02  0.7816164E-02  0.1312668E+00
        -11   -1    0    0    0    0  0.00000000000E+00  0.00000000000E+00  0.45593999997E+02  0.45594000000E+02  0.51100000000E-03 0.  1.
         11   -1    0    0    0    0 -0.00000000000E+00 -0.00000000000E+00 -0.45593999997E+02  0.45594000000E+02  0.51100000000E-03 0. -1.
    9900012    2    1    2    0    0 -0.36402341005E+02  0.17724240615E+01  0.23565891968E+02  0.47787272103E+02  0.20000004828E+02 0.  0.
         12    1    1    2    0    0  0.36402341005E+02 -0.17724240615E+01 -0.23565891968E+02  0.43400727897E+02  0.00000000000E+00 0. -1.
         11    1    3    3    0    0 -0.14558631821E+02 -0.36430212517E+01  0.27317562695E+01  0.15254109509E+02  0.51100000000E-03 0. -1.
        -11    1    3    3    0    0 -0.77103074507E+00 -0.21304678192E+01  0.37257050996E+01  0.43605344040E+01  0.51100000000E-03 0.  1.
        -12    1    3    3    0    0 -0.21072678439E+02  0.75459131324E+01  0.17108430599E+02  0.28172628190E+02  0.00000000000E+00 0.  1.
</event>
<event>
 7    1  0.2237500E-009  0.4778727E+02  0.7816164E-02  0.1312668E+00
        -11   -1    0    0    0    0  0.00000000000E+00  0.00000000000E+00  0.45593999997E+02  0.45594000000E+02  0.51100000000E-03 0. -1.
         11   -1    0    0    0    0 -0.00000000000E+00 -0.00000000000E+00 -0.45593999997E+02  0.45594000000E+02  0.51100000000E-03 0.  1.
    9900012    2    1    2    0    0 -0.92354709667E+01  0.41484959452E+02 -0.87936095422E+01  0.47787270127E+02  0.19999995817E+02 0.  0.
         12    1    1    2    0    0  0.92354709667E+01 -0.41484959452E+02  0.87936095422E+01  0.43400729873E+02  0.00000000000E+00 0. -1.
         11    1    3    3    0    0  0.41973774055E+00 -0.13222103020E+01 -0.14508560887E+01  0.20073374167E+01  0.51100000000E-03 0. -1.
        -11    1    3    3    0    0  0.67986261787E+00 -0.32793155117E+00 -0.48441829613E+00  0.89689109047E+00  0.51100000000E-03 0.  1.
        -12    1    3    3    0    0 -0.10335071325E+02  0.43135101305E+02 -0.68583351574E+01  0.44883041620E+02  0.00000000000E+00 0.  1.
</event>
<event>
 7    1  0.2237500E-009  0.4778727E+02  0.7816164E-02  0.1312668E+00
        -11   -1    0    0    0    0  0.00000000000E+00  0.00000000000E+00  0.45593999997E+02  0.45594000000E+02  0.51100000000E-03 0.  1.
         11   -1    0    0    0    0 -0.00000000000E+00 -0.00000000000E+00 -0.45593999997E+02  0.45594000000E+02  0.51100000000E-03 0. -1.
    9900012    2    1    2    0    0 -0.26246161463E+02 -0.34545738370E+02 -0.11636565382E+01  0.47787272730E+02  0.20000007684E+02 0.  0.
         12    1    1    2    0    0  0.26246161463E+02  0.34545738370E+02  0.11636565382E+01  0.43400727270E+02  0.00000000000E+00 0. -1.
         11    1    3    3    0    0 -0.21760473059E+00 -0.69973686276E+01 -0.12117765132E+01  0.71048520117E+01  0.51100000000E-03 0. -1.
        -11    1    3    3    0    0 -0.77705990145E+01 -0.22681511187E+01 -0.43502644484E+01  0.91897507896E+01  0.51100000000E-03 0.  1.
        -12    1    3    3    0    0 -0.18257957718E+02 -0.25280218624E+02  0.43983844234E+01  0.31492669928E+02  0.00000000000E+00 0.  1.
</event>
<event>
 7    1  0.2237500E-009  0.4778727E+02  0.7816164E-02  0.1312668E+00
        -11   -1    0    0    0    0  0.00000000000E+00  0.00000000000E+00  0.45593999997E+02  0.45594000000E+02  0.51100000000E-03 0.  1.
         11   -1    0    0    0    0 -0.00000000000E+00 -0.00000000000E+00 -0.45593999997E+02  0.45594000000E+02  0.51100000000E-03 0. -1.
    9900012    2    1    2    0    0 -0.37308387589E+02 -0.53886135821E+01  0.21509775635E+02  0.47787269722E+02  0.19999993968E+02 0.  0.
         12    1    1    2    0    0  0.37308387589E+02  0.53886135821E+01 -0.21509775635E+02  0.43400730278E+02  0.00000000000E+00 0. -1.
         11    1    3    3    0    0 -0.16618568731E+02 -0.91979024344E+00  0.16763697996E+02  0.23622963648E+02  0.51100000000E-03 0. -1.
        -11    1    3    3    0    0 -0.11036288739E+02  0.21368400194E+01  0.53542732780E+01  0.12451264876E+02  0.51100000000E-03 0.  1.
         12    1    3    3    0    0 -0.96535301187E+01 -0.66056633580E+01 -0.60819563974E+00  0.11713041197E+02  0.00000000000E+00 0. -1.
</event>
<event>
 7    1  0.2237500E-009  0.4778727E+02  0.7816164E-02  0.1312668E+00
        -11   -1    0    0    0    0  0.00000000000E+00  0.00000000000E+00  0.45593999997E+02  0.45594000000E+02  0.51100000000E-03 0.  1.
         11   -1    0    0    0    0 -0.00000000000E+00 -0.00000000000E+00 -0.45593999997E+02  0.45594000000E+02  0.51100000000E-03 0. -1.
    9900012    2    1    2    0    0 -0.13596441889E+02  0.21686415496E+02  0.35049384975E+02  0.47787271478E+02  0.20000001976E+02 0.  0.
         12    1    1    2    0    0  0.13596441889E+02 -0.21686415496E+02 -0.35049384975E+02  0.43400728522E+02  0.00000000000E+00 0. -1.
         11    1    3    3    0    0 -0.12068975120E+02  0.43701871749E+01  0.75866927808E+01  0.14910285175E+02  0.51100000000E-03 0.  1.
        -11    1    3    3    0    0  0.34130998623E+00 -0.18346504876E+00  0.12142169711E+01  0.12745489574E+01  0.51100000000E-03 0. -1.
        -12    1    3    3    0    0 -0.18687767552E+01  0.17499693370E+02  0.26248475223E+02  0.31602437345E+02  0.00000000000E+00 0.  1.
</event>
<event>
 7    1  0.2237500E-009  0.4778726E+02  0.7816164E-02  0.1312668E+00
        -11   -1    0    0    0    0  0.00000000000E+00  0.00000000000E+00  0.45593999997E+02  0.45594000000E+02  0.51100000000E-03 0.  1.
         11   -1    0    0    0    0 -0.00000000000E+00 -0.00000000000E+00 -0.45593999997E+02  0.45594000000E+02  0.51100000000E-03 0. -1.
    9900012    2    1    2    0    0 -0.19387003528E+02 -0.35304448259E+02  0.16166760451E+02  0.47787261341E+02  0.19999955758E+02 0.  0.
         12    1    1    2    0    0  0.19387003528E+02  0.35304448259E+02 -0.16166760451E+02  0.43400738659E+02  0.00000000000E+00 0. -1.
         11    1    3    3    0    0 -0.60540048096E+01 -0.84748406228E+01 -0.68497738790E+00  0.10437580759E+02  0.51100000000E-03 0. -1.
        -11    1    3    3    0    0 -0.13157924193E+02 -0.15629750122E+02  0.49826397004E+01  0.21029663730E+02  0.51100000000E-03 0.  1.
        -12    1    3    3    0    0 -0.17507452550E+00 -0.11199857514E+02  0.11869098139E+02  0.16320016852E+02  0.00000000000E+00 0.  1.
</event>
<event>
 7    1  0.2237500E-009  0.4778727E+02  0.7816164E-02  0.1312668E+00
        -11   -1    0    0    0    0  0.00000000000E+00  0.00000000000E+00  0.45593999997E+02  0.45594000000E+02  0.51100000000E-03 0.  1.
         11   -1    0    0    0    0 -0.00000000000E+00 -0.00000000000E+00 -0.45593999997E+02  0.45594000000E+02  0.51100000000E-03 0. -1.
    9900012    2    1    2    0    0 -0.11869906088E+02  0.14246058487E+02  0.39240010374E+02  0.47787271122E+02  0.20000000354E+02 0.  0.
         12    1    1    2    0    0  0.11869906088E+02 -0.14246058487E+02 -0.39240010374E+02  0.43400728878E+02  0.00000000000E+00 0. -1.
         11    1    3    3    0    0 -0.31907296157E+01 -0.13669163474E+01  0.71520632843E+01  0.79499198276E+01  0.51100000000E-03 0.  1.
        -11    1    3    3    0    0 -0.26310717381E+01  0.15745249539E+01 -0.11326359099E+01  0.32687201910E+01  0.51100000000E-03 0. -1.
         12    1    3    3    0    0 -0.60481047342E+01  0.14038449881E+02  0.33220583000E+02  0.36568631104E+02  0.00000000000E+00 0. -1.
</event>
<event>
 7    1  0.2237500E-009  0.4778727E+02  0.7816164E-02  0.1312668E+00
        -11   -1    0    0    0    0  0.00000000000E+00  0.00000000000E+00  0.45593999997E+02  0.45594000000E+02  0.51100000000E-03 0.  1.
         11   -1    0    0    0    0 -0.00000000000E+00 -0.00000000000E+00 -0.45593999997E+02  0.45594000000E+02  0.51100000000E-03 0. -1.
    9900012    2    1    2    0    0 -0.36212767621E+02  0.21837282151E+02 -0.97668765359E+01  0.47787270654E+02  0.19999998221E+02 0.  0.
         12    1    1    2    0    0  0.36212767621E+02 -0.21837282151E+02  0.97668765359E+01  0.43400729346E+02  0.00000000000E+00 0. -1.
         11    1    3    3    0    0 -0.45244773421E+01  0.46552359448E+01  0.35333624249E+01  0.73909923020E+01  0.51100000000E-03 0. -1.
        -11    1    3    3    0    0 -0.16089906152E+02  0.13459056119E+02 -0.26459947362E+01  0.21143144516E+02  0.51100000000E-03 0.  1.
         12    1    3    3    0    0 -0.15598384126E+02  0.37229900871E+01 -0.10654244225E+02  0.19253133837E+02  0.00000000000E+00 0. -1.
</event>
<event>
 7    1  0.2237500E-009  0.4778727E+02  0.7816164E-02  0.1312668E+00
        -11   -1    0    0    0    0  0.00000000000E+00  0.00000000000E+00  0.45593999997E+02  0.45594000000E+02  0.51100000000E-03 0. -1.
         11   -1    0    0    0    0 -0.00000000000E+00 -0.00000000000E+00 -0.45593999997E+02  0.45594000000E+02  0.51100000000E-03 0.  1.
    9900012    2    1    2    0    0  0.29508512465E+02  0.21474034869E+02 -0.23489076839E+02  0.47787271755E+02  0.20000003238E+02 0.  0.
         12    1    1    2    0    0 -0.29508512465E+02 -0.21474034869E+02  0.23489076839E+02  0.43400728245E+02  0.00000000000E+00 0. -1.
         11    1    3    3    0    0  0.24957244180E+01 -0.10086991554E+01  0.49033034219E+00  0.27361539544E+01  0.51100000000E-03 0. -1.
        -11    1    3    3    0    0  0.14421425904E+02  0.99815511986E+01 -0.33761962320E+01  0.17860783597E+02  0.51100000000E-03 0.  1.
        -12    1    3    3    0    0  0.12591362143E+02  0.12501182826E+02 -0.20603210949E+02  0.27190334203E+02  0.00000000000E+00 0.  1.
</event>
<event>
 7    1  0.2237500E-009  0.4778727E+02  0.7816164E-02  0.1312668E+00
        -11   -1    0    0    0    0  0.00000000000E+00  0.00000000000E+00  0.45593999997E+02  0.45594000000E+02  0.51100000000E-03 0.  1.
         11   -1    0    0    0    0 -0.00000000000E+00 -0.00000000000E+00 -0.45593999997E+02  0.45594000000E+02  0.51100000000E-03 0. -1.
    9900012    2    1    2    0    0  0.29474207803E+02  0.26501392675E+02  0.17679664420E+02  0.47787271051E+02  0.20000000030E+02 0.  0.
         12    1    1    2    0    0 -0.29474207803E+02 -0.26501392675E+02 -0.17679664420E+02  0.43400728949E+02  0.00000000000E+00 0. -1.
         11    1    3    3    0    0  0.11563617963E+02  0.22275331841E+01  0.14448370141E+01  0.11864515107E+02  0.51100000000E-03 0. -1.
        -11    1    3    3    0    0  0.10099495830E+01  0.24943030865E+01  0.58941870132E+01  0.64794279728E+01  0.51100000000E-03 0.  1.
        -12    1    3    3    0    0  0.16900640257E+02  0.21779556404E+02  0.10340640393E+02  0.29443327971E+02  0.00000000000E+00 0.  1.
</event>
<event>
 7    1  0.2237500E-009  0.4778730E+02  0.7816164E-02  0.1312668E+00
        -11   -1    0    0    0    0  0.00000000000E+00  0.00000000000E+00  0.45593999997E+02  0.45594000000E+02  0.51100000000E-03 0.  1.
         11   -1    0    0    0    0 -0.00000000000E+00 -0.00000000000E+00 -0.45593999997E+02  0.45594000000E+02  0.51100000000E-03 0. -1.
    9900012    2    1    2    0    0  0.23165083931E+02  0.33796623275E+02 -0.14310414336E+02  0.47787299351E+02  0.20000129059E+02 0.  0.
         12    1    1    2    0    0 -0.23165083931E+02 -0.33796623275E+02  0.14310414336E+02  0.43400700649E+02  0.00000000000E+00 0. -1.
         11    1    3    3    0    0  0.90764627848E+01  0.13874286881E+02 -0.79279195140E+01  0.18377429668E+02  0.51100000000E-03 0. -1.
        -11    1    3    3    0    0  0.10883909428E+02  0.11516664166E+02 -0.11008212865E+02  0.19294397858E+02  0.51100000000E-03 0.  1.
         12    1    3    3    0    0  0.32047117187E+01  0.84056722284E+01  0.46257180431E+01  0.10115471824E+02  0.00000000000E+00 0. -1.
</event>
<event>
 7    1  0.2237500E-009  0.4778727E+02  0.7816164E-02  0.1312668E+00
        -11   -1    0    0    0    0  0.00000000000E+00  0.00000000000E+00  0.45593999997E+02  0.45594000000E+02  0.51100000000E-03 0.  1.
         11   -1    0    0    0    0 -0.00000000000E+00 -0.00000000000E+00 -0.45593999997E+02  0.45594000000E+02  0.51100000000E-03 0. -1.
    9900012    2    1    2    0    0 -0.12050180783E+02 -0.20539939087E+01  0.41643697532E+02  0.47787270836E+02  0.19999999048E+02 0.  0.
         12    1    1    2    0    0  0.12050180783E+02  0.20539939087E+01 -0.41643697532E+02  0.43400729164E+02  0.00000000000E+00 0. -1.
         11    1    3    3    0    0  0.34529131796E+00 -0.13177084643E+01 -0.10291871009E+00  0.13660798707E+01  0.51100000000E-03 0. -1.
        -11    1    3    3    0    0 -0.94875680112E+01  0.69533380027E+01  0.20431334461E+02  0.23575459365E+02  0.51100000000E-03 0.  1.
        -12    1    3    3    0    0 -0.29079040902E+01 -0.76896234471E+01  0.21315281780E+02  0.22845731600E+02  0.00000000000E+00 0.  1.
</event>
<event>
 7    1  0.2237500E-009  0.4778727E+02  0.7816164E-02  0.1312668E+00
        -11   -1    0    0    0    0  0.00000000000E+00  0.00000000000E+00  0.45593999997E+02  0.45594000000E+02  0.51100000000E-03 0.  1.
         11   -1    0    0    0    0 -0.00000000000E+00 -0.00000000000E+00 -0.45593999997E+02  0.45594000000E+02  0.51100000000E-03 0. -1.
    9900012    2    1    2    0    0 -0.21929418924E+02 -0.37303570216E+02  0.33417763725E+01  0.47787271498E+02  0.20000002067E+02 0.  0.
         12    1    1    2    0    0  0.21929418924E+02  0.37303570216E+02 -0.33417763725E+01  0.43400728502E+02  0.00000000000E+00 0. -1.
         11    1    3    3    0    0 -0.45841448751E+01 -0.75619308220E+01 -0.21699235688E-02  0.88429173332E+01  0.51100000000E-03 0. -1.
        -11    1    3    3    0    0 -0.12955179628E+02 -0.29998701400E+02  0.67689863829E+01  0.33370315279E+02  0.51100000000E-03 0.  1.
         12    1    3    3    0    0 -0.43900944216E+01  0.25706200654E+00 -0.34250400869E+01  0.55740388860E+01  0.00000000000E+00 0. -1.
</event>
<event>
 7    1  0.2237500E-009  0.4778727E+02  0.7816164E-02  0.1312668E+00
        -11   -1    0    0    0    0  0.00000000000E+00  0.00000000000E+00  0.45593999997E+02  0.45594000000E+02  0.51100000000E-03 0.  1.
         11   -1    0    0    0    0 -0.00000000000E+00 -0.00000000000E+00 -0.45593999997E+02  0.45594000000E+02  0.51100000000E-03 0. -1.
    9900012    2    1    2    0    0  0.33582545773E+01 -0.29925806252E+02  0.31253664093E+02  0.47787271056E+02  0.20000000052E+02 0.  0.
         12    1    1    2    0    0 -0.33582545773E+01  0.29925806252E+02 -0.31253664093E+02  0.43400728944E+02  0.00000000000E+00 0. -1.
         11    1    3    3    0    0  0.10978774872E+01 -0.87963334328E+01  0.20805557111E+01  0.91054669933E+01  0.51100000000E-03 0. -1.
        -11    1    3    3    0    0 -0.17254423298E+01 -0.10864987010E+02  0.49301283504E+01  0.12055341545E+02  0.51100000000E-03 0.  1.
         12    1    3    3    0    0  0.39858194199E+01 -0.10264485810E+02  0.24242980032E+02  0.26626462518E+02  0.00000000000E+00 0. -1.
</event>
<event>
 7    1  0.2237500E-009  0.4778727E+02  0.7816164E-02  0.1312668E+00
        -11   -1    0    0    0    0  0.00000000000E+00  0.00000000000E+00  0.45593999997E+02  0.45594000000E+02  0.51100000000E-03 0. -1.
         11   -1    0    0    0    0 -0.00000000000E+00 -0.00000000000E+00 -0.45593999997E+02  0.45594000000E+02  0.51100000000E-03 0.  1.
    9900012    2    1    2    0    0  0.25627883319E+02 -0.84023975677E+01 -0.34003449030E+02  0.47787271501E+02  0.20000002081E+02 0.  0.
         12    1    1    2    0    0 -0.25627883319E+02  0.84023975677E+01  0.34003449030E+02  0.43400728499E+02  0.00000000000E+00 0. -1.
         11    1    3    3    0    0  0.12730353122E+02 -0.20641191226E+01 -0.21100526821E+02  0.24729632240E+02  0.51100000000E-03 0.  1.
        -11    1    3    3    0    0  0.13145630863E+00 -0.18445148935E+01 -0.86879571305E+01  0.88825736877E+01  0.51100000000E-03 0. -1.
         12    1    3    3    0    0  0.12766073888E+02 -0.44937635516E+01 -0.42149650790E+01  0.14175065573E+02  0.00000000000E+00 0. -1.
</event>
<event>
 7    1  0.2237500E-009  0.4778727E+02  0.7816164E-02  0.1312668E+00
        -11   -1    0    0    0    0  0.00000000000E+00  0.00000000000E+00  0.45593999997E+02  0.45594000000E+02  0.51100000000E-03 0.  1.
         11   -1    0    0    0    0 -0.00000000000E+00 -0.00000000000E+00 -0.45593999997E+02  0.45594000000E+02  0.51100000000E-03 0. -1.
    9900012    2    1    2    0    0  0.20307354168E+02  0.37634517008E+02  0.74079553368E+01  0.47787270674E+02  0.19999998312E+02 0.  0.
         12    1    1    2    0    0 -0.20307354168E+02 -0.37634517008E+02 -0.74079553368E+01  0.43400729326E+02  0.00000000000E+00 0. -1.
         11    1    3    3    0    0  0.10271714022E+01  0.57050083333E+00  0.12769599398E+01  0.17352749752E+01  0.51100000000E-03 0. -1.
        -11    1    3    3    0    0  0.90062925755E+01  0.28923492159E+02  0.10764707455E+02  0.32149037800E+02  0.51100000000E-03 0.  1.
        -12    1    3    3    0    0  0.10273890190E+02  0.81405240161E+01 -0.46337120584E+01  0.13902957899E+02  0.00000000000E+00 0.  1.
</event>
<event>
 7    1  0.2237500E-009  0.4778727E+02  0.7816164E-02  0.1312668E+00
        -11   -1    0    0    0    0  0.00000000000E+00  0.00000000000E+00  0.45593999997E+02  0.45594000000E+02  0.51100000000E-03 0.  1.
         11   -1    0    0    0    0 -0.00000000000E+00 -0.00000000000E+00 -0.45593999997E+02  0.45594000000E+02  0.51100000000E-03 0. -1.
    9900012    2    1    2    0    0  0.41322991427E+02 -0.80835464029E+01  0.10520927273E+02  0.47787271278E+02  0.20000001066E+02 0.  0.
         12    1    1    2    0    0 -0.41322991427E+02  0.80835464029E+01 -0.10520927273E+02  0.43400728722E+02  0.00000000000E+00 0. -1.
         11    1    3    3    0    0  0.60944236098E+00 -0.20863946690E+01  0.15744043736E+01  0.26838800455E+01  0.51100000000E-03 0. -1.
        -11    1    3    3    0    0  0.31959297474E+02 -0.80929596587E+01  0.82324050725E+00  0.32978332527E+02  0.51100000000E-03 0.  1.
         12    1    3    3    0    0  0.87542515921E+01  0.20958079248E+01  0.81232823925E+01  0.12125058706E+02  0.00000000000E+00 0. -1.
</event>
<event>
 7    1  0.2237500E-009  0.4778728E+02  0.7816164E-02  0.1312668E+00
        -11   -1    0    0    0    0  0.00000000000E+00  0.00000000000E+00  0.45593999997E+02  0.45594000000E+02  0.51100000000E-03 0.  1.
         11   -1    0    0    0    0 -0.00000000000E+00 -0.00000000000E+00 -0.45593999997E+02  0.45594000000E+02  0.51100000000E-03 0. -1.
    9900012    2    1    2    0    0 -0.22900621069E+02 -0.29447826647E+00  0.36865938295E+02  0.47787279163E+02  0.20000037015E+02 0.  0.
         12    1    1    2    0    0  0.22900621069E+02  0.29447826647E+00 -0.36865938295E+02  0.43400720837E+02  0.00000000000E+00 0. -1.
         11    1    3    3    0    0 -0.32074481399E+01 -0.10216943801E+01  0.14329178695E+02  0.14719271223E+02  0.51100000000E-03 0. -1.
        -11    1    3    3    0    0 -0.14920331643E+01 -0.30783443710E+01 -0.50626568083E+00  0.34581313207E+01  0.51100000000E-03 0.  1.
        -12    1    3    3    0    0 -0.18201139765E+02  0.38055604847E+01  0.23043025280E+02  0.29609876620E+02  0.00000000000E+00 0.  1.
</event>
<event>
 7    1  0.2237500E-009  0.4778727E+02  0.7816164E-02  0.1312668E+00
        -11   -1    0    0    0    0  0.00000000000E+00  0.00000000000E+00  0.45593999997E+02  0.45594000000E+02  0.51100000000E-03 0.  1.
         11   -1    0    0    0    0 -0.00000000000E+00 -0.00000000000E+00 -0.45593999997E+02  0.45594000000E+02  0.51100000000E-03 0. -1.
    9900012    2    1    2    0    0 -0.38524624590E+02 -0.28930338700E+01  0.19776436246E+02  0.47787265267E+02  0.19999973657E+02 0.  0.
         12    1    1    2    0    0  0.38524624590E+02  0.28930338700E+01 -0.19776436246E+02  0.43400734733E+02  0.00000000000E+00 0. -1.
         11    1    3    3    0    0 -0.29437372122E+01  0.56357570103E+01  0.29146478199E+01  0.69944633839E+01  0.51100000000E-03 0. -1.
        -11    1    3    3    0    0 -0.34827708146E+01 -0.10655289214E+01 -0.26856751684E+00  0.36520094745E+01  0.51100000000E-03 0.  1.
         12    1    3    3    0    0 -0.32098116563E+02 -0.74632619589E+01  0.17130355943E+02  0.37140792408E+02  0.00000000000E+00 0. -1.
</event>
<event>
 7    1  0.2557927E-009  0.4778727E+02  0.7816164E-02  0.1312668E+00
        -11   -1    0    0    0    0  0.00000000000E+00  0.00000000000E+00  0.45593999997E+02  0.45594000000E+02  0.51100000000E-03 0. -1.
         11   -1    0    0    0    0 -0.00000000000E+00 -0.00000000000E+00 -0.45593999997E+02  0.45594000000E+02  0.51100000000E-03 0.  1.
    9900012    2    1    2    0    0 -0.37188808511E+02  0.52533907286E+01 -0.21748966742E+02  0.47787272507E+02  0.20000006668E+02 0.  0.
         12    1    1    2    0    0  0.37188808511E+02 -0.52533907286E+01  0.21748966742E+02  0.43400727493E+02  0.00000000000E+00 0. -1.
         11    1    3    3    0    0 -0.29588971349E+01 -0.13682165527E+01  0.52782939692E+00  0.33023768597E+01  0.51100000000E-03 0. -1.
        -11    1    3    3    0    0 -0.12897150849E+02 -0.22875250327E+00 -0.17220274919E+02  0.21515731368E+02  0.51100000000E-03 0.  1.
        -12    1    3    3    0    0 -0.21332760526E+02  0.68503597846E+01 -0.50565212198E+01  0.22969164280E+02  0.00000000000E+00 0.  1.
</event>
<event>
 7    1  0.2237500E-009  0.4778727E+02  0.7816164E-02  0.1312668E+00
        -11   -1    0    0    0    0  0.00000000000E+00  0.00000000000E+00  0.45593999997E+02  0.45594000000E+02  0.51100000000E-03 0. -1.
         11   -1    0    0    0    0 -0.00000000000E+00 -0.00000000000E+00 -0.45593999997E+02  0.45594000000E+02  0.51100000000E-03 0.  1.
    9900012    2    1    2    0    0 -0.29720620010E+02  0.10991287656E+02 -0.29656362533E+02  0.47787268476E+02  0.19999988292E+02 0.  0.
         12    1    1    2    0    0  0.29720620010E+02 -0.10991287656E+02  0.29656362533E+02  0.43400731524E+02  0.00000000000E+00 0. -1.
         11    1    3    3    0    0 -0.58812977549E+01  0.33584909185E+01 -0.18177211442E+01  0.70123630076E+01  0.51100000000E-03 0. -1.
        -11    1    3    3    0    0 -0.18440523648E+02  0.12135710947E+02 -0.24543576756E+02  0.33010839929E+02  0.51100000000E-03 0.  1.
        -12    1    3    3    0    0 -0.53987986066E+01 -0.45029142092E+01 -0.32950646329E+01  0.77640655397E+01  0.00000000000E+00 0.  1.
</event>
<event>
 7    1  0.2237500E-009  0.4778727E+02  0.7816164E-02  0.1312668E+00
        -11   -1    0    0    0    0  0.00000000000E+00  0.00000000000E+00  0.45593999997E+02  0.45594000000E+02  0.51100000000E-03 0. -1.
         11   -1    0    0    0    0 -0.00000000000E+00 -0.00000000000E+00 -0.45593999997E+02  0.45594000000E+02  0.51100000000E-03 0.  1.
    9900012    2    1    2    0    0  0.30251722379E+02 -0.24377232190E+02  0.19344431969E+02  0.47787271845E+02  0.20000003651E+02 0.  0.
         12    1    1    2    0    0 -0.30251722379E+02  0.24377232190E+02 -0.19344431969E+02  0.43400728155E+02  0.00000000000E+00 0. -1.
         11    1    3    3    0    0  0.21236489554E+01 -0.59478342866E+01 -0.15526191534E+01  0.65036331449E+01  0.51100000000E-03 0.  1.
        -11    1    3    3    0    0  0.15127585531E+01  0.15455341765E+01  0.23222639268E+01  0.31733301653E+01  0.51100000000E-03 0. -1.
        -12    1    3    3    0    0  0.26615314871E+02 -0.19974932079E+02  0.18574787196E+02  0.38110308535E+02  0.00000000000E+00 0.  1.
</event>
<event>
 7    1  0.2237500E-009  0.4778727E+02  0.7816164E-02  0.1312668E+00
        -11   -1    0    0    0    0  0.00000000000E+00  0.00000000000E+00  0.45593999997E+02  0.45594000000E+02  0.51100000000E-03 0. -1.
         11   -1    0    0    0    0 -0.00000000000E+00 -0.00000000000E+00 -0.45593999997E+02  0.45594000000E+02  0.51100000000E-03 0.  1.
    9900012    2    1    2    0    0  0.27409091278E+01  0.23025520548E+02 -0.36687003090E+02  0.47787269878E+02  0.19999994683E+02 0.  0.
         12    1    1    2    0    0 -0.27409091278E+01 -0.23025520548E+02  0.36687003090E+02  0.43400730122E+02  0.00000000000E+00 0. -1.
         11    1    3    3    0    0  0.22305359583E+01  0.72809716373E+01 -0.10866740410E+02  0.13269283554E+02  0.51100000000E-03 0.  1.
        -11    1    3    3    0    0 -0.16276960791E+01  0.16770138721E+02 -0.27033507462E+02  0.31854316399E+02  0.51100000000E-03 0. -1.
         12    1    3    3    0    0  0.21380692486E+01 -0.10255898104E+01  0.12132447817E+01  0.26636699254E+01  0.00000000000E+00 0. -1.
</event>
<event>
 7    1  0.2237500E-009  0.4778726E+02  0.7816164E-02  0.1312668E+00
        -11   -1    0    0    0    0  0.00000000000E+00  0.00000000000E+00  0.45593999997E+02  0.45594000000E+02  0.51100000000E-03 0. -1.
         11   -1    0    0    0    0 -0.00000000000E+00 -0.00000000000E+00 -0.45593999997E+02  0.45594000000E+02  0.51100000000E-03 0.  1.
    9900012    2    1    2    0    0  0.98763344111E+01 -0.12306749663E+02 -0.40430507207E+02  0.47787262890E+02  0.19999962821E+02 0.  0.
         12    1    1    2    0    0 -0.98763344111E+01  0.12306749663E+02  0.40430507207E+02  0.43400737110E+02  0.00000000000E+00 0. -1.
         11    1    3    3    0    0  0.20998016646E+01 -0.52555313072E+01 -0.19632947614E+02  0.20432386269E+02  0.51100000000E-03 0. -1.
        -11    1    3    3    0    0  0.52180356092E+01 -0.86524810453E+01 -0.21918382355E+02  0.24135219269E+02  0.51100000000E-03 0.  1.
         12    1    3    3    0    0  0.25584971373E+01  0.16012626894E+01  0.11208227620E+01  0.32196573522E+01  0.00000000000E+00 0. -1.
</event>
<event>
 7    1  0.2237500E-009  0.4778727E+02  0.7816164E-02  0.1312668E+00
        -11   -1    0    0    0    0  0.00000000000E+00  0.00000000000E+00  0.45593999997E+02  0.45594000000E+02  0.51100000000E-03 0. -1.
         11   -1    0    0    0    0 -0.00000000000E+00 -0.00000000000E+00 -0.45593999997E+02  0.45594000000E+02  0.51100000000E-03 0.  1.
    9900012    2    1    2    0    0  0.99466991822E+01 -0.42184382837E+02  0.22725586341E+01  0.47787268408E+02  0.19999987979E+02 0.  0.
         12    1    1    2    0    0 -0.99466991822E+01  0.42184382837E+02 -0.22725586341E+01  0.43400731592E+02  0.00000000000E+00 0. -1.
         11    1    3    3    0    0 -0.16513000044E+01 -0.45258889999E+01  0.42843070360E+01  0.64471505321E+01  0.51100000000E-03 0. -1.
        -11    1    3    3    0    0 -0.27467194992E-01 -0.20407458554E+02 -0.22904853839E+01  0.20535614007E+02  0.51100000000E-03 0.  1.
         12    1    3    3    0    0  0.11625466382E+02 -0.17251035283E+02  0.27873698194E+00  0.20804503869E+02  0.00000000000E+00 0. -1.
</event>
<event>
 7    1  0.2237500E-009  0.4778727E+02  0.7816164E-02  0.1312668E+00
        -11   -1    0    0    0    0  0.00000000000E+00  0.00000000000E+00  0.45593999997E+02  0.45594000000E+02  0.51100000000E-03 0.  1.
         11   -1    0    0    0    0 -0.00000000000E+00 -0.00000000000E+00 -0.45593999997E+02  0.45594000000E+02  0.51100000000E-03 0. -1.
    9900012    2    1    2    0    0  0.22949309446E+02  0.30566475014E+02  0.20558295412E+02  0.47787266030E+02  0.19999977139E+02 0.  0.
         12    1    1    2    0    0 -0.22949309446E+02 -0.30566475014E+02 -0.20558295412E+02  0.43400733970E+02  0.00000000000E+00 0. -1.
         11    1    3    3    0    0  0.69274952287E+01  0.14756323894E+02  0.13978901967E+01  0.16361338034E+02  0.51100000000E-03 0. -1.
        -11    1    3    3    0    0  0.16283954904E+02  0.16902186976E+02  0.16964083101E+02  0.28959130299E+02  0.51100000000E-03 0.  1.
         12    1    3    3    0    0 -0.26214068680E+00 -0.10920358566E+01  0.21963221142E+01  0.24667976976E+01  0.00000000000E+00 0. -1.
</event>
<event>
 7    1  0.2237500E-009  0.4778727E+02  0.7816164E-02  0.1312668E+00
        -11   -1    0    0    0    0  0.00000000000E+00  0.00000000000E+00  0.45593999997E+02  0.45594000000E+02  0.51100000000E-03 0.  1.
         11   -1    0    0    0    0 -0.00000000000E+00 -0.00000000000E+00 -0.45593999997E+02  0.45594000000E+02  0.51100000000E-03 0. -1.
    9900012    2    1    2    0    0  0.15034760369E+02  0.10513713780E+02  0.39332441095E+02  0.47787272826E+02  0.20000008121E+02 0.  0.
         12    1    1    2    0    0 -0.15034760369E+02 -0.10513713780E+02 -0.39332441095E+02  0.43400727174E+02  0.00000000000E+00 0. -1.
         11    1    3    3    0    0  0.41563527044E+01  0.70305227581E+01  0.29741952700E+01  0.86919132428E+01  0.51100000000E-03 0. -1.
        -11    1    3    3    0    0  0.14032214176E+01  0.25206986529E+01  0.21828195070E+01  0.36176861814E+01  0.51100000000E-03 0.  1.
        -12    1    3    3    0    0  0.94751862468E+01  0.96249236880E+00  0.34175426318E+02  0.35477673401E+02  0.00000000000E+00 0.  1.
</event>
<event>
 7    1  0.2237500E-009  0.4778727E+02  0.7816164E-02  0.1312668E+00
        -11   -1    0    0    0    0  0.00000000000E+00  0.00000000000E+00  0.45593999997E+02  0.45594000000E+02  0.51100000000E-03 0. -1.
         11   -1    0    0    0    0 -0.00000000000E+00 -0.00000000000E+00 -0.45593999997E+02  0.45594000000E+02  0.51100000000E-03 0.  1.
    9900012    2    1    2    0    0  0.18471249831E+02  0.23109127564E+01 -0.39205812524E+02  0.47787272774E+02  0.20000007886E+02 0.  0.
         12    1    1    2    0    0 -0.18471249831E+02 -0.23109127564E+01  0.39205812524E+02  0.43400727226E+02  0.00000000000E+00 0. -1.
         11    1    3    3    0    0  0.58936228257E+01  0.52432199601E+01 -0.38453580899E+01  0.87757008075E+01  0.51100000000E-03 0. -1.
        -11    1    3    3    0    0  0.10105771195E+02 -0.29672807107E+01 -0.14056361633E+02  0.17564528712E+02  0.51100000000E-03 0.  1.
        -12    1    3    3    0    0  0.24718558106E+01  0.34973506942E-01 -0.21304092800E+02  0.21447043254E+02  0.00000000000E+00 0.  1.
</event>
<event>
 7    1  0.2237500E-009  0.4778727E+02  0.7816164E-02  0.1312668E+00
        -11   -1    0    0    0    0  0.00000000000E+00  0.00000000000E+00  0.45593999997E+02  0.45594000000E+02  0.51100000000E-03 0.  1.
         11   -1    0    0    0    0 -0.00000000000E+00 -0.00000000000E+00 -0.45593999997E+02  0.45594000000E+02  0.51100000000E-03 0. -1.
    9900012    2    1    2    0    0  0.26310254451E+02  0.27227197975E+01  0.34409020719E+02  0.47787269600E+02  0.19999993416E+02 0.  0.
         12    1    1    2    0    0 -0.26310254451E+02 -0.27227197975E+01 -0.34409020719E+02  0.43400730400E+02  0.00000000000E+00 0. -1.
         11    1    3    3    0    0 -0.45739044047E+00 -0.12917490293E+01 -0.47814900970E-01  0.13711703379E+01  0.51100000000E-03 0. -1.
        -11    1    3    3    0    0  0.24210952447E+02 -0.11181804080E+01  0.22126806854E+02  0.32817923877E+02  0.51100000000E-03 0.  1.
        -12    1    3    3    0    0  0.25566924445E+01  0.51326492348E+01  0.12330028766E+02  0.13598175385E+02  0.00000000000E+00 0.  1.
</event>
<event>
 7    1  0.2237500E-009  0.4778727E+02  0.7816164E-02  0.1312668E+00
        -11   -1    0    0    0    0  0.00000000000E+00  0.00000000000E+00  0.45593999997E+02  0.45594000000E+02  0.51100000000E-03 0.  1.
         11   -1    0    0    0    0 -0.00000000000E+00 -0.00000000000E+00 -0.45593999997E+02  0.45594000000E+02  0.51100000000E-03 0. -1.
    9900012    2    1    2    0    0 -0.27975341105E+02  0.17843331956E+02  0.27975331813E+02  0.47787269646E+02  0.19999993623E+02 0.  0.
         12    1    1    2    0    0  0.27975341105E+02 -0.17843331956E+02 -0.27975331813E+02  0.43400730354E+02  0.00000000000E+00 0. -1.
         11    1    3    3    0    0 -0.77318783095E+01  0.93190823014E+00  0.12297139357E+01  0.78843257015E+01  0.51100000000E-03 0. -1.
        -11    1    3    3    0    0 -0.14758307165E+02  0.45711452274E+01  0.10057330418E+02  0.18435099524E+02  0.51100000000E-03 0.  1.
        -12    1    3    3    0    0 -0.54851556302E+01  0.12340278498E+02  0.16688287460E+02  0.21467844420E+02  0.00000000000E+00 0.  1.
</event>
<event>
 7    1  0.2237500E-009  0.4778727E+02  0.7816164E-02  0.1312668E+00
        -11   -1    0    0    0    0  0.00000000000E+00  0.00000000000E+00  0.45593999997E+02  0.45594000000E+02  0.51100000000E-03 0.  1.
         11   -1    0    0    0    0 -0.00000000000E+00 -0.00000000000E+00 -0.45593999997E+02  0.45594000000E+02  0.51100000000E-03 0. -1.
    9900012    2    1    2    0    0  0.81458821544E+01  0.69132825178E+01  0.42065120064E+02  0.47787271928E+02  0.20000004027E+02 0.  0.
         12    1    1    2    0    0 -0.81458821544E+01 -0.69132825178E+01 -0.42065120064E+02  0.43400728072E+02  0.00000000000E+00 0. -1.
         11    1    3    3    0    0  0.56403906734E+01 -0.20520177374E+01  0.34086807948E+01  0.69024552707E+01  0.51100000000E-03 0. -1.
        -11    1    3    3    0    0  0.28415271221E+01 -0.45004549060E-01  0.19576205735E+02  0.19781408772E+02  0.51100000000E-03 0.  1.
         12    1    3    3    0    0 -0.33603564107E+00  0.90103048042E+01  0.19080233534E+02  0.21103407884E+02  0.00000000000E+00 0. -1.
</event>
<event>
 7    1  0.2237500E-009  0.4778727E+02  0.7816164E-02  0.1312668E+00
        -11   -1    0    0    0    0  0.00000000000E+00  0.00000000000E+00  0.45593999997E+02  0.45594000000E+02  0.51100000000E-03 0. -1.
         11   -1    0    0    0    0 -0.00000000000E+00 -0.00000000000E+00 -0.45593999997E+02  0.45594000000E+02  0.51100000000E-03 0.  1.
    9900012    2    1    2    0    0 -0.14030446966E+02  0.25780263033E+02 -0.31971045775E+02  0.47787272218E+02  0.20000005349E+02 0.  0.
         12    1    1    2    0    0  0.14030446966E+02 -0.25780263033E+02  0.31971045775E+02  0.43400727782E+02  0.00000000000E+00 0. -1.
         11    1    3    3    0    0 -0.23746048877E+01  0.35558797138E+01 -0.69423492455E+00  0.43318577197E+01  0.51100000000E-03 0. -1.
        -11    1    3    3    0    0 -0.99498424308E+00  0.11549131563E+02 -0.39606844714E+01  0.12249875724E+02  0.51100000000E-03 0.  1.
         12    1    3    3    0    0 -0.10660857835E+02  0.10675251756E+02 -0.27316126379E+02  0.31205538774E+02  0.00000000000E+00 0. -1.
</event>
<event>
 7    1  0.2237500E-009  0.4778727E+02  0.7816164E-02  0.1312668E+00
        -11   -1    0    0    0    0  0.00000000000E+00  0.00000000000E+00  0.45593999997E+02  0.45594000000E+02  0.51100000000E-03 0.  1.
         11   -1    0    0    0    0 -0.00000000000E+00 -0.00000000000E+00 -0.45593999997E+02  0.45594000000E+02  0.51100000000E-03 0. -1.
    9900012    2    1    2    0    0  0.49911217423E+01  0.23041556322E+01  0.43051169153E+02  0.47787267347E+02  0.19999983141E+02 0.  0.
         12    1    1    2    0    0 -0.49911217423E+01 -0.23041556322E+01 -0.43051169153E+02  0.43400732653E+02  0.00000000000E+00 0. -1.
         11    1    3    3    0    0 -0.68960382620E-01  0.68961795006E+01  0.95121492065E+01  0.11749171461E+02  0.51100000000E-03 0. -1.
        -11    1    3    3    0    0 -0.30623104504E+01 -0.88728785154E+00  0.36601484194E+01  0.48540407640E+01  0.51100000000E-03 0.  1.
        -12    1    3    3    0    0  0.81223925753E+01 -0.37047360168E+01  0.29878871527E+02  0.31184055121E+02  0.00000000000E+00 0.  1.
</event>
<event>
 7    1  0.2237500E-009  0.4778727E+02  0.7816164E-02  0.1312668E+00
        -11   -1    0    0    0    0  0.00000000000E+00  0.00000000000E+00  0.45593999997E+02  0.45594000000E+02  0.51100000000E-03 0.  1.
         11   -1    0    0    0    0 -0.00000000000E+00 -0.00000000000E+00 -0.45593999997E+02  0.45594000000E+02  0.51100000000E-03 0. -1.
    9900012    2    1    2    0    0 -0.43291630720E+02  0.30731575708E+01  0.11565504467E+00  0.47787274615E+02  0.20000016278E+02 0.  0.
         12    1    1    2    0    0  0.43291630720E+02 -0.30731575708E+01 -0.11565504467E+00  0.43400725385E+02  0.00000000000E+00 0. -1.
         11    1    3    3    0    0 -0.17815058362E+02 -0.55786880387E+01 -0.14630522103E+01  0.18725346104E+02  0.51100000000E-03 0. -1.
        -11    1    3    3    0    0 -0.20829582093E+01 -0.13624774855E+01  0.25936568389E+01  0.35947344630E+01  0.51100000000E-03 0.  1.
        -12    1    3    3    0    0 -0.23393614149E+02  0.10014323095E+02 -0.10149495839E+01  0.25467194048E+02  0.00000000000E+00 0.  1.
</event>
<event>
 7    1  0.2237500E-009  0.4778727E+02  0.7816164E-02  0.1312668E+00
        -11   -1    0    0    0    0  0.00000000000E+00  0.00000000000E+00  0.45593999997E+02  0.45594000000E+02  0.51100000000E-03 0.  1.
         11   -1    0    0    0    0 -0.00000000000E+00 -0.00000000000E+00 -0.45593999997E+02  0.45594000000E+02  0.51100000000E-03 0. -1.
    9900012    2    1    2    0    0  0.18738450762E+02  0.37486161147E+02  0.11281917126E+02  0.47787268802E+02  0.19999989775E+02 0.  0.
         12    1    1    2    0    0 -0.18738450762E+02 -0.37486161147E+02 -0.11281917126E+02  0.43400731198E+02  0.00000000000E+00 0. -1.
         11    1    3    3    0    0  0.12371769754E+02  0.27621403931E+02  0.43564363725E+01  0.30577461963E+02  0.51100000000E-03 0.  1.
        -11    1    3    3    0    0 -0.15777926829E+01  0.45013417604E+01 -0.87749710601E+00  0.48498978160E+01  0.51100000000E-03 0. -1.
        -12    1    3    3    0    0  0.79444736910E+01  0.53634154556E+01  0.78029778591E+01  0.12359909023E+02  0.00000000000E+00 0.  1.
</event>
<event>
 7    1  0.2237500E-009  0.4778728E+02  0.7816164E-02  0.1312668E+00
        -11   -1    0    0    0    0  0.00000000000E+00  0.00000000000E+00  0.45593999997E+02  0.45594000000E+02  0.51100000000E-03 0. -1.
         11   -1    0    0    0    0 -0.00000000000E+00 -0.00000000000E+00 -0.45593999997E+02  0.45594000000E+02  0.51100000000E-03 0.  1.
    9900012    2    1    2    0    0 -0.40438499998E+02 -0.13331960401E+02  0.84029245793E+01  0.47787278903E+02  0.20000035832E+02 0.  0.
         12    1    1    2    0    0  0.40438499998E+02  0.13331960401E+02 -0.84029245793E+01  0.43400721097E+02  0.00000000000E+00 0. -1.
         11    1    3    3    0    0 -0.12561869899E+02 -0.15871549283E+01 -0.70302769046E+00  0.12681241434E+02  0.51100000000E-03 0. -1.
        -11    1    3    3    0    0 -0.28480296724E+02 -0.13641655876E+02  0.96890525447E+01  0.33031800072E+02  0.51100000000E-03 0.  1.
         12    1    3    3    0    0  0.60366662459E+00  0.18968504037E+01 -0.58310027497E+00  0.20742373968E+01  0.00000000000E+00 0. -1.
</event>
<event>
 7    1  0.2237500E-009  0.4778727E+02  0.7816164E-02  0.1312668E+00
        -11   -1    0    0    0    0  0.00000000000E+00  0.00000000000E+00  0.45593999997E+02  0.45594000000E+02  0.51100000000E-03 0.  1.
         11   -1    0    0    0    0 -0.00000000000E+00 -0.00000000000E+00 -0.45593999997E+02  0.45594000000E+02  0.51100000000E-03 0. -1.
    9900012    2    1    2    0    0  0.40731768199E+02  0.72634637856E+00  0.14967262481E+02  0.47787268833E+02  0.19999989917E+02 0.  0.
         12    1    1    2    0    0 -0.40731768199E+02 -0.72634637856E+00 -0.14967262481E+02  0.43400731167E+02  0.00000000000E+00 0. -1.
         11    1    3    3    0    0  0.23760400897E+02 -0.70811131720E+01  0.41688635675E+01  0.25141166207E+02  0.51100000000E-03 0.  1.
        -11    1    3    3    0    0  0.42949395830E+00 -0.91328645047E+00 -0.79700536205E-01  0.10123782087E+01  0.51100000000E-03 0. -1.
        -12    1    3    3    0    0  0.16541873343E+02  0.87207460010E+01  0.10878099450E+02  0.21633724417E+02  0.00000000000E+00 0.  1.
</event>
<event>
 7    1  0.2237500E-009  0.4778728E+02  0.7816164E-02  0.1312668E+00
        -11   -1    0    0    0    0  0.00000000000E+00  0.00000000000E+00  0.45593999997E+02  0.45594000000E+02  0.51100000000E-03 0. -1.
         11   -1    0    0    0    0 -0.00000000000E+00 -0.00000000000E+00 -0.45593999997E+02  0.45594000000E+02  0.51100000000E-03 0.  1.
    9900012    2    1    2    0    0  0.96903822003E+01 -0.67068609976E+01 -0.41770049075E+02  0.47787280059E+02  0.20000041102E+02 0.  0.
         12    1    1    2    0    0 -0.96903822003E+01  0.67068609976E+01  0.41770049075E+02  0.43400719941E+02  0.00000000000E+00 0. -1.
         11    1    3    3    0    0  0.65436108104E+00  0.25416423251E+01 -0.36037491588E+01  0.44581545951E+01  0.51100000000E-03 0. -1.
        -11    1    3    3    0    0  0.34487281148E+01  0.39347641708E+01 -0.16903163210E+02  0.17694434759E+02  0.51100000000E-03 0.  1.
        -12    1    3    3    0    0  0.55872930045E+01 -0.13183267494E+02 -0.21263136707E+02  0.25634690705E+02  0.00000000000E+00 0.  1.
</event>
<event>
 7    1  0.2843824E-009  0.4778728E+02  0.7816164E-02  0.1312668E+00
        -11   -1    0    0    0    0  0.00000000000E+00  0.00000000000E+00  0.45593999997E+02  0.45594000000E+02  0.51100000000E-03 0.  1.
         11   -1    0    0    0    0 -0.00000000000E+00 -0.00000000000E+00 -0.45593999997E+02  0.45594000000E+02  0.51100000000E-03 0. -1.
    9900012    2    1    2    0    0  0.34497818604E+02  0.23670295177E+02  0.11542984790E+02  0.47787275812E+02  0.20000021737E+02 0.  0.
         12    1    1    2    0    0 -0.34497818604E+02 -0.23670295177E+02 -0.11542984790E+02  0.43400724188E+02  0.00000000000E+00 0. -1.
         11    1    3    3    0    0 -0.26480558705E+00 -0.10004350274E+01 -0.87269088183E+00  0.13537288796E+01  0.51100000000E-03 0. -1.
        -11    1    3    3    0    0  0.18896435396E+02  0.12278234205E+02 -0.45322168310E+00  0.22539647646E+02  0.51100000000E-03 0.  1.
        -12    1    3    3    0    0  0.15866188795E+02  0.12392496000E+02  0.12868897355E+02  0.23893899287E+02  0.00000000000E+00 0.  1.
</event>
<event>
 7    1  0.2237500E-009  0.4778727E+02  0.7816164E-02  0.1312668E+00
        -11   -1    0    0    0    0  0.00000000000E+00  0.00000000000E+00  0.45593999997E+02  0.45594000000E+02  0.51100000000E-03 0.  1.
         11   -1    0    0    0    0 -0.00000000000E+00 -0.00000000000E+00 -0.45593999997E+02  0.45594000000E+02  0.51100000000E-03 0. -1.
    9900012    2    1    2    0    0 -0.29610672346E+02  0.29064499770E+02 -0.12731309532E+02  0.47787270674E+02  0.19999998309E+02 0.  0.
         12    1    1    2    0    0  0.29610672346E+02 -0.29064499770E+02  0.12731309532E+02  0.43400729326E+02  0.00000000000E+00 0. -1.
         11    1    3    3    0    0 -0.52604342674E+01  0.12695132786E+02 -0.12292167592E+02  0.18437352020E+02  0.51100000000E-03 0. -1.
        -11    1    3    3    0    0 -0.68992991699E+01  0.48563290149E+01  0.62747911338E-01  0.84373098852E+01  0.51100000000E-03 0.  1.
         12    1    3    3    0    0 -0.17450938909E+02  0.11513037968E+02 -0.50188985121E+00  0.20912608768E+02  0.00000000000E+00 0. -1.
</event>
<event>
 7    1  0.2237500E-009  0.4778726E+02  0.7816164E-02  0.1312668E+00
        -11   -1    0    0    0    0  0.00000000000E+00  0.00000000000E+00  0.45593999997E+02  0.45594000000E+02  0.51100000000E-03 0. -1.
         11   -1    0    0    0    0 -0.00000000000E+00 -0.00000000000E+00 -0.45593999997E+02  0.45594000000E+02  0.51100000000E-03 0.  1.
    9900012    2    1    2    0    0  0.33979816623E+02 -0.29179864688E+01 -0.26841785613E+02  0.47787262245E+02  0.19999959882E+02 0.  0.
         12    1    1    2    0    0 -0.33979816623E+02  0.29179864688E+01  0.26841785613E+02  0.43400737755E+02  0.00000000000E+00 0. -1.
         11    1    3    3    0    0  0.12801144797E+02  0.41254817790E+01 -0.96341921848E+01  0.16544079525E+02  0.51100000000E-03 0. -1.
        -11    1    3    3    0    0  0.16601644896E+02  0.70012305821E+00 -0.13884893864E+02  0.21653984932E+02  0.51100000000E-03 0.  1.
        -12    1    3    3    0    0  0.45770269299E+01 -0.77435913059E+01 -0.33226995638E+01  0.95891977882E+01  0.00000000000E+00 0.  1.
</event>
<event>
 7    1  0.2237500E-009  0.4778728E+02  0.7816164E-02  0.1312668E+00
        -11   -1    0    0    0    0  0.00000000000E+00  0.00000000000E+00  0.45593999997E+02  0.45594000000E+02  0.51100000000E-03 0. -1.
         11   -1    0    0    0    0 -0.00000000000E+00 -0.00000000000E+00 -0.45593999997E+02  0.45594000000E+02  0.51100000000E-03 0.  1.
    9900012    2    1    2    0    0 -0.38589418251E+02 -0.91958768108E+01 -0.17604409993E+02  0.47787278779E+02  0.20000035266E+02 0.  0.
         12    1    1    2    0    0  0.38589418251E+02  0.91958768108E+01  0.17604409993E+02  0.43400721221E+02  0.00000000000E+00 0. -1.
         11    1    3    3    0    0 -0.16391214174E+02  0.14785159871E+01 -0.30454456891E+01  0.16737163778E+02  0.51100000000E-03 0. -1.
        -11    1    3    3    0    0 -0.20241722191E+02 -0.89474449856E+01 -0.72485607978E+01  0.23287887902E+02  0.51100000000E-03 0.  1.
         12    1    3    3    0    0 -0.19564818856E+01 -0.17269478123E+01 -0.73104035061E+01  0.77622270990E+01  0.00000000000E+00 0. -1.
</event>
<event>
 7    1  0.2237500E-009  0.4778727E+02  0.7816164E-02  0.1312668E+00
        -11   -1    0    0    0    0  0.00000000000E+00  0.00000000000E+00  0.45593999997E+02  0.45594000000E+02  0.51100000000E-03 0. -1.
         11   -1    0    0    0    0 -0.00000000000E+00 -0.00000000000E+00 -0.45593999997E+02  0.45594000000E+02  0.51100000000E-03 0.  1.
    9900012    2    1    2    0    0 -0.27617072855E+01  0.42767494553E+02 -0.68511061983E+01  0.47787271048E+02  0.20000000015E+02 0.  0.
         12    1    1    2    0    0  0.27617072855E+01 -0.42767494553E+02  0.68511061983E+01  0.43400728952E+02  0.00000000000E+00 0. -1.
         11    1    3    3    0    0 -0.41206040865E+01  0.38777686056E+01  0.14462905768E+01  0.58402246609E+01  0.51100000000E-03 0. -1.
        -11    1    3    3    0    0 -0.48589414229E+01  0.14520620237E+02 -0.67960307247E+01  0.16752425427E+02  0.51100000000E-03 0.  1.
        -12    1    3    3    0    0  0.62178382239E+01  0.24369105711E+02 -0.15013660504E+01  0.25194620960E+02  0.00000000000E+00 0.  1.
</event>
<event>
 7    1  0.2237500E-009  0.4778727E+02  0.7816164E-02  0.1312668E+00
        -11   -1    0    0    0    0  0.00000000000E+00  0.00000000000E+00  0.45593999997E+02  0.45594000000E+02  0.51100000000E-03 0. -1.
         11   -1    0    0    0    0 -0.00000000000E+00 -0.00000000000E+00 -0.45593999997E+02  0.45594000000E+02  0.51100000000E-03 0.  1.
    9900012    2    1    2    0    0 -0.24117493370E+02  0.27331182945E+02 -0.23557937466E+02  0.47787268840E+02  0.19999989948E+02 0.  0.
         12    1    1    2    0    0  0.24117493370E+02 -0.27331182945E+02  0.23557937466E+02  0.43400731160E+02  0.00000000000E+00 0. -1.
         11    1    3    3    0    0 -0.20828501479E+02  0.19657084930E+02 -0.11699280362E+02  0.30937042895E+02  0.51100000000E-03 0.  1.
        -11    1    3    3    0    0 -0.48072164817E+01  0.78019455555E+00 -0.41582799560E+01  0.64038524577E+01  0.51100000000E-03 0. -1.
        -12    1    3    3    0    0  0.15182245912E+01  0.68939034591E+01 -0.77003771482E+01  0.10446373487E+02  0.00000000000E+00 0.  1.
</event>
<event>
 7    1  0.2237500E-009  0.4778727E+02  0.7816164E-02  0.1312668E+00
        -11   -1    0    0    0    0  0.00000000000E+00  0.00000000000E+00  0.45593999997E+02  0.45594000000E+02  0.51100000000E-03 0.  1.
         11   -1    0    0    0    0 -0.00000000000E+00 -0.00000000000E+00 -0.45593999997E+02  0.45594000000E+02  0.51100000000E-03 0. -1.
    9900012    2    1    2    0    0  0.21952975091E+02 -0.19187308733E+02  0.32148677898E+02  0.47787269334E+02  0.19999992201E+02 0.  0.
         12    1    1    2    0    0 -0.21952975091E+02  0.19187308733E+02 -0.32148677898E+02  0.43400730666E+02  0.00000000000E+00 0. -1.
         11    1    3    3    0    0  0.10566708449E+02 -0.25925548210E+01  0.61681382937E+01  0.12506902024E+02  0.51100000000E-03 0.  1.
        -11    1    3    3    0    0 -0.13376598741E+01  0.12543415527E+01  0.30450977177E+01  0.35546205200E+01  0.51100000000E-03 0. -1.
        -12    1    3    3    0    0  0.12723926516E+02 -0.17849095464E+02  0.22935441887E+02  0.31725746790E+02  0.00000000000E+00 0.  1.
</event>
<event>
 7    1  0.2237500E-009  0.4778727E+02  0.7816164E-02  0.1312668E+00
        -11   -1    0    0    0    0  0.00000000000E+00  0.00000000000E+00  0.45593999997E+02  0.45594000000E+02  0.51100000000E-03 0.  1.
         11   -1    0    0    0    0 -0.00000000000E+00 -0.00000000000E+00 -0.45593999997E+02  0.45594000000E+02  0.51100000000E-03 0. -1.
    9900012    2    1    2    0    0  0.36827517069E+02 -0.89516743381E+01  0.21147687869E+02  0.47787272021E+02  0.20000004451E+02 0.  0.
         12    1    1    2    0    0 -0.36827517069E+02  0.89516743381E+01 -0.21147687869E+02  0.43400727979E+02  0.00000000000E+00 0. -1.
         11    1    3    3    0    0  0.53341527101E+01 -0.42681648461E+01  0.65457574380E+01  0.94613612650E+01  0.51100000000E-03 0. -1.
        -11    1    3    3    0    0  0.19627543723E+02 -0.98833472799E+01  0.12249462208E+02  0.25158902017E+02  0.51100000000E-03 0.  1.
         12    1    3    3    0    0  0.11865820636E+02  0.51998377878E+01  0.23524682235E+01  0.13167008739E+02  0.00000000000E+00 0. -1.
</event>
<event>
 7    1  0.2237500E-009  0.4778728E+02  0.7816164E-02  0.1312668E+00
        -11   -1    0    0    0    0  0.00000000000E+00  0.00000000000E+00  0.45593999997E+02  0.45594000000E+02  0.51100000000E-03 0. -1.
         11   -1    0    0    0    0 -0.00000000000E+00 -0.00000000000E+00 -0.45593999997E+02  0.45594000000E+02  0.51100000000E-03 0.  1.
    9900012    2    1    2    0    0 -0.30383689313E+02  0.19135301851E+02 -0.24378152182E+02  0.47787278151E+02  0.20000032402E+02 0.  0.
         12    1    1    2    0    0  0.30383689313E+02 -0.19135301851E+02  0.24378152182E+02  0.43400721849E+02  0.00000000000E+00 0. -1.
         11    1    3    3    0    0 -0.14952236360E+02  0.96832924210E+01 -0.96339338658E+01  0.20252116093E+02  0.51100000000E-03 0. -1.
        -11    1    3    3    0    0 -0.15203014251E+02  0.18497200385E+01 -0.11974860214E+02  0.19440946066E+02  0.51100000000E-03 0.  1.
         12    1    3    3    0    0 -0.22843870295E+00  0.76022893910E+01 -0.27693581019E+01  0.80942159918E+01  0.00000000000E+00 0. -1.
</event>
<event>
 7    1  0.2237500E-009  0.4778727E+02  0.7816164E-02  0.1312668E+00
        -11   -1    0    0    0    0  0.00000000000E+00  0.00000000000E+00  0.45593999997E+02  0.45594000000E+02  0.51100000000E-03 0. -1.
         11   -1    0    0    0    0 -0.00000000000E+00 -0.00000000000E+00 -0.45593999997E+02  0.45594000000E+02  0.51100000000E-03 0.  1.
    9900012    2    1    2    0    0 -0.22898337673E+02  0.30135420923E+02 -0.21240194409E+02  0.47787270502E+02  0.19999997526E+02 0.  0.
         12    1    1    2    0    0  0.22898337673E+02 -0.30135420923E+02  0.21240194409E+02  0.43400729498E+02  0.00000000000E+00 0. -1.
         11    1    3    3    0    0 -0.47117796181E+01  0.74906877862E+01 -0.98079521221E+01  0.13210117175E+02  0.51100000000E-03 0. -1.
        -11    1    3    3    0    0 -0.20941527406E+01  0.39181460165E+01 -0.86572022210E+01  0.97305957918E+01  0.51100000000E-03 0.  1.
        -12    1    3    3    0    0 -0.16092405314E+02  0.18726587121E+02 -0.27750400664E+01  0.24846557535E+02  0.00000000000E+00 0.  1.
</event>
<event>
 7    1  0.2237500E-009  0.4778727E+02  0.7816164E-02  0.1312668E+00
        -11   -1    0    0    0    0  0.00000000000E+00  0.00000000000E+00  0.45593999997E+02  0.45594000000E+02  0.51100000000E-03 0. -1.
         11   -1    0    0    0    0 -0.00000000000E+00 -0.00000000000E+00 -0.45593999997E+02  0.45594000000E+02  0.51100000000E-03 0.  1.
    9900012    2    1    2    0    0  0.30360466810E+02  0.16155326644E+02 -0.26473965253E+02  0.47787270051E+02  0.19999995472E+02 0.  0.
         12    1    1    2    0    0 -0.30360466810E+02 -0.16155326644E+02  0.26473965253E+02  0.43400729949E+02  0.00000000000E+00 0. -1.
         11    1    3    3    0    0  0.16606543690E+02  0.80051937698E+01 -0.71896092109E+01  0.19787645173E+02  0.51100000000E-03 0. -1.
        -11    1    3    3    0    0  0.29660536542E+01  0.34981699301E+01  0.87287729823E+00  0.46686809892E+01  0.51100000000E-03 0.  1.
        -12    1    3    3    0    0  0.10787869465E+02  0.46519629437E+01 -0.20157233340E+02  0.23330943889E+02  0.00000000000E+00 0.  1.
</event>
<event>
 7    1  0.2237500E-009  0.4778727E+02  0.7816164E-02  0.1312668E+00
        -11   -1    0    0    0    0  0.00000000000E+00  0.00000000000E+00  0.45593999997E+02  0.45594000000E+02  0.51100000000E-03 0.  1.
         11   -1    0    0    0    0 -0.00000000000E+00 -0.00000000000E+00 -0.45593999997E+02  0.45594000000E+02  0.51100000000E-03 0. -1.
    9900012    2    1    2    0    0  0.11584316726E+02  0.20819681826E+02  0.36276276720E+02  0.47787265006E+02  0.19999972471E+02 0.  0.
         12    1    1    2    0    0 -0.11584316726E+02 -0.20819681826E+02 -0.36276276720E+02  0.43400734994E+02  0.00000000000E+00 0. -1.
         11    1    3    3    0    0 -0.32960138683E+01 -0.66142068441E+00  0.47240367489E+01  0.57980779753E+01  0.51100000000E-03 0. -1.
        -11    1    3    3    0    0  0.19669795673E+01  0.66762021371E+01  0.36335342790E+01  0.78513218767E+01  0.51100000000E-03 0.  1.
        -12    1    3    3    0    0  0.12913351027E+02  0.14804900373E+02  0.27918705692E+02  0.34137865154E+02  0.00000000000E+00 0.  1.
</event>
<event>
 7    1  0.2237500E-009  0.4778727E+02  0.7816164E-02  0.1312668E+00
        -11   -1    0    0    0    0  0.00000000000E+00  0.00000000000E+00  0.45593999997E+02  0.45594000000E+02  0.51100000000E-03 0. -1.
         11   -1    0    0    0    0 -0.00000000000E+00 -0.00000000000E+00 -0.45593999997E+02  0.45594000000E+02  0.51100000000E-03 0.  1.
    9900012    2    1    2    0    0  0.99874976100E+01 -0.38705993998E+02 -0.16903241601E+02  0.47787266636E+02  0.19999979900E+02 0.  0.
         12    1    1    2    0    0 -0.99874976100E+01  0.38705993998E+02  0.16903241601E+02  0.43400733364E+02  0.00000000000E+00 0. -1.
         11    1    3    3    0    0  0.12494370274E+01  0.41268136309E-01 -0.83177071793E+00  0.15015454481E+01  0.51100000000E-03 0. -1.
        -11    1    3    3    0    0 -0.43925862592E+01 -0.18365577803E+02 -0.96409385789E+01  0.21202286646E+02  0.51100000000E-03 0.  1.
         12    1    3    3    0    0  0.13130646842E+02 -0.20381684331E+02 -0.64305323045E+01  0.25083434541E+02  0.00000000000E+00 0. -1.
</event>
<event>
 7    1  0.2237500E-009  0.4778727E+02  0.7816164E-02  0.1312668E+00
        -11   -1    0    0    0    0  0.00000000000E+00  0.00000000000E+00  0.45593999997E+02  0.45594000000E+02  0.51100000000E-03 0. -1.
         11   -1    0    0    0    0 -0.00000000000E+00 -0.00000000000E+00 -0.45593999997E+02  0.45594000000E+02  0.51100000000E-03 0.  1.
    9900012    2    1    2    0    0 -0.16215949946E+01  0.42826290727E+02  0.68485460621E+01  0.47787270387E+02  0.19999997003E+02 0.  0.
         12    1    1    2    0    0  0.16215949946E+01 -0.42826290727E+02 -0.68485460621E+01  0.43400729613E+02  0.00000000000E+00 0. -1.
         11    1    3    3    0    0  0.27724477400E+01  0.49530174046E+01 -0.19990855964E+01  0.60179058952E+01  0.51100000000E-03 0. -1.
        -11    1    3    3    0    0  0.21115254657E+01  0.19004078493E+02  0.10370338159E+02  0.21752182717E+02  0.51100000000E-03 0.  1.
         12    1    3    3    0    0 -0.65055682003E+01  0.18869194830E+02 -0.15227065004E+01  0.20017181775E+02  0.00000000000E+00 0. -1.
</event>
<event>
 7    1  0.2237500E-009  0.4778727E+02  0.7816164E-02  0.1312668E+00
        -11   -1    0    0    0    0  0.00000000000E+00  0.00000000000E+00  0.45593999997E+02  0.45594000000E+02  0.51100000000E-03 0.  1.
         11   -1    0    0    0    0 -0.00000000000E+00 -0.00000000000E+00 -0.45593999997E+02  0.45594000000E+02  0.51100000000E-03 0. -1.
    9900012    2    1    2    0    0 -0.23716825622E+02  0.18656802955E+02  0.31193895937E+02  0.47787271229E+02  0.20000000843E+02 0.  0.
         12    1    1    2    0    0  0.23716825622E+02 -0.18656802955E+02 -0.31193895937E+02  0.43400728771E+02  0.00000000000E+00 0. -1.
         11    1    3    3    0    0 -0.62791085922E+01  0.65549560654E+01  0.21723622883E+02  0.23543798443E+02  0.51100000000E-03 0. -1.
        -11    1    3    3    0    0 -0.17513873565E+01 -0.70460991532E+00 -0.12257532384E-02  0.18878121116E+01  0.51100000000E-03 0.  1.
        -12    1    3    3    0    0 -0.15686329673E+02  0.12806456805E+02  0.94714988072E+01  0.22355660674E+02  0.00000000000E+00 0.  1.
</event>
<event>
 7    1  0.2237500E-009  0.4778727E+02  0.7816164E-02  0.1312668E+00
        -11   -1    0    0    0    0  0.00000000000E+00  0.00000000000E+00  0.45593999997E+02  0.45594000000E+02  0.51100000000E-03 0. -1.
         11   -1    0    0    0    0 -0.00000000000E+00 -0.00000000000E+00 -0.45593999997E+02  0.45594000000E+02  0.51100000000E-03 0.  1.
    9900012    2    1    2    0    0  0.13752529129E+02 -0.26575683148E+02 -0.31436034645E+02  0.47787271130E+02  0.20000000389E+02 0.  0.
         12    1    1    2    0    0 -0.13752529129E+02  0.26575683148E+02  0.31436034645E+02  0.43400728870E+02  0.00000000000E+00 0. -1.
         11    1    3    3    0    0  0.86797331528E+00  0.13007285522E+01 -0.19974586093E+01  0.25367525696E+01  0.51100000000E-03 0. -1.
        -11    1    3    3    0    0  0.27681463913E+01 -0.17959664095E+02 -0.87296932966E+01  0.20159854021E+02  0.51100000000E-03 0.  1.
        -12    1    3    3    0    0  0.10116409423E+02 -0.99167476057E+01 -0.20708882739E+02  0.25090664539E+02  0.00000000000E+00 0.  1.
</event>
<event>
 7    1  0.3302238E-009  0.4778727E+02  0.7816164E-02  0.1312668E+00
        -11   -1    0    0    0    0  0.00000000000E+00  0.00000000000E+00  0.45593999997E+02  0.45594000000E+02  0.51100000000E-03 0.  1.
         11   -1    0    0    0    0 -0.00000000000E+00 -0.00000000000E+00 -0.45593999997E+02  0.45594000000E+02  0.51100000000E-03 0. -1.
    9900012    2    1    2    0    0 -0.42527149727E+02  0.32313836127E+01  0.80388730023E+01  0.47787265178E+02  0.19999973251E+02 0.  0.
         12    1    1    2    0    0  0.42527149727E+02 -0.32313836127E+01 -0.80388730023E+01  0.43400734822E+02  0.00000000000E+00 0. -1.
         11    1    3    3    0    0  0.92665255588E+00  0.10801724409E+01  0.61227409593E+00  0.15493021949E+01  0.51100000000E-03 0. -1.
        -11    1    3    3    0    0 -0.89442835189E+01 -0.19488997407E+01 -0.35122157194E+01  0.98047986918E+01  0.51100000000E-03 0.  1.
        -12    1    3    3    0    0 -0.34509518764E+02  0.41001109125E+01  0.10938814626E+02  0.36433164291E+02  0.00000000000E+00 0.  1.
</event>
<event>
 7    1  0.2584082E-009  0.4778728E+02  0.7816164E-02  0.1312668E+00
        -11   -1    0    0    0    0  0.00000000000E+00  0.00000000000E+00  0.45593999997E+02  0.45594000000E+02  0.51100000000E-03 0. -1.
         11   -1    0    0    0    0 -0.00000000000E+00 -0.00000000000E+00 -0.45593999997E+02  0.45594000000E+02  0.51100000000E-03 0.  1.
    9900012    2    1    2    0    0  0.13794151318E+02 -0.36182048730E+02 -0.19601102123E+02  0.47787280360E+02  0.20000042472E+02 0.  0.
         12    1    1    2    0    0 -0.13794151318E+02  0.36182048730E+02  0.19601102123E+02  0.43400719640E+02  0.00000000000E+00 0. -1.
         11    1    3    3    0    0  0.12795607994E+01  0.55709910488E+00  0.15433221271E+01  0.20807399408E+01  0.51100000000E-03 0. -1.
        -11    1    3    3    0    0  0.27269450125E+01 -0.40691419849E+01 -0.75339451794E+01  0.89863494158E+01  0.51100000000E-03 0.  1.
        -12    1    3    3    0    0  0.97876455058E+01 -0.32670005850E+02 -0.13610479071E+02  0.36720191003E+02  0.00000000000E+00 0.  1.
</event>
<event>
 7    1  0.2237500E-009  0.4778727E+02  0.7816164E-02  0.1312668E+00
        -11   -1    0    0    0    0  0.00000000000E+00  0.00000000000E+00  0.45593999997E+02  0.45594000000E+02  0.51100000000E-03 0.  1.
         11   -1    0    0    0    0 -0.00000000000E+00 -0.00000000000E+00 -0.45593999997E+02  0.45594000000E+02  0.51100000000E-03 0. -1.
    9900012    2    1    2    0    0  0.10779364813E+02  0.29947985366E+01  0.41933993759E+02  0.47787270091E+02  0.19999995653E+02 0.  0.
         12    1    1    2    0    0 -0.10779364813E+02 -0.29947985366E+01 -0.41933993759E+02  0.43400729909E+02  0.00000000000E+00 0. -1.
         11    1    3    3    0    0  0.22917524667E+01 -0.61681416737E+00  0.16647574036E+02  0.16815894583E+02  0.51100000000E-03 0. -1.
        -11    1    3    3    0    0  0.49154176662E+00 -0.55508006636E+01  0.61626144881E+01  0.83084787359E+01  0.51100000000E-03 0.  1.
         12    1    3    3    0    0  0.79960705792E+01  0.91624133676E+01  0.19123805235E+02  0.22662896772E+02  0.00000000000E+00 0. -1.
</event>
<event>
 7    1  0.2237500E-009  0.4778728E+02  0.7816164E-02  0.1312668E+00
        -11   -1    0    0    0    0  0.00000000000E+00  0.00000000000E+00  0.45593999997E+02  0.45594000000E+02  0.51100000000E-03 0. -1.
         11   -1    0    0    0    0 -0.00000000000E+00 -0.00000000000E+00 -0.45593999997E+02  0.45594000000E+02  0.51100000000E-03 0.  1.
    9900012    2    1    2    0    0  0.17434887671E+02  0.32156546769E+02 -0.23358168032E+02  0.47787276250E+02  0.20000023734E+02 0.  0.
         12    1    1    2    0    0 -0.17434887671E+02 -0.32156546769E+02  0.23358168032E+02  0.43400723750E+02  0.00000000000E+00 0. -1.
         11    1    3    3    0    0  0.11024140276E+01  0.10227249990E+02 -0.86842497808E+01  0.13462100637E+02  0.51100000000E-03 0.  1.
        -11    1    3    3    0    0  0.25921121959E+01  0.21128330592E+01 -0.89311391659E+01  0.95366847612E+01  0.51100000000E-03 0. -1.
        -12    1    3    3    0    0  0.13740361448E+02  0.19816463720E+02 -0.57427790854E+01  0.24788490852E+02  0.00000000000E+00 0.  1.
</event>
<event>
 7    1  0.2237500E-009  0.4778727E+02  0.7816164E-02  0.1312668E+00
        -11   -1    0    0    0    0  0.00000000000E+00  0.00000000000E+00  0.45593999997E+02  0.45594000000E+02  0.51100000000E-03 0.  1.
         11   -1    0    0    0    0 -0.00000000000E+00 -0.00000000000E+00 -0.45593999997E+02  0.45594000000E+02  0.51100000000E-03 0. -1.
    9900012    2    1    2    0    0  0.38984320485E+02  0.18848264090E+02  0.29306670119E+01  0.47787272909E+02  0.20000008502E+02 0.  0.
         12    1    1    2    0    0 -0.38984320485E+02 -0.18848264090E+02 -0.29306670119E+01  0.43400727091E+02  0.00000000000E+00 0. -1.
         11    1    3    3    0    0  0.66666604241E+01 -0.38188153808E+01  0.27932542928E+01  0.81749606683E+01  0.51100000000E-03 0. -1.
        -11    1    3    3    0    0  0.73243737622E+01  0.38983669420E+01 -0.85165071400E+00  0.83408048187E+01  0.51100000000E-03 0.  1.
         12    1    3    3    0    0  0.24993286299E+02  0.18768712529E+02  0.98906343306E+00  0.31271507422E+02  0.00000000000E+00 0. -1.
</event>
<event>
 7    1  0.2237500E-009  0.4778723E+02  0.7816164E-02  0.1312668E+00
        -11   -1    0    0    0    0  0.00000000000E+00  0.00000000000E+00  0.45593999997E+02  0.45594000000E+02  0.51100000000E-03 0.  1.
         11   -1    0    0    0    0 -0.00000000000E+00 -0.00000000000E+00 -0.45593999997E+02  0.45594000000E+02  0.51100000000E-03 0. -1.
    9900012    2    1    2    0    0  0.16787156680E+02 -0.33537738605E+02  0.21841214379E+02  0.47787225978E+02  0.19999794524E+02 0.  0.
         12    1    1    2    0    0 -0.16787156680E+02  0.33537738605E+02 -0.21841214379E+02  0.43400774022E+02  0.00000000000E+00 0. -1.
         11    1    3    3    0    0  0.29943077466E+01 -0.33750524096E+01  0.96376141581E+01  0.10641450304E+02  0.51100000000E-03 0. -1.
        -11    1    3    3    0    0  0.16281936398E+01  0.68653622846E+00  0.14467011088E+01  0.22837011366E+01  0.51100000000E-03 0.  1.
        -12    1    3    3    0    0  0.12164655293E+02 -0.30849222424E+02  0.10756899112E+02  0.34862074538E+02  0.00000000000E+00 0.  1.
</event>
<event>
 7    1  0.2237500E-009  0.4778726E+02  0.7816164E-02  0.1312668E+00
        -11   -1    0    0    0    0  0.00000000000E+00  0.00000000000E+00  0.45593999997E+02  0.45594000000E+02  0.51100000000E-03 0.  1.
         11   -1    0    0    0    0 -0.00000000000E+00 -0.00000000000E+00 -0.45593999997E+02  0.45594000000E+02  0.51100000000E-03 0. -1.
    9900012    2    1    2    0    0  0.20545346092E+02  0.38215428856E+02 -0.10460190802E+01  0.47787258018E+02  0.19999940607E+02 0.  0.
         12    1    1    2    0    0 -0.20545346092E+02 -0.38215428856E+02  0.10460190802E+01  0.43400741982E+02  0.00000000000E+00 0. -1.
         11    1    3    3    0    0  0.88698144999E+01  0.86263373538E+01  0.37772015510E+01  0.12936558941E+02  0.51100000000E-03 0. -1.
        -11    1    3    3    0    0  0.11725961690E+02  0.12963001896E+02  0.20497592450E+00  0.17480835538E+02  0.51100000000E-03 0.  1.
         12    1    3    3    0    0 -0.50430097864E-01  0.16626089606E+02 -0.50281965557E+01  0.17369863540E+02  0.00000000000E+00 0. -1.
</event>
<event>
 7    1  0.2237500E-009  0.4778727E+02  0.7816164E-02  0.1312668E+00
        -11   -1    0    0    0    0  0.00000000000E+00  0.00000000000E+00  0.45593999997E+02  0.45594000000E+02  0.51100000000E-03 0.  1.
         11   -1    0    0    0    0 -0.00000000000E+00 -0.00000000000E+00 -0.45593999997E+02  0.45594000000E+02  0.51100000000E-03 0. -1.
    9900012    2    1    2    0    0  0.33534625848E+02  0.27294922901E+02 -0.37469072808E+01  0.47787271191E+02  0.20000000670E+02 0.  0.
         12    1    1    2    0    0 -0.33534625848E+02 -0.27294922901E+02  0.37469072808E+01  0.43400728809E+02  0.00000000000E+00 0. -1.
         11    1    3    3    0    0  0.20301088191E+00  0.23371455015E+01 -0.32293416431E+01  0.39915047566E+01  0.51100000000E-03 0. -1.
        -11    1    3    3    0    0  0.12169834715E+02  0.99251686796E+01 -0.67614750500E+01  0.17097701466E+02  0.51100000000E-03 0.  1.
         12    1    3    3    0    0  0.21161780251E+02  0.15032608720E+02  0.62439094123E+01  0.26698064969E+02  0.00000000000E+00 0. -1.
</event>
<event>
 7    1  0.2237500E-009  0.4778727E+02  0.7816164E-02  0.1312668E+00
        -11   -1    0    0    0    0  0.00000000000E+00  0.00000000000E+00  0.45593999997E+02  0.45594000000E+02  0.51100000000E-03 0. -1.
         11   -1    0    0    0    0 -0.00000000000E+00 -0.00000000000E+00 -0.45593999997E+02  0.45594000000E+02  0.51100000000E-03 0.  1.
    9900012    2    1    2    0    0  0.13399753648E+02  0.26268038565E+02 -0.31844308059E+02  0.47787271854E+02  0.20000003690E+02 0.  0.
         12    1    1    2    0    0 -0.13399753648E+02 -0.26268038565E+02  0.31844308059E+02  0.43400728146E+02  0.00000000000E+00 0. -1.
         11    1    3    3    0    0  0.33072705550E+01  0.10067296169E+02 -0.10504207570E+01  0.10648562096E+02  0.51100000000E-03 0. -1.
        -11    1    3    3    0    0  0.12274745317E+01  0.82413145231E+01 -0.16854948111E+02  0.18802000822E+02  0.51100000000E-03 0.  1.
        -12    1    3    3    0    0  0.88650085617E+01  0.79594278725E+01 -0.13938939190E+02  0.18336708936E+02  0.00000000000E+00 0.  1.
</event>
<event>
 7    1  0.2237500E-009  0.4778727E+02  0.7816164E-02  0.1312668E+00
        -11   -1    0    0    0    0  0.00000000000E+00  0.00000000000E+00  0.45593999997E+02  0.45594000000E+02  0.51100000000E-03 0.  1.
         11   -1    0    0    0    0 -0.00000000000E+00 -0.00000000000E+00 -0.45593999997E+02  0.45594000000E+02  0.51100000000E-03 0. -1.
    9900012    2    1    2    0    0 -0.16700091134E+01  0.35242972998E+02  0.25273847131E+02  0.47787269303E+02  0.19999992060E+02 0.  0.
         12    1    1    2    0    0  0.16700091134E+01 -0.35242972998E+02 -0.25273847131E+02  0.43400730697E+02  0.00000000000E+00 0. -1.
         11    1    3    3    0    0 -0.78751947365E+00 -0.13846262258E+01  0.40704512304E+01  0.43710353679E+01  0.51100000000E-03 0. -1.
        -11    1    3    3    0    0 -0.11664581657E+01  0.55070614119E+01  0.75839157084E+01  0.94447936865E+01  0.51100000000E-03 0.  1.
        -12    1    3    3    0    0  0.28396852598E+00  0.31120537812E+02  0.13619480193E+02  0.33971440249E+02  0.00000000000E+00 0.  1.
</event>
<event>
 7    1  0.2237500E-009  0.4778727E+02  0.7816164E-02  0.1312668E+00
        -11   -1    0    0    0    0  0.00000000000E+00  0.00000000000E+00  0.45593999997E+02  0.45594000000E+02  0.51100000000E-03 0.  1.
         11   -1    0    0    0    0 -0.00000000000E+00 -0.00000000000E+00 -0.45593999997E+02  0.45594000000E+02  0.51100000000E-03 0. -1.
    9900012    2    1    2    0    0 -0.36056930944E+02  0.56504687938E+01  0.23486015721E+02  0.47787274186E+02  0.20000014324E+02 0.  0.
         12    1    1    2    0    0  0.36056930944E+02 -0.56504687938E+01 -0.23486015721E+02  0.43400725814E+02  0.00000000000E+00 0. -1.
         11    1    3    3    0    0 -0.25919378430E+01 -0.43188331961E+01  0.25247442778E+01  0.56342520255E+01  0.51100000000E-03 0. -1.
        -11    1    3    3    0    0 -0.68921944125E+01 -0.18175023372E+01  0.66637708846E+01  0.97576380968E+01  0.51100000000E-03 0.  1.
         12    1    3    3    0    0 -0.26572798689E+02  0.11786804327E+02  0.14297500559E+02  0.32395384064E+02  0.00000000000E+00 0. -1.
</event>
<event>
 7    1  0.2237500E-009  0.4778726E+02  0.7816164E-02  0.1312668E+00
        -11   -1    0    0    0    0  0.00000000000E+00  0.00000000000E+00  0.45593999997E+02  0.45594000000E+02  0.51100000000E-03 0. -1.
         11   -1    0    0    0    0 -0.00000000000E+00 -0.00000000000E+00 -0.45593999997E+02  0.45594000000E+02  0.51100000000E-03 0.  1.
    9900012    2    1    2    0    0 -0.13212313554E+02 -0.28417379964E+02 -0.30025182809E+02  0.47787259037E+02  0.19999945251E+02 0.  0.
         12    1    1    2    0    0  0.13212313554E+02  0.28417379964E+02  0.30025182809E+02  0.43400740963E+02  0.00000000000E+00 0. -1.
         11    1    3    3    0    0 -0.53942868883E+01 -0.14183913530E+02 -0.18666455029E+02  0.24056564129E+02  0.51100000000E-03 0.  1.
        -11    1    3    3    0    0 -0.12464666315E+01  0.94329285186E+00  0.19522572241E+01  0.25009576162E+01  0.51100000000E-03 0. -1.
         12    1    3    3    0    0 -0.65715600342E+01 -0.15176759285E+02 -0.13310985004E+02  0.21229737292E+02  0.00000000000E+00 0. -1.
</event>
<event>
 7    1  0.2237500E-009  0.4778727E+02  0.7816164E-02  0.1312668E+00
        -11   -1    0    0    0    0  0.00000000000E+00  0.00000000000E+00  0.45593999997E+02  0.45594000000E+02  0.51100000000E-03 0. -1.
         11   -1    0    0    0    0 -0.00000000000E+00 -0.00000000000E+00 -0.45593999997E+02  0.45594000000E+02  0.51100000000E-03 0.  1.
    9900012    2    1    2    0    0  0.24141355015E+02  0.36056797568E+02  0.85178618095E+00  0.47787271751E+02  0.20000003223E+02 0.  0.
         12    1    1    2    0    0 -0.24141355015E+02 -0.36056797568E+02 -0.85178618095E+00  0.43400728249E+02  0.00000000000E+00 0. -1.
         11    1    3    3    0    0  0.12963857227E+02  0.27738622117E+02  0.44294297511E+01  0.30937236453E+02  0.51100000000E-03 0.  1.
        -11    1    3    3    0    0 -0.10766200217E+00  0.68522999745E+00  0.20087024060E+01  0.21250922035E+01  0.51100000000E-03 0. -1.
        -12    1    3    3    0    0  0.11285159790E+02  0.76329454528E+01 -0.55863459762E+01  0.14724943095E+02  0.00000000000E+00 0.  1.
</event>
<event>
 7    1  0.2237500E-009  0.4778727E+02  0.7816164E-02  0.1312668E+00
        -11   -1    0    0    0    0  0.00000000000E+00  0.00000000000E+00  0.45593999997E+02  0.45594000000E+02  0.51100000000E-03 0. -1.
         11   -1    0    0    0    0 -0.00000000000E+00 -0.00000000000E+00 -0.45593999997E+02  0.45594000000E+02  0.51100000000E-03 0.  1.
    9900012    2    1    2    0    0  0.23840325570E+02  0.81207990469E+01 -0.35345642579E+02  0.47787274778E+02  0.20000017025E+02 0.  0.
         12    1    1    2    0    0 -0.23840325570E+02 -0.81207990469E+01  0.35345642579E+02  0.43400725222E+02  0.00000000000E+00 0. -1.
         11    1    3    3    0    0  0.48729582845E+01  0.66395153354E+00  0.11184254791E+01  0.50435533004E+01  0.51100000000E-03 0. -1.
        -11    1    3    3    0    0 -0.93262667514E+00 -0.22330692638E+00 -0.12930904260E+01  0.16098886948E+01  0.51100000000E-03 0.  1.
        -12    1    3    3    0    0  0.19899993961E+02  0.76801544398E+01 -0.35170977632E+02  0.41133832783E+02  0.00000000000E+00 0.  1.
</event>
<event>
 7    1  0.2237500E-009  0.4778727E+02  0.7816164E-02  0.1312668E+00
        -11   -1    0    0    0    0  0.00000000000E+00  0.00000000000E+00  0.45593999997E+02  0.45594000000E+02  0.51100000000E-03 0.  1.
         11   -1    0    0    0    0 -0.00000000000E+00 -0.00000000000E+00 -0.45593999997E+02  0.45594000000E+02  0.51100000000E-03 0. -1.
    9900012    2    1    2    0    0 -0.32922520341E+02 -0.16973682409E+02  0.22619130862E+02  0.47787270500E+02  0.19999997519E+02 0.  0.
         12    1    1    2    0    0  0.32922520341E+02  0.16973682409E+02 -0.22619130862E+02  0.43400729500E+02  0.00000000000E+00 0. -1.
         11    1    3    3    0    0 -0.14183633638E+02 -0.67439286397E+01  0.12919512925E+02  0.20336416871E+02  0.51100000000E-03 0. -1.
        -11    1    3    3    0    0 -0.20710361343E+02 -0.10818257521E+02  0.99147504305E+01  0.25382199257E+02  0.51100000000E-03 0.  1.
         12    1    3    3    0    0  0.19714746403E+01  0.58850375118E+00 -0.21513249350E+00  0.20686543723E+01  0.00000000000E+00 0. -1.
</event>
<event>
 7    1  0.2237500E-009  0.4778727E+02  0.7816164E-02  0.1312668E+00
        -11   -1    0    0    0    0  0.00000000000E+00  0.00000000000E+00  0.45593999997E+02  0.45594000000E+02  0.51100000000E-03 0.  1.
         11   -1    0    0    0    0 -0.00000000000E+00 -0.00000000000E+00 -0.45593999997E+02  0.45594000000E+02  0.51100000000E-03 0. -1.
    9900012    2    1    2    0    0  0.60448153477E+01  0.19130012073E+02  0.38485398829E+02  0.47787273306E+02  0.20000010313E+02 0.  0.
         12    1    1    2    0    0 -0.60448153477E+01 -0.19130012073E+02 -0.38485398829E+02  0.43400726694E+02  0.00000000000E+00 0. -1.
         11    1    3    3    0    0  0.51184874393E+01  0.91982629413E+01  0.94260025517E+01  0.14129985109E+02  0.51100000000E-03 0.  1.
        -11    1    3    3    0    0 -0.38824444346E+00  0.11752873530E+01 -0.14398300670E+01  0.18987219368E+01  0.51100000000E-03 0. -1.
        -12    1    3    3    0    0  0.13145723519E+01  0.87564617790E+01  0.30499226344E+02  0.31758566261E+02  0.00000000000E+00 0.  1.
</event>
<event>
 7    1  0.2237500E-009  0.4778727E+02  0.7816164E-02  0.1312668E+00
        -11   -1    0    0    0    0  0.00000000000E+00  0.00000000000E+00  0.45593999997E+02  0.45594000000E+02  0.51100000000E-03 0. -1.
         11   -1    0    0    0    0 -0.00000000000E+00 -0.00000000000E+00 -0.45593999997E+02  0.45594000000E+02  0.51100000000E-03 0.  1.
    9900012    2    1    2    0    0 -0.10345354623E+01 -0.35910381689E+02 -0.24351536348E+02  0.47787273057E+02  0.20000009178E+02 0.  0.
         12    1    1    2    0    0  0.10345354623E+01  0.35910381689E+02  0.24351536348E+02  0.43400726943E+02  0.00000000000E+00 0. -1.
         11    1    3    3    0    0  0.35097925286E+01 -0.29161523008E+01 -0.84704945723E+01  0.96214274615E+01  0.51100000000E-03 0. -1.
        -11    1    3    3    0    0 -0.23668994172E+01 -0.51340185662E+01 -0.66661079417E+01  0.87405580394E+01  0.51100000000E-03 0.  1.
        -12    1    3    3    0    0 -0.21774285737E+01 -0.27860210822E+02 -0.92149338339E+01  0.29425287556E+02  0.00000000000E+00 0.  1.
</event>
<event>
 7    1  0.2237500E-009  0.4778727E+02  0.7816164E-02  0.1312668E+00
        -11   -1    0    0    0    0  0.00000000000E+00  0.00000000000E+00  0.45593999997E+02  0.45594000000E+02  0.51100000000E-03 0.  1.
         11   -1    0    0    0    0 -0.00000000000E+00 -0.00000000000E+00 -0.45593999997E+02  0.45594000000E+02  0.51100000000E-03 0. -1.
    9900012    2    1    2    0    0 -0.23974727959E+02  0.33445202820E+02  0.13793279528E+02  0.47787265760E+02  0.19999975906E+02 0.  0.
         12    1    1    2    0    0  0.23974727959E+02 -0.33445202820E+02 -0.13793279528E+02  0.43400734240E+02  0.00000000000E+00 0. -1.
         11    1    3    3    0    0 -0.11335125619E+02  0.15635986979E+02 -0.54213911750E+00  0.19320017513E+02  0.51100000000E-03 0. -1.
        -11    1    3    3    0    0 -0.42240808880E+01  0.12358242213E+02  0.31285600455E+01  0.13429702088E+02  0.51100000000E-03 0.  1.
        -12    1    3    3    0    0 -0.84155214518E+01  0.54509736283E+01  0.11206858600E+02  0.15037546159E+02  0.00000000000E+00 0.  1.
</event>
<event>
 7    1  0.2237500E-009  0.4778727E+02  0.7816164E-02  0.1312668E+00
        -11   -1    0    0    0    0  0.00000000000E+00  0.00000000000E+00  0.45593999997E+02  0.45594000000E+02  0.51100000000E-03 0.  1.
         11   -1    0    0    0    0 -0.00000000000E+00 -0.00000000000E+00 -0.45593999997E+02  0.45594000000E+02  0.51100000000E-03 0. -1.
    9900012    2    1    2    0    0  0.28093682537E+02 -0.25354162275E+02  0.21249342782E+02  0.47787272911E+02  0.20000008511E+02 0.  0.
         12    1    1    2    0    0 -0.28093682537E+02  0.25354162275E+02 -0.21249342782E+02  0.43400727089E+02  0.00000000000E+00 0. -1.
         11    1    3    3    0    0  0.77449545083E+01 -0.46605692528E+01  0.10874002807E+02  0.14140338164E+02  0.51100000000E-03 0. -1.
        -11    1    3    3    0    0  0.49712218977E+01 -0.11190822805E+02  0.95890493188E+01  0.15553052090E+02  0.51100000000E-03 0.  1.
         12    1    3    3    0    0  0.15377506131E+02 -0.95027702170E+01  0.78629065704E+00  0.18093882657E+02  0.00000000000E+00 0. -1.
</event>
<event>
 7    1  0.2237500E-009  0.4778727E+02  0.7816164E-02  0.1312668E+00
        -11   -1    0    0    0    0  0.00000000000E+00  0.00000000000E+00  0.45593999997E+02  0.45594000000E+02  0.51100000000E-03 0.  1.
         11   -1    0    0    0    0 -0.00000000000E+00 -0.00000000000E+00 -0.45593999997E+02  0.45594000000E+02  0.51100000000E-03 0. -1.
    9900012    2    1    2    0    0 -0.19287780084E+02 -0.37443398866E+01  0.38698639893E+02  0.47787271074E+02  0.20000000133E+02 0.  0.
         12    1    1    2    0    0  0.19287780084E+02  0.37443398866E+01 -0.38698639893E+02  0.43400728926E+02  0.00000000000E+00 0. -1.
         11    1    3    3    0    0  0.11893019941E+01  0.12568451446E+01  0.77453680361E-01  0.17320791796E+01  0.51100000000E-03 0.  1.
        -11    1    3    3    0    0  0.14790947139E+01 -0.86326003066E+00  0.78107837669E+01  0.79963293058E+01  0.51100000000E-03 0. -1.
        -12    1    3    3    0    0 -0.21956176792E+02 -0.41379250005E+01  0.30810402446E+02  0.38058862588E+02  0.00000000000E+00 0.  1.
</event>
<event>
 7    1  0.2237500E-009  0.4778727E+02  0.7816164E-02  0.1312668E+00
        -11   -1    0    0    0    0  0.00000000000E+00  0.00000000000E+00  0.45593999997E+02  0.45594000000E+02  0.51100000000E-03 0. -1.
         11   -1    0    0    0    0 -0.00000000000E+00 -0.00000000000E+00 -0.45593999997E+02  0.45594000000E+02  0.51100000000E-03 0.  1.
    9900012    2    1    2    0    0 -0.28568260643E+02 -0.27189741149E+02 -0.18116172935E+02  0.47787271184E+02  0.20000000638E+02 0.  0.
         12    1    1    2    0    0  0.28568260643E+02  0.27189741149E+02  0.18116172935E+02  0.43400728816E+02  0.00000000000E+00 0. -1.
         11    1    3    3    0    0 -0.52028878509E+01 -0.78263956847E+01 -0.26198009612E+01  0.97563245507E+01  0.51100000000E-03 0. -1.
        -11    1    3    3    0    0 -0.13892600598E+02 -0.11260424382E+01 -0.40846354492E+01  0.14524344046E+02  0.51100000000E-03 0.  1.
        -12    1    3    3    0    0 -0.94727721938E+01 -0.18237303026E+02 -0.11411736525E+02  0.23506602588E+02  0.00000000000E+00 0.  1.
</event>
<event>
 7    1  0.2590975E-009  0.4778727E+02  0.7816164E-02  0.1312668E+00
        -11   -1    0    0    0    0  0.00000000000E+00  0.00000000000E+00  0.45593999997E+02  0.45594000000E+02  0.51100000000E-03 0. -1.
         11   -1    0    0    0    0 -0.00000000000E+00 -0.00000000000E+00 -0.45593999997E+02  0.45594000000E+02  0.51100000000E-03 0.  1.
    9900012    2    1    2    0    0  0.73282463771E+01 -0.29051464973E+02 -0.31399562925E+02  0.47787270007E+02  0.19999995271E+02 0.  0.
         12    1    1    2    0    0 -0.73282463771E+01  0.29051464973E+02  0.31399562925E+02  0.43400729993E+02  0.00000000000E+00 0. -1.
         11    1    3    3    0    0  0.34459078369E+01 -0.37452194393E+00 -0.14879361316E+01  0.37720686234E+01  0.51100000000E-03 0. -1.
        -11    1    3    3    0    0 -0.19807639315E+00 -0.13845104666E+01 -0.97227835317E+01  0.98228622792E+01  0.51100000000E-03 0.  1.
        -12    1    3    3    0    0  0.40804149334E+01 -0.27292432563E+02 -0.20188843261E+02  0.34192339105E+02  0.00000000000E+00 0.  1.
</event>
<event>
 7    1  0.2237500E-009  0.4778728E+02  0.7816164E-02  0.1312668E+00
        -11   -1    0    0    0    0  0.00000000000E+00  0.00000000000E+00  0.45593999997E+02  0.45594000000E+02  0.51100000000E-03 0.  1.
         11   -1    0    0    0    0 -0.00000000000E+00 -0.00000000000E+00 -0.45593999997E+02  0.45594000000E+02  0.51100000000E-03 0. -1.
    9900012    2    1    2    0    0 -0.31764015428E+02 -0.29543901465E+02  0.13520745862E+01  0.47787275403E+02  0.20000019871E+02 0.  0.
         12    1    1    2    0    0  0.31764015428E+02  0.29543901465E+02 -0.13520745862E+01  0.43400724597E+02  0.00000000000E+00 0. -1.
         11    1    3    3    0    0 -0.16458191764E+02 -0.19374731577E+02 -0.31257987293E+01  0.25612944341E+02  0.51100000000E-03 0. -1.
        -11    1    3    3    0    0 -0.84142157984E+01 -0.11516965075E+02  0.50453370607E+01  0.15129274218E+02  0.51100000000E-03 0.  1.
         12    1    3    3    0    0 -0.68916078652E+01  0.13477951870E+01 -0.56746374524E+00  0.70450568441E+01  0.00000000000E+00 0. -1.
</event>
<event>
 7    1  0.2237500E-009  0.4778727E+02  0.7816164E-02  0.1312668E+00
        -11   -1    0    0    0    0  0.00000000000E+00  0.00000000000E+00  0.45593999997E+02  0.45594000000E+02  0.51100000000E-03 0.  1.
         11   -1    0    0    0    0 -0.00000000000E+00 -0.00000000000E+00 -0.45593999997E+02  0.45594000000E+02  0.51100000000E-03 0. -1.
    9900012    2    1    2    0    0 -0.61213667054E+01  0.35645402132E+02  0.23990777972E+02  0.47787271306E+02  0.20000001191E+02 0.  0.
         12    1    1    2    0    0  0.61213667054E+01 -0.35645402132E+02 -0.23990777972E+02  0.43400728694E+02  0.00000000000E+00 0. -1.
         11    1    3    3    0    0 -0.11895077284E+01  0.85678741520E+01 -0.17221819991E+01  0.88198246706E+01  0.51100000000E-03 0. -1.
        -11    1    3    3    0    0 -0.59676177935E+01  0.22469334200E+02  0.16167382854E+02  0.28317268762E+02  0.51100000000E-03 0.  1.
         12    1    3    3    0    0  0.10357588166E+01  0.46081937807E+01  0.95455771162E+01  0.10650177873E+02  0.00000000000E+00 0. -1.
</event>
<event>
 7    1  0.2237500E-009  0.4778728E+02  0.7816164E-02  0.1312668E+00
        -11   -1    0    0    0    0  0.00000000000E+00  0.00000000000E+00  0.45593999997E+02  0.45594000000E+02  0.51100000000E-03 0.  1.
         11   -1    0    0    0    0 -0.00000000000E+00 -0.00000000000E+00 -0.45593999997E+02  0.45594000000E+02  0.51100000000E-03 0. -1.
    9900012    2    1    2    0    0 -0.24076898518E+02 -0.35901754147E+02 -0.38716336155E+01  0.47787279500E+02  0.20000038552E+02 0.  0.
         12    1    1    2    0    0  0.24076898518E+02  0.35901754147E+02  0.38716336155E+01  0.43400720500E+02  0.00000000000E+00 0. -1.
         11    1    3    3    0    0 -0.11334211140E+02 -0.18269639617E+02  0.45529033602E+01  0.21976646768E+02  0.51100000000E-03 0. -1.
        -11    1    3    3    0    0 -0.20748861994E+01 -0.12284962688E+02 -0.40366911480E+01  0.13096577289E+02  0.51100000000E-03 0.  1.
         12    1    3    3    0    0 -0.10667801179E+02 -0.53471518412E+01 -0.43878458278E+01  0.12714055443E+02  0.00000000000E+00 0. -1.
</event>
<event>
 7    1  0.2237500E-009  0.4778727E+02  0.7816164E-02  0.1312668E+00
        -11   -1    0    0    0    0  0.00000000000E+00  0.00000000000E+00  0.45593999997E+02  0.45594000000E+02  0.51100000000E-03 0.  1.
         11   -1    0    0    0    0 -0.00000000000E+00 -0.00000000000E+00 -0.45593999997E+02  0.45594000000E+02  0.51100000000E-03 0. -1.
    9900012    2    1    2    0    0 -0.43888729358E+00  0.40725826244E+02 -0.14994595236E+02  0.47787269227E+02  0.19999991715E+02 0.  0.
         12    1    1    2    0    0  0.43888729358E+00 -0.40725826244E+02  0.14994595236E+02  0.43400730773E+02  0.00000000000E+00 0. -1.
         11    1    3    3    0    0  0.89579958016E+00  0.50616025034E+01 -0.41877204638E+01  0.66301794647E+01  0.51100000000E-03 0. -1.
        -11    1    3    3    0    0 -0.93459155566E+01  0.18785159378E+02 -0.47105027152E+01  0.21503887708E+02  0.51100000000E-03 0.  1.
        -12    1    3    3    0    0  0.80112286829E+01  0.16879064362E+02 -0.60963720573E+01  0.19653202055E+02  0.00000000000E+00 0.  1.
</event>
<event>
 7    1  0.2237500E-009  0.4778727E+02  0.7816164E-02  0.1312668E+00
        -11   -1    0    0    0    0  0.00000000000E+00  0.00000000000E+00  0.45593999997E+02  0.45594000000E+02  0.51100000000E-03 0.  1.
         11   -1    0    0    0    0 -0.00000000000E+00 -0.00000000000E+00 -0.45593999997E+02  0.45594000000E+02  0.51100000000E-03 0. -1.
    9900012    2    1    2    0    0 -0.40153035960E+02  0.56625465443E+01  0.15469076119E+02  0.47787273668E+02  0.20000011961E+02 0.  0.
         12    1    1    2    0    0  0.40153035960E+02 -0.56625465443E+01 -0.15469076119E+02  0.43400726332E+02  0.00000000000E+00 0. -1.
         11    1    3    3    0    0 -0.30967532039E+01 -0.29481810619E+01  0.25345985042E+01  0.49704971399E+01  0.51100000000E-03 0. -1.
        -11    1    3    3    0    0 -0.14150907796E+02  0.69290235885E+01  0.12044456288E+02  0.19832510857E+02  0.51100000000E-03 0.  1.
        -12    1    3    3    0    0 -0.22905374961E+02  0.16817040177E+01  0.89002132662E+00  0.22984265671E+02  0.00000000000E+00 0.  1.
</event>
<event>
 7    1  0.2543086E-009  0.4778727E+02  0.7816164E-02  0.1312668E+00
        -11   -1    0    0    0    0  0.00000000000E+00  0.00000000000E+00  0.45593999997E+02  0.45594000000E+02  0.51100000000E-03 0. -1.
         11   -1    0    0    0    0 -0.00000000000E+00 -0.00000000000E+00 -0.45593999997E+02  0.45594000000E+02  0.51100000000E-03 0.  1.
    9900012    2    1    2    0    0 -0.40802861027E+02  0.73732625782E+01 -0.12821253829E+02  0.47787273983E+02  0.20000013400E+02 0.  0.
         12    1    1    2    0    0  0.40802861027E+02 -0.73732625782E+01  0.12821253829E+02  0.43400726017E+02  0.00000000000E+00 0. -1.
         11    1    3    3    0    0 -0.31749332465E+01 -0.30486365055E+01 -0.56797006580E+00  0.44381275240E+01  0.51100000000E-03 0. -1.
        -11    1    3    3    0    0 -0.48832191768E+01  0.56178510294E+01 -0.62378005164E+01  0.97116546098E+01  0.51100000000E-03 0.  1.
        -12    1    3    3    0    0 -0.32744708604E+02  0.48040480544E+01 -0.60154832467E+01  0.33637491850E+02  0.00000000000E+00 0.  1.
</event>
<event>
 7    1  0.2237500E-009  0.4778726E+02  0.7816164E-02  0.1312668E+00
        -11   -1    0    0    0    0  0.00000000000E+00  0.00000000000E+00  0.45593999997E+02  0.45594000000E+02  0.51100000000E-03 0.  1.
         11   -1    0    0    0    0 -0.00000000000E+00 -0.00000000000E+00 -0.45593999997E+02  0.45594000000E+02  0.51100000000E-03 0. -1.
    9900012    2    1    2    0    0  0.44072541787E+01  0.60472614003E+01  0.42750797341E+02  0.47787263449E+02  0.19999965370E+02 0.  0.
         12    1    1    2    0    0 -0.44072541787E+01 -0.60472614003E+01 -0.42750797341E+02  0.43400736551E+02  0.00000000000E+00 0. -1.
         11    1    3    3    0    0  0.61671162300E+01  0.49886695763E+00  0.49683510986E+01  0.79351561885E+01  0.51100000000E-03 0. -1.
        -11    1    3    3    0    0 -0.10442720633E+01 -0.34607305935E+01  0.11920833371E+02  0.12456862723E+02  0.51100000000E-03 0.  1.
        -12    1    3    3    0    0 -0.71558998809E+00  0.90091250362E+01  0.25861612872E+02  0.27395244538E+02  0.00000000000E+00 0.  1.
</event>
<event>
 7    1  0.2237500E-009  0.4778727E+02  0.7816164E-02  0.1312668E+00
        -11   -1    0    0    0    0  0.00000000000E+00  0.00000000000E+00  0.45593999997E+02  0.45594000000E+02  0.51100000000E-03 0. -1.
         11   -1    0    0    0    0 -0.00000000000E+00 -0.00000000000E+00 -0.45593999997E+02  0.45594000000E+02  0.51100000000E-03 0.  1.
    9900012    2    1    2    0    0  0.38958222043E+02  0.13419093131E+02 -0.13631140823E+02  0.47787272756E+02  0.20000007802E+02 0.  0.
         12    1    1    2    0    0 -0.38958222043E+02 -0.13419093131E+02  0.13631140823E+02  0.43400727244E+02  0.00000000000E+00 0. -1.
         11    1    3    3    0    0  0.13294466739E+02  0.30209859479E+00 -0.82869128738E+00  0.13323694643E+02  0.51100000000E-03 0. -1.
        -11    1    3    3    0    0  0.22602908380E+02  0.12237482549E+02 -0.52038169923E+01  0.26224552578E+02  0.51100000000E-03 0.  1.
         12    1    3    3    0    0  0.30608469243E+01  0.87951198776E+00 -0.75986325438E+01  0.82390255350E+01  0.00000000000E+00 0. -1.
</event>
<event>
 7    1  0.2237500E-009  0.4778727E+02  0.7816164E-02  0.1312668E+00
        -11   -1    0    0    0    0  0.00000000000E+00  0.00000000000E+00  0.45593999997E+02  0.45594000000E+02  0.51100000000E-03 0.  1.
         11   -1    0    0    0    0 -0.00000000000E+00 -0.00000000000E+00 -0.45593999997E+02  0.45594000000E+02  0.51100000000E-03 0. -1.
    9900012    2    1    2    0    0 -0.21474861168E+02 -0.30913050843E+02  0.21606411008E+02  0.47787269923E+02  0.19999994886E+02 0.  0.
         12    1    1    2    0    0  0.21474861168E+02  0.30913050843E+02 -0.21606411008E+02  0.43400730077E+02  0.00000000000E+00 0. -1.
         11    1    3    3    0    0 -0.85418878652E+00 -0.12721168332E+01 -0.29182792835E+01  0.32960998101E+01  0.51100000000E-03 0. -1.
        -11    1    3    3    0    0 -0.73795145658E+01 -0.13158428461E+02  0.55259862546E+01  0.16066673556E+02  0.51100000000E-03 0.  1.
         12    1    3    3    0    0 -0.13241157816E+02 -0.16482505548E+02  0.18998704037E+02  0.28424496557E+02  0.00000000000E+00 0. -1.
</event>
<event>
 7    1  0.2237500E-009  0.4778727E+02  0.7816164E-02  0.1312668E+00
        -11   -1    0    0    0    0  0.00000000000E+00  0.00000000000E+00  0.45593999997E+02  0.45594000000E+02  0.51100000000E-03 0. -1.
         11   -1    0    0    0    0 -0.00000000000E+00 -0.00000000000E+00 -0.45593999997E+02  0.45594000000E+02  0.51100000000E-03 0.  1.
    9900012    2    1    2    0    0  0.32370556221E+02  0.28908922436E+02  0.21123523285E+00  0.47787270435E+02  0.19999997219E+02 0.  0.
         12    1    1    2    0    0 -0.32370556221E+02 -0.28908922436E+02 -0.21123523285E+00  0.43400729565E+02  0.00000000000E+00 0. -1.
         11    1    3    3    0    0  0.10333137430E+02  0.85792954586E+01  0.49302074454E+00  0.13439535313E+02  0.51100000000E-03 0. -1.
        -11    1    3    3    0    0  0.78365305732E+01  0.18248573155E+02  0.13323559137E+01  0.19904693069E+02  0.51100000000E-03 0.  1.
         12    1    3    3    0    0  0.14200888218E+02  0.20810538223E+01 -0.16141414254E+01  0.14443042053E+02  0.00000000000E+00 0. -1.
</event>
<event>
 7    1  0.2237500E-009  0.4778727E+02  0.7816164E-02  0.1312668E+00
        -11   -1    0    0    0    0  0.00000000000E+00  0.00000000000E+00  0.45593999997E+02  0.45594000000E+02  0.51100000000E-03 0.  1.
         11   -1    0    0    0    0 -0.00000000000E+00 -0.00000000000E+00 -0.45593999997E+02  0.45594000000E+02  0.51100000000E-03 0. -1.
    9900012    2    1    2    0    0  0.68670037139E+01 -0.32615090474E+02  0.27797906539E+02  0.47787268733E+02  0.19999989459E+02 0.  0.
         12    1    1    2    0    0 -0.68670037139E+01  0.32615090474E+02 -0.27797906539E+02  0.43400731267E+02  0.00000000000E+00 0. -1.
         11    1    3    3    0    0  0.10931650024E+01 -0.10779966100E+02  0.41996102220E+01  0.11620645641E+02  0.51100000000E-03 0. -1.
        -11    1    3    3    0    0  0.10597049258E+02 -0.12852721534E+02  0.11011066142E+02  0.19968311938E+02  0.51100000000E-03 0.  1.
        -12    1    3    3    0    0 -0.48232105468E+01 -0.89824028406E+01  0.12587230174E+02  0.16198311154E+02  0.00000000000E+00 0.  1.
</event>
<event>
 7    1  0.2237500E-009  0.4778727E+02  0.7816164E-02  0.1312668E+00
        -11   -1    0    0    0    0  0.00000000000E+00  0.00000000000E+00  0.45593999997E+02  0.45594000000E+02  0.51100000000E-03 0.  1.
         11   -1    0    0    0    0 -0.00000000000E+00 -0.00000000000E+00 -0.45593999997E+02  0.45594000000E+02  0.51100000000E-03 0. -1.
    9900012    2    1    2    0    0  0.11537261393E+02  0.41772590952E+02  0.23590926808E+01  0.47787273352E+02  0.20000010522E+02 0.  0.
         12    1    1    2    0    0 -0.11537261393E+02 -0.41772590952E+02 -0.23590926808E+01  0.43400726648E+02  0.00000000000E+00 0. -1.
         11    1    3    3    0    0 -0.16094768659E+01  0.18853033029E+02 -0.84327248033E+00  0.18940390147E+02  0.51100000000E-03 0. -1.
        -11    1    3    3    0    0  0.33806532120E+01  0.16572089588E+02  0.31212802833E+01  0.17198993003E+02  0.51100000000E-03 0.  1.
         12    1    3    3    0    0  0.97660850464E+01  0.63474683344E+01  0.81084877774E-01  0.11647890202E+02  0.00000000000E+00 0. -1.
</event>
<event>
 7    1  0.2237500E-009  0.4778727E+02  0.7816164E-02  0.1312668E+00
        -11   -1    0    0    0    0  0.00000000000E+00  0.00000000000E+00  0.45593999997E+02  0.45594000000E+02  0.51100000000E-03 0.  1.
         11   -1    0    0    0    0 -0.00000000000E+00 -0.00000000000E+00 -0.45593999997E+02  0.45594000000E+02  0.51100000000E-03 0. -1.
    9900012    2    1    2    0    0 -0.14101104773E+02  0.23611499240E+02  0.33574979425E+02  0.47787270794E+02  0.19999998859E+02 0.  0.
         12    1    1    2    0    0  0.14101104773E+02 -0.23611499240E+02 -0.33574979425E+02  0.43400729206E+02  0.00000000000E+00 0. -1.
         11    1    3    3    0    0  0.74165401438E+00 -0.25413607453E+01  0.31692072629E+01  0.41294600193E+01  0.51100000000E-03 0. -1.
        -11    1    3    3    0    0 -0.67007369977E+00  0.87217060482E+01  0.10254945412E+02  0.13478911708E+02  0.51100000000E-03 0.  1.
         12    1    3    3    0    0 -0.14172685088E+02  0.17431153937E+02  0.20150826750E+02  0.30178899067E+02  0.00000000000E+00 0. -1.
</event>
<event>
 7    1  0.2237500E-009  0.4778725E+02  0.7816164E-02  0.1312668E+00
        -11   -1    0    0    0    0  0.00000000000E+00  0.00000000000E+00  0.45593999997E+02  0.45594000000E+02  0.51100000000E-03 0.  1.
         11   -1    0    0    0    0 -0.00000000000E+00 -0.00000000000E+00 -0.45593999997E+02  0.45594000000E+02  0.51100000000E-03 0. -1.
    9900012    2    1    2    0    0  0.35792401729E+02 -0.31161390296E+00  0.24544497125E+02  0.47787245814E+02  0.19999884964E+02 0.  0.
         12    1    1    2    0    0 -0.35792401729E+02  0.31161390296E+00 -0.24544497125E+02  0.43400754186E+02  0.00000000000E+00 0. -1.
         11    1    3    3    0    0 -0.95148062063E+00  0.11706669574E+01 -0.16860734743E+00  0.15179608675E+01  0.51100000000E-03 0. -1.
        -11    1    3    3    0    0  0.20082450013E+02  0.43490301531E+01  0.82855989054E+01  0.22155586457E+02  0.51100000000E-03 0.  1.
        -12    1    3    3    0    0  0.16661432337E+02 -0.58313110135E+01  0.16427505567E+02  0.24113698489E+02  0.00000000000E+00 0.  1.
</event>
<event>
 7    1  0.2237500E-009  0.4778727E+02  0.7816164E-02  0.1312668E+00
        -11   -1    0    0    0    0  0.00000000000E+00  0.00000000000E+00  0.45593999997E+02  0.45594000000E+02  0.51100000000E-03 0.  1.
         11   -1    0    0    0    0 -0.00000000000E+00 -0.00000000000E+00 -0.45593999997E+02  0.45594000000E+02  0.51100000000E-03 0. -1.
    9900012    2    1    2    0    0 -0.16910491686E+02  0.58808528819E+01  0.39535729306E+02  0.47787273607E+02  0.20000011686E+02 0.  0.
         12    1    1    2    0    0  0.16910491686E+02 -0.58808528819E+01 -0.39535729306E+02  0.43400726393E+02  0.00000000000E+00 0. -1.
         11    1    3    3    0    0 -0.22078215516E+01 -0.24752593135E+01  0.19461681121E+01  0.38456410720E+01  0.51100000000E-03 0. -1.
        -11    1    3    3    0    0 -0.93197160844E+01  0.78956388115E+01  0.98799119726E+01  0.15710215816E+02  0.51100000000E-03 0.  1.
         12    1    3    3    0    0 -0.53829540498E+01  0.46047338383E+00  0.27709649221E+02  0.28231416720E+02  0.00000000000E+00 0. -1.
</event>
<event>
 7    1  0.2237500E-009  0.4778727E+02  0.7816164E-02  0.1312668E+00
        -11   -1    0    0    0    0  0.00000000000E+00  0.00000000000E+00  0.45593999997E+02  0.45594000000E+02  0.51100000000E-03 0. -1.
         11   -1    0    0    0    0 -0.00000000000E+00 -0.00000000000E+00 -0.45593999997E+02  0.45594000000E+02  0.51100000000E-03 0.  1.
    9900012    2    1    2    0    0  0.12233721986E+02 -0.41204215065E+02 -0.60143492524E+01  0.47787266254E+02  0.19999978157E+02 0.  0.
         12    1    1    2    0    0 -0.12233721986E+02  0.41204215065E+02  0.60143492524E+01  0.43400733746E+02  0.00000000000E+00 0. -1.
         11    1    3    3    0    0  0.67250424310E+01 -0.82334726519E+01 -0.32881713725E+00  0.10635994950E+02  0.51100000000E-03 0. -1.
        -11    1    3    3    0    0  0.50620051306E+01 -0.31228437618E+02 -0.47562059075E+00  0.31639618001E+02  0.51100000000E-03 0.  1.
         12    1    3    3    0    0  0.44667442404E+00 -0.17423047954E+01 -0.52099115244E+01  0.55116533031E+01  0.00000000000E+00 0. -1.
</event>
<event>
 7    1  0.2237500E-009  0.4778725E+02  0.7816164E-02  0.1312668E+00
        -11   -1    0    0    0    0  0.00000000000E+00  0.00000000000E+00  0.45593999997E+02  0.45594000000E+02  0.51100000000E-03 0.  1.
         11   -1    0    0    0    0 -0.00000000000E+00 -0.00000000000E+00 -0.45593999997E+02  0.45594000000E+02  0.51100000000E-03 0. -1.
    9900012    2    1    2    0    0  0.37641182749E+02  0.14405495058E+02  0.16101190712E+02  0.47787248060E+02  0.19999895205E+02 0.  0.
         12    1    1    2    0    0 -0.37641182749E+02 -0.14405495058E+02 -0.16101190712E+02  0.43400751940E+02  0.00000000000E+00 0. -1.
         11    1    3    3    0    0  0.86110572904E+01  0.78522793816E+01 -0.94228098098E+00  0.11691727539E+02  0.51100000000E-03 0. -1.
        -11    1    3    3    0    0  0.13794129783E+02  0.36886760840E+01  0.18664320562E+01  0.14400274880E+02  0.51100000000E-03 0.  1.
        -12    1    3    3    0    0  0.15235995675E+02  0.28645395920E+01  0.15177039637E+02  0.21695245641E+02  0.00000000000E+00 0.  1.
</event>
<event>
 7    1  0.2237500E-009  0.4778727E+02  0.7816164E-02  0.1312668E+00
        -11   -1    0    0    0    0  0.00000000000E+00  0.00000000000E+00  0.45593999997E+02  0.45594000000E+02  0.51100000000E-03 0.  1.
         11   -1    0    0    0    0 -0.00000000000E+00 -0.00000000000E+00 -0.45593999997E+02  0.45594000000E+02  0.51100000000E-03 0. -1.
    9900012    2    1    2    0    0  0.42740477713E+02  0.63257712364E+01  0.41060302482E+01  0.47787270728E+02  0.19999998559E+02 0.  0.
         12    1    1    2    0    0 -0.42740477713E+02 -0.63257712364E+01 -0.41060302482E+01  0.43400729272E+02  0.00000000000E+00 0. -1.
         11    1    3    3    0    0  0.27855674357E+02  0.50745514699E+01  0.10590411448E+02  0.30229893837E+02  0.51100000000E-03 0. -1.
        -11    1    3    3    0    0  0.95532148166E+01  0.32629892840E+01 -0.19656452884E+01  0.10284686386E+02  0.51100000000E-03 0.  1.
         12    1    3    3    0    0  0.53315885397E+01 -0.20117695175E+01 -0.45187359112E+01  0.72726905051E+01  0.00000000000E+00 0. -1.
</event>
<event>
 7    1  0.2237500E-009  0.4778730E+02  0.7816164E-02  0.1312668E+00
        -11   -1    0    0    0    0  0.00000000000E+00  0.00000000000E+00  0.45593999997E+02  0.45594000000E+02  0.51100000000E-03 0. -1.
         11   -1    0    0    0    0 -0.00000000000E+00 -0.00000000000E+00 -0.45593999997E+02  0.45594000000E+02  0.51100000000E-03 0.  1.
    9900012    2    1    2    0    0 -0.41531674590E+02 -0.45765590553E+01 -0.11738652220E+02  0.47787299050E+02  0.20000127687E+02 0.  0.
         12    1    1    2    0    0  0.41531674590E+02  0.45765590553E+01  0.11738652220E+02  0.43400700950E+02  0.00000000000E+00 0. -1.
         11    1    3    3    0    0 -0.53618971672E+01  0.46558247058E+01 -0.65080047315E+01  0.96322775483E+01  0.51100000000E-03 0. -1.
        -11    1    3    3    0    0 -0.19629770890E+01 -0.19431381027E+01 -0.94173938608E+00  0.29182080238E+01  0.51100000000E-03 0.  1.
        -12    1    3    3    0    0 -0.34206800334E+02 -0.72892456584E+01 -0.42889081021E+01  0.35236813478E+02  0.00000000000E+00 0.  1.
</event>
<event>
 7    1  0.2237500E-009  0.4778727E+02  0.7816164E-02  0.1312668E+00
        -11   -1    0    0    0    0  0.00000000000E+00  0.00000000000E+00  0.45593999997E+02  0.45594000000E+02  0.51100000000E-03 0.  1.
         11   -1    0    0    0    0 -0.00000000000E+00 -0.00000000000E+00 -0.45593999997E+02  0.45594000000E+02  0.51100000000E-03 0. -1.
    9900012    2    1    2    0    0  0.85411144847E+01 -0.87169682068E+01  0.41649573740E+02  0.47787272310E+02  0.20000005768E+02 0.  0.
         12    1    1    2    0    0 -0.85411144847E+01  0.87169682068E+01 -0.41649573740E+02  0.43400727690E+02  0.00000000000E+00 0. -1.
         11    1    3    3    0    0  0.50716610525E+01  0.45307295141E+01  0.75887120694E+01  0.10190083753E+02  0.51100000000E-03 0. -1.
        -11    1    3    3    0    0  0.41105194539E+01 -0.26241250656E+01  0.14915280286E+02  0.15692290744E+02  0.51100000000E-03 0.  1.
         12    1    3    3    0    0 -0.64106602166E+00 -0.10623572655E+02  0.19145581384E+02  0.21904897812E+02  0.00000000000E+00 0. -1.
</event>
<event>
 7    1  0.2237500E-009  0.4778728E+02  0.7816164E-02  0.1312668E+00
        -11   -1    0    0    0    0  0.00000000000E+00  0.00000000000E+00  0.45593999997E+02  0.45594000000E+02  0.51100000000E-03 0. -1.
         11   -1    0    0    0    0 -0.00000000000E+00 -0.00000000000E+00 -0.45593999997E+02  0.45594000000E+02  0.51100000000E-03 0.  1.
    9900012    2    1    2    0    0  0.63319514263E+01  0.34348405331E+02 -0.25762690305E+02  0.47787276856E+02  0.20000026498E+02 0.  0.
         12    1    1    2    0    0 -0.63319514263E+01 -0.34348405331E+02  0.25762690305E+02  0.43400723144E+02  0.00000000000E+00 0. -1.
         11    1    3    3    0    0  0.89625893777E-01 -0.43048780443E+00 -0.22436284026E+01  0.22863117068E+01  0.51100000000E-03 0. -1.
        -11    1    3    3    0    0 -0.16587483169E+01  0.29099200051E+02 -0.18825555157E+02  0.34697498711E+02  0.51100000000E-03 0.  1.
        -12    1    3    3    0    0  0.79010738494E+01  0.56796930848E+01 -0.46935067451E+01  0.10803466438E+02  0.00000000000E+00 0.  1.
</event>
<event>
 7    1  0.2237500E-009  0.4778726E+02  0.7816164E-02  0.1312668E+00
        -11   -1    0    0    0    0  0.00000000000E+00  0.00000000000E+00  0.45593999997E+02  0.45594000000E+02  0.51100000000E-03 0. -1.
         11   -1    0    0    0    0 -0.00000000000E+00 -0.00000000000E+00 -0.45593999997E+02  0.45594000000E+02  0.51100000000E-03 0.  1.
    9900012    2    1    2    0    0  0.23350295180E+02 -0.30340089417E+02  0.20441788180E+02  0.47787262508E+02  0.19999961081E+02 0.  0.
         12    1    1    2    0    0 -0.23350295180E+02  0.30340089417E+02 -0.20441788180E+02  0.43400737492E+02  0.00000000000E+00 0. -1.
         11    1    3    3    0    0  0.86599992112E+01 -0.90866983832E+01  0.13965351989E+02  0.18777505966E+02  0.51100000000E-03 0. -1.
        -11    1    3    3    0    0  0.61432781539E+01 -0.16614718571E+02  0.74898701713E+01  0.19232443815E+02  0.51100000000E-03 0.  1.
         12    1    3    3    0    0  0.85470178147E+01 -0.46386724629E+01 -0.10134339802E+01  0.97773127276E+01  0.00000000000E+00 0. -1.
</event>
<event>
 7    1  0.2237500E-009  0.4778727E+02  0.7816164E-02  0.1312668E+00
        -11   -1    0    0    0    0  0.00000000000E+00  0.00000000000E+00  0.45593999997E+02  0.45594000000E+02  0.51100000000E-03 0.  1.
         11   -1    0    0    0    0 -0.00000000000E+00 -0.00000000000E+00 -0.45593999997E+02  0.45594000000E+02  0.51100000000E-03 0. -1.
    9900012    2    1    2    0    0  0.30637774048E+02 -0.30648497283E+02  0.23705722064E+01  0.47787271931E+02  0.20000004041E+02 0.  0.
         12    1    1    2    0    0 -0.30637774048E+02  0.30648497283E+02 -0.23705722064E+01  0.43400728069E+02  0.00000000000E+00 0. -1.
         11    1    3    3    0    0  0.19442912838E+02 -0.11758546949E+02  0.33038126770E-01  0.22722046073E+02  0.51100000000E-03 0. -1.
        -11    1    3    3    0    0  0.10625900332E+02 -0.19017342067E+02  0.49905235647E+01  0.22348923528E+02  0.51100000000E-03 0.  1.
        -12    1    3    3    0    0  0.56896087892E+00  0.12739173366E+00 -0.26529894851E+01  0.27163023292E+01  0.00000000000E+00 0.  1.
</event>
<event>
 7    1  0.2237500E-009  0.4778727E+02  0.7816164E-02  0.1312668E+00
        -11   -1    0    0    0    0  0.00000000000E+00  0.00000000000E+00  0.45593999997E+02  0.45594000000E+02  0.51100000000E-03 0.  1.
         11   -1    0    0    0    0 -0.00000000000E+00 -0.00000000000E+00 -0.45593999997E+02  0.45594000000E+02  0.51100000000E-03 0. -1.
    9900012    2    1    2    0    0 -0.33615070489E+01  0.15589280998E+02  0.40364563104E+02  0.47787269981E+02  0.19999995150E+02 0.  0.
         12    1    1    2    0    0  0.33615070489E+01 -0.15589280998E+02 -0.40364563104E+02  0.43400730019E+02  0.00000000000E+00 0. -1.
         11    1    3    3    0    0 -0.59862783808E+00  0.30858128695E+01 -0.12309635325E+01  0.33757766267E+01  0.51100000000E-03 0. -1.
        -11    1    3    3    0    0  0.30127162666E+01  0.42383667939E+01  0.10411821911E+02  0.11638137658E+02  0.51100000000E-03 0.  1.
        -12    1    3    3    0    0 -0.57755954774E+01  0.82651013346E+01  0.31183704725E+02  0.32773355696E+02  0.00000000000E+00 0.  1.
</event>
<event>
 7    1  0.2237500E-009  0.4778727E+02  0.7816164E-02  0.1312668E+00
        -11   -1    0    0    0    0  0.00000000000E+00  0.00000000000E+00  0.45593999997E+02  0.45594000000E+02  0.51100000000E-03 0.  1.
         11   -1    0    0    0    0 -0.00000000000E+00 -0.00000000000E+00 -0.45593999997E+02  0.45594000000E+02  0.51100000000E-03 0. -1.
    9900012    2    1    2    0    0  0.28635151006E+02 -0.12589327019E+02  0.30085886154E+02  0.47787267591E+02  0.19999984256E+02 0.  0.
         12    1    1    2    0    0 -0.28635151006E+02  0.12589327019E+02 -0.30085886154E+02  0.43400732409E+02  0.00000000000E+00 0. -1.
         11    1    3    3    0    0 -0.14128205480E+01 -0.21567540356E+01  0.26487748745E+01  0.36964386195E+01  0.51100000000E-03 0. -1.
        -11    1    3    3    0    0  0.15428183596E+02 -0.11437670281E+02  0.19727601413E+02  0.27532297548E+02  0.51100000000E-03 0.  1.
        -12    1    3    3    0    0  0.14619787958E+02  0.10050972974E+01  0.77095098669E+01  0.16558531424E+02  0.00000000000E+00 0.  1.
</event>
<event>
 7    1  0.2237500E-009  0.4778727E+02  0.7816164E-02  0.1312668E+00
        -11   -1    0    0    0    0  0.00000000000E+00  0.00000000000E+00  0.45593999997E+02  0.45594000000E+02  0.51100000000E-03 0. -1.
         11   -1    0    0    0    0 -0.00000000000E+00 -0.00000000000E+00 -0.45593999997E+02  0.45594000000E+02  0.51100000000E-03 0.  1.
    9900012    2    1    2    0    0 -0.60082366996E+01 -0.35088062033E+02 -0.24826453237E+02  0.47787265147E+02  0.19999973111E+02 0.  0.
         12    1    1    2    0    0  0.60082366996E+01  0.35088062033E+02  0.24826453237E+02  0.43400734853E+02  0.00000000000E+00 0. -1.
         11    1    3    3    0    0 -0.75198132556E+01 -0.19514160696E+02 -0.14722751181E+02  0.25575563760E+02  0.51100000000E-03 0. -1.
        -11    1    3    3    0    0 -0.71135784715E-02 -0.16314040782E+02 -0.53534387798E+01  0.17169952949E+02  0.51100000000E-03 0.  1.
         12    1    3    3    0    0  0.15186901345E+01  0.74013944443E+00 -0.47502632755E+01  0.50417484377E+01  0.00000000000E+00 0. -1.
</event>
<event>
 7    1  0.2237500E-009  0.4778727E+02  0.7816164E-02  0.1312668E+00
        -11   -1    0    0    0    0  0.00000000000E+00  0.00000000000E+00  0.45593999997E+02  0.45594000000E+02  0.51100000000E-03 0. -1.
         11   -1    0    0    0    0 -0.00000000000E+00 -0.00000000000E+00 -0.45593999997E+02  0.45594000000E+02  0.51100000000E-03 0.  1.
    9900012    2    1    2    0    0  0.17766088164E+02 -0.73276460192E+01 -0.38913943422E+02  0.47787271003E+02  0.19999999813E+02 0.  0.
         12    1    1    2    0    0 -0.17766088164E+02  0.73276460192E+01  0.38913943422E+02  0.43400728997E+02  0.00000000000E+00 0. -1.
         11    1    3    3    0    0  0.28283140044E+01 -0.25600709022E+00 -0.61786097942E+01  0.68000087491E+01  0.51100000000E-03 0. -1.
        -11    1    3    3    0    0  0.10576353159E+02 -0.12386929026E+02 -0.28741421352E+02  0.33035807216E+02  0.51100000000E-03 0.  1.
         12    1    3    3    0    0  0.43614210001E+01  0.53152900972E+01 -0.39939122755E+01  0.79514550380E+01  0.00000000000E+00 0. -1.
</event>
<event>
 7    1  0.2237500E-009  0.4778726E+02  0.7816164E-02  0.1312668E+00
        -11   -1    0    0    0    0  0.00000000000E+00  0.00000000000E+00  0.45593999997E+02  0.45594000000E+02  0.51100000000E-03 0. -1.
         11   -1    0    0    0    0 -0.00000000000E+00 -0.00000000000E+00 -0.45593999997E+02  0.45594000000E+02  0.51100000000E-03 0.  1.
    9900012    2    1    2    0    0  0.15945275624E+02  0.36827210603E+02  0.16526601566E+02  0.47787264812E+02  0.19999971585E+02 0.  0.
         12    1    1    2    0    0 -0.15945275624E+02 -0.36827210603E+02 -0.16526601566E+02  0.43400735188E+02  0.00000000000E+00 0. -1.
         11    1    3    3    0    0 -0.17910118378E+01  0.33187535933E+01  0.95225137594E+00  0.38895541853E+01  0.51100000000E-03 0. -1.
        -11    1    3    3    0    0  0.46700925941E+01  0.23528309729E+02  0.54824296919E+01  0.24605856196E+02  0.51100000000E-03 0.  1.
        -12    1    3    3    0    0  0.13066194867E+02  0.99801472807E+01  0.10091920498E+02  0.19291854431E+02  0.00000000000E+00 0.  1.
</event>
<event>
 7    1  0.2237500E-009  0.4778728E+02  0.7816164E-02  0.1312668E+00
        -11   -1    0    0    0    0  0.00000000000E+00  0.00000000000E+00  0.45593999997E+02  0.45594000000E+02  0.51100000000E-03 0.  1.
         11   -1    0    0    0    0 -0.00000000000E+00 -0.00000000000E+00 -0.45593999997E+02  0.45594000000E+02  0.51100000000E-03 0. -1.
    9900012    2    1    2    0    0 -0.15232693562E+01 -0.34511570739E+02  0.26272678110E+02  0.47787280196E+02  0.20000041726E+02 0.  0.
         12    1    1    2    0    0  0.15232693562E+01  0.34511570739E+02 -0.26272678110E+02  0.43400719804E+02  0.00000000000E+00 0. -1.
         11    1    3    3    0    0  0.17577768226E+01  0.11601178092E+01 -0.49334908509E+00  0.21631103232E+01  0.51100000000E-03 0. -1.
        -11    1    3    3    0    0 -0.12885298120E+01 -0.14537331852E+02  0.55566573938E+01  0.15616362192E+02  0.51100000000E-03 0.  1.
        -12    1    3    3    0    0 -0.19925163668E+01 -0.21134356696E+02  0.21209369802E+02  0.30007807681E+02  0.00000000000E+00 0.  1.
</event>
<event>
 7    1  0.2237500E-009  0.4778727E+02  0.7816164E-02  0.1312668E+00
        -11   -1    0    0    0    0  0.00000000000E+00  0.00000000000E+00  0.45593999997E+02  0.45594000000E+02  0.51100000000E-03 0.  1.
         11   -1    0    0    0    0 -0.00000000000E+00 -0.00000000000E+00 -0.45593999997E+02  0.45594000000E+02  0.51100000000E-03 0. -1.
    9900012    2    1    2    0    0 -0.37373822395E+02 -0.47041044278E+01  0.21556719895E+02  0.47787269919E+02  0.19999994869E+02 0.  0.
         12    1    1    2    0    0  0.37373822395E+02  0.47041044278E+01 -0.21556719895E+02  0.43400730081E+02  0.00000000000E+00 0. -1.
         11    1    3    3    0    0  0.50059678980E+00 -0.23481023369E+01  0.62498557730E+00  0.24808847139E+01  0.51100000000E-03 0. -1.
        -11    1    3    3    0    0 -0.28154866774E+01  0.17250980149E+01  0.62706096587E+01  0.70868522029E+01  0.51100000000E-03 0.  1.
        -12    1    3    3    0    0 -0.35058932508E+02 -0.40811001057E+01  0.14661124659E+02  0.38219533002E+02  0.00000000000E+00 0.  1.
</event>
<event>
 7    1  0.2237500E-009  0.4778727E+02  0.7816164E-02  0.1312668E+00
        -11   -1    0    0    0    0  0.00000000000E+00  0.00000000000E+00  0.45593999997E+02  0.45594000000E+02  0.51100000000E-03 0.  1.
         11   -1    0    0    0    0 -0.00000000000E+00 -0.00000000000E+00 -0.45593999997E+02  0.45594000000E+02  0.51100000000E-03 0. -1.
    9900012    2    1    2    0    0 -0.43085279103E+02  0.31185645851E+01  0.41900514047E+01  0.47787271305E+02  0.20000001188E+02 0.  0.
         12    1    1    2    0    0  0.43085279103E+02 -0.31185645851E+01 -0.41900514047E+01  0.43400728695E+02  0.00000000000E+00 0. -1.
         11    1    3    3    0    0 -0.12473189589E+02  0.61461822929E+01  0.84020142028E+00  0.13930612118E+02  0.51100000000E-03 0. -1.
        -11    1    3    3    0    0 -0.29143028286E+02  0.63052263387E+00  0.50135834651E+01  0.29577857866E+02  0.51100000000E-03 0.  1.
         12    1    3    3    0    0 -0.14690612277E+01 -0.36581403417E+01 -0.16637334807E+01  0.42788013211E+01  0.00000000000E+00 0. -1.
</event>
<event>
 7    1  0.2237500E-009  0.4778727E+02  0.7816164E-02  0.1312668E+00
        -11   -1    0    0    0    0  0.00000000000E+00  0.00000000000E+00  0.45593999997E+02  0.45594000000E+02  0.51100000000E-03 0. -1.
         11   -1    0    0    0    0 -0.00000000000E+00 -0.00000000000E+00 -0.45593999997E+02  0.45594000000E+02  0.51100000000E-03 0.  1.
    9900012    2    1    2    0    0 -0.32574241295E+02 -0.28567685952E+02  0.25356563516E+01  0.47787269249E+02  0.19999991813E+02 0.  0.
         12    1    1    2    0    0  0.32574241295E+02  0.28567685952E+02 -0.25356563516E+01  0.43400730751E+02  0.00000000000E+00 0. -1.
         11    1    3    3    0    0 -0.62638449393E+01 -0.24659546244E+01  0.43388406888E+01  0.80088840931E+01  0.51100000000E-03 0. -1.
        -11    1    3    3    0    0 -0.26408323360E+02 -0.21323980972E+02 -0.45816656114E+01  0.34250596597E+02  0.51100000000E-03 0.  1.
         12    1    3    3    0    0  0.97927004632E-01 -0.47777503554E+01  0.27784812742E+01  0.55277885586E+01  0.00000000000E+00 0. -1.
</event>
<event>
 7    1  0.2237500E-009  0.4778727E+02  0.7816164E-02  0.1312668E+00
        -11   -1    0    0    0    0  0.00000000000E+00  0.00000000000E+00  0.45593999997E+02  0.45594000000E+02  0.51100000000E-03 0. -1.
         11   -1    0    0    0    0 -0.00000000000E+00 -0.00000000000E+00 -0.45593999997E+02  0.45594000000E+02  0.51100000000E-03 0.  1.
    9900012    2    1    2    0    0 -0.23979344018E+02  0.28166368177E+02  0.22699554591E+02  0.47787274033E+02  0.20000013628E+02 0.  0.
         12    1    1    2    0    0  0.23979344018E+02 -0.28166368177E+02 -0.22699554591E+02  0.43400725967E+02  0.00000000000E+00 0. -1.
         11    1    3    3    0    0  0.19857854178E+01  0.64882322945E+01  0.64310855246E+01  0.93487626624E+01  0.51100000000E-03 0. -1.
        -11    1    3    3    0    0 -0.93017806979E+01  0.12688520114E+02  0.92206518510E+01  0.18235736554E+02  0.51100000000E-03 0.  1.
        -12    1    3    3    0    0 -0.16663348738E+02  0.89896157681E+01  0.70478172159E+01  0.20202774817E+02  0.00000000000E+00 0.  1.
</event>
<event>
 7    1  0.2237500E-009  0.4778727E+02  0.7816164E-02  0.1312668E+00
        -11   -1    0    0    0    0  0.00000000000E+00  0.00000000000E+00  0.45593999997E+02  0.45594000000E+02  0.51100000000E-03 0. -1.
         11   -1    0    0    0    0 -0.00000000000E+00 -0.00000000000E+00 -0.45593999997E+02  0.45594000000E+02  0.51100000000E-03 0.  1.
    9900012    2    1    2    0    0  0.28597773441E+02 -0.25387274406E+02 -0.20525034143E+02  0.47787269890E+02  0.19999994737E+02 0.  0.
         12    1    1    2    0    0 -0.28597773441E+02  0.25387274406E+02  0.20525034143E+02  0.43400730110E+02  0.00000000000E+00 0. -1.
         11    1    3    3    0    0  0.11873924726E+02 -0.13387899271E+02 -0.14776222995E+02  0.23206953733E+02  0.51100000000E-03 0. -1.
        -11    1    3    3    0    0  0.11520671567E+02 -0.13924320672E+02 -0.59561231097E+01  0.19028609573E+02  0.51100000000E-03 0.  1.
         12    1    3    3    0    0  0.52031771478E+01  0.19249455371E+01  0.20731196218E+00  0.55517065846E+01  0.00000000000E+00 0. -1.
</event>
<event>
 7    1  0.2237500E-009  0.4778727E+02  0.7816164E-02  0.1312668E+00
        -11   -1    0    0    0    0  0.00000000000E+00  0.00000000000E+00  0.45593999997E+02  0.45594000000E+02  0.51100000000E-03 0.  1.
         11   -1    0    0    0    0 -0.00000000000E+00 -0.00000000000E+00 -0.45593999997E+02  0.45594000000E+02  0.51100000000E-03 0. -1.
    9900012    2    1    2    0    0  0.43070771929E+02 -0.36158764480E+01  0.39316043494E+01  0.47787268787E+02  0.19999989709E+02 0.  0.
         12    1    1    2    0    0 -0.43070771929E+02  0.36158764480E+01 -0.39316043494E+01  0.43400731213E+02  0.00000000000E+00 0. -1.
         11    1    3    3    0    0  0.66228662152E+01  0.17868767330E+01 -0.35092411884E+01  0.77051969049E+01  0.51100000000E-03 0. -1.
        -11    1    3    3    0    0  0.20035792603E+02  0.40083917954E+01  0.46900119386E+01  0.20964169487E+02  0.51100000000E-03 0.  1.
         12    1    3    3    0    0  0.16412113110E+02 -0.94111449763E+01  0.27508335991E+01  0.19117902396E+02  0.00000000000E+00 0. -1.
</event>
<event>
 7    1  0.2237500E-009  0.4778729E+02  0.7816164E-02  0.1312668E+00
        -11   -1    0    0    0    0  0.00000000000E+00  0.00000000000E+00  0.45593999997E+02  0.45594000000E+02  0.51100000000E-03 0.  1.
         11   -1    0    0    0    0 -0.00000000000E+00 -0.00000000000E+00 -0.45593999997E+02  0.45594000000E+02  0.51100000000E-03 0. -1.
    9900012    2    1    2    0    0 -0.15158102332E+02  0.25650390750E+02  0.31558063931E+02  0.47787285594E+02  0.20000066335E+02 0.  0.
         12    1    1    2    0    0  0.15158102332E+02 -0.25650390750E+02 -0.31558063931E+02  0.43400714406E+02  0.00000000000E+00 0. -1.
         11    1    3    3    0    0  0.78659321696E+00  0.58157116869E+00 -0.52496286656E+00  0.11101982641E+01  0.51100000000E-03 0. -1.
        -11    1    3    3    0    0  0.47124704653E+00  0.13426301160E+02  0.96601474708E+01  0.16547086935E+02  0.51100000000E-03 0.  1.
        -12    1    3    3    0    0 -0.16415942596E+02  0.11642518421E+02  0.22422879327E+02  0.30130000395E+02  0.00000000000E+00 0.  1.
</event>
<event>
 7    1  0.2237500E-009  0.4778727E+02  0.7816164E-02  0.1312668E+00
        -11   -1    0    0    0    0  0.00000000000E+00  0.00000000000E+00  0.45593999997E+02  0.45594000000E+02  0.51100000000E-03 0.  1.
         11   -1    0    0    0    0 -0.00000000000E+00 -0.00000000000E+00 -0.45593999997E+02  0.45594000000E+02  0.51100000000E-03 0. -1.
    9900012    2    1    2    0    0 -0.27857267634E+02 -0.15521026676E+02  0.29439662826E+02  0.47787269863E+02  0.19999994612E+02 0.  0.
         12    1    1    2    0    0  0.27857267634E+02  0.15521026676E+02 -0.29439662826E+02  0.43400730137E+02  0.00000000000E+00 0. -1.
         11    1    3    3    0    0 -0.44270953202E+01 -0.11881166214E+01  0.26697583996E+01  0.53045644735E+01  0.51100000000E-03 0. -1.
        -11    1    3    3    0    0 -0.23209141216E+02 -0.82156534771E+01  0.26758055185E+02  0.36361445455E+02  0.51100000000E-03 0.  1.
         12    1    3    3    0    0 -0.22103109857E+00 -0.61172565776E+01  0.11849241870E-01  0.61212599346E+01  0.00000000000E+00 0. -1.
</event>
<event>
 7    1  0.2237500E-009  0.4778727E+02  0.7816164E-02  0.1312668E+00
        -11   -1    0    0    0    0  0.00000000000E+00  0.00000000000E+00  0.45593999997E+02  0.45594000000E+02  0.51100000000E-03 0.  1.
         11   -1    0    0    0    0 -0.00000000000E+00 -0.00000000000E+00 -0.45593999997E+02  0.45594000000E+02  0.51100000000E-03 0. -1.
    9900012    2    1    2    0    0  0.34141211232E+02  0.23516756235E+02  0.12843812302E+02  0.47787266796E+02  0.19999980629E+02 0.  0.
         12    1    1    2    0    0 -0.34141211232E+02 -0.23516756235E+02 -0.12843812302E+02  0.43400733204E+02  0.00000000000E+00 0. -1.
         11    1    3    3    0    0  0.17318743887E+02  0.14883080982E+02  0.75307910898E+01  0.24044912228E+02  0.51100000000E-03 0. -1.
        -11    1    3    3    0    0  0.13734274865E+02  0.10587325689E+02  0.81066076823E+01  0.19142592815E+02  0.51100000000E-03 0.  1.
         12    1    3    3    0    0  0.30881924796E+01 -0.19536504357E+01 -0.27935864703E+01  0.45997617529E+01  0.00000000000E+00 0. -1.
</event>
<event>
 7    1  0.2237500E-009  0.4778727E+02  0.7816164E-02  0.1312668E+00
        -11   -1    0    0    0    0  0.00000000000E+00  0.00000000000E+00  0.45593999997E+02  0.45594000000E+02  0.51100000000E-03 0.  1.
         11   -1    0    0    0    0 -0.00000000000E+00 -0.00000000000E+00 -0.45593999997E+02  0.45594000000E+02  0.51100000000E-03 0. -1.
    9900012    2    1    2    0    0 -0.17889809233E+01 -0.30026037160E+02  0.31286737794E+02  0.47787270489E+02  0.19999997468E+02 0.  0.
         12    1    1    2    0    0  0.17889809233E+01  0.30026037160E+02 -0.31286737794E+02  0.43400729511E+02  0.00000000000E+00 0. -1.
         11    1    3    3    0    0  0.23795165847E+01 -0.10144135611E+02  0.15722088187E+01  0.10537429824E+02  0.51100000000E-03 0. -1.
        -11    1    3    3    0    0  0.14590703275E+01  0.11980011728E+00  0.87777105715E+00  0.17069623835E+01  0.51100000000E-03 0.  1.
        -12    1    3    3    0    0 -0.56275678356E+01 -0.20001701667E+02  0.28836757918E+02  0.35542878282E+02  0.00000000000E+00 0.  1.
</event>
<event>
 7    1  0.2237500E-009  0.4778727E+02  0.7816164E-02  0.1312668E+00
        -11   -1    0    0    0    0  0.00000000000E+00  0.00000000000E+00  0.45593999997E+02  0.45594000000E+02  0.51100000000E-03 0. -1.
         11   -1    0    0    0    0 -0.00000000000E+00 -0.00000000000E+00 -0.45593999997E+02  0.45594000000E+02  0.51100000000E-03 0.  1.
    9900012    2    1    2    0    0 -0.35964157256E+02 -0.14264945250E+02 -0.19665057852E+02  0.47787265324E+02  0.19999973917E+02 0.  0.
         12    1    1    2    0    0  0.35964157256E+02  0.14264945250E+02  0.19665057852E+02  0.43400734676E+02  0.00000000000E+00 0. -1.
         11    1    3    3    0    0 -0.16538052909E+02 -0.11334569407E+02 -0.12445648981E+02  0.23598174432E+02  0.51100000000E-03 0. -1.
        -11    1    3    3    0    0 -0.82686197004E+01 -0.29765177207E+00 -0.93967260916E+01  0.12520268760E+02  0.51100000000E-03 0.  1.
         12    1    3    3    0    0 -0.11157484646E+02 -0.26327240708E+01  0.21773172209E+01  0.11668822132E+02  0.00000000000E+00 0. -1.
</event>
<event>
 7    1  0.2237500E-009  0.4778727E+02  0.7816164E-02  0.1312668E+00
        -11   -1    0    0    0    0  0.00000000000E+00  0.00000000000E+00  0.45593999997E+02  0.45594000000E+02  0.51100000000E-03 0. -1.
         11   -1    0    0    0    0 -0.00000000000E+00 -0.00000000000E+00 -0.45593999997E+02  0.45594000000E+02  0.51100000000E-03 0.  1.
    9900012    2    1    2    0    0  0.23701077922E+02 -0.11152603663E+02 -0.34604938337E+02  0.47787269356E+02  0.19999992301E+02 0.  0.
         12    1    1    2    0    0 -0.23701077922E+02  0.11152603663E+02  0.34604938337E+02  0.43400730644E+02  0.00000000000E+00 0. -1.
         11    1    3    3    0    0  0.18540580290E+02 -0.90358966082E+01 -0.22447028422E+02  0.30483924128E+02  0.51100000000E-03 0.  1.
        -11    1    3    3    0    0  0.79592455857E+01  0.11116173192E+01 -0.77509060730E+01  0.11165206159E+02  0.51100000000E-03 0. -1.
         12    1    3    3    0    0 -0.27987479533E+01 -0.32283243739E+01 -0.44070038415E+01  0.61381390688E+01  0.00000000000E+00 0. -1.
</event>
<event>
 7    1  0.2237500E-009  0.4778727E+02  0.7816164E-02  0.1312668E+00
        -11   -1    0    0    0    0  0.00000000000E+00  0.00000000000E+00  0.45593999997E+02  0.45594000000E+02  0.51100000000E-03 0.  1.
         11   -1    0    0    0    0 -0.00000000000E+00 -0.00000000000E+00 -0.45593999997E+02  0.45594000000E+02  0.51100000000E-03 0. -1.
    9900012    2    1    2    0    0  0.32548788294E+02 -0.28479916458E+02  0.36185709323E+01  0.47787270554E+02  0.19999997764E+02 0.  0.
         12    1    1    2    0    0 -0.32548788294E+02  0.28479916458E+02 -0.36185709323E+01  0.43400729446E+02  0.00000000000E+00 0. -1.
         11    1    3    3    0    0  0.59322609065E+01 -0.68655256950E+01  0.13857954458E+01  0.91786486919E+01  0.51100000000E-03 0. -1.
        -11    1    3    3    0    0  0.19014589895E+02 -0.23040428795E+02  0.52036231536E+01  0.30323154224E+02  0.51100000000E-03 0.  1.
         12    1    3    3    0    0  0.76019374929E+01  0.14260380325E+01 -0.29708476670E+01  0.82854676378E+01  0.00000000000E+00 0. -1.
</event>
<event>
 7    1  0.2237500E-009  0.4778727E+02  0.7816164E-02  0.1312668E+00
        -11   -1    0    0    0    0  0.00000000000E+00  0.00000000000E+00  0.45593999997E+02  0.45594000000E+02  0.51100000000E-03 0.  1.
         11   -1    0    0    0    0 -0.00000000000E+00 -0.00000000000E+00 -0.45593999997E+02  0.45594000000E+02  0.51100000000E-03 0. -1.
    9900012    2    1    2    0    0  0.15685958805E+02 -0.30687338824E+02  0.26379178789E+02  0.47787272572E+02  0.20000006963E+02 0.  0.
         12    1    1    2    0    0 -0.15685958805E+02  0.30687338824E+02 -0.26379178789E+02  0.43400727428E+02  0.00000000000E+00 0. -1.
         11    1    3    3    0    0  0.29791636399E+01 -0.50084586271E+01  0.10240029275E+02  0.11782116687E+02  0.51100000000E-03 0. -1.
        -11    1    3    3    0    0  0.11141044110E+02 -0.26145797108E+02  0.17912078075E+02  0.33594167820E+02  0.51100000000E-03 0.  1.
         12    1    3    3    0    0  0.15657510548E+01  0.46691691069E+00 -0.17729285611E+01  0.24109880651E+01  0.00000000000E+00 0. -1.
</event>
<event>
 7    1  0.2237500E-009  0.4778727E+02  0.7816164E-02  0.1312668E+00
        -11   -1    0    0    0    0  0.00000000000E+00  0.00000000000E+00  0.45593999997E+02  0.45594000000E+02  0.51100000000E-03 0. -1.
         11   -1    0    0    0    0 -0.00000000000E+00 -0.00000000000E+00 -0.45593999997E+02  0.45594000000E+02  0.51100000000E-03 0.  1.
    9900012    2    1    2    0    0 -0.42380611352E+02  0.39149785639E+00 -0.93463119742E+01  0.47787273778E+02  0.20000012462E+02 0.  0.
         12    1    1    2    0    0  0.42380611352E+02 -0.39149785639E+00  0.93463119742E+01  0.43400726222E+02  0.00000000000E+00 0. -1.
         11    1    3    3    0    0 -0.30392731101E+00  0.17306609659E+01  0.18066695573E+01  0.25202409289E+01  0.51100000000E-03 0. -1.
        -11    1    3    3    0    0 -0.45374886512E+00 -0.21534125392E+01 -0.14556390476E+00  0.22055073584E+01  0.51100000000E-03 0.  1.
        -12    1    3    3    0    0 -0.41622935175E+02  0.81424942966E+00 -0.11007417627E+02  0.43061525490E+02  0.00000000000E+00 0.  1.
</event>
<event>
 7    1  0.2237500E-009  0.4778727E+02  0.7816164E-02  0.1312668E+00
        -11   -1    0    0    0    0  0.00000000000E+00  0.00000000000E+00  0.45593999997E+02  0.45594000000E+02  0.51100000000E-03 0. -1.
         11   -1    0    0    0    0 -0.00000000000E+00 -0.00000000000E+00 -0.45593999997E+02  0.45594000000E+02  0.51100000000E-03 0.  1.
    9900012    2    1    2    0    0  0.10919499124E+02 -0.27805767838E+02 -0.31483764328E+02  0.47787267259E+02  0.19999982743E+02 0.  0.
         12    1    1    2    0    0 -0.10919499124E+02  0.27805767838E+02  0.31483764328E+02  0.43400732741E+02  0.00000000000E+00 0. -1.
         11    1    3    3    0    0  0.49559255735E+01 -0.68237801227E+01  0.67189630528E+00  0.84602965882E+01  0.51100000000E-03 0. -1.
        -11    1    3    3    0    0  0.36556699257E+01 -0.38641181652E+01 -0.87073768755E+01  0.10203614267E+02  0.51100000000E-03 0.  1.
        -12    1    3    3    0    0  0.23079036244E+01 -0.17117869550E+02 -0.23448283757E+02  0.29123356404E+02  0.00000000000E+00 0.  1.
</event>
<event>
 7    1  0.2237500E-009  0.4778727E+02  0.7816164E-02  0.1312668E+00
        -11   -1    0    0    0    0  0.00000000000E+00  0.00000000000E+00  0.45593999997E+02  0.45594000000E+02  0.51100000000E-03 0.  1.
         11   -1    0    0    0    0 -0.00000000000E+00 -0.00000000000E+00 -0.45593999997E+02  0.45594000000E+02  0.51100000000E-03 0. -1.
    9900012    2    1    2    0    0 -0.95871387096E+01 -0.74237308221E+01  0.41672510282E+02  0.47787272804E+02  0.20000008022E+02 0.  0.
         12    1    1    2    0    0  0.95871387096E+01  0.74237308221E+01 -0.41672510282E+02  0.43400727196E+02  0.00000000000E+00 0. -1.
         11    1    3    3    0    0 -0.22738357285E+00 -0.22262803864E+01  0.34496232994E+01  0.41119251959E+01  0.51100000000E-03 0. -1.
        -11    1    3    3    0    0 -0.40438099160E+01 -0.98927422167E+01  0.10217083314E+02  0.14785382609E+02  0.51100000000E-03 0.  1.
         12    1    3    3    0    0 -0.53159452207E+01  0.46952917810E+01  0.28005803669E+02  0.28889964999E+02  0.00000000000E+00 0. -1.
</event>
<event>
 7    1  0.2237500E-009  0.4778727E+02  0.7816164E-02  0.1312668E+00
        -11   -1    0    0    0    0  0.00000000000E+00  0.00000000000E+00  0.45593999997E+02  0.45594000000E+02  0.51100000000E-03 0.  1.
         11   -1    0    0    0    0 -0.00000000000E+00 -0.00000000000E+00 -0.45593999997E+02  0.45594000000E+02  0.51100000000E-03 0. -1.
    9900012    2    1    2    0    0 -0.33808175598E+02  0.15226192810E+02  0.22556458222E+02  0.47787268528E+02  0.19999988529E+02 0.  0.
         12    1    1    2    0    0  0.33808175598E+02 -0.15226192810E+02 -0.22556458222E+02  0.43400731472E+02  0.00000000000E+00 0. -1.
         11    1    3    3    0    0 -0.77590606364E+01  0.63174404635E+01 -0.94225414720E+00  0.10049921348E+02  0.51100000000E-03 0. -1.
        -11    1    3    3    0    0 -0.20888624546E+02  0.88891976139E+01  0.13308144624E+02  0.26314619193E+02  0.51100000000E-03 0.  1.
        -12    1    3    3    0    0 -0.51604904154E+01  0.19554732407E-01  0.10190567745E+02  0.11422727987E+02  0.00000000000E+00 0.  1.
</event>
<event>
 7    1  0.2237500E-009  0.4778727E+02  0.7816164E-02  0.1312668E+00
        -11   -1    0    0    0    0  0.00000000000E+00  0.00000000000E+00  0.45593999997E+02  0.45594000000E+02  0.51100000000E-03 0. -1.
         11   -1    0    0    0    0 -0.00000000000E+00 -0.00000000000E+00 -0.45593999997E+02  0.45594000000E+02  0.51100000000E-03 0.  1.
    9900012    2    1    2    0    0  0.40681322160E+02  0.14357384402E+02  0.47453924618E+01  0.47787271790E+02  0.20000003400E+02 0.  0.
         12    1    1    2    0    0 -0.40681322160E+02 -0.14357384402E+02 -0.47453924618E+01  0.43400728210E+02  0.00000000000E+00 0. -1.
         11    1    3    3    0    0  0.25973442379E+01  0.47012499265E+01  0.42716811929E+01  0.68625948764E+01  0.51100000000E-03 0. -1.
        -11    1    3    3    0    0  0.18696039632E+02  0.12925488424E+01  0.48563706189E+01  0.19359672421E+02  0.51100000000E-03 0.  1.
        -12    1    3    3    0    0  0.19387938290E+02  0.83635856330E+01 -0.43826593499E+01  0.21565004492E+02  0.00000000000E+00 0.  1.
</event>
<event>
 7    1  0.2237500E-009  0.4778727E+02  0.7816164E-02  0.1312668E+00
        -11   -1    0    0    0    0  0.00000000000E+00  0.00000000000E+00  0.45593999997E+02  0.45594000000E+02  0.51100000000E-03 0.  1.
         11   -1    0    0    0    0 -0.00000000000E+00 -0.00000000000E+00 -0.45593999997E+02  0.45594000000E+02  0.51100000000E-03 0. -1.
    9900012    2    1    2    0    0 -0.27077290984E+02 -0.73802395261E+01  0.33105524361E+02  0.47787269987E+02  0.19999995177E+02 0.  0.
         12    1    1    2    0    0  0.27077290984E+02  0.73802395261E+01 -0.33105524361E+02  0.43400730013E+02  0.00000000000E+00 0. -1.
         11    1    3    3    0    0 -0.90661948157E+01 -0.66625065816E+01  0.23257485959E+01  0.11488863703E+02  0.51100000000E-03 0. -1.
        -11    1    3    3    0    0 -0.10107792789E+01 -0.15887996042E+01  0.14114342213E+01  0.23533180311E+01  0.51100000000E-03 0.  1.
        -12    1    3    3    0    0 -0.17000316889E+02  0.87106665977E+00  0.29368341544E+02  0.33945088253E+02  0.00000000000E+00 0.  1.
</event>
<event>
 7    1  0.2237500E-009  0.4778727E+02  0.7816164E-02  0.1312668E+00
        -11   -1    0    0    0    0  0.00000000000E+00  0.00000000000E+00  0.45593999997E+02  0.45594000000E+02  0.51100000000E-03 0. -1.
         11   -1    0    0    0    0 -0.00000000000E+00 -0.00000000000E+00 -0.45593999997E+02  0.45594000000E+02  0.51100000000E-03 0.  1.
    9900012    2    1    2    0    0  0.16129157130E+02 -0.58245967195E+01 -0.39869133777E+02  0.47787268845E+02  0.19999989970E+02 0.  0.
         12    1    1    2    0    0 -0.16129157130E+02  0.58245967195E+01  0.39869133777E+02  0.43400731155E+02  0.00000000000E+00 0. -1.
         11    1    3    3    0    0 -0.32812018776E+00  0.23334140514E+01 -0.14483273853E+01  0.27658880073E+01  0.51100000000E-03 0. -1.
        -11    1    3    3    0    0  0.39343217776E+00 -0.67500665144E+01 -0.16301625217E+02  0.17648262572E+02  0.51100000000E-03 0.  1.
        -12    1    3    3    0    0  0.16063845140E+02 -0.14079442565E+01 -0.22119181175E+02  0.27373118265E+02  0.00000000000E+00 0.  1.
</event>
<event>
 7    1  0.2237500E-009  0.4778726E+02  0.7816164E-02  0.1312668E+00
        -11   -1    0    0    0    0  0.00000000000E+00  0.00000000000E+00  0.45593999997E+02  0.45594000000E+02  0.51100000000E-03 0. -1.
         11   -1    0    0    0    0 -0.00000000000E+00 -0.00000000000E+00 -0.45593999997E+02  0.45594000000E+02  0.51100000000E-03 0.  1.
    9900012    2    1    2    0    0  0.43834772981E+01  0.42671108213E+02 -0.66019437069E+01  0.47787262563E+02  0.19999961332E+02 0.  0.
         12    1    1    2    0    0 -0.43834772981E+01 -0.42671108213E+02  0.66019437069E+01  0.43400737437E+02  0.00000000000E+00 0. -1.
         11    1    3    3    0    0  0.18517473838E+01  0.15064997589E+01 -0.47428427096E+01  0.53097144110E+01  0.51100000000E-03 0. -1.
        -11    1    3    3    0    0  0.57813064454E+00 -0.61297524087E-01  0.94578239807E+00  0.11101788298E+01  0.51100000000E-03 0.  1.
        -12    1    3    3    0    0  0.19535992697E+01  0.41225905978E+02 -0.28048833954E+01  0.41367369323E+02  0.00000000000E+00 0.  1.
</event>
<event>
 7    1  0.2237500E-009  0.4778727E+02  0.7816164E-02  0.1312668E+00
        -11   -1    0    0    0    0  0.00000000000E+00  0.00000000000E+00  0.45593999997E+02  0.45594000000E+02  0.51100000000E-03 0.  1.
         11   -1    0    0    0    0 -0.00000000000E+00 -0.00000000000E+00 -0.45593999997E+02  0.45594000000E+02  0.51100000000E-03 0. -1.
    9900012    2    1    2    0    0 -0.80903192302E+01  0.80792348803E+01  0.41867599639E+02  0.47787271884E+02  0.20000003826E+02 0.  0.
         12    1    1    2    0    0  0.80903192302E+01 -0.80792348803E+01 -0.41867599639E+02  0.43400728116E+02  0.00000000000E+00 0. -1.
         11    1    3    3    0    0 -0.19955873985E+00  0.84608468773E+00  0.26455426232E+01  0.27847044765E+01  0.51100000000E-03 0. -1.
        -11    1    3    3    0    0 -0.10875289180E+02  0.11467947587E+02  0.34684424412E+02  0.38115548450E+02  0.51100000000E-03 0.  1.
         12    1    3    3    0    0  0.29845286894E+01 -0.42347973941E+01  0.45376326034E+01  0.68870189567E+01  0.00000000000E+00 0. -1.
</event>
<event>
 7    1  0.2237500E-009  0.4778728E+02  0.7816164E-02  0.1312668E+00
        -11   -1    0    0    0    0  0.00000000000E+00  0.00000000000E+00  0.45593999997E+02  0.45594000000E+02  0.51100000000E-03 0. -1.
         11   -1    0    0    0    0 -0.00000000000E+00 -0.00000000000E+00 -0.45593999997E+02  0.45594000000E+02  0.51100000000E-03 0.  1.
    9900012    2    1    2    0    0  0.48496723076E+00 -0.37664935420E+02 -0.21557834056E+02  0.47787276935E+02  0.20000026858E+02 0.  0.
         12    1    1    2    0    0 -0.48496723076E+00  0.37664935420E+02  0.21557834056E+02  0.43400723065E+02  0.00000000000E+00 0. -1.
         11    1    3    3    0    0 -0.60917817853E+01 -0.88231602231E+01 -0.11242100476E+01  0.10780621973E+02  0.51100000000E-03 0. -1.
        -11    1    3    3    0    0  0.22627270319E+01 -0.21853875046E+02 -0.11238792520E+02  0.24678376076E+02  0.51100000000E-03 0.  1.
        -12    1    3    3    0    0  0.43140219842E+01 -0.69879001502E+01 -0.91948314886E+01  0.12328278886E+02  0.00000000000E+00 0.  1.
</event>
<event>
 7    1  0.2237500E-009  0.4778727E+02  0.7816164E-02  0.1312668E+00
        -11   -1    0    0    0    0  0.00000000000E+00  0.00000000000E+00  0.45593999997E+02  0.45594000000E+02  0.51100000000E-03 0.  1.
         11   -1    0    0    0    0 -0.00000000000E+00 -0.00000000000E+00 -0.45593999997E+02  0.45594000000E+02  0.51100000000E-03 0. -1.
    9900012    2    1    2    0    0 -0.27172211461E+02  0.21668503196E+02  0.25995573564E+02  0.47787274760E+02  0.20000016940E+02 0.  0.
         12    1    1    2    0    0  0.27172211461E+02 -0.21668503196E+02 -0.25995573564E+02  0.43400725240E+02  0.00000000000E+00 0. -1.
         11    1    3    3    0    0 -0.14290428298E+02  0.69076333826E+01  0.10130331316E+02  0.18829640271E+02  0.51100000000E-03 0.  1.
        -11    1    3    3    0    0 -0.75889873328E+01  0.28397619136E+00  0.12127326103E+01  0.76905196092E+01  0.51100000000E-03 0. -1.
        -12    1    3    3    0    0 -0.52927958306E+01  0.14476893622E+02  0.14652509637E+02  0.21267114880E+02  0.00000000000E+00 0.  1.
</event>
<event>
 7    1  0.3503253E-009  0.4778728E+02  0.7816164E-02  0.1312668E+00
        -11   -1    0    0    0    0  0.00000000000E+00  0.00000000000E+00  0.45593999997E+02  0.45594000000E+02  0.51100000000E-03 0. -1.
         11   -1    0    0    0    0 -0.00000000000E+00 -0.00000000000E+00 -0.45593999997E+02  0.45594000000E+02  0.51100000000E-03 0.  1.
    9900012    2    1    2    0    0  0.40811483806E+02 -0.93821992957E+01  0.11402621329E+02  0.47787278264E+02  0.20000032916E+02 0.  0.
         12    1    1    2    0    0 -0.40811483806E+02  0.93821992957E+01 -0.11402621329E+02  0.43400721736E+02  0.00000000000E+00 0. -1.
         11    1    3    3    0    0  0.43807691461E+01  0.28759129706E+01 -0.11942942296E+01  0.53747886185E+01  0.51100000000E-03 0.  1.
        -11    1    3    3    0    0  0.69428246339E+01 -0.80499928146E+00  0.77044983649E+01  0.10402409964E+02  0.51100000000E-03 0. -1.
        -12    1    3    3    0    0  0.29487890026E+02 -0.11453112985E+02  0.48924171941E+01  0.32010079681E+02  0.00000000000E+00 0.  1.
</event>
<event>
 7    1  0.2237500E-009  0.4778727E+02  0.7816164E-02  0.1312668E+00
        -11   -1    0    0    0    0  0.00000000000E+00  0.00000000000E+00  0.45593999997E+02  0.45594000000E+02  0.51100000000E-03 0. -1.
         11   -1    0    0    0    0 -0.00000000000E+00 -0.00000000000E+00 -0.45593999997E+02  0.45594000000E+02  0.51100000000E-03 0.  1.
    9900012    2    1    2    0    0  0.21076901454E+02 -0.18765120504E+01 -0.37892826020E+02  0.47787270327E+02  0.19999996729E+02 0.  0.
         12    1    1    2    0    0 -0.21076901454E+02  0.18765120504E+01  0.37892826020E+02  0.43400729673E+02  0.00000000000E+00 0. -1.
         11    1    3    3    0    0  0.31252754190E+01 -0.41417788062E+01 -0.17443745147E+02  0.18199063799E+02  0.51100000000E-03 0. -1.
        -11    1    3    3    0    0  0.63721278520E+01  0.21811434112E+01 -0.15679086249E+02  0.17064440976E+02  0.51100000000E-03 0.  1.
         12    1    3    3    0    0  0.11579498183E+02  0.84123344674E-01 -0.47699946233E+01  0.12523765553E+02  0.00000000000E+00 0. -1.
</event>
<event>
 7    1  0.2237500E-009  0.4778729E+02  0.7816164E-02  0.1312668E+00
        -11   -1    0    0    0    0  0.00000000000E+00  0.00000000000E+00  0.45593999997E+02  0.45594000000E+02  0.51100000000E-03 0.  1.
         11   -1    0    0    0    0 -0.00000000000E+00 -0.00000000000E+00 -0.45593999997E+02  0.45594000000E+02  0.51100000000E-03 0. -1.
    9900012    2    1    2    0    0 -0.40401447787E+02  0.59469348009E+01  0.14696215088E+02  0.47787288546E+02  0.20000079795E+02 0.  0.
         12    1    1    2    0    0  0.40401447787E+02 -0.59469348009E+01 -0.14696215088E+02  0.43400711454E+02  0.00000000000E+00 0. -1.
         11    1    3    3    0    0 -0.22410276519E+01  0.13864487972E+00 -0.13730267192E+01  0.26318491545E+01  0.51100000000E-03 0. -1.
        -11    1    3    3    0    0 -0.37906554051E+02  0.24134719422E+01  0.11965403286E+02  0.39823392157E+02  0.51100000000E-03 0.  1.
        -12    1    3    3    0    0 -0.25386608440E+00  0.33948179789E+01  0.41038385218E+01  0.53320472346E+01  0.00000000000E+00 0.  1.
</event>
<event>
 7    1  0.2237500E-009  0.4778728E+02  0.7816164E-02  0.1312668E+00
        -11   -1    0    0    0    0  0.00000000000E+00  0.00000000000E+00  0.45593999997E+02  0.45594000000E+02  0.51100000000E-03 0.  1.
         11   -1    0    0    0    0 -0.00000000000E+00 -0.00000000000E+00 -0.45593999997E+02  0.45594000000E+02  0.51100000000E-03 0. -1.
    9900012    2    1    2    0    0 -0.55531357713E+01 -0.19765294116E+02  0.38237659007E+02  0.47787277255E+02  0.20000028318E+02 0.  0.
         12    1    1    2    0    0  0.55531357713E+01  0.19765294116E+02 -0.38237659007E+02  0.43400722745E+02  0.00000000000E+00 0. -1.
         11    1    3    3    0    0  0.96420489958E+00 -0.23533229542E+01  0.19242179125E+02  0.19409515135E+02  0.51100000000E-03 0. -1.
        -11    1    3    3    0    0  0.22561173241E+01 -0.52070040799E+01  0.29655462699E+01  0.64029229113E+01  0.51100000000E-03 0.  1.
        -12    1    3    3    0    0 -0.87734579950E+01 -0.12204967082E+02  0.16029933612E+02  0.21974839209E+02  0.00000000000E+00 0.  1.
</event>
<event>
 7    1  0.2237500E-009  0.4778727E+02  0.7816164E-02  0.1312668E+00
        -11   -1    0    0    0    0  0.00000000000E+00  0.00000000000E+00  0.45593999997E+02  0.45594000000E+02  0.51100000000E-03 0.  1.
         11   -1    0    0    0    0 -0.00000000000E+00 -0.00000000000E+00 -0.45593999997E+02  0.45594000000E+02  0.51100000000E-03 0. -1.
    9900012    2    1    2    0    0  0.87598107835E+01  0.18155856362E+02  0.38435057943E+02  0.47787273229E+02  0.20000009961E+02 0.  0.
         12    1    1    2    0    0 -0.87598107835E+01 -0.18155856362E+02 -0.38435057943E+02  0.43400726771E+02  0.00000000000E+00 0. -1.
         11    1    3    3    0    0  0.24620886297E+01  0.47832036199E+01  0.38494438280E+01  0.66150688081E+01  0.51100000000E-03 0. -1.
        -11    1    3    3    0    0  0.45342483744E+01  0.17370158990E+02  0.27170644302E+02  0.32565714236E+02  0.51100000000E-03 0.  1.
         12    1    3    3    0    0  0.17634737794E+01 -0.39975062487E+01  0.74149698127E+01  0.86064901849E+01  0.00000000000E+00 0. -1.
</event>
<event>
 7    1  0.2237500E-009  0.4778728E+02  0.7816164E-02  0.1312668E+00
        -11   -1    0    0    0    0  0.00000000000E+00  0.00000000000E+00  0.45593999997E+02  0.45594000000E+02  0.51100000000E-03 0. -1.
         11   -1    0    0    0    0 -0.00000000000E+00 -0.00000000000E+00 -0.45593999997E+02  0.45594000000E+02  0.51100000000E-03 0.  1.
    9900012    2    1    2    0    0  0.42927879212E+02 -0.12930726297E+01  0.62568075487E+01  0.47787280061E+02  0.20000041111E+02 0.  0.
         12    1    1    2    0    0 -0.42927879212E+02  0.12930726297E+01 -0.62568075487E+01  0.43400719939E+02  0.00000000000E+00 0. -1.
         11    1    3    3    0    0  0.61393478064E+01  0.48265657302E+01  0.10794179589E+01  0.78836838868E+01  0.51100000000E-03 0. -1.
        -11    1    3    3    0    0  0.16704404631E+02  0.31579171713E+01 -0.69363350413E+00  0.17014426309E+02  0.51100000000E-03 0.  1.
         12    1    3    3    0    0  0.20084126775E+02 -0.92775555312E+01  0.58710230939E+01  0.22889169865E+02  0.00000000000E+00 0. -1.
</event>
<event>
 7    1  0.2237500E-009  0.4778727E+02  0.7816164E-02  0.1312668E+00
        -11   -1    0    0    0    0  0.00000000000E+00  0.00000000000E+00  0.45593999997E+02  0.45594000000E+02  0.51100000000E-03 0.  1.
         11   -1    0    0    0    0 -0.00000000000E+00 -0.00000000000E+00 -0.45593999997E+02  0.45594000000E+02  0.51100000000E-03 0. -1.
    9900012    2    1    2    0    0 -0.27080739923E+01  0.25634820947E+02  0.34916263449E+02  0.47787272322E+02  0.20000005824E+02 0.  0.
         12    1    1    2    0    0  0.27080739923E+01 -0.25634820947E+02 -0.34916263449E+02  0.43400727678E+02  0.00000000000E+00 0. -1.
         11    1    3    3    0    0 -0.18099301561E+01  0.16805750318E+02  0.14728275315E+02  0.22419437659E+02  0.51100000000E-03 0. -1.
        -11    1    3    3    0    0 -0.52676180702E+00  0.10934738974E+02  0.95823065425E+01  0.14548766043E+02  0.51100000000E-03 0.  1.
         12    1    3    3    0    0 -0.37138202919E+00 -0.21056683448E+01  0.10605681592E+02  0.10819068620E+02  0.00000000000E+00 0. -1.
</event>
<event>
 7    1  0.2237500E-009  0.4778729E+02  0.7816164E-02  0.1312668E+00
        -11   -1    0    0    0    0  0.00000000000E+00  0.00000000000E+00  0.45593999997E+02  0.45594000000E+02  0.51100000000E-03 0.  1.
         11   -1    0    0    0    0 -0.00000000000E+00 -0.00000000000E+00 -0.45593999997E+02  0.45594000000E+02  0.51100000000E-03 0. -1.
    9900012    2    1    2    0    0  0.35687047209E+02 -0.22516161646E+02  0.10152774562E+02  0.47787289118E+02  0.20000082404E+02 0.  0.
         12    1    1    2    0    0 -0.35687047209E+02  0.22516161646E+02 -0.10152774562E+02  0.43400710882E+02  0.00000000000E+00 0. -1.
         11    1    3    3    0    0 -0.84156387405E+00 -0.20560815592E+01 -0.22880188424E+00  0.22333946574E+01  0.51100000000E-03 0. -1.
        -11    1    3    3    0    0  0.10055975219E+02 -0.99246605005E+01  0.95427865683E+01  0.17049524903E+02  0.51100000000E-03 0.  1.
         12    1    3    3    0    0  0.26472635863E+02 -0.10535419586E+02  0.83878987801E+00  0.28504369558E+02  0.00000000000E+00 0. -1.
</event>
<event>
 7    1  0.2237500E-009  0.4778727E+02  0.7816164E-02  0.1312668E+00
        -11   -1    0    0    0    0  0.00000000000E+00  0.00000000000E+00  0.45593999997E+02  0.45594000000E+02  0.51100000000E-03 0.  1.
         11   -1    0    0    0    0 -0.00000000000E+00 -0.00000000000E+00 -0.45593999997E+02  0.45594000000E+02  0.51100000000E-03 0. -1.
    9900012    2    1    2    0    0  0.40276110568E+01  0.30134251883E+02  0.30973026245E+02  0.47787272562E+02  0.20000006920E+02 0.  0.
         12    1    1    2    0    0 -0.40276110568E+01 -0.30134251883E+02 -0.30973026245E+02  0.43400727438E+02  0.00000000000E+00 0. -1.
         11    1    3    3    0    0  0.11652697994E+01  0.14052986599E+02  0.34179184840E+01  0.14509529733E+02  0.51100000000E-03 0. -1.
        -11    1    3    3    0    0 -0.21071032368E+00  0.26611556536E+01  0.22887408343E+00  0.26792782350E+01  0.51100000000E-03 0.  1.
        -12    1    3    3    0    0  0.30730515811E+01  0.13420109631E+02  0.27326233678E+02  0.30598464594E+02  0.00000000000E+00 0.  1.
</event>
<event>
 7    1  0.2237500E-009  0.4778727E+02  0.7816164E-02  0.1312668E+00
        -11   -1    0    0    0    0  0.00000000000E+00  0.00000000000E+00  0.45593999997E+02  0.45594000000E+02  0.51100000000E-03 0.  1.
         11   -1    0    0    0    0 -0.00000000000E+00 -0.00000000000E+00 -0.45593999997E+02  0.45594000000E+02  0.51100000000E-03 0. -1.
    9900012    2    1    2    0    0 -0.36126678670E+01  0.40017177120E+01  0.43064580619E+02  0.47787271692E+02  0.20000002954E+02 0.  0.
         12    1    1    2    0    0  0.36126678670E+01 -0.40017177120E+01 -0.43064580619E+02  0.43400728308E+02  0.00000000000E+00 0. -1.
         11    1    3    3    0    0  0.28645593584E+01  0.16914402717E+01  0.32642777756E+02  0.32811851675E+02  0.51100000000E-03 0. -1.
        -11    1    3    3    0    0 -0.41546824599E+01 -0.20547020311E+01  0.84787023586E+01  0.96628971187E+01  0.51100000000E-03 0.  1.
         12    1    3    3    0    0 -0.23225447655E+01  0.43649794713E+01  0.19431005047E+01  0.53125228982E+01  0.00000000000E+00 0. -1.
</event>
<event>
 7    1  0.2237500E-009  0.4778727E+02  0.7816164E-02  0.1312668E+00
        -11   -1    0    0    0    0  0.00000000000E+00  0.00000000000E+00  0.45593999997E+02  0.45594000000E+02  0.51100000000E-03 0.  1.
         11   -1    0    0    0    0 -0.00000000000E+00 -0.00000000000E+00 -0.45593999997E+02  0.45594000000E+02  0.51100000000E-03 0. -1.
    9900012    2    1    2    0    0  0.13746802431E+02  0.40373260725E+02 -0.80404155750E+01  0.47787273724E+02  0.20000012219E+02 0.  0.
         12    1    1    2    0    0 -0.13746802431E+02 -0.40373260725E+02  0.80404155750E+01  0.43400726276E+02  0.00000000000E+00 0. -1.
         11    1    3    3    0    0  0.95699031881E+01  0.12605687682E+02 -0.48631679037E+01  0.16557077378E+02  0.51100000000E-03 0. -1.
        -11    1    3    3    0    0 -0.12120349010E+01  0.55803635089E+01 -0.59300671197E+01  0.82325683597E+01  0.51100000000E-03 0.  1.
        -12    1    3    3    0    0  0.53889341435E+01  0.22187209534E+02  0.27528194484E+01  0.22997627987E+02  0.00000000000E+00 0.  1.
</event>
<event>
 7    1  0.2237500E-009  0.4778727E+02  0.7816164E-02  0.1312668E+00
        -11   -1    0    0    0    0  0.00000000000E+00  0.00000000000E+00  0.45593999997E+02  0.45594000000E+02  0.51100000000E-03 0. -1.
         11   -1    0    0    0    0 -0.00000000000E+00 -0.00000000000E+00 -0.45593999997E+02  0.45594000000E+02  0.51100000000E-03 0.  1.
    9900012    2    1    2    0    0 -0.28577353279E+02 -0.28155135300E+02 -0.16560380378E+02  0.47787274632E+02  0.20000016357E+02 0.  0.
         12    1    1    2    0    0  0.28577353279E+02  0.28155135300E+02  0.16560380378E+02  0.43400725368E+02  0.00000000000E+00 0. -1.
         11    1    3    3    0    0 -0.12829536269E+01  0.63358599427E+00  0.20749536766E+01  0.25204829382E+01  0.51100000000E-03 0. -1.
        -11    1    3    3    0    0 -0.16539482560E+02 -0.92605434380E+01 -0.82685980259E+01  0.20680470539E+02  0.51100000000E-03 0.  1.
         12    1    3    3    0    0 -0.10754917092E+02 -0.19528177856E+02 -0.10366736029E+02  0.24586321155E+02  0.00000000000E+00 0. -1.
</event>
<event>
 7    1  0.2237500E-009  0.4778727E+02  0.7816164E-02  0.1312668E+00
        -11   -1    0    0    0    0  0.00000000000E+00  0.00000000000E+00  0.45593999997E+02  0.45594000000E+02  0.51100000000E-03 0.  1.
         11   -1    0    0    0    0 -0.00000000000E+00 -0.00000000000E+00 -0.45593999997E+02  0.45594000000E+02  0.51100000000E-03 0. -1.
    9900012    2    1    2    0    0  0.42751692973E+02 -0.74392553993E+01 -0.75739581401E+00  0.47787269346E+02  0.19999992255E+02 0.  0.
         12    1    1    2    0    0 -0.42751692973E+02  0.74392553993E+01  0.75739581401E+00  0.43400730654E+02  0.00000000000E+00 0. -1.
         11    1    3    3    0    0  0.58973485950E+01  0.41838519030E+01 -0.93439396089E+00  0.72908455979E+01  0.51100000000E-03 0. -1.
        -11    1    3    3    0    0  0.24215943663E+01  0.12636026179E+01 -0.24067802165E+01  0.36405222321E+01  0.51100000000E-03 0.  1.
        -12    1    3    3    0    0  0.34432750011E+02 -0.12886709920E+02  0.25837783633E+01  0.36855901516E+02  0.00000000000E+00 0.  1.
</event>
<event>
 7    1  0.2237500E-009  0.4778727E+02  0.7816164E-02  0.1312668E+00
        -11   -1    0    0    0    0  0.00000000000E+00  0.00000000000E+00  0.45593999997E+02  0.45594000000E+02  0.51100000000E-03 0.  1.
         11   -1    0    0    0    0 -0.00000000000E+00 -0.00000000000E+00 -0.45593999997E+02  0.45594000000E+02  0.51100000000E-03 0. -1.
    9900012    2    1    2    0    0  0.17715160800E+02 -0.22207391970E+02  0.32812007354E+02  0.47787274120E+02  0.20000014024E+02 0.  0.
         12    1    1    2    0    0 -0.17715160800E+02  0.22207391970E+02 -0.32812007354E+02  0.43400725880E+02  0.00000000000E+00 0. -1.
         11    1    3    3    0    0 -0.10418092548E-01 -0.20147354326E+01 -0.18203736787E+01  0.27153320223E+01  0.51100000000E-03 0. -1.
        -11    1    3    3    0    0 -0.26174717899E+00  0.36192910889E+00 -0.43431524725E+00  0.62300422204E+00  0.51100000000E-03 0.  1.
        -12    1    3    3    0    0  0.17987326071E+02 -0.20554585646E+02  0.35066696280E+02  0.44448937876E+02  0.00000000000E+00 0.  1.
</event>
<event>
 7    1  0.2237500E-009  0.4778729E+02  0.7816164E-02  0.1312668E+00
        -11   -1    0    0    0    0  0.00000000000E+00  0.00000000000E+00  0.45593999997E+02  0.45594000000E+02  0.51100000000E-03 0. -1.
         11   -1    0    0    0    0 -0.00000000000E+00 -0.00000000000E+00 -0.45593999997E+02  0.45594000000E+02  0.51100000000E-03 0.  1.
    9900012    2    1    2    0    0 -0.36674643532E+02 -0.21461022479E+02 -0.88327262742E+01  0.47787285519E+02  0.20000065996E+02 0.  0.
         12    1    1    2    0    0  0.36674643532E+02  0.21461022479E+02  0.88327262742E+01  0.43400714481E+02  0.00000000000E+00 0. -1.
         11    1    3    3    0    0 -0.11077733740E+02 -0.11444790008E+02 -0.83891407026E+01  0.18002141127E+02  0.51100000000E-03 0. -1.
        -11    1    3    3    0    0 -0.16272257462E+02 -0.11785119346E+02 -0.19072550700E+01  0.20181997500E+02  0.51100000000E-03 0.  1.
         12    1    3    3    0    0 -0.93246523293E+01  0.17688868756E+01  0.14636694984E+01  0.96031468926E+01  0.00000000000E+00 0. -1.
</event>
<event>
 7    1  0.2237500E-009  0.4778727E+02  0.7816164E-02  0.1312668E+00
        -11   -1    0    0    0    0  0.00000000000E+00  0.00000000000E+00  0.45593999997E+02  0.45594000000E+02  0.51100000000E-03 0.  1.
         11   -1    0    0    0    0 -0.00000000000E+00 -0.00000000000E+00 -0.45593999997E+02  0.45594000000E+02  0.51100000000E-03 0. -1.
    9900012    2    1    2    0    0  0.23160471158E+02 -0.23840589274E+02  0.27907750057E+02  0.47787266890E+02  0.19999981059E+02 0.  0.
         12    1    1    2    0    0 -0.23160471158E+02  0.23840589274E+02 -0.27907750057E+02  0.43400733110E+02  0.00000000000E+00 0. -1.
         11    1    3    3    0    0  0.66224726357E+01 -0.39847266323E+01  0.12281611871E+02  0.14511139878E+02  0.51100000000E-03 0. -1.
        -11    1    3    3    0    0 -0.46648626642E+00  0.12768334492E+00 -0.17430790595E+01  0.18089326527E+01  0.51100000000E-03 0.  1.
        -12    1    3    3    0    0  0.17004484789E+02 -0.19983545987E+02  0.17369217246E+02  0.31467194360E+02  0.00000000000E+00 0.  1.
</event>
<event>
 7    1  0.2237500E-009  0.4778727E+02  0.7816164E-02  0.1312668E+00
        -11   -1    0    0    0    0  0.00000000000E+00  0.00000000000E+00  0.45593999997E+02  0.45594000000E+02  0.51100000000E-03 0.  1.
         11   -1    0    0    0    0 -0.00000000000E+00 -0.00000000000E+00 -0.45593999997E+02  0.45594000000E+02  0.51100000000E-03 0. -1.
    9900012    2    1    2    0    0  0.26221539265E+02 -0.33100251680E+02 -0.10021363042E+02  0.47787268440E+02  0.19999988127E+02 0.  0.
         12    1    1    2    0    0 -0.26221539265E+02  0.33100251680E+02  0.10021363042E+02  0.43400731560E+02  0.00000000000E+00 0. -1.
         11    1    3    3    0    0  0.88401073169E+01 -0.17341486312E+02  0.26759846131E+00  0.19466541914E+02  0.51100000000E-03 0. -1.
        -11    1    3    3    0    0  0.41310744371E+01 -0.98400628424E+01 -0.25058446340E+00  0.10674989723E+02  0.51100000000E-03 0.  1.
        -12    1    3    3    0    0  0.13250357511E+02 -0.59187025259E+01 -0.10038377040E+02  0.17645736804E+02  0.00000000000E+00 0.  1.
</event>
<event>
 7    1  0.2237500E-009  0.4778727E+02  0.7816164E-02  0.1312668E+00
        -11   -1    0    0    0    0  0.00000000000E+00  0.00000000000E+00  0.45593999997E+02  0.45594000000E+02  0.51100000000E-03 0.  1.
         11   -1    0    0    0    0 -0.00000000000E+00 -0.00000000000E+00 -0.45593999997E+02  0.45594000000E+02  0.51100000000E-03 0. -1.
    9900012    2    1    2    0    0  0.12035740666E+02 -0.11178380059E+02  0.40172228239E+02  0.47787272405E+02  0.20000006202E+02 0.  0.
         12    1    1    2    0    0 -0.12035740666E+02  0.11178380059E+02 -0.40172228239E+02  0.43400727595E+02  0.00000000000E+00 0. -1.
         11    1    3    3    0    0  0.46275443201E+01 -0.40335114892E+01  0.92387372936E+01  0.11092233698E+02  0.51100000000E-03 0. -1.
        -11    1    3    3    0    0  0.77455230693E+01 -0.76317083880E+01  0.32895244014E+02  0.34645824850E+02  0.51100000000E-03 0.  1.
         12    1    3    3    0    0 -0.33732672366E+00  0.48683981777E+00 -0.19617530689E+01  0.20492138565E+01  0.00000000000E+00 0. -1.
</event>
<event>
 7    1  0.2237500E-009  0.4778729E+02  0.7816164E-02  0.1312668E+00
        -11   -1    0    0    0    0  0.00000000000E+00  0.00000000000E+00  0.45593999997E+02  0.45594000000E+02  0.51100000000E-03 0. -1.
         11   -1    0    0    0    0 -0.00000000000E+00 -0.00000000000E+00 -0.45593999997E+02  0.45594000000E+02  0.51100000000E-03 0.  1.
    9900012    2    1    2    0    0  0.82686643033E+00  0.17344287983E+02 -0.39775795919E+02  0.47787286011E+02  0.20000068241E+02 0.  0.
         12    1    1    2    0    0 -0.82686643033E+00 -0.17344287983E+02  0.39775795919E+02  0.43400713989E+02  0.00000000000E+00 0. -1.
         11    1    3    3    0    0 -0.28458571452E+01 -0.22992950534E+01 -0.11708726092E+02  0.12267026029E+02  0.51100000000E-03 0. -1.
        -11    1    3    3    0    0 -0.24013872308E+01  0.69917262033E+01 -0.12809469233E+02  0.14789638204E+02  0.51100000000E-03 0.  1.
        -12    1    3    3    0    0  0.60741108063E+01  0.12651856833E+02 -0.15257600594E+02  0.20730621778E+02  0.00000000000E+00 0.  1.
</event>
<event>
 7    1  0.2237500E-009  0.4778727E+02  0.7816164E-02  0.1312668E+00
        -11   -1    0    0    0    0  0.00000000000E+00  0.00000000000E+00  0.45593999997E+02  0.45594000000E+02  0.51100000000E-03 0.  1.
         11   -1    0    0    0    0 -0.00000000000E+00 -0.00000000000E+00 -0.45593999997E+02  0.45594000000E+02  0.51100000000E-03 0. -1.
    9900012    2    1    2    0    0  0.39976318476E+02  0.19760465994E+01  0.16781321226E+02  0.47787267965E+02  0.19999985961E+02 0.  0.
         12    1    1    2    0    0 -0.39976318476E+02 -0.19760465994E+01 -0.16781321226E+02  0.43400732035E+02  0.00000000000E+00 0. -1.
         11    1    3    3    0    0  0.16904732790E+02  0.43514718080E+01  0.69083732197E+01  0.18773143541E+02  0.51100000000E-03 0. -1.
        -11    1    3    3    0    0  0.21357180773E+02  0.29305798294E+01  0.90405055497E+01  0.23376231723E+02  0.51100000000E-03 0.  1.
        -12    1    3    3    0    0  0.17144049129E+01 -0.53060050381E+01  0.83244245621E+00  0.56378927014E+01  0.00000000000E+00 0.  1.
</event>
<event>
 7    1  0.2237500E-009  0.4778727E+02  0.7816164E-02  0.1312668E+00
        -11   -1    0    0    0    0  0.00000000000E+00  0.00000000000E+00  0.45593999997E+02  0.45594000000E+02  0.51100000000E-03 0.  1.
         11   -1    0    0    0    0 -0.00000000000E+00 -0.00000000000E+00 -0.45593999997E+02  0.45594000000E+02  0.51100000000E-03 0. -1.
    9900012    2    1    2    0    0  0.39906678722E+02  0.36584544500E+00  0.17057154385E+02  0.47787269992E+02  0.19999995202E+02 0.  0.
         12    1    1    2    0    0 -0.39906678722E+02 -0.36584544500E+00 -0.17057154385E+02  0.43400730008E+02  0.00000000000E+00 0. -1.
         11    1    3    3    0    0  0.10223851684E+02 -0.74094579336E+01  0.81651843803E+01  0.15036537046E+02  0.51100000000E-03 0. -1.
        -11    1    3    3    0    0  0.65829177628E+00  0.45000668119E+00 -0.94939853199E+00  0.12398435020E+01  0.51100000000E-03 0.  1.
        -12    1    3    3    0    0  0.29024535262E+02  0.73252966974E+01  0.98413685362E+01  0.31510889444E+02  0.00000000000E+00 0.  1.
</event>
<event>
 7    1  0.2237500E-009  0.4778727E+02  0.7816164E-02  0.1312668E+00
        -11   -1    0    0    0    0  0.00000000000E+00  0.00000000000E+00  0.45593999997E+02  0.45594000000E+02  0.51100000000E-03 0.  1.
         11   -1    0    0    0    0 -0.00000000000E+00 -0.00000000000E+00 -0.45593999997E+02  0.45594000000E+02  0.51100000000E-03 0. -1.
    9900012    2    1    2    0    0  0.34485503423E+02  0.15274515562E+02 -0.21472365343E+02  0.47787271372E+02  0.20000001495E+02 0.  0.
         12    1    1    2    0    0 -0.34485503423E+02 -0.15274515562E+02  0.21472365343E+02  0.43400728628E+02  0.00000000000E+00 0. -1.
         11    1    3    3    0    0  0.17072996277E+02  0.11513714441E+02 -0.65363394400E+01  0.21605012280E+02  0.51100000000E-03 0. -1.
        -11    1    3    3    0    0  0.17806216862E+02  0.52223350102E+01 -0.10125165832E+02  0.21138900758E+02  0.51100000000E-03 0.  1.
         12    1    3    3    0    0 -0.39370971639E+00 -0.14615338887E+01 -0.48108600717E+01  0.50433583333E+01  0.00000000000E+00 0. -1.
</event>
<event>
 7    1  0.2237500E-009  0.4778727E+02  0.7816164E-02  0.1312668E+00
        -11   -1    0    0    0    0  0.00000000000E+00  0.00000000000E+00  0.45593999997E+02  0.45594000000E+02  0.51100000000E-03 0. -1.
         11   -1    0    0    0    0 -0.00000000000E+00 -0.00000000000E+00 -0.45593999997E+02  0.45594000000E+02  0.51100000000E-03 0.  1.
    9900012    2    1    2    0    0 -0.41208506986E+02  0.44505534895E+01  0.12871471571E+02  0.47787271264E+02  0.20000001003E+02 0.  0.
         12    1    1    2    0    0  0.41208506986E+02 -0.44505534895E+01 -0.12871471571E+02  0.43400728736E+02  0.00000000000E+00 0. -1.
         11    1    3    3    0    0 -0.58168453788E+01 -0.15197265977E+01  0.58905706498E+01  0.84168926531E+01  0.51100000000E-03 0. -1.
        -11    1    3    3    0    0  0.64495546634E+00  0.41170123687E+00 -0.17211478747E+01  0.18835646338E+01  0.51100000000E-03 0.  1.
        -12    1    3    3    0    0 -0.36036617074E+02  0.55585788504E+01  0.87020487956E+01  0.37486813978E+02  0.00000000000E+00 0.  1.
</event>
<event>
 7    1  0.2237500E-009  0.4778728E+02  0.7816164E-02  0.1312668E+00
        -11   -1    0    0    0    0  0.00000000000E+00  0.00000000000E+00  0.45593999997E+02  0.45594000000E+02  0.51100000000E-03 0.  1.
         11   -1    0    0    0    0 -0.00000000000E+00 -0.00000000000E+00 -0.45593999997E+02  0.45594000000E+02  0.51100000000E-03 0. -1.
    9900012    2    1    2    0    0  0.42802313005E+02  0.33088749319E+01 -0.63746460357E+01  0.47787276919E+02  0.20000026785E+02 0.  0.
         12    1    1    2    0    0 -0.42802313005E+02 -0.33088749319E+01  0.63746460357E+01  0.43400723081E+02  0.00000000000E+00 0. -1.
         11    1    3    3    0    0  0.20031501880E+01 -0.22306412189E+01  0.12809560819E+01  0.32602484059E+01  0.51100000000E-03 0. -1.
        -11    1    3    3    0    0  0.97451022470E+01  0.80103662071E+01 -0.87271954212E+00  0.12644944612E+02  0.51100000000E-03 0.  1.
        -12    1    3    3    0    0  0.31054060570E+02 -0.24708500563E+01 -0.67828825755E+01  0.31882083901E+02  0.00000000000E+00 0.  1.
</event>
<event>
 7    1  0.2237500E-009  0.4778726E+02  0.7816164E-02  0.1312668E+00
        -11   -1    0    0    0    0  0.00000000000E+00  0.00000000000E+00  0.45593999997E+02  0.45594000000E+02  0.51100000000E-03 0.  1.
         11   -1    0    0    0    0 -0.00000000000E+00 -0.00000000000E+00 -0.45593999997E+02  0.45594000000E+02  0.51100000000E-03 0. -1.
    9900012    2    1    2    0    0  0.30011189995E+00  0.41503866952E+02  0.12687110927E+02  0.47787264721E+02  0.19999971168E+02 0.  0.
         12    1    1    2    0    0 -0.30011189995E+00 -0.41503866952E+02 -0.12687110927E+02  0.43400735279E+02  0.00000000000E+00 0. -1.
         11    1    3    3    0    0  0.49039482933E+01  0.91834835900E+01 -0.16642579674E+01  0.10542999315E+02  0.51100000000E-03 0. -1.
        -11    1    3    3    0    0  0.10219356619E+01  0.21680027191E+02  0.57566594584E+01  0.22454555437E+02  0.51100000000E-03 0.  1.
        -12    1    3    3    0    0 -0.56257720552E+01  0.10640356170E+02  0.85947094364E+01  0.14789709968E+02  0.00000000000E+00 0.  1.
</event>
<event>
 7    1  0.2237500E-009  0.4778727E+02  0.7816164E-02  0.1312668E+00
        -11   -1    0    0    0    0  0.00000000000E+00  0.00000000000E+00  0.45593999997E+02  0.45594000000E+02  0.51100000000E-03 0.  1.
         11   -1    0    0    0    0 -0.00000000000E+00 -0.00000000000E+00 -0.45593999997E+02  0.45594000000E+02  0.51100000000E-03 0. -1.
    9900012    2    1    2    0    0  0.29849834632E+02  0.28037656411E+01 -0.31380714752E+02  0.47787274341E+02  0.20000015030E+02 0.  0.
         12    1    1    2    0    0 -0.29849834632E+02 -0.28037656411E+01  0.31380714752E+02  0.43400725659E+02  0.00000000000E+00 0. -1.
         11    1    3    3    0    0  0.27725006153E+01  0.49411332618E+01 -0.46746551838E+01  0.73453358617E+01  0.51100000000E-03 0. -1.
        -11    1    3    3    0    0  0.93395302625E+01  0.61718241426E+00 -0.18440500699E+02  0.20679937281E+02  0.51100000000E-03 0.  1.
         12    1    3    3    0    0  0.17737803755E+02 -0.27545500350E+01 -0.82655588697E+01  0.19762001198E+02  0.00000000000E+00 0. -1.
</event>
<event>
 7    1  0.2237500E-009  0.4778727E+02  0.7816164E-02  0.1312668E+00
        -11   -1    0    0    0    0  0.00000000000E+00  0.00000000000E+00  0.45593999997E+02  0.45594000000E+02  0.51100000000E-03 0. -1.
         11   -1    0    0    0    0 -0.00000000000E+00 -0.00000000000E+00 -0.45593999997E+02  0.45594000000E+02  0.51100000000E-03 0.  1.
    9900012    2    1    2    0    0 -0.27872655165E+02 -0.81110798095E+01 -0.32263738729E+02  0.47787270070E+02  0.19999995559E+02 0.  0.
         12    1    1    2    0    0  0.27872655165E+02  0.81110798095E+01  0.32263738729E+02  0.43400729930E+02  0.00000000000E+00 0. -1.
         11    1    3    3    0    0 -0.16590256562E+02  0.18111462629E+01 -0.15975230002E+02  0.23102485526E+02  0.51100000000E-03 0.  1.
        -11    1    3    3    0    0 -0.45469261353E+01 -0.27282021347E+01 -0.13406458512E+02  0.14417030008E+02  0.51100000000E-03 0. -1.
        -12    1    3    3    0    0 -0.67354724677E+01 -0.71940239377E+01 -0.28820502156E+01  0.10267754537E+02  0.00000000000E+00 0.  1.
</event>
<event>
 7    1  0.2237500E-009  0.4778728E+02  0.7816164E-02  0.1312668E+00
        -11   -1    0    0    0    0  0.00000000000E+00  0.00000000000E+00  0.45593999997E+02  0.45594000000E+02  0.51100000000E-03 0.  1.
         11   -1    0    0    0    0 -0.00000000000E+00 -0.00000000000E+00 -0.45593999997E+02  0.45594000000E+02  0.51100000000E-03 0. -1.
    9900012    2    1    2    0    0 -0.17506664577E+02  0.36759755473E+02  0.15028630644E+02  0.47787278046E+02  0.20000031925E+02 0.  0.
         12    1    1    2    0    0  0.17506664577E+02 -0.36759755473E+02 -0.15028630644E+02  0.43400721954E+02  0.00000000000E+00 0. -1.
         11    1    3    3    0    0 -0.39001615150E+01  0.16949918651E+02 -0.18436189363E+00  0.17393820503E+02  0.51100000000E-03 0. -1.
        -11    1    3    3    0    0 -0.35739813278E+01  0.14460112673E+02  0.95247788076E+01  0.17680203977E+02  0.51100000000E-03 0.  1.
         12    1    3    3    0    0 -0.10032521735E+02  0.53497241489E+01  0.56882137296E+01  0.12713253567E+02  0.00000000000E+00 0. -1.
</event>
<event>
 7    1  0.2237500E-009  0.4778729E+02  0.7816164E-02  0.1312668E+00
        -11   -1    0    0    0    0  0.00000000000E+00  0.00000000000E+00  0.45593999997E+02  0.45594000000E+02  0.51100000000E-03 0.  1.
         11   -1    0    0    0    0 -0.00000000000E+00 -0.00000000000E+00 -0.45593999997E+02  0.45594000000E+02  0.51100000000E-03 0. -1.
    9900012    2    1    2    0    0  0.93582395043E+01  0.13333350751E+01  0.42358793220E+02  0.47787288116E+02  0.20000077835E+02 0.  0.
         12    1    1    2    0    0 -0.93582395043E+01 -0.13333350751E+01 -0.42358793220E+02  0.43400711884E+02  0.00000000000E+00 0. -1.
         11    1    3    3    0    0 -0.20959476632E+01 -0.14701476778E+01  0.17654201670E+02  0.17838866771E+02  0.51100000000E-03 0. -1.
        -11    1    3    3    0    0  0.14894451769E+01 -0.39224545883E+01  0.30737885197E+01  0.52011799677E+01  0.51100000000E-03 0.  1.
         12    1    3    3    0    0  0.99647419906E+01  0.67259373412E+01  0.21630803029E+02  0.24747241377E+02  0.00000000000E+00 0. -1.
</event>
<event>
 7    1  0.2237500E-009  0.4778728E+02  0.7816164E-02  0.1312668E+00
        -11   -1    0    0    0    0  0.00000000000E+00  0.00000000000E+00  0.45593999997E+02  0.45594000000E+02  0.51100000000E-03 0.  1.
         11   -1    0    0    0    0 -0.00000000000E+00 -0.00000000000E+00 -0.45593999997E+02  0.45594000000E+02  0.51100000000E-03 0. -1.
    9900012    2    1    2    0    0 -0.21472988531E+02 -0.36111351931E+02  0.10885948007E+02  0.47787276057E+02  0.20000022856E+02 0.  0.
         12    1    1    2    0    0  0.21472988531E+02  0.36111351931E+02 -0.10885948007E+02  0.43400723943E+02  0.00000000000E+00 0. -1.
         11    1    3    3    0    0 -0.33361024111E+00 -0.45445454878E+00 -0.12733635493E+01  0.13925802381E+01  0.51100000000E-03 0. -1.
        -11    1    3    3    0    0 -0.21669401854E+02 -0.26316219404E+02  0.14012451035E+02  0.36857226764E+02  0.51100000000E-03 0.  1.
         12    1    3    3    0    0  0.53002356396E+00 -0.93406779777E+01 -0.18531394787E+01  0.95374690557E+01  0.00000000000E+00 0. -1.
</event>
<event>
 7    1  0.2237500E-009  0.4778728E+02  0.7816164E-02  0.1312668E+00
        -11   -1    0    0    0    0  0.00000000000E+00  0.00000000000E+00  0.45593999997E+02  0.45594000000E+02  0.51100000000E-03 0. -1.
         11   -1    0    0    0    0 -0.00000000000E+00 -0.00000000000E+00 -0.45593999997E+02  0.45594000000E+02  0.51100000000E-03 0.  1.
    9900012    2    1    2    0    0  0.12157274495E+02 -0.34035860326E+02 -0.24028811831E+02  0.47787275245E+02  0.20000019152E+02 0.  0.
         12    1    1    2    0    0 -0.12157274495E+02  0.34035860326E+02  0.24028811831E+02  0.43400724755E+02  0.00000000000E+00 0. -1.
         11    1    3    3    0    0  0.16100198305E+00 -0.98386199913E+01 -0.11702440570E+02  0.15289587324E+02  0.51100000000E-03 0.  1.
        -11    1    3    3    0    0  0.99490843390E+01 -0.23369500257E+02 -0.14626142121E+02  0.29309415809E+02  0.51100000000E-03 0. -1.
         12    1    3    3    0    0  0.20471881733E+01 -0.82774007718E+00  0.22997708601E+01  0.31882721122E+01  0.00000000000E+00 0. -1.
</event>
<event>
 7    1  0.2237500E-009  0.4778726E+02  0.7816164E-02  0.1312668E+00
        -11   -1    0    0    0    0  0.00000000000E+00  0.00000000000E+00  0.45593999997E+02  0.45594000000E+02  0.51100000000E-03 0.  1.
         11   -1    0    0    0    0 -0.00000000000E+00 -0.00000000000E+00 -0.45593999997E+02  0.45594000000E+02  0.51100000000E-03 0. -1.
    9900012    2    1    2    0    0  0.55446271115E+01 -0.42892447133E+02  0.36220322079E+01  0.47787262354E+02  0.19999960378E+02 0.  0.
         12    1    1    2    0    0 -0.55446271115E+01  0.42892447133E+02 -0.36220322079E+01  0.43400737646E+02  0.00000000000E+00 0. -1.
         11    1    3    3    0    0  0.52964422862E+01 -0.75227428784E+01 -0.82759743732E+00  0.92373632106E+01  0.51100000000E-03 0. -1.
        -11    1    3    3    0    0  0.30478000666E+01 -0.34818117612E+02  0.23940511496E+01  0.35033154018E+02  0.51100000000E-03 0.  1.
         12    1    3    3    0    0 -0.27996152414E+01 -0.55158664254E+00  0.20555784956E+01  0.35167451252E+01  0.00000000000E+00 0. -1.
</event>
<event>
 7    1  0.2237500E-009  0.4778727E+02  0.7816164E-02  0.1312668E+00
        -11   -1    0    0    0    0  0.00000000000E+00  0.00000000000E+00  0.45593999997E+02  0.45594000000E+02  0.51100000000E-03 0. -1.
         11   -1    0    0    0    0 -0.00000000000E+00 -0.00000000000E+00 -0.45593999997E+02  0.45594000000E+02  0.51100000000E-03 0.  1.
    9900012    2    1    2    0    0  0.20671994162E+02 -0.31992510200E+02 -0.20803148380E+02  0.47787273808E+02  0.20000012599E+02 0.  0.
         12    1    1    2    0    0 -0.20671994162E+02  0.31992510200E+02  0.20803148380E+02  0.43400726192E+02  0.00000000000E+00 0. -1.
         11    1    3    3    0    0  0.97555905307E+01 -0.27846047659E+01 -0.74072928807E+01  0.12561590599E+02  0.51100000000E-03 0. -1.
        -11    1    3    3    0    0  0.23503707482E+01 -0.84175976652E+01 -0.85444349102E+01  0.12222420436E+02  0.51100000000E-03 0.  1.
         12    1    3    3    0    0  0.85660328829E+01 -0.20790307769E+02 -0.48514205890E+01  0.23003262773E+02  0.00000000000E+00 0. -1.
</event>
<event>
 7    1  0.2237500E-009  0.4778727E+02  0.7816164E-02  0.1312668E+00
        -11   -1    0    0    0    0  0.00000000000E+00  0.00000000000E+00  0.45593999997E+02  0.45594000000E+02  0.51100000000E-03 0.  1.
         11   -1    0    0    0    0 -0.00000000000E+00 -0.00000000000E+00 -0.45593999997E+02  0.45594000000E+02  0.51100000000E-03 0. -1.
    9900012    2    1    2    0    0  0.16370121874E+02 -0.24439862610E+02  0.31911371070E+02  0.47787269843E+02  0.19999994523E+02 0.  0.
         12    1    1    2    0    0 -0.16370121874E+02  0.24439862610E+02 -0.31911371070E+02  0.43400730157E+02  0.00000000000E+00 0. -1.
         11    1    3    3    0    0  0.14467640048E+02 -0.19222423098E+02  0.20308562407E+02  0.31484152611E+02  0.51100000000E-03 0. -1.
        -11    1    3    3    0    0  0.56430379234E+01 -0.89012365542E+00  0.62801646301E+01  0.84897977107E+01  0.51100000000E-03 0.  1.
        -12    1    3    3    0    0 -0.37405560977E+01 -0.43273158571E+01  0.53226440329E+01  0.78133195217E+01  0.00000000000E+00 0.  1.
</event>
<event>
 7    1  0.2237500E-009  0.4778727E+02  0.7816164E-02  0.1312668E+00
        -11   -1    0    0    0    0  0.00000000000E+00  0.00000000000E+00  0.45593999997E+02  0.45594000000E+02  0.51100000000E-03 0.  1.
         11   -1    0    0    0    0 -0.00000000000E+00 -0.00000000000E+00 -0.45593999997E+02  0.45594000000E+02  0.51100000000E-03 0. -1.
    9900012    2    1    2    0    0 -0.87721368637E+01  0.28889773002E+02  0.31177780718E+02  0.47787269825E+02  0.19999994439E+02 0.  0.
         12    1    1    2    0    0  0.87721368637E+01 -0.28889773002E+02 -0.31177780718E+02  0.43400730175E+02  0.00000000000E+00 0. -1.
         11    1    3    3    0    0 -0.18966144401E+01  0.10616831548E+02  0.14361852332E+02  0.17960430427E+02  0.51100000000E-03 0. -1.
        -11    1    3    3    0    0 -0.16628063268E+01  0.16309586386E+02  0.17768060881E+02  0.24175845811E+02  0.51100000000E-03 0.  1.
         12    1    3    3    0    0 -0.52127160968E+01  0.19633550671E+01 -0.95213249460E+00  0.56509935863E+01  0.00000000000E+00 0. -1.
</event>
<event>
 7    1  0.2237500E-009  0.4778727E+02  0.7816164E-02  0.1312668E+00
        -11   -1    0    0    0    0  0.00000000000E+00  0.00000000000E+00  0.45593999997E+02  0.45594000000E+02  0.51100000000E-03 0. -1.
         11   -1    0    0    0    0 -0.00000000000E+00 -0.00000000000E+00 -0.45593999997E+02  0.45594000000E+02  0.51100000000E-03 0.  1.
    9900012    2    1    2    0    0  0.38273032004E+02  0.57083796083E+00 -0.20456591476E+02  0.47787274550E+02  0.20000015983E+02 0.  0.
         12    1    1    2    0    0 -0.38273032004E+02 -0.57083796083E+00  0.20456591476E+02  0.43400725450E+02  0.00000000000E+00 0. -1.
         11    1    3    3    0    0  0.26079489883E+02  0.18257843176E+01 -0.30114704069E+01  0.26316197203E+02  0.51100000000E-03 0. -1.
        -11    1    3    3    0    0  0.48079046039E+01 -0.18778134985E+00 -0.48535418428E+01  0.68343307790E+01  0.51100000000E-03 0.  1.
         12    1    3    3    0    0  0.73856375169E+01 -0.10671650069E+01 -0.12591579226E+02  0.14636746568E+02  0.00000000000E+00 0. -1.
</event>
<event>
 7    1  0.2237500E-009  0.4778727E+02  0.7816164E-02  0.1312668E+00
        -11   -1    0    0    0    0  0.00000000000E+00  0.00000000000E+00  0.45593999997E+02  0.45594000000E+02  0.51100000000E-03 0.  1.
         11   -1    0    0    0    0 -0.00000000000E+00 -0.00000000000E+00 -0.45593999997E+02  0.45594000000E+02  0.51100000000E-03 0. -1.
    9900012    2    1    2    0    0  0.39482066008E+02 -0.10313259297E+02  0.14779253676E+02  0.47787271978E+02  0.20000004258E+02 0.  0.
         12    1    1    2    0    0 -0.39482066008E+02  0.10313259297E+02 -0.14779253676E+02  0.43400728022E+02  0.00000000000E+00 0. -1.
         11    1    3    3    0    0  0.14147663191E+02 -0.27297230907E+01  0.58124967582E+01  0.15536823380E+02  0.51100000000E-03 0. -1.
        -11    1    3    3    0    0  0.94884889231E+01  0.19991530511E+01  0.97029462428E+01  0.13717696637E+02  0.51100000000E-03 0.  1.
         12    1    3    3    0    0  0.15845913894E+02 -0.95826892579E+01 -0.73618932534E+00  0.18532751962E+02  0.00000000000E+00 0. -1.
</event>
<event>
 7    1  0.2237500E-009  0.4778727E+02  0.7816164E-02  0.1312668E+00
        -11   -1    0    0    0    0  0.00000000000E+00  0.00000000000E+00  0.45593999997E+02  0.45594000000E+02  0.51100000000E-03 0.  1.
         11   -1    0    0    0    0 -0.00000000000E+00 -0.00000000000E+00 -0.45593999997E+02  0.45594000000E+02  0.51100000000E-03 0. -1.
    9900012    2    1    2    0    0  0.16494317521E+02 -0.40049839850E+02  0.27515690954E+01  0.47787270571E+02  0.19999997842E+02 0.  0.
         12    1    1    2    0    0 -0.16494317521E+02  0.40049839850E+02 -0.27515690954E+01  0.43400729429E+02  0.00000000000E+00 0. -1.
         11    1    3    3    0    0  0.31907518935E+01 -0.20949351272E+02  0.44107139506E+01  0.21645106010E+02  0.51100000000E-03 0. -1.
        -11    1    3    3    0    0  0.10358473324E+02 -0.20392631909E+02 -0.15194028515E+01  0.22923044978E+02  0.51100000000E-03 0.  1.
        -12    1    3    3    0    0  0.29450923029E+01  0.12921433313E+01 -0.13974200373E+00  0.32191195829E+01  0.00000000000E+00 0.  1.
</event>
<event>
 7    1  0.2237500E-009  0.4778728E+02  0.7816164E-02  0.1312668E+00
        -11   -1    0    0    0    0  0.00000000000E+00  0.00000000000E+00  0.45593999997E+02  0.45594000000E+02  0.51100000000E-03 0.  1.
         11   -1    0    0    0    0 -0.00000000000E+00 -0.00000000000E+00 -0.45593999997E+02  0.45594000000E+02  0.51100000000E-03 0. -1.
    9900012    2    1    2    0    0 -0.36673103204E+02  0.18981756815E+02 -0.13356618963E+02  0.47787275806E+02  0.20000021712E+02 0.  0.
         12    1    1    2    0    0  0.36673103204E+02 -0.18981756815E+02  0.13356618963E+02  0.43400724194E+02  0.00000000000E+00 0. -1.
         11    1    3    3    0    0 -0.41020460650E+01 -0.23793938024E+01 -0.95290469132E+00  0.48369747155E+01  0.51100000000E-03 0. -1.
        -11    1    3    3    0    0 -0.15171415628E+02  0.93656351396E+01  0.11122194884E+01  0.17864042268E+02  0.51100000000E-03 0.  1.
         12    1    3    3    0    0 -0.17399641512E+02  0.11995515478E+02 -0.13515933760E+02  0.25086258822E+02  0.00000000000E+00 0. -1.
</event>
<event>
 7    1  0.2237500E-009  0.4778728E+02  0.7816164E-02  0.1312668E+00
        -11   -1    0    0    0    0  0.00000000000E+00  0.00000000000E+00  0.45593999997E+02  0.45594000000E+02  0.51100000000E-03 0. -1.
         11   -1    0    0    0    0 -0.00000000000E+00 -0.00000000000E+00 -0.45593999997E+02  0.45594000000E+02  0.51100000000E-03 0.  1.
    9900012    2    1    2    0    0 -0.14360446274E+01  0.57340577926E+01 -0.42996293434E+02  0.47787275444E+02  0.20000020059E+02 0.  0.
         12    1    1    2    0    0  0.14360446274E+01 -0.57340577926E+01  0.42996293434E+02  0.43400724556E+02  0.00000000000E+00 0. -1.
         11    1    3    3    0    0 -0.14139235689E+01 -0.23104597484E+01 -0.37268349569E+01  0.46072446391E+01  0.51100000000E-03 0. -1.
        -11    1    3    3    0    0 -0.34621059585E+01 -0.12958917479E+01 -0.27580909485E+02  0.27827541777E+02  0.51100000000E-03 0.  1.
        -12    1    3    3    0    0  0.34399849000E+01  0.93404092889E+01 -0.11688548992E+02  0.15352489028E+02  0.00000000000E+00 0.  1.
</event>
<event>
 7    1  0.2237500E-009  0.4778727E+02  0.7816164E-02  0.1312668E+00
        -11   -1    0    0    0    0  0.00000000000E+00  0.00000000000E+00  0.45593999997E+02  0.45594000000E+02  0.51100000000E-03 0.  1.
         11   -1    0    0    0    0 -0.00000000000E+00 -0.00000000000E+00 -0.45593999997E+02  0.45594000000E+02  0.51100000000E-03 0. -1.
    9900012    2    1    2    0    0 -0.26626119442E+02 -0.83432758513E+00  0.34263346268E+02  0.47787271474E+02  0.20000001959E+02 0.  0.
         12    1    1    2    0    0  0.26626119442E+02  0.83432758513E+00 -0.34263346268E+02  0.43400728526E+02  0.00000000000E+00 0. -1.
         11    1    3    3    0    0  0.14090923800E+01  0.10964623954E+00  0.31374022543E+01  0.34410546057E+01  0.51100000000E-03 0.  1.
        -11    1    3    3    0    0 -0.44683742610E+01  0.45371357728E+01  0.11685603049E+02  0.13308091090E+02  0.51100000000E-03 0. -1.
        -12    1    3    3    0    0 -0.23566837561E+02 -0.54811095974E+01  0.19440340965E+02  0.31038125779E+02  0.00000000000E+00 0.  1.
</event>
<event>
 7    1  0.2237500E-009  0.4778727E+02  0.7816164E-02  0.1312668E+00
        -11   -1    0    0    0    0  0.00000000000E+00  0.00000000000E+00  0.45593999997E+02  0.45594000000E+02  0.51100000000E-03 0.  1.
         11   -1    0    0    0    0 -0.00000000000E+00 -0.00000000000E+00 -0.45593999997E+02  0.45594000000E+02  0.51100000000E-03 0. -1.
    9900012    2    1    2    0    0 -0.20515334894E+02 -0.37485823683E+02  0.75866557440E+01  0.47787270877E+02  0.19999999238E+02 0.  0.
         12    1    1    2    0    0  0.20515334894E+02  0.37485823683E+02 -0.75866557440E+01  0.43400729123E+02  0.00000000000E+00 0. -1.
         11    1    3    3    0    0  0.21494352973E+01 -0.90204160038E+01  0.12232593577E+01  0.93533064045E+01  0.51100000000E-03 0. -1.
        -11    1    3    3    0    0 -0.74142065890E+01 -0.16737921951E+02  0.46761185582E+00  0.18312486224E+02  0.51100000000E-03 0.  1.
         12    1    3    3    0    0 -0.15250563602E+02 -0.11727485728E+02  0.58957845305E+01  0.20121478249E+02  0.00000000000E+00 0. -1.
</event>
<event>
 7    1  0.2237500E-009  0.4778727E+02  0.7816164E-02  0.1312668E+00
        -11   -1    0    0    0    0  0.00000000000E+00  0.00000000000E+00  0.45593999997E+02  0.45594000000E+02  0.51100000000E-03 0.  1.
         11   -1    0    0    0    0 -0.00000000000E+00 -0.00000000000E+00 -0.45593999997E+02  0.45594000000E+02  0.51100000000E-03 0. -1.
    9900012    2    1    2    0    0 -0.34548038090E+02  0.21438937900E+02  0.15179875698E+02  0.47787267053E+02  0.19999981800E+02 0.  0.
         12    1    1    2    0    0  0.34548038090E+02 -0.21438937900E+02 -0.15179875698E+02  0.43400732947E+02  0.00000000000E+00 0. -1.
         11    1    3    3    0    0 -0.62540858881E+01  0.82515390880E+01  0.56800824535E+00  0.10369383841E+02  0.51100000000E-03 0. -1.
        -11    1    3    3    0    0 -0.16493358123E+02  0.15032373877E+02  0.76373731610E+01  0.23586703789E+02  0.51100000000E-03 0.  1.
        -12    1    3    3    0    0 -0.11800594078E+02 -0.18449750646E+01  0.69744942919E+01  0.13831179423E+02  0.00000000000E+00 0.  1.
</event>
<event>
 7    1  0.2237500E-009  0.4778727E+02  0.7816164E-02  0.1312668E+00
        -11   -1    0    0    0    0  0.00000000000E+00  0.00000000000E+00  0.45593999997E+02  0.45594000000E+02  0.51100000000E-03 0.  1.
         11   -1    0    0    0    0 -0.00000000000E+00 -0.00000000000E+00 -0.45593999997E+02  0.45594000000E+02  0.51100000000E-03 0. -1.
    9900012    2    1    2    0    0 -0.31042308577E+02 -0.42503794271E+00  0.30328498885E+02  0.47787269319E+02  0.19999992132E+02 0.  0.
         12    1    1    2    0    0  0.31042308577E+02  0.42503794271E+00 -0.30328498885E+02  0.43400730681E+02  0.00000000000E+00 0. -1.
         11    1    3    3    0    0 -0.21434630773E+02  0.74227871970E+01  0.17844959225E+02  0.28861457623E+02  0.51100000000E-03 0. -1.
        -11    1    3    3    0    0 -0.42167539086E+01 -0.20510515866E+01  0.71603855343E+00  0.47434731587E+01  0.51100000000E-03 0.  1.
         12    1    3    3    0    0 -0.53909238954E+01 -0.57967735531E+01  0.11767501107E+02  0.14182338537E+02  0.00000000000E+00 0. -1.
</event>
<event>
 7    1  0.2237500E-009  0.4778727E+02  0.7816164E-02  0.1312668E+00
        -11   -1    0    0    0    0  0.00000000000E+00  0.00000000000E+00  0.45593999997E+02  0.45594000000E+02  0.51100000000E-03 0.  1.
         11   -1    0    0    0    0 -0.00000000000E+00 -0.00000000000E+00 -0.45593999997E+02  0.45594000000E+02  0.51100000000E-03 0. -1.
    9900012    2    1    2    0    0 -0.19241610880E+02 -0.35100223296E+02  0.16773737451E+02  0.47787268062E+02  0.19999986400E+02 0.  0.
         12    1    1    2    0    0  0.19241610880E+02  0.35100223296E+02 -0.16773737451E+02  0.43400731938E+02  0.00000000000E+00 0. -1.
         11    1    3    3    0    0 -0.33910388104E+00 -0.50670232937E+01  0.38185315925E+01  0.63538099031E+01  0.51100000000E-03 0. -1.
        -11    1    3    3    0    0 -0.60444265870E+01 -0.20365678768E+02  0.13786246708E+02  0.25325018520E+02  0.51100000000E-03 0.  1.
         12    1    3    3    0    0 -0.12858080412E+02 -0.96675212343E+01 -0.83104084983E+00  0.16108439639E+02  0.00000000000E+00 0. -1.
</event>
<event>
 7    1  0.2237500E-009  0.4778726E+02  0.7816164E-02  0.1312668E+00
        -11   -1    0    0    0    0  0.00000000000E+00  0.00000000000E+00  0.45593999997E+02  0.45594000000E+02  0.51100000000E-03 0.  1.
         11   -1    0    0    0    0 -0.00000000000E+00 -0.00000000000E+00 -0.45593999997E+02  0.45594000000E+02  0.51100000000E-03 0. -1.
    9900012    2    1    2    0    0  0.30767912054E+02 -0.72319315575E+01  0.29743217413E+02  0.47787260049E+02  0.19999949866E+02 0.  0.
         12    1    1    2    0    0 -0.30767912054E+02  0.72319315575E+01 -0.29743217413E+02  0.43400739951E+02  0.00000000000E+00 0. -1.
         11    1    3    3    0    0  0.53122799616E+01  0.28935819606E+01  0.54678674219E+01  0.81541835494E+01  0.51100000000E-03 0. -1.
        -11    1    3    3    0    0  0.17366121700E+02  0.10677054571E+01  0.11805895983E+02  0.21026206459E+02  0.51100000000E-03 0.  1.
        -12    1    3    3    0    0  0.80895103925E+01 -0.11193218975E+02  0.12469454008E+02  0.18606870040E+02  0.00000000000E+00 0.  1.
</event>
<event>
 7    1  0.2237500E-009  0.4778725E+02  0.7816164E-02  0.1312668E+00
        -11   -1    0    0    0    0  0.00000000000E+00  0.00000000000E+00  0.45593999997E+02  0.45594000000E+02  0.51100000000E-03 0. -1.
         11   -1    0    0    0    0 -0.00000000000E+00 -0.00000000000E+00 -0.45593999997E+02  0.45594000000E+02  0.51100000000E-03 0.  1.
    9900012    2    1    2    0    0 -0.33862051574E+02  0.20464878501E+02 -0.17837461443E+02  0.47787253237E+02  0.19999918809E+02 0.  0.
         12    1    1    2    0    0  0.33862051574E+02 -0.20464878501E+02  0.17837461443E+02  0.43400746763E+02  0.00000000000E+00 0. -1.
         11    1    3    3    0    0 -0.24490119600E+02  0.12266812206E+02 -0.14191732416E+02  0.30848758629E+02  0.51100000000E-03 0. -1.
        -11    1    3    3    0    0 -0.70916524747E+01  0.92124002129E+01 -0.63595663069E+01  0.13251563545E+02  0.51100000000E-03 0.  1.
         12    1    3    3    0    0 -0.22802794989E+01 -0.10143339182E+01  0.27138372791E+01  0.36869310636E+01  0.00000000000E+00 0. -1.
</event>
<event>
 7    1  0.2237500E-009  0.4778727E+02  0.7816164E-02  0.1312668E+00
        -11   -1    0    0    0    0  0.00000000000E+00  0.00000000000E+00  0.45593999997E+02  0.45594000000E+02  0.51100000000E-03 0. -1.
         11   -1    0    0    0    0 -0.00000000000E+00 -0.00000000000E+00 -0.45593999997E+02  0.45594000000E+02  0.51100000000E-03 0.  1.
    9900012    2    1    2    0    0 -0.38737505156E+02  0.17740323252E+02  0.82649717731E+01  0.47787272665E+02  0.20000007387E+02 0.  0.
         12    1    1    2    0    0  0.38737505156E+02 -0.17740323252E+02 -0.82649717731E+01  0.43400727335E+02  0.00000000000E+00 0. -1.
         11    1    3    3    0    0 -0.15901696998E+02 -0.19882833633E+01  0.12622331168E+01  0.16075150726E+02  0.51100000000E-03 0. -1.
        -11    1    3    3    0    0 -0.11926539879E+02  0.62822283475E+01  0.16054847445E+01  0.13575210054E+02  0.51100000000E-03 0.  1.
         12    1    3    3    0    0 -0.10909268280E+02  0.13446378268E+02  0.53972539119E+01  0.18136911885E+02  0.00000000000E+00 0. -1.
</event>
<event>
 7    1  0.2237500E-009  0.4778727E+02  0.7816164E-02  0.1312668E+00
        -11   -1    0    0    0    0  0.00000000000E+00  0.00000000000E+00  0.45593999997E+02  0.45594000000E+02  0.51100000000E-03 0.  1.
         11   -1    0    0    0    0 -0.00000000000E+00 -0.00000000000E+00 -0.45593999997E+02  0.45594000000E+02  0.51100000000E-03 0. -1.
    9900012    2    1    2    0    0  0.40916986437E+02 -0.20102404560E+01  0.14331168438E+02  0.47787271497E+02  0.20000002062E+02 0.  0.
         12    1    1    2    0    0 -0.40916986437E+02  0.20102404560E+01 -0.14331168438E+02  0.43400728503E+02  0.00000000000E+00 0. -1.
         11    1    3    3    0    0  0.16905758058E+02  0.22148939342E+01  0.52527597899E+01  0.17841017245E+02  0.51100000000E-03 0. -1.
        -11    1    3    3    0    0  0.22132934364E+02 -0.24742049107E+01  0.12599873587E+02  0.25587991093E+02  0.51100000000E-03 0.  1.
         12    1    3    3    0    0  0.18782940153E+01 -0.17509294795E+01 -0.35214649384E+01  0.43582631589E+01  0.00000000000E+00 0. -1.
</event>
<event>
 7    1  0.2237500E-009  0.4778727E+02  0.7816164E-02  0.1312668E+00
        -11   -1    0    0    0    0  0.00000000000E+00  0.00000000000E+00  0.45593999997E+02  0.45594000000E+02  0.51100000000E-03 0.  1.
         11   -1    0    0    0    0 -0.00000000000E+00 -0.00000000000E+00 -0.45593999997E+02  0.45594000000E+02  0.51100000000E-03 0. -1.
    9900012    2    1    2    0    0 -0.33175709627E+02 -0.22274860356E+02 -0.16935947162E+02  0.47787269368E+02  0.19999992357E+02 0.  0.
         12    1    1    2    0    0  0.33175709627E+02  0.22274860356E+02  0.16935947162E+02  0.43400730632E+02  0.00000000000E+00 0. -1.
         11    1    3    3    0    0 -0.13666097345E+02 -0.85036606540E+01 -0.96336085254E+01  0.18758488069E+02  0.51100000000E-03 0. -1.
        -11    1    3    3    0    0 -0.20296217937E+02 -0.12980804113E+02 -0.10018749831E+02  0.26092395183E+02  0.51100000000E-03 0.  1.
         12    1    3    3    0    0  0.78660565535E+00 -0.79039558887E+00  0.27164111943E+01  0.29363861157E+01  0.00000000000E+00 0. -1.
</event>
<event>
 7    1  0.2237500E-009  0.4778727E+02  0.7816164E-02  0.1312668E+00
        -11   -1    0    0    0    0  0.00000000000E+00  0.00000000000E+00  0.45593999997E+02  0.45594000000E+02  0.51100000000E-03 0.  1.
         11   -1    0    0    0    0 -0.00000000000E+00 -0.00000000000E+00 -0.45593999997E+02  0.45594000000E+02  0.51100000000E-03 0. -1.
    9900012    2    1    2    0    0 -0.24584000421E+01 -0.29832818694E+02  0.31425826633E+02  0.47787269803E+02  0.19999994341E+02 0.  0.
         12    1    1    2    0    0  0.24584000421E+01  0.29832818694E+02 -0.31425826633E+02  0.43400730197E+02  0.00000000000E+00 0. -1.
         11    1    3    3    0    0 -0.22859467089E+01 -0.17804620640E+02  0.15337304463E+02  0.23610653886E+02  0.51100000000E-03 0. -1.
        -11    1    3    3    0    0 -0.37883593776E+01 -0.13514856833E+02  0.13589494326E+02  0.19536565161E+02  0.51100000000E-03 0.  1.
         12    1    3    3    0    0  0.36159060445E+01  0.14866587793E+01  0.24990278450E+01  0.46400507560E+01  0.00000000000E+00 0. -1.
</event>
<event>
 7    1  0.2237500E-009  0.4778727E+02  0.7816164E-02  0.1312668E+00
        -11   -1    0    0    0    0  0.00000000000E+00  0.00000000000E+00  0.45593999997E+02  0.45594000000E+02  0.51100000000E-03 0.  1.
         11   -1    0    0    0    0 -0.00000000000E+00 -0.00000000000E+00 -0.45593999997E+02  0.45594000000E+02  0.51100000000E-03 0. -1.
    9900012    2    1    2    0    0 -0.10652684247E+02  0.24878566921E+02  0.33929347401E+02  0.47787269721E+02  0.19999993965E+02 0.  0.
         12    1    1    2    0    0  0.10652684247E+02 -0.24878566921E+02 -0.33929347401E+02  0.43400730279E+02  0.00000000000E+00 0. -1.
         11    1    3    3    0    0  0.21866614221E+01 -0.79899198181E+00  0.77025542891E+01  0.80466899530E+01  0.51100000000E-03 0. -1.
        -11    1    3    3    0    0  0.40857063641E+00  0.65654603382E+01  0.64647154084E+01  0.92230550790E+01  0.51100000000E-03 0.  1.
        -12    1    3    3    0    0 -0.13247916306E+02  0.19112098565E+02  0.19762077703E+02  0.30517524689E+02  0.00000000000E+00 0.  1.
</event>
<event>
 7    1  0.2237500E-009  0.4778726E+02  0.7816164E-02  0.1312668E+00
        -11   -1    0    0    0    0  0.00000000000E+00  0.00000000000E+00  0.45593999997E+02  0.45594000000E+02  0.51100000000E-03 0. -1.
         11   -1    0    0    0    0 -0.00000000000E+00 -0.00000000000E+00 -0.45593999997E+02  0.45594000000E+02  0.51100000000E-03 0.  1.
    9900012    2    1    2    0    0 -0.19344476879E+01 -0.19703491161E+02 -0.38621946432E+02  0.47787258094E+02  0.19999940955E+02 0.  0.
         12    1    1    2    0    0  0.19344476879E+01  0.19703491161E+02  0.38621946432E+02  0.43400741906E+02  0.00000000000E+00 0. -1.
         11    1    3    3    0    0 -0.34964472822E+01  0.12572022086E+01 -0.15656274622E+01  0.40319834575E+01  0.51100000000E-03 0. -1.
        -11    1    3    3    0    0 -0.69757394779E+00 -0.34194189688E+01 -0.10576502382E+01  0.36465956431E+01  0.51100000000E-03 0.  1.
         12    1    3    3    0    0  0.22595735420E+01 -0.17541274400E+02 -0.35998668732E+02  0.40108678994E+02  0.00000000000E+00 0. -1.
</event>
<event>
 7    1  0.2237500E-009  0.4778727E+02  0.7816164E-02  0.1312668E+00
        -11   -1    0    0    0    0  0.00000000000E+00  0.00000000000E+00  0.45593999997E+02  0.45594000000E+02  0.51100000000E-03 0. -1.
         11   -1    0    0    0    0 -0.00000000000E+00 -0.00000000000E+00 -0.45593999997E+02  0.45594000000E+02  0.51100000000E-03 0.  1.
    9900012    2    1    2    0    0 -0.25684120172E+02 -0.17671944146E+02 -0.30193574069E+02  0.47787267818E+02  0.19999985288E+02 0.  0.
         12    1    1    2    0    0  0.25684120172E+02  0.17671944146E+02  0.30193574069E+02  0.43400732182E+02  0.00000000000E+00 0. -1.
         11    1    3    3    0    0  0.21492395452E-01 -0.17594112630E+01 -0.10564219123E+02  0.10709748637E+02  0.51100000000E-03 0.  1.
        -11    1    3    3    0    0 -0.84327722098E+01 -0.63408226444E+01 -0.22867503724E+01  0.10795689254E+02  0.51100000000E-03 0. -1.
        -12    1    3    3    0    0 -0.17272840358E+02 -0.95717102384E+01 -0.17342604573E+02  0.26281829927E+02  0.00000000000E+00 0.  1.
</event>
<event>
 7    1  0.2237500E-009  0.4778728E+02  0.7816164E-02  0.1312668E+00
        -11   -1    0    0    0    0  0.00000000000E+00  0.00000000000E+00  0.45593999997E+02  0.45594000000E+02  0.51100000000E-03 0.  1.
         11   -1    0    0    0    0 -0.00000000000E+00 -0.00000000000E+00 -0.45593999997E+02  0.45594000000E+02  0.51100000000E-03 0. -1.
    9900012    2    1    2    0    0 -0.29699925083E+02  0.57999753934E+01  0.31111051545E+02  0.47787276587E+02  0.20000025272E+02 0.  0.
         12    1    1    2    0    0  0.29699925083E+02 -0.57999753934E+01 -0.31111051545E+02  0.43400723413E+02  0.00000000000E+00 0. -1.
         11    1    3    3    0    0 -0.80425459889E+00  0.52471117443E+01  0.27803160669E+01  0.59924256199E+01  0.51100000000E-03 0. -1.
        -11    1    3    3    0    0 -0.94795213398E+01  0.54863272972E+00  0.16560722220E+02  0.19089783745E+02  0.51100000000E-03 0.  1.
         12    1    3    3    0    0 -0.19416149144E+02  0.42309194000E-02  0.11770013258E+02  0.22705067223E+02  0.00000000000E+00 0. -1.
</event>
<event>
 7    1  0.2520335E-009  0.4778727E+02  0.7816164E-02  0.1312668E+00
        -11   -1    0    0    0    0  0.00000000000E+00  0.00000000000E+00  0.45593999997E+02  0.45594000000E+02  0.51100000000E-03 0. -1.
         11   -1    0    0    0    0 -0.00000000000E+00 -0.00000000000E+00 -0.45593999997E+02  0.45594000000E+02  0.51100000000E-03 0.  1.
    9900012    2    1    2    0    0 -0.39767245047E+02 -0.91143570191E+01 -0.14802635004E+02  0.47787270909E+02  0.19999999385E+02 0.  0.
         12    1    1    2    0    0  0.39767245047E+02  0.91143570191E+01  0.14802635004E+02  0.43400729091E+02  0.00000000000E+00 0. -1.
         11    1    3    3    0    0 -0.69109743825E+01 -0.77130319371E+00  0.31285971703E+01  0.76252603921E+01  0.51100000000E-03 0. -1.
        -11    1    3    3    0    0 -0.18546206045E+02 -0.81550474914E+00 -0.44011058356E+01  0.19078693339E+02  0.51100000000E-03 0.  1.
        -12    1    3    3    0    0 -0.14310064619E+02 -0.75275490763E+01 -0.13530126339E+02  0.21083317179E+02  0.00000000000E+00 0.  1.
</event>
<event>
 7    1  0.2237500E-009  0.4778727E+02  0.7816164E-02  0.1312668E+00
        -11   -1    0    0    0    0  0.00000000000E+00  0.00000000000E+00  0.45593999997E+02  0.45594000000E+02  0.51100000000E-03 0.  1.
         11   -1    0    0    0    0 -0.00000000000E+00 -0.00000000000E+00 -0.45593999997E+02  0.45594000000E+02  0.51100000000E-03 0. -1.
    9900012    2    1    2    0    0  0.23921553549E+02  0.13095936551E+01  0.36189333845E+02  0.47787266782E+02  0.19999980564E+02 0.  0.
         12    1    1    2    0    0 -0.23921553549E+02 -0.13095936551E+01 -0.36189333845E+02  0.43400733218E+02  0.00000000000E+00 0. -1.
         11    1    3    3    0    0  0.94583876206E+01 -0.41204340223E-01  0.19731613927E+02  0.21881484927E+02  0.51100000000E-03 0. -1.
        -11    1    3    3    0    0  0.12239525188E+02  0.16201672026E+01  0.18910580072E+02  0.22584086378E+02  0.51100000000E-03 0.  1.
         12    1    3    3    0    0  0.22236407401E+01 -0.26936920728E+00 -0.24528601536E+01  0.33216954773E+01  0.00000000000E+00 0. -1.
</event>
<event>
 7    1  0.2237500E-009  0.4778727E+02  0.7816164E-02  0.1312668E+00
        -11   -1    0    0    0    0  0.00000000000E+00  0.00000000000E+00  0.45593999997E+02  0.45594000000E+02  0.51100000000E-03 0. -1.
         11   -1    0    0    0    0 -0.00000000000E+00 -0.00000000000E+00 -0.45593999997E+02  0.45594000000E+02  0.51100000000E-03 0.  1.
    9900012    2    1    2    0    0  0.14931177135E+01 -0.38633061337E+02 -0.19720057671E+02  0.47787268401E+02  0.19999987948E+02 0.  0.
         12    1    1    2    0    0 -0.14931177135E+01  0.38633061337E+02  0.19720057671E+02  0.43400731599E+02  0.00000000000E+00 0. -1.
         11    1    3    3    0    0  0.43748212728E+01 -0.20098020843E+01 -0.39502262782E+01  0.62275720387E+01  0.51100000000E-03 0. -1.
        -11    1    3    3    0    0  0.42272965419E+01 -0.16214380404E+02 -0.55330325748E+01  0.17646263561E+02  0.51100000000E-03 0.  1.
         12    1    3    3    0    0 -0.71090001012E+01 -0.20408878849E+02 -0.10236798818E+02  0.23913432802E+02  0.00000000000E+00 0. -1.
</event>
<event>
 7    1  0.2237500E-009  0.4778729E+02  0.7816164E-02  0.1312668E+00
        -11   -1    0    0    0    0  0.00000000000E+00  0.00000000000E+00  0.45593999997E+02  0.45594000000E+02  0.51100000000E-03 0.  1.
         11   -1    0    0    0    0 -0.00000000000E+00 -0.00000000000E+00 -0.45593999997E+02  0.45594000000E+02  0.51100000000E-03 0. -1.
    9900012    2    1    2    0    0  0.28132767422E+02 -0.28392145966E+01  0.32925796218E+02  0.47787288036E+02  0.20000077472E+02 0.  0.
         12    1    1    2    0    0 -0.28132767422E+02  0.28392145966E+01 -0.32925796218E+02  0.43400711964E+02  0.00000000000E+00 0. -1.
         11    1    3    3    0    0 -0.96360574946E+00  0.26586399046E-01  0.48540470863E+01  0.49488398898E+01  0.51100000000E-03 0. -1.
        -11    1    3    3    0    0  0.15146600738E+02  0.23411131470E+01  0.21876707968E+02  0.26711246255E+02  0.51100000000E-03 0.  1.
         12    1    3    3    0    0  0.13949772434E+02 -0.52069141426E+01  0.61950411635E+01  0.16127201892E+02  0.00000000000E+00 0. -1.
</event>
<event>
 7    1  0.2237500E-009  0.4778727E+02  0.7816164E-02  0.1312668E+00
        -11   -1    0    0    0    0  0.00000000000E+00  0.00000000000E+00  0.45593999997E+02  0.45594000000E+02  0.51100000000E-03 0.  1.
         11   -1    0    0    0    0 -0.00000000000E+00 -0.00000000000E+00 -0.45593999997E+02  0.45594000000E+02  0.51100000000E-03 0. -1.
    9900012    2    1    2    0    0 -0.34657866655E+02 -0.25097551630E+02 -0.72504113986E+01  0.47787270924E+02  0.19999999452E+02 0.  0.
         12    1    1    2    0    0  0.34657866655E+02  0.25097551630E+02  0.72504113986E+01  0.43400729076E+02  0.00000000000E+00 0. -1.
         11    1    3    3    0    0 -0.50301601530E+01 -0.99968108733E+01  0.16651840372E+01  0.11314220121E+02  0.51100000000E-03 0. -1.
        -11    1    3    3    0    0 -0.12579686128E+02 -0.47212734556E+01  0.22184627676E+01  0.13618388431E+02  0.51100000000E-03 0.  1.
        -12    1    3    3    0    0 -0.17048020373E+02 -0.10379467301E+02 -0.11134058204E+02  0.22854662373E+02  0.00000000000E+00 0.  1.
</event>
<event>
 7    1  0.2237500E-009  0.4778725E+02  0.7816164E-02  0.1312668E+00
        -11   -1    0    0    0    0  0.00000000000E+00  0.00000000000E+00  0.45593999997E+02  0.45594000000E+02  0.51100000000E-03 0.  1.
         11   -1    0    0    0    0 -0.00000000000E+00 -0.00000000000E+00 -0.45593999997E+02  0.45594000000E+02  0.51100000000E-03 0. -1.
    9900012    2    1    2    0    0  0.31243519119E+02 -0.27822781957E+02  0.11548171729E+02  0.47787251700E+02  0.19999911800E+02 0.  0.
         12    1    1    2    0    0 -0.31243519119E+02  0.27822781957E+02 -0.11548171729E+02  0.43400748300E+02  0.00000000000E+00 0. -1.
         11    1    3    3    0    0 -0.15290628698E+00  0.10146479997E+01 -0.21953817115E+01  0.24233431487E+01  0.51100000000E-03 0. -1.
        -11    1    3    3    0    0  0.11904670558E+01 -0.37370008156E+01  0.17905476552E+01  0.43114322532E+01  0.51100000000E-03 0.  1.
        -12    1    3    3    0    0  0.30205958350E+02 -0.25100429141E+02  0.11953005786E+02  0.41052476298E+02  0.00000000000E+00 0.  1.
</event>
<event>
 7    1  0.2237500E-009  0.4778727E+02  0.7816164E-02  0.1312668E+00
        -11   -1    0    0    0    0  0.00000000000E+00  0.00000000000E+00  0.45593999997E+02  0.45594000000E+02  0.51100000000E-03 0. -1.
         11   -1    0    0    0    0 -0.00000000000E+00 -0.00000000000E+00 -0.45593999997E+02  0.45594000000E+02  0.51100000000E-03 0.  1.
    9900012    2    1    2    0    0  0.20991703261E+02  0.18962385271E+01 -0.37939110152E+02  0.47787269529E+02  0.19999993089E+02 0.  0.
         12    1    1    2    0    0 -0.20991703261E+02 -0.18962385271E+01  0.37939110152E+02  0.43400730471E+02  0.00000000000E+00 0. -1.
         11    1    3    3    0    0  0.13396477567E+02  0.11084467068E+01 -0.23247599713E+02  0.26854146011E+02  0.51100000000E-03 0. -1.
        -11    1    3    3    0    0  0.35862539743E+00  0.47855029763E+01 -0.10753518687E+02  0.11775729927E+02  0.51100000000E-03 0.  1.
         12    1    3    3    0    0  0.72366002961E+01 -0.39977111560E+01 -0.39379917525E+01  0.91573935907E+01  0.00000000000E+00 0. -1.
</event>
<event>
 7    1  0.2237500E-009  0.4778730E+02  0.7816164E-02  0.1312668E+00
        -11   -1    0    0    0    0  0.00000000000E+00  0.00000000000E+00  0.45593999997E+02  0.45594000000E+02  0.51100000000E-03 0.  1.
         11   -1    0    0    0    0 -0.00000000000E+00 -0.00000000000E+00 -0.45593999997E+02  0.45594000000E+02  0.51100000000E-03 0. -1.
    9900012    2    1    2    0    0 -0.26635008495E+02 -0.11694377014E+02  0.32209299272E+02  0.47787296194E+02  0.20000114665E+02 0.  0.
         12    1    1    2    0    0  0.26635008495E+02  0.11694377014E+02 -0.32209299272E+02  0.43400703806E+02  0.00000000000E+00 0. -1.
         11    1    3    3    0    0 -0.38871563109E+01 -0.89538051277E+00 -0.57306235967E+00  0.40298996485E+01  0.51100000000E-03 0. -1.
        -11    1    3    3    0    0 -0.12970993978E+02  0.94388556636E+00  0.19892884699E+02  0.23766877511E+02  0.51100000000E-03 0.  1.
         12    1    3    3    0    0 -0.97768582064E+01 -0.11742882067E+02  0.12889476933E+02  0.19990519034E+02  0.00000000000E+00 0. -1.
</event>
<event>
 7    1  0.2237500E-009  0.4778725E+02  0.7816164E-02  0.1312668E+00
        -11   -1    0    0    0    0  0.00000000000E+00  0.00000000000E+00  0.45593999997E+02  0.45594000000E+02  0.51100000000E-03 0. -1.
         11   -1    0    0    0    0 -0.00000000000E+00 -0.00000000000E+00 -0.45593999997E+02  0.45594000000E+02  0.51100000000E-03 0.  1.
    9900012    2    1    2    0    0 -0.27074022298E+02 -0.31120905202E+02  0.13494874374E+02  0.47787250487E+02  0.19999906269E+02 0.  0.
         12    1    1    2    0    0  0.27074022298E+02  0.31120905202E+02 -0.13494874374E+02  0.43400749513E+02  0.00000000000E+00 0. -1.
         11    1    3    3    0    0 -0.36019351404E+01 -0.49322926486E+01 -0.94139727854E+00  0.61796178380E+01  0.51100000000E-03 0. -1.
        -11    1    3    3    0    0 -0.19274364741E+02 -0.12925970627E+02  0.26188016175E+01  0.23354656388E+02  0.51100000000E-03 0.  1.
         12    1    3    3    0    0 -0.41977224161E+01 -0.13262641926E+02  0.11817470035E+02  0.18252976261E+02  0.00000000000E+00 0. -1.
</event>
<event>
 7    1  0.2237500E-009  0.4778727E+02  0.7816164E-02  0.1312668E+00
        -11   -1    0    0    0    0  0.00000000000E+00  0.00000000000E+00  0.45593999997E+02  0.45594000000E+02  0.51100000000E-03 0.  1.
         11   -1    0    0    0    0 -0.00000000000E+00 -0.00000000000E+00 -0.45593999997E+02  0.45594000000E+02  0.51100000000E-03 0. -1.
    9900012    2    1    2    0    0  0.11105083660E+02  0.20025860997E+02  0.36868214686E+02  0.47787271366E+02  0.20000001468E+02 0.  0.
         12    1    1    2    0    0 -0.11105083660E+02 -0.20025860997E+02 -0.36868214686E+02  0.43400728634E+02  0.00000000000E+00 0. -1.
         11    1    3    3    0    0  0.18431205478E+01  0.62978537715E+01  0.81111497950E+01  0.10433159001E+02  0.51100000000E-03 0. -1.
        -11    1    3    3    0    0  0.65743438846E+00  0.11167260747E+02  0.25426844247E+02  0.27778847010E+02  0.51100000000E-03 0.  1.
         12    1    3    3    0    0  0.86045287240E+01  0.25607464793E+01  0.33302206438E+01  0.95752653556E+01  0.00000000000E+00 0. -1.
</event>
<event>
 7    1  0.2237500E-009  0.4778727E+02  0.7816164E-02  0.1312668E+00
        -11   -1    0    0    0    0  0.00000000000E+00  0.00000000000E+00  0.45593999997E+02  0.45594000000E+02  0.51100000000E-03 0.  1.
         11   -1    0    0    0    0 -0.00000000000E+00 -0.00000000000E+00 -0.45593999997E+02  0.45594000000E+02  0.51100000000E-03 0. -1.
    9900012    2    1    2    0    0  0.23846146923E+02 -0.79372529897E+01  0.35383397705E+02  0.47787267964E+02  0.19999985955E+02 0.  0.
         12    1    1    2    0    0 -0.23846146923E+02  0.79372529897E+01 -0.35383397705E+02  0.43400732036E+02  0.00000000000E+00 0. -1.
         11    1    3    3    0    0  0.18849017766E+02 -0.69978194331E-01  0.11466143694E+02  0.22062701991E+02  0.51100000000E-03 0. -1.
        -11    1    3    3    0    0  0.23560786776E+01 -0.23865406173E+01  0.74741195106E+01  0.81920171858E+01  0.51100000000E-03 0.  1.
         12    1    3    3    0    0  0.26410504796E+01 -0.54807341781E+01  0.16443134501E+02  0.17532548787E+02  0.00000000000E+00 0. -1.
</event>
<event>
 7    1  0.2237500E-009  0.4778727E+02  0.7816164E-02  0.1312668E+00
        -11   -1    0    0    0    0  0.00000000000E+00  0.00000000000E+00  0.45593999997E+02  0.45594000000E+02  0.51100000000E-03 0.  1.
         11   -1    0    0    0    0 -0.00000000000E+00 -0.00000000000E+00 -0.45593999997E+02  0.45594000000E+02  0.51100000000E-03 0. -1.
    9900012    2    1    2    0    0  0.23383906850E+02 -0.29384724321E+02  0.21756707258E+02  0.47787269204E+02  0.19999991607E+02 0.  0.
         12    1    1    2    0    0 -0.23383906850E+02  0.29384724321E+02 -0.21756707258E+02  0.43400730796E+02  0.00000000000E+00 0. -1.
         11    1    3    3    0    0 -0.38044408921E+00 -0.41555472090E+01  0.60801796903E+01  0.73744081551E+01  0.51100000000E-03 0. -1.
        -11    1    3    3    0    0  0.71303934930E-01 -0.57113653778E+01 -0.46493242913E+00  0.57307016285E+01  0.51100000000E-03 0.  1.
        -12    1    3    3    0    0  0.23693047004E+02 -0.19517811734E+02  0.16141459996E+02  0.34682159420E+02  0.00000000000E+00 0.  1.
</event>
<event>
 7    1  0.2237500E-009  0.4778729E+02  0.7816164E-02  0.1312668E+00
        -11   -1    0    0    0    0  0.00000000000E+00  0.00000000000E+00  0.45593999997E+02  0.45594000000E+02  0.51100000000E-03 0.  1.
         11   -1    0    0    0    0 -0.00000000000E+00 -0.00000000000E+00 -0.45593999997E+02  0.45594000000E+02  0.51100000000E-03 0. -1.
    9900012    2    1    2    0    0  0.13751551473E+02  0.70393431521E+01  0.40558162420E+02  0.47787285043E+02  0.20000063824E+02 0.  0.
         12    1    1    2    0    0 -0.13751551473E+02 -0.70393431521E+01 -0.40558162420E+02  0.43400714957E+02  0.00000000000E+00 0. -1.
         11    1    3    3    0    0  0.19903004816E+01  0.60344845106E+01  0.49891601363E+01  0.80788624473E+01  0.51100000000E-03 0. -1.
        -11    1    3    3    0    0  0.90826388663E+01  0.51468278295E+01  0.13343061858E+02  0.16941707868E+02  0.51100000000E-03 0.  1.
        -12    1    3    3    0    0  0.26786121255E+01 -0.41419691881E+01  0.22225940425E+02  0.22766714727E+02  0.00000000000E+00 0.  1.
</event>
<event>
 7    1  0.2714224E-009  0.4778727E+02  0.7816164E-02  0.1312668E+00
        -11   -1    0    0    0    0  0.00000000000E+00  0.00000000000E+00  0.45593999997E+02  0.45594000000E+02  0.51100000000E-03 0.  1.
         11   -1    0    0    0    0 -0.00000000000E+00 -0.00000000000E+00 -0.45593999997E+02  0.45594000000E+02  0.51100000000E-03 0. -1.
    9900012    2    1    2    0    0  0.39280378361E+02 -0.15152058332E+02 -0.10539940648E+02  0.47787270228E+02  0.19999996280E+02 0.  0.
         12    1    1    2    0    0 -0.39280378361E+02  0.15152058332E+02  0.10539940648E+02  0.43400729772E+02  0.00000000000E+00 0. -1.
         11    1    3    3    0    0  0.26494833667E+01 -0.63357128019E+01 -0.31749080668E+01  0.75657822010E+01  0.51100000000E-03 0. -1.
        -11    1    3    3    0    0  0.80449834445E+01 -0.35147385993E+01 -0.68635845780E+01  0.11143784795E+02  0.51100000000E-03 0.  1.
        -12    1    3    3    0    0  0.28585911549E+02 -0.53016069308E+01 -0.50144800277E+00  0.29077703232E+02  0.00000000000E+00 0.  1.
</event>
<event>
 7    1  0.2237500E-009  0.4778727E+02  0.7816164E-02  0.1312668E+00
        -11   -1    0    0    0    0  0.00000000000E+00  0.00000000000E+00  0.45593999997E+02  0.45594000000E+02  0.51100000000E-03 0.  1.
         11   -1    0    0    0    0 -0.00000000000E+00 -0.00000000000E+00 -0.45593999997E+02  0.45594000000E+02  0.51100000000E-03 0. -1.
    9900012    2    1    2    0    0 -0.40173041286E+02 -0.13495465792E+02  0.93606689464E+01  0.47787274589E+02  0.20000016159E+02 0.  0.
         12    1    1    2    0    0  0.40173041286E+02  0.13495465792E+02 -0.93606689464E+01  0.43400725411E+02  0.00000000000E+00 0. -1.
         11    1    3    3    0    0 -0.26402322954E+02 -0.11903954152E+01  0.46590691196E-01  0.26429185942E+02  0.51100000000E-03 0. -1.
        -11    1    3    3    0    0 -0.21772991489E+00 -0.20766800318E+01  0.22832568550E+00  0.21005092597E+01  0.51100000000E-03 0.  1.
         12    1    3    3    0    0 -0.13552988418E+02 -0.10228390345E+02  0.90857525697E+01  0.19257579387E+02  0.00000000000E+00 0. -1.
</event>
<event>
 7    1  0.2237500E-009  0.4778727E+02  0.7816164E-02  0.1312668E+00
        -11   -1    0    0    0    0  0.00000000000E+00  0.00000000000E+00  0.45593999997E+02  0.45594000000E+02  0.51100000000E-03 0. -1.
         11   -1    0    0    0    0 -0.00000000000E+00 -0.00000000000E+00 -0.45593999997E+02  0.45594000000E+02  0.51100000000E-03 0.  1.
    9900012    2    1    2    0    0 -0.26500841230E+01 -0.34983031270E+02  0.25549710368E+02  0.47787272787E+02  0.20000007947E+02 0.  0.
         12    1    1    2    0    0  0.26500841230E+01  0.34983031270E+02 -0.25549710368E+02  0.43400727213E+02  0.00000000000E+00 0. -1.
         11    1    3    3    0    0 -0.48161451855E+01 -0.13637614892E+02  0.18588835889E+02  0.23552592519E+02  0.51100000000E-03 0. -1.
        -11    1    3    3    0    0  0.21838721675E+01 -0.38660958248E+00  0.10777302290E+01  0.24658198071E+01  0.51100000000E-03 0.  1.
        -12    1    3    3    0    0 -0.17811105034E-01 -0.20958806795E+02  0.58831442502E+01  0.21768860461E+02  0.00000000000E+00 0.  1.
</event>
<event>
 7    1  0.2237500E-009  0.4778728E+02  0.7816164E-02  0.1312668E+00
        -11   -1    0    0    0    0  0.00000000000E+00  0.00000000000E+00  0.45593999997E+02  0.45594000000E+02  0.51100000000E-03 0.  1.
         11   -1    0    0    0    0 -0.00000000000E+00 -0.00000000000E+00 -0.45593999997E+02  0.45594000000E+02  0.51100000000E-03 0. -1.
    9900012    2    1    2    0    0  0.43532563037E+01 -0.40589693866E+02  0.14735966497E+02  0.47787276536E+02  0.20000025037E+02 0.  0.
         12    1    1    2    0    0 -0.43532563037E+01  0.40589693866E+02 -0.14735966497E+02  0.43400723464E+02  0.00000000000E+00 0. -1.
         11    1    3    3    0    0  0.37025094763E+01 -0.10581559897E+02  0.14027953940E+00  0.11211496996E+02  0.51100000000E-03 0. -1.
        -11    1    3    3    0    0  0.77207802699E+01 -0.18266403073E+02  0.87055614633E+01  0.21657763732E+02  0.51100000000E-03 0.  1.
         12    1    3    3    0    0 -0.70700334425E+01 -0.11741730896E+02  0.58901254946E+01  0.14918015808E+02  0.00000000000E+00 0. -1.
</event>
<event>
 7    1  0.2237500E-009  0.4778730E+02  0.7816164E-02  0.1312668E+00
        -11   -1    0    0    0    0  0.00000000000E+00  0.00000000000E+00  0.45593999997E+02  0.45594000000E+02  0.51100000000E-03 0.  1.
         11   -1    0    0    0    0 -0.00000000000E+00 -0.00000000000E+00 -0.45593999997E+02  0.45594000000E+02  0.51100000000E-03 0. -1.
    9900012    2    1    2    0    0  0.51105799243E+01 -0.21131587236E+02  0.37562725775E+02  0.47787304453E+02  0.20000152324E+02 0.  0.
         12    1    1    2    0    0 -0.51105799243E+01  0.21131587236E+02 -0.37562725775E+02  0.43400695547E+02  0.00000000000E+00 0. -1.
         11    1    3    3    0    0  0.68329428566E+00 -0.28875175251E+01 -0.18253136010E+01  0.34837362905E+01  0.51100000000E-03 0. -1.
        -11    1    3    3    0    0 -0.21934716604E+01 -0.48402672671E+01  0.11186509201E+02  0.12384566747E+02  0.51100000000E-03 0.  1.
         12    1    3    3    0    0  0.66207572991E+01 -0.13403802444E+02  0.28201530175E+02  0.31919001416E+02  0.00000000000E+00 0. -1.
</event>
<event>
 7    1  0.2237500E-009  0.4778727E+02  0.7816164E-02  0.1312668E+00
        -11   -1    0    0    0    0  0.00000000000E+00  0.00000000000E+00  0.45593999997E+02  0.45594000000E+02  0.51100000000E-03 0.  1.
         11   -1    0    0    0    0 -0.00000000000E+00 -0.00000000000E+00 -0.45593999997E+02  0.45594000000E+02  0.51100000000E-03 0. -1.
    9900012    2    1    2    0    0  0.18044343418E+01  0.72616309625E+01  0.42750860446E+02  0.47787270324E+02  0.19999996716E+02 0.  0.
         12    1    1    2    0    0 -0.18044343418E+01 -0.72616309625E+01 -0.42750860446E+02  0.43400729676E+02  0.00000000000E+00 0. -1.
         11    1    3    3    0    0  0.41352585545E+01 -0.21357690738E+01  0.35841165097E+01  0.58743309632E+01  0.51100000000E-03 0. -1.
        -11    1    3    3    0    0 -0.17416871406E+01 -0.24782372666E+01  0.76455589425E+01  0.82237282208E+01  0.51100000000E-03 0.  1.
         12    1    3    3    0    0 -0.58913707204E+00  0.11875637303E+02  0.31521184994E+02  0.33689211140E+02  0.00000000000E+00 0. -1.
</event>
<event>
 7    1  0.2237500E-009  0.4778727E+02  0.7816164E-02  0.1312668E+00
        -11   -1    0    0    0    0  0.00000000000E+00  0.00000000000E+00  0.45593999997E+02  0.45594000000E+02  0.51100000000E-03 0.  1.
         11   -1    0    0    0    0 -0.00000000000E+00 -0.00000000000E+00 -0.45593999997E+02  0.45594000000E+02  0.51100000000E-03 0. -1.
    9900012    2    1    2    0    0 -0.21060558263E+02 -0.29592918742E+02  0.23755739116E+02  0.47787273106E+02  0.20000009398E+02 0.  0.
         12    1    1    2    0    0  0.21060558263E+02  0.29592918742E+02 -0.23755739116E+02  0.43400726894E+02  0.00000000000E+00 0. -1.
         11    1    3    3    0    0 -0.17300168397E+01  0.12523903583E+01 -0.46492008466E+00  0.21857700751E+01  0.51100000000E-03 0.  1.
        -11    1    3    3    0    0 -0.75344255812E+01 -0.25044883785E+01  0.49827246765E+01  0.93737706575E+01  0.51100000000E-03 0. -1.
        -12    1    3    3    0    0 -0.11796115842E+02 -0.28340820722E+02  0.19237934524E+02  0.36227732373E+02  0.00000000000E+00 0.  1.
</event>
<event>
 7    1  0.2237500E-009  0.4778727E+02  0.7816164E-02  0.1312668E+00
        -11   -1    0    0    0    0  0.00000000000E+00  0.00000000000E+00  0.45593999997E+02  0.45594000000E+02  0.51100000000E-03 0.  1.
         11   -1    0    0    0    0 -0.00000000000E+00 -0.00000000000E+00 -0.45593999997E+02  0.45594000000E+02  0.51100000000E-03 0. -1.
    9900012    2    1    2    0    0  0.35431422554E+02  0.18927449290E+02  0.16431360280E+02  0.47787266809E+02  0.19999980690E+02 0.  0.
         12    1    1    2    0    0 -0.35431422554E+02 -0.18927449290E+02 -0.16431360280E+02  0.43400733191E+02  0.00000000000E+00 0. -1.
         11    1    3    3    0    0  0.12087867393E+02  0.12847352062E+02  0.14509668335E+02  0.22840785200E+02  0.51100000000E-03 0. -1.
        -11    1    3    3    0    0  0.11733769786E+02  0.46296075687E+01  0.36214234078E+01  0.13123617161E+02  0.51100000000E-03 0.  1.
         12    1    3    3    0    0  0.11609785376E+02  0.14504896597E+01 -0.16997314625E+01  0.11822864448E+02  0.00000000000E+00 0. -1.
</event>
<event>
 7    1  0.2237500E-009  0.4778727E+02  0.7816164E-02  0.1312668E+00
        -11   -1    0    0    0    0  0.00000000000E+00  0.00000000000E+00  0.45593999997E+02  0.45594000000E+02  0.51100000000E-03 0. -1.
         11   -1    0    0    0    0 -0.00000000000E+00 -0.00000000000E+00 -0.45593999997E+02  0.45594000000E+02  0.51100000000E-03 0.  1.
    9900012    2    1    2    0    0  0.27364138230E+02 -0.27277396811E+02 -0.19767923563E+02  0.47787271436E+02  0.20000001786E+02 0.  0.
         12    1    1    2    0    0 -0.27364138230E+02  0.27277396811E+02  0.19767923563E+02  0.43400728564E+02  0.00000000000E+00 0. -1.
         11    1    3    3    0    0  0.17152608961E+02 -0.80920193317E+01 -0.69808744771E+01  0.20209536851E+02  0.51100000000E-03 0. -1.
        -11    1    3    3    0    0  0.12134795440E+02 -0.16336391734E+02 -0.84279163585E+01  0.22026364423E+02  0.51100000000E-03 0.  1.
         12    1    3    3    0    0 -0.19232661709E+01 -0.28489857451E+01 -0.43591327276E+01  0.55513701621E+01  0.00000000000E+00 0. -1.
</event>
<event>
 7    1  0.2237500E-009  0.4778727E+02  0.7816164E-02  0.1312668E+00
        -11   -1    0    0    0    0  0.00000000000E+00  0.00000000000E+00  0.45593999997E+02  0.45594000000E+02  0.51100000000E-03 0.  1.
         11   -1    0    0    0    0 -0.00000000000E+00 -0.00000000000E+00 -0.45593999997E+02  0.45594000000E+02  0.51100000000E-03 0. -1.
    9900012    2    1    2    0    0  0.39078877349E+02 -0.14159429883E+02  0.12489000056E+02  0.47787271528E+02  0.20000002206E+02 0.  0.
         12    1    1    2    0    0 -0.39078877349E+02  0.14159429883E+02 -0.12489000056E+02  0.43400728472E+02  0.00000000000E+00 0. -1.
         11    1    3    3    0    0 -0.19305862592E+00 -0.14908247986E+00  0.10393503018E+01  0.10675891203E+01  0.51100000000E-03 0. -1.
        -11    1    3    3    0    0  0.13790488418E+02 -0.27799234458E+01  0.12548864408E+02  0.18851513026E+02  0.51100000000E-03 0.  1.
         12    1    3    3    0    0  0.25481447557E+02 -0.11230423957E+02 -0.10992146539E+01  0.27868169382E+02  0.00000000000E+00 0. -1.
</event>
<event>
 7    1  0.2237500E-009  0.4778727E+02  0.7816164E-02  0.1312668E+00
        -11   -1    0    0    0    0  0.00000000000E+00  0.00000000000E+00  0.45593999997E+02  0.45594000000E+02  0.51100000000E-03 0. -1.
         11   -1    0    0    0    0 -0.00000000000E+00 -0.00000000000E+00 -0.45593999997E+02  0.45594000000E+02  0.51100000000E-03 0.  1.
    9900012    2    1    2    0    0 -0.39447675404E+01  0.24451139214E+02 -0.35639915454E+02  0.47787274506E+02  0.20000015784E+02 0.  0.
         12    1    1    2    0    0  0.39447675404E+01 -0.24451139214E+02  0.35639915454E+02  0.43400725494E+02  0.00000000000E+00 0. -1.
         11    1    3    3    0    0  0.33813529043E+01  0.66519508874E+01 -0.63854514359E+01  0.98212009639E+01  0.51100000000E-03 0. -1.
        -11    1    3    3    0    0 -0.23974409813E+01  0.99972471418E+01 -0.26360956989E+02  0.28294747344E+02  0.51100000000E-03 0.  1.
         12    1    3    3    0    0 -0.49286794634E+01  0.78019411843E+01 -0.28935070299E+01  0.96713261980E+01  0.00000000000E+00 0. -1.
</event>
<event>
 7    1  0.2237500E-009  0.4778727E+02  0.7816164E-02  0.1312668E+00
        -11   -1    0    0    0    0  0.00000000000E+00  0.00000000000E+00  0.45593999997E+02  0.45594000000E+02  0.51100000000E-03 0.  1.
         11   -1    0    0    0    0 -0.00000000000E+00 -0.00000000000E+00 -0.45593999997E+02  0.45594000000E+02  0.51100000000E-03 0. -1.
    9900012    2    1    2    0    0 -0.10825020964E+02  0.96259585481E+01  0.40911895156E+02  0.47787270489E+02  0.19999997469E+02 0.  0.
         12    1    1    2    0    0  0.10825020964E+02 -0.96259585481E+01 -0.40911895156E+02  0.43400729511E+02  0.00000000000E+00 0. -1.
         11    1    3    3    0    0 -0.34468587051E+01 -0.25580018276E+01  0.13461090817E+02  0.14128877327E+02  0.51100000000E-03 0. -1.
        -11    1    3    3    0    0 -0.99166443741E+01  0.52463016154E+01  0.21182052893E+02  0.23969624138E+02  0.51100000000E-03 0.  1.
         12    1    3    3    0    0  0.25384821154E+01  0.69376587602E+01  0.62687514455E+01  0.96887690244E+01  0.00000000000E+00 0. -1.
</event>
<event>
 7    1  0.2237500E-009  0.4778727E+02  0.7816164E-02  0.1312668E+00
        -11   -1    0    0    0    0  0.00000000000E+00  0.00000000000E+00  0.45593999997E+02  0.45594000000E+02  0.51100000000E-03 0.  1.
         11   -1    0    0    0    0 -0.00000000000E+00 -0.00000000000E+00 -0.45593999997E+02  0.45594000000E+02  0.51100000000E-03 0. -1.
    9900012    2    1    2    0    0 -0.60444195373E+01 -0.28951898948E+01  0.42880137779E+02  0.47787270191E+02  0.19999996107E+02 0.  0.
         12    1    1    2    0    0  0.60444195373E+01  0.28951898948E+01 -0.42880137779E+02  0.43400729809E+02  0.00000000000E+00 0. -1.
         11    1    3    3    0    0 -0.78662477215E+00  0.54797750182E+01  0.23119297256E+02  0.23772854660E+02  0.51100000000E-03 0. -1.
        -11    1    3    3    0    0 -0.30174307835E+01 -0.26411823155E+01  0.81300216208E+00  0.40916629057E+01  0.51100000000E-03 0.  1.
        -12    1    3    3    0    0 -0.22403639816E+01 -0.57337825975E+01  0.18947838360E+02  0.19922752625E+02  0.00000000000E+00 0.  1.
</event>
<event>
 7    1  0.2237500E-009  0.4778727E+02  0.7816164E-02  0.1312668E+00
        -11   -1    0    0    0    0  0.00000000000E+00  0.00000000000E+00  0.45593999997E+02  0.45594000000E+02  0.51100000000E-03 0. -1.
         11   -1    0    0    0    0 -0.00000000000E+00 -0.00000000000E+00 -0.45593999997E+02  0.45594000000E+02  0.51100000000E-03 0.  1.
    9900012    2    1    2    0    0 -0.20129499685E+02 -0.38384468269E+02 -0.22491959308E+01  0.47787273691E+02  0.20000012065E+02 0.  0.
         12    1    1    2    0    0  0.20129499685E+02  0.38384468269E+02  0.22491959308E+01  0.43400726309E+02  0.00000000000E+00 0. -1.
         11    1    3    3    0    0 -0.39368148637E+01 -0.13283159547E+02  0.52517507364E+01  0.14816265551E+02  0.51100000000E-03 0. -1.
        -11    1    3    3    0    0 -0.14121160102E+00 -0.70329030291E+01  0.14790233134E+01  0.71881274304E+01  0.51100000000E-03 0.  1.
        -12    1    3    3    0    0 -0.16051473220E+02 -0.18068405693E+02 -0.89799699805E+01  0.25782880709E+02  0.00000000000E+00 0.  1.
</event>
<event>
 7    1  0.2237500E-009  0.4778726E+02  0.7816164E-02  0.1312668E+00
        -11   -1    0    0    0    0  0.00000000000E+00  0.00000000000E+00  0.45593999997E+02  0.45594000000E+02  0.51100000000E-03 0.  1.
         11   -1    0    0    0    0 -0.00000000000E+00 -0.00000000000E+00 -0.45593999997E+02  0.45594000000E+02  0.51100000000E-03 0. -1.
    9900012    2    1    2    0    0  0.32162517717E+02 -0.28672135362E+02  0.52062928797E+01  0.47787258328E+02  0.19999942022E+02 0.  0.
         12    1    1    2    0    0 -0.32162517717E+02  0.28672135362E+02 -0.52062928797E+01  0.43400741672E+02  0.00000000000E+00 0. -1.
         11    1    3    3    0    0  0.35642788598E+01 -0.74393587008E+01 -0.41155814295E+01  0.92187934369E+01  0.51100000000E-03 0. -1.
        -11    1    3    3    0    0  0.15311588197E+02 -0.13305148545E+02 -0.41249554763E+00  0.20288959159E+02  0.51100000000E-03 0.  1.
        -12    1    3    3    0    0  0.13286650660E+02 -0.79276281165E+01  0.97343698568E+01  0.18279505732E+02  0.00000000000E+00 0.  1.
</event>
<event>
 7    1  0.2237500E-009  0.4778727E+02  0.7816164E-02  0.1312668E+00
        -11   -1    0    0    0    0  0.00000000000E+00  0.00000000000E+00  0.45593999997E+02  0.45594000000E+02  0.51100000000E-03 0. -1.
         11   -1    0    0    0    0 -0.00000000000E+00 -0.00000000000E+00 -0.45593999997E+02  0.45594000000E+02  0.51100000000E-03 0.  1.
    9900012    2    1    2    0    0  0.17541205181E+02 -0.35872045286E+02  0.17003695323E+02  0.47787272278E+02  0.20000005623E+02 0.  0.
         12    1    1    2    0    0 -0.17541205181E+02  0.35872045286E+02 -0.17003695323E+02  0.43400727722E+02  0.00000000000E+00 0. -1.
         11    1    3    3    0    0 -0.14907624706E+01 -0.76203892791E+01  0.20821326677E+01  0.80391530783E+01  0.51100000000E-03 0. -1.
        -11    1    3    3    0    0  0.16819911517E+02 -0.23241566029E+02  0.60470417767E+01  0.29319729355E+02  0.51100000000E-03 0.  1.
         12    1    3    3    0    0  0.22120561345E+01 -0.50100899771E+01  0.88745208787E+01  0.10428389844E+02  0.00000000000E+00 0. -1.
</event>
<event>
 7    1  0.2237500E-009  0.4778727E+02  0.7816164E-02  0.1312668E+00
        -11   -1    0    0    0    0  0.00000000000E+00  0.00000000000E+00  0.45593999997E+02  0.45594000000E+02  0.51100000000E-03 0.  1.
         11   -1    0    0    0    0 -0.00000000000E+00 -0.00000000000E+00 -0.45593999997E+02  0.45594000000E+02  0.51100000000E-03 0. -1.
    9900012    2    1    2    0    0 -0.76403271366E+01  0.12249139646E+02  0.40929298211E+02  0.47787268752E+02  0.19999989549E+02 0.  0.
         12    1    1    2    0    0  0.76403271366E+01 -0.12249139646E+02 -0.40929298211E+02  0.43400731248E+02  0.00000000000E+00 0. -1.
         11    1    3    3    0    0  0.33718264967E+01  0.29220811402E+01  0.64213818145E+01  0.78193296888E+01  0.51100000000E-03 0. -1.
        -11    1    3    3    0    0 -0.31972441381E+01  0.10814115586E+02  0.25891807447E+02  0.28240983679E+02  0.51100000000E-03 0.  1.
         12    1    3    3    0    0 -0.78149094951E+01 -0.14870570809E+01  0.86161089491E+01  0.11726955385E+02  0.00000000000E+00 0. -1.
</event>
<event>
 7    1  0.2237500E-009  0.4778727E+02  0.7816164E-02  0.1312668E+00
        -11   -1    0    0    0    0  0.00000000000E+00  0.00000000000E+00  0.45593999997E+02  0.45594000000E+02  0.51100000000E-03 0.  1.
         11   -1    0    0    0    0 -0.00000000000E+00 -0.00000000000E+00 -0.45593999997E+02  0.45594000000E+02  0.51100000000E-03 0. -1.
    9900012    2    1    2    0    0  0.47364377661E+01  0.71035368077E+01  0.42552666034E+02  0.47787268848E+02  0.19999989988E+02 0.  0.
         12    1    1    2    0    0 -0.47364377661E+01 -0.71035368077E+01 -0.42552666034E+02  0.43400731152E+02  0.00000000000E+00 0. -1.
         11    1    3    3    0    0 -0.38658102721E+00  0.20774165083E+01 -0.90966918379E+00  0.23005656967E+01  0.51100000000E-03 0. -1.
        -11    1    3    3    0    0  0.17268593370E+01  0.78987806077E+01  0.19412619842E+02  0.21029089083E+02  0.51100000000E-03 0.  1.
         12    1    3    3    0    0  0.33961594564E+01 -0.28726603083E+01  0.24049715376E+02  0.24457614069E+02  0.00000000000E+00 0. -1.
</event>
<event>
 7    1  0.2237500E-009  0.4778729E+02  0.7816164E-02  0.1312668E+00
        -11   -1    0    0    0    0  0.00000000000E+00  0.00000000000E+00  0.45593999997E+02  0.45594000000E+02  0.51100000000E-03 0.  1.
         11   -1    0    0    0    0 -0.00000000000E+00 -0.00000000000E+00 -0.45593999997E+02  0.45594000000E+02  0.51100000000E-03 0. -1.
    9900012    2    1    2    0    0 -0.33893291130E+02 -0.25801299616E+02 -0.83162075232E+01  0.47787290869E+02  0.20000090390E+02 0.  0.
         12    1    1    2    0    0  0.33893291130E+02  0.25801299616E+02  0.83162075232E+01  0.43400709131E+02  0.00000000000E+00 0. -1.
         11    1    3    3    0    0  0.97367732722E+00 -0.19361733020E+01 -0.15342638703E+01  0.26553305779E+01  0.51100000000E-03 0. -1.
        -11    1    3    3    0    0  0.10597068191E+01 -0.17154502967E+01  0.94133979239E+00  0.22252795619E+01  0.51100000000E-03 0.  1.
        -12    1    3    3    0    0 -0.35926675276E+02 -0.22149676017E+02 -0.77232834453E+01  0.42906680730E+02  0.00000000000E+00 0.  1.
</event>
<event>
 7    1  0.2237500E-009  0.4778727E+02  0.7816164E-02  0.1312668E+00
        -11   -1    0    0    0    0  0.00000000000E+00  0.00000000000E+00  0.45593999997E+02  0.45594000000E+02  0.51100000000E-03 0.  1.
         11   -1    0    0    0    0 -0.00000000000E+00 -0.00000000000E+00 -0.45593999997E+02  0.45594000000E+02  0.51100000000E-03 0. -1.
    9900012    2    1    2    0    0 -0.11031913812E+02 -0.84269084043E+01  0.41120644646E+02  0.47787270471E+02  0.19999997383E+02 0.  0.
         12    1    1    2    0    0  0.11031913812E+02  0.84269084043E+01 -0.41120644646E+02  0.43400729529E+02  0.00000000000E+00 0. -1.
         11    1    3    3    0    0 -0.95471248942E+01 -0.40013161475E+01  0.30541314873E+02  0.32247946277E+02  0.51100000000E-03 0. -1.
        -11    1    3    3    0    0 -0.30523307629E+01 -0.24000488233E+01  0.11998521386E+02  0.12611164623E+02  0.51100000000E-03 0.  1.
         12    1    3    3    0    0  0.15675418447E+01 -0.20255434334E+01 -0.14191916132E+01  0.29281595705E+01  0.00000000000E+00 0. -1.
</event>
<event>
 7    1  0.2237500E-009  0.4778727E+02  0.7816164E-02  0.1312668E+00
        -11   -1    0    0    0    0  0.00000000000E+00  0.00000000000E+00  0.45593999997E+02  0.45594000000E+02  0.51100000000E-03 0.  1.
         11   -1    0    0    0    0 -0.00000000000E+00 -0.00000000000E+00 -0.45593999997E+02  0.45594000000E+02  0.51100000000E-03 0. -1.
    9900012    2    1    2    0    0 -0.15732571278E+02 -0.31566978549E+01  0.40325483230E+02  0.47787272609E+02  0.20000007131E+02 0.  0.
         12    1    1    2    0    0  0.15732571278E+02  0.31566978549E+01 -0.40325483230E+02  0.43400727391E+02  0.00000000000E+00 0. -1.
         11    1    3    3    0    0 -0.27499190155E+01 -0.18967943237E+01  0.14606132109E+01  0.36459943104E+01  0.51100000000E-03 0. -1.
        -11    1    3    3    0    0 -0.58979085657E+01  0.70706013756E+01  0.23853809142E+02  0.25569179497E+02  0.51100000000E-03 0.  1.
         12    1    3    3    0    0 -0.70847436966E+01 -0.83305049068E+01  0.15011060877E+02  0.18572098802E+02  0.00000000000E+00 0. -1.
</event>
<event>
 7    1  0.2237500E-009  0.4778727E+02  0.7816164E-02  0.1312668E+00
        -11   -1    0    0    0    0  0.00000000000E+00  0.00000000000E+00  0.45593999997E+02  0.45594000000E+02  0.51100000000E-03 0. -1.
         11   -1    0    0    0    0 -0.00000000000E+00 -0.00000000000E+00 -0.45593999997E+02  0.45594000000E+02  0.51100000000E-03 0.  1.
    9900012    2    1    2    0    0  0.39428545718E+02  0.22210048521E+01 -0.18002229535E+02  0.47787270188E+02  0.19999996094E+02 0.  0.
         12    1    1    2    0    0 -0.39428545718E+02 -0.22210048521E+01  0.18002229535E+02  0.43400729812E+02  0.00000000000E+00 0. -1.
         11    1    3    3    0    0  0.30499228765E+02  0.72392988614E+01 -0.11566249085E+02  0.33412400713E+02  0.51100000000E-03 0.  1.
        -11    1    3    3    0    0  0.23083098466E+01  0.14888920795E+01  0.49302444586E+00  0.27907288184E+01  0.51100000000E-03 0. -1.
        -12    1    3    3    0    0  0.66210071071E+01 -0.65071860887E+01 -0.69290048956E+01  0.11584140656E+02  0.00000000000E+00 0.  1.
</event>
<event>
 7    1  0.2237500E-009  0.4778726E+02  0.7816164E-02  0.1312668E+00
        -11   -1    0    0    0    0  0.00000000000E+00  0.00000000000E+00  0.45593999997E+02  0.45594000000E+02  0.51100000000E-03 0.  1.
         11   -1    0    0    0    0 -0.00000000000E+00 -0.00000000000E+00 -0.45593999997E+02  0.45594000000E+02  0.51100000000E-03 0. -1.
    9900012    2    1    2    0    0 -0.18522384660E+02 -0.23636014772E+02  0.31335031437E+02  0.47787261263E+02  0.19999955401E+02 0.  0.
         12    1    1    2    0    0  0.18522384660E+02  0.23636014772E+02 -0.31335031437E+02  0.43400738737E+02  0.00000000000E+00 0. -1.
         11    1    3    3    0    0 -0.67226596258E+01 -0.62241262595E+01  0.11492843939E+01  0.92333501514E+01  0.51100000000E-03 0. -1.
        -11    1    3    3    0    0 -0.99186811494E+01 -0.73747690012E+01  0.98744421433E+01  0.15819989300E+02  0.51100000000E-03 0.  1.
         12    1    3    3    0    0 -0.18810438849E+01 -0.10037119511E+02  0.20311304899E+02  0.22733921811E+02  0.00000000000E+00 0. -1.
</event>
<event>
 7    1  0.2237500E-009  0.4778727E+02  0.7816164E-02  0.1312668E+00
        -11   -1    0    0    0    0  0.00000000000E+00  0.00000000000E+00  0.45593999997E+02  0.45594000000E+02  0.51100000000E-03 0.  1.
         11   -1    0    0    0    0 -0.00000000000E+00 -0.00000000000E+00 -0.45593999997E+02  0.45594000000E+02  0.51100000000E-03 0. -1.
    9900012    2    1    2    0    0  0.32802469530E+02  0.28391935854E+02  0.12326066942E+01  0.47787270190E+02  0.19999996104E+02 0.  0.
         12    1    1    2    0    0 -0.32802469530E+02 -0.28391935854E+02 -0.12326066942E+01  0.43400729810E+02  0.00000000000E+00 0. -1.
         11    1    3    3    0    0  0.10204547751E+01  0.30699264819E+01 -0.35886672186E+01  0.48315948940E+01  0.51100000000E-03 0. -1.
        -11    1    3    3    0    0  0.11948263044E+02  0.72649070127E+01  0.77269890130E+01  0.15976427108E+02  0.51100000000E-03 0.  1.
         12    1    3    3    0    0  0.19833751710E+02  0.18057102360E+02 -0.29057151002E+01  0.26979248188E+02  0.00000000000E+00 0. -1.
</event>
<event>
 7    1  0.2237500E-009  0.4778727E+02  0.7816164E-02  0.1312668E+00
        -11   -1    0    0    0    0  0.00000000000E+00  0.00000000000E+00  0.45593999997E+02  0.45594000000E+02  0.51100000000E-03 0.  1.
         11   -1    0    0    0    0 -0.00000000000E+00 -0.00000000000E+00 -0.45593999997E+02  0.45594000000E+02  0.51100000000E-03 0. -1.
    9900012    2    1    2    0    0  0.39177551250E+02  0.17754142464E+02  0.57908133009E+01  0.47787267112E+02  0.19999982069E+02 0.  0.
         12    1    1    2    0    0 -0.39177551250E+02 -0.17754142464E+02 -0.57908133009E+01  0.43400732888E+02  0.00000000000E+00 0. -1.
         11    1    3    3    0    0  0.27526904977E+01  0.44805900901E+01 -0.29723567555E+01  0.60405212916E+01  0.51100000000E-03 0. -1.
        -11    1    3    3    0    0  0.37681838701E+01  0.11029127414E+01  0.54802848332E+01  0.67415983496E+01  0.51100000000E-03 0.  1.
        -12    1    3    3    0    0  0.32656676882E+02  0.12170639632E+02  0.32828852233E+01  0.35005147470E+02  0.00000000000E+00 0.  1.
</event>
<event>
 7    1  0.2237500E-009  0.4778728E+02  0.7816164E-02  0.1312668E+00
        -11   -1    0    0    0    0  0.00000000000E+00  0.00000000000E+00  0.45593999997E+02  0.45594000000E+02  0.51100000000E-03 0.  1.
         11   -1    0    0    0    0 -0.00000000000E+00 -0.00000000000E+00 -0.45593999997E+02  0.45594000000E+02  0.51100000000E-03 0. -1.
    9900012    2    1    2    0    0  0.87236549467E+01 -0.38793310645E+02  0.17395377195E+02  0.47787282792E+02  0.20000053560E+02 0.  0.
         12    1    1    2    0    0 -0.87236549467E+01  0.38793310645E+02 -0.17395377195E+02  0.43400717208E+02  0.00000000000E+00 0. -1.
         11    1    3    3    0    0 -0.26673679003E+01 -0.12637831362E+02  0.43332285433E+01  0.13623747756E+02  0.51100000000E-03 0. -1.
        -11    1    3    3    0    0  0.24987055271E+01 -0.12046880348E+02  0.12407894827E+02  0.17473600365E+02  0.51100000000E-03 0.  1.
        -12    1    3    3    0    0  0.88923173199E+01 -0.14108598935E+02  0.65425382510E+00  0.16689934670E+02  0.00000000000E+00 0.  1.
</event>
<event>
 7    1  0.2237500E-009  0.4778727E+02  0.7816164E-02  0.1312668E+00
        -11   -1    0    0    0    0  0.00000000000E+00  0.00000000000E+00  0.45593999997E+02  0.45594000000E+02  0.51100000000E-03 0. -1.
         11   -1    0    0    0    0 -0.00000000000E+00 -0.00000000000E+00 -0.45593999997E+02  0.45594000000E+02  0.51100000000E-03 0.  1.
    9900012    2    1    2    0    0  0.75897743736E+01 -0.10189717939E+02 -0.41499260682E+02  0.47787266551E+02  0.19999979514E+02 0.  0.
         12    1    1    2    0    0 -0.75897743736E+01  0.10189717939E+02  0.41499260682E+02  0.43400733449E+02  0.00000000000E+00 0. -1.
         11    1    3    3    0    0  0.56802453291E+01 -0.82828018341E+01 -0.83349781282E+01  0.13051507724E+02  0.51100000000E-03 0. -1.
        -11    1    3    3    0    0 -0.33202708347E+01  0.14191880449E+01 -0.73661617822E+01  0.82035743908E+01  0.51100000000E-03 0.  1.
        -12    1    3    3    0    0  0.52297998792E+01 -0.33261041499E+01 -0.25798120772E+02  0.26532184436E+02  0.00000000000E+00 0.  1.
</event>
<event>
 7    1  0.2237500E-009  0.4778725E+02  0.7816164E-02  0.1312668E+00
        -11   -1    0    0    0    0  0.00000000000E+00  0.00000000000E+00  0.45593999997E+02  0.45594000000E+02  0.51100000000E-03 0.  1.
         11   -1    0    0    0    0 -0.00000000000E+00 -0.00000000000E+00 -0.45593999997E+02  0.45594000000E+02  0.51100000000E-03 0. -1.
    9900012    2    1    2    0    0  0.29665738928E+02 -0.31511947111E+02  0.32505945742E+01  0.47787248372E+02  0.19999896625E+02 0.  0.
         12    1    1    2    0    0 -0.29665738928E+02  0.31511947111E+02 -0.32505945742E+01  0.43400751628E+02  0.00000000000E+00 0. -1.
         11    1    3    3    0    0  0.46186429784E+01 -0.11479442343E+02  0.13403669449E+01  0.12446125633E+02  0.51100000000E-03 0. -1.
        -11    1    3    3    0    0  0.14742360186E+02 -0.16116662883E+02  0.73534023982E+01  0.23046833480E+02  0.51100000000E-03 0.  1.
        -12    1    3    3    0    0  0.10304735763E+02 -0.39158418844E+01 -0.54431747688E+01  0.12294289259E+02  0.00000000000E+00 0.  1.
</event>
<event>
 7    1  0.2237500E-009  0.4778727E+02  0.7816164E-02  0.1312668E+00
        -11   -1    0    0    0    0  0.00000000000E+00  0.00000000000E+00  0.45593999997E+02  0.45594000000E+02  0.51100000000E-03 0. -1.
         11   -1    0    0    0    0 -0.00000000000E+00 -0.00000000000E+00 -0.45593999997E+02  0.45594000000E+02  0.51100000000E-03 0.  1.
    9900012    2    1    2    0    0  0.40210226492E+02 -0.12390660876E+01 -0.16285764155E+02  0.47787265981E+02  0.19999976914E+02 0.  0.
         12    1    1    2    0    0 -0.40210226492E+02  0.12390660876E+01  0.16285764155E+02  0.43400734019E+02  0.00000000000E+00 0. -1.
         11    1    3    3    0    0  0.40155456654E+01 -0.36124420455E+01  0.27709100279E+01  0.60706084676E+01  0.51100000000E-03 0. -1.
        -11    1    3    3    0    0  0.81943079938E+01  0.32137673360E+01 -0.23905180562E+01  0.91208311477E+01  0.51100000000E-03 0.  1.
        -12    1    3    3    0    0  0.28000372832E+02 -0.84039137808E+00 -0.16666156127E+02  0.32595826366E+02  0.00000000000E+00 0.  1.
</event>
<event>
 7    1  0.2237500E-009  0.4778727E+02  0.7816164E-02  0.1312668E+00
        -11   -1    0    0    0    0  0.00000000000E+00  0.00000000000E+00  0.45593999997E+02  0.45594000000E+02  0.51100000000E-03 0. -1.
         11   -1    0    0    0    0 -0.00000000000E+00 -0.00000000000E+00 -0.45593999997E+02  0.45594000000E+02  0.51100000000E-03 0.  1.
    9900012    2    1    2    0    0  0.16602465164E+02  0.39029044620E+02 -0.92040788552E+01  0.47787271423E+02  0.20000001724E+02 0.  0.
         12    1    1    2    0    0 -0.16602465164E+02 -0.39029044620E+02  0.92040788552E+01  0.43400728577E+02  0.00000000000E+00 0. -1.
         11    1    3    3    0    0  0.56083428460E+01  0.71525829301E+00 -0.21079190295E+01  0.60339395754E+01  0.51100000000E-03 0. -1.
        -11    1    3    3    0    0 -0.15755099766E+01  0.26117027451E+01  0.65013848256E+00  0.31186380397E+01  0.51100000000E-03 0.  1.
        -12    1    3    3    0    0  0.12569632294E+02  0.35702083582E+02 -0.77462983083E+01  0.38634693807E+02  0.00000000000E+00 0.  1.
</event>
<event>
 7    1  0.2237500E-009  0.4778726E+02  0.7816164E-02  0.1312668E+00
        -11   -1    0    0    0    0  0.00000000000E+00  0.00000000000E+00  0.45593999997E+02  0.45594000000E+02  0.51100000000E-03 0.  1.
         11   -1    0    0    0    0 -0.00000000000E+00 -0.00000000000E+00 -0.45593999997E+02  0.45594000000E+02  0.51100000000E-03 0. -1.
    9900012    2    1    2    0    0 -0.48228282576E+01  0.17384028489E+02  0.39473540428E+02  0.47787256771E+02  0.19999934922E+02 0.  0.
         12    1    1    2    0    0  0.48228282576E+01 -0.17384028489E+02 -0.39473540428E+02  0.43400743229E+02  0.00000000000E+00 0. -1.
         11    1    3    3    0    0  0.37491162361E+00  0.86952123655E+01  0.16132244884E+02  0.18330210093E+02  0.51100000000E-03 0.  1.
        -11    1    3    3    0    0 -0.96125911810E+01  0.84164470130E+01  0.13087651330E+02  0.18290027532E+02  0.51100000000E-03 0. -1.
         12    1    3    3    0    0  0.44148512998E+01  0.27236911094E+00  0.10253644214E+02  0.11167019146E+02  0.00000000000E+00 0. -1.
</event>
<event>
 7    1  0.2237500E-009  0.4778727E+02  0.7816164E-02  0.1312668E+00
        -11   -1    0    0    0    0  0.00000000000E+00  0.00000000000E+00  0.45593999997E+02  0.45594000000E+02  0.51100000000E-03 0. -1.
         11   -1    0    0    0    0 -0.00000000000E+00 -0.00000000000E+00 -0.45593999997E+02  0.45594000000E+02  0.51100000000E-03 0.  1.
    9900012    2    1    2    0    0 -0.16303862217E+02 -0.14058345231E+02 -0.37685145095E+02  0.47787272418E+02  0.20000006261E+02 0.  0.
         12    1    1    2    0    0  0.16303862217E+02  0.14058345231E+02  0.37685145095E+02  0.43400727582E+02  0.00000000000E+00 0. -1.
         11    1    3    3    0    0 -0.57549719673E+01 -0.59118289376E+01 -0.24144927102E+02  0.25515621270E+02  0.51100000000E-03 0. -1.
        -11    1    3    3    0    0 -0.68550100394E+01 -0.34691862830E+01 -0.14329882445E+02  0.16259518666E+02  0.51100000000E-03 0.  1.
         12    1    3    3    0    0 -0.36938802103E+01 -0.46773300106E+01  0.78966445176E+00  0.60121324821E+01  0.00000000000E+00 0. -1.
</event>
<event>
 7    1  0.2237500E-009  0.4778727E+02  0.7816164E-02  0.1312668E+00
        -11   -1    0    0    0    0  0.00000000000E+00  0.00000000000E+00  0.45593999997E+02  0.45594000000E+02  0.51100000000E-03 0.  1.
         11   -1    0    0    0    0 -0.00000000000E+00 -0.00000000000E+00 -0.45593999997E+02  0.45594000000E+02  0.51100000000E-03 0. -1.
    9900012    2    1    2    0    0  0.13831914393E+02 -0.15883731831E+02  0.37947444113E+02  0.47787270658E+02  0.19999998239E+02 0.  0.
         12    1    1    2    0    0 -0.13831914393E+02  0.15883731831E+02 -0.37947444113E+02  0.43400729342E+02  0.00000000000E+00 0. -1.
         11    1    3    3    0    0 -0.55146835710E+00 -0.13407469447E+00  0.59152809449E+01  0.59424441344E+01  0.51100000000E-03 0.  1.
        -11    1    3    3    0    0 -0.10184336426E+01 -0.10634180773E+02  0.13344116731E+02  0.17093520977E+02  0.51100000000E-03 0. -1.
         12    1    3    3    0    0  0.15401816393E+02 -0.51154763635E+01  0.18688046438E+02  0.24751305547E+02  0.00000000000E+00 0. -1.
</event>
<event>
 7    1  0.2237500E-009  0.4778727E+02  0.7816164E-02  0.1312668E+00
        -11   -1    0    0    0    0  0.00000000000E+00  0.00000000000E+00  0.45593999997E+02  0.45594000000E+02  0.51100000000E-03 0. -1.
         11   -1    0    0    0    0 -0.00000000000E+00 -0.00000000000E+00 -0.45593999997E+02  0.45594000000E+02  0.51100000000E-03 0.  1.
    9900012    2    1    2    0    0 -0.29969822471E+02 -0.75052413773E+01 -0.30481213371E+02  0.47787271025E+02  0.19999999910E+02 0.  0.
         12    1    1    2    0    0  0.29969822471E+02  0.75052413773E+01  0.30481213371E+02  0.43400728975E+02  0.00000000000E+00 0. -1.
         11    1    3    3    0    0 -0.17905976305E+01 -0.16013743289E+01 -0.76857198926E+00  0.25221702519E+01  0.51100000000E-03 0. -1.
        -11    1    3    3    0    0  0.72959052992E+00 -0.16728286201E+01 -0.96550586387E+01  0.98260274532E+01  0.51100000000E-03 0.  1.
        -12    1    3    3    0    0 -0.28908815370E+02 -0.42310384283E+01 -0.20057582743E+02  0.35439073320E+02  0.00000000000E+00 0.  1.
</event>
<event>
 7    1  0.2237500E-009  0.4778727E+02  0.7816164E-02  0.1312668E+00
        -11   -1    0    0    0    0  0.00000000000E+00  0.00000000000E+00  0.45593999997E+02  0.45594000000E+02  0.51100000000E-03 0.  1.
         11   -1    0    0    0    0 -0.00000000000E+00 -0.00000000000E+00 -0.45593999997E+02  0.45594000000E+02  0.51100000000E-03 0. -1.
    9900012    2    1    2    0    0  0.13157894292E+02 -0.32453331786E+02  0.25637363801E+02  0.47787270181E+02  0.19999996062E+02 0.  0.
         12    1    1    2    0    0 -0.13157894292E+02  0.32453331786E+02 -0.25637363801E+02  0.43400729819E+02  0.00000000000E+00 0. -1.
         11    1    3    3    0    0 -0.15084692957E+01 -0.82504054531E+00  0.34639923798E+01  0.38672231622E+01  0.51100000000E-03 0. -1.
        -11    1    3    3    0    0  0.36766648754E+01 -0.20134933595E+02  0.18522002171E+02  0.27604310898E+02  0.51100000000E-03 0.  1.
        -12    1    3    3    0    0  0.10989698712E+02 -0.11493357645E+02  0.36513692499E+01  0.16315736120E+02  0.00000000000E+00 0.  1.
</event>
<event>
 7    1  0.2237500E-009  0.4778727E+02  0.7816164E-02  0.1312668E+00
        -11   -1    0    0    0    0  0.00000000000E+00  0.00000000000E+00  0.45593999997E+02  0.45594000000E+02  0.51100000000E-03 0. -1.
         11   -1    0    0    0    0 -0.00000000000E+00 -0.00000000000E+00 -0.45593999997E+02  0.45594000000E+02  0.51100000000E-03 0.  1.
    9900012    2    1    2    0    0  0.74415808904E+01 -0.42018197300E+02 -0.79194264222E+01  0.47787270221E+02  0.19999996246E+02 0.  0.
         12    1    1    2    0    0 -0.74415808904E+01  0.42018197300E+02  0.79194264222E+01  0.43400729779E+02  0.00000000000E+00 0. -1.
         11    1    3    3    0    0  0.49640506327E+01 -0.26693011924E+02  0.90138107849E-01  0.27150815999E+02  0.51100000000E-03 0. -1.
        -11    1    3    3    0    0 -0.47993759581E+00 -0.15980519426E+02 -0.68356464747E+01  0.17387737180E+02  0.51100000000E-03 0.  1.
         12    1    3    3    0    0  0.29574678535E+01  0.65533405058E+00 -0.11739180554E+01  0.32487170426E+01  0.00000000000E+00 0. -1.
</event>
<event>
 7    1  0.2237500E-009  0.4778727E+02  0.7816164E-02  0.1312668E+00
        -11   -1    0    0    0    0  0.00000000000E+00  0.00000000000E+00  0.45593999997E+02  0.45594000000E+02  0.51100000000E-03 0.  1.
         11   -1    0    0    0    0 -0.00000000000E+00 -0.00000000000E+00 -0.45593999997E+02  0.45594000000E+02  0.51100000000E-03 0. -1.
    9900012    2    1    2    0    0  0.95854633949E+01  0.30200461248E+02  0.29659298600E+02  0.47787274643E+02  0.20000016406E+02 0.  0.
         12    1    1    2    0    0 -0.95854633949E+01 -0.30200461248E+02 -0.29659298600E+02  0.43400725357E+02  0.00000000000E+00 0. -1.
         11    1    3    3    0    0  0.19666486584E+01  0.18111800324E+02  0.56109505259E+01  0.19062732857E+02  0.51100000000E-03 0. -1.
        -11    1    3    3    0    0  0.12997110143E+01  0.76678291373E+01  0.96786044820E+01  0.12416128115E+02  0.51100000000E-03 0.  1.
         12    1    3    3    0    0  0.63191037222E+01  0.44208317875E+01  0.14369743592E+02  0.16308413670E+02  0.00000000000E+00 0. -1.
</event>
<event>
 7    1  0.2237500E-009  0.4778727E+02  0.7816164E-02  0.1312668E+00
        -11   -1    0    0    0    0  0.00000000000E+00  0.00000000000E+00  0.45593999997E+02  0.45594000000E+02  0.51100000000E-03 0.  1.
         11   -1    0    0    0    0 -0.00000000000E+00 -0.00000000000E+00 -0.45593999997E+02  0.45594000000E+02  0.51100000000E-03 0. -1.
    9900012    2    1    2    0    0 -0.25719954299E+02 -0.10424513192E+02  0.33368198122E+02  0.47787272238E+02  0.20000005441E+02 0.  0.
         12    1    1    2    0    0  0.25719954299E+02  0.10424513192E+02 -0.33368198122E+02  0.43400727762E+02  0.00000000000E+00 0. -1.
         11    1    3    3    0    0 -0.82307462962E+01  0.17767599491E+01  0.93794517322E+01  0.12604609298E+02  0.51100000000E-03 0. -1.
        -11    1    3    3    0    0 -0.28562795221E+01 -0.52044873275E+01  0.16073251241E+02  0.17134597362E+02  0.51100000000E-03 0.  1.
         12    1    3    3    0    0 -0.14632928480E+02 -0.69967858135E+01  0.79154951487E+01  0.18048065577E+02  0.00000000000E+00 0. -1.
</event>
<event>
 7    1  0.2237500E-009  0.4778727E+02  0.7816164E-02  0.1312668E+00
        -11   -1    0    0    0    0  0.00000000000E+00  0.00000000000E+00  0.45593999997E+02  0.45594000000E+02  0.51100000000E-03 0.  1.
         11   -1    0    0    0    0 -0.00000000000E+00 -0.00000000000E+00 -0.45593999997E+02  0.45594000000E+02  0.51100000000E-03 0. -1.
    9900012    2    1    2    0    0 -0.70629418379E+01 -0.24946632239E+02  0.34805225863E+02  0.47787270112E+02  0.19999995748E+02 0.  0.
         12    1    1    2    0    0  0.70629418379E+01  0.24946632239E+02 -0.34805225863E+02  0.43400729888E+02  0.00000000000E+00 0. -1.
         11    1    3    3    0    0 -0.34665656222E+00 -0.15933461960E+01  0.68970856308E+01  0.70872218346E+01  0.51100000000E-03 0. -1.
        -11    1    3    3    0    0 -0.36985002279E+01 -0.24785454618E+02  0.19823826681E+02  0.31952805340E+02  0.51100000000E-03 0.  1.
         12    1    3    3    0    0 -0.30177850478E+01  0.14321685744E+01  0.80843135506E+01  0.87472429374E+01  0.00000000000E+00 0. -1.
</event>
<event>
 7    1  0.2237500E-009  0.4778727E+02  0.7816164E-02  0.1312668E+00
        -11   -1    0    0    0    0  0.00000000000E+00  0.00000000000E+00  0.45593999997E+02  0.45594000000E+02  0.51100000000E-03 0.  1.
         11   -1    0    0    0    0 -0.00000000000E+00 -0.00000000000E+00 -0.45593999997E+02  0.45594000000E+02  0.51100000000E-03 0. -1.
    9900012    2    1    2    0    0 -0.11718502506E+02  0.11287906651E+02  0.40235348342E+02  0.47787269663E+02  0.19999993703E+02 0.  0.
         12    1    1    2    0    0  0.11718502506E+02 -0.11287906651E+02 -0.40235348342E+02  0.43400730337E+02  0.00000000000E+00 0. -1.
         11    1    3    3    0    0 -0.93131060833E+01  0.86419997012E+01  0.12934253436E+02  0.18130444450E+02  0.51100000000E-03 0. -1.
        -11    1    3    3    0    0 -0.50551225786E+01 -0.22860659110E+01  0.95594590432E+01  0.11052765224E+02  0.51100000000E-03 0.  1.
        -12    1    3    3    0    0  0.26497261556E+01  0.49319728611E+01  0.17741635863E+02  0.18604059989E+02  0.00000000000E+00 0.  1.
</event>
<event>
 7    1  0.2237500E-009  0.4778727E+02  0.7816164E-02  0.1312668E+00
        -11   -1    0    0    0    0  0.00000000000E+00  0.00000000000E+00  0.45593999997E+02  0.45594000000E+02  0.51100000000E-03 0.  1.
         11   -1    0    0    0    0 -0.00000000000E+00 -0.00000000000E+00 -0.45593999997E+02  0.45594000000E+02  0.51100000000E-03 0. -1.
    9900012    2    1    2    0    0 -0.28678292860E+02 -0.24827102675E+02  0.21090145049E+02  0.47787265827E+02  0.19999976210E+02 0.  0.
         12    1    1    2    0    0  0.28678292860E+02  0.24827102675E+02 -0.21090145049E+02  0.43400734173E+02  0.00000000000E+00 0. -1.
         11    1    3    3    0    0 -0.27950521062E+01 -0.10691523583E+02  0.25961186390E+01  0.11351688203E+02  0.51100000000E-03 0. -1.
        -11    1    3    3    0    0 -0.17030644272E+02 -0.13342884947E+02  0.90055223662E+01  0.23434480075E+02  0.51100000000E-03 0.  1.
        -12    1    3    3    0    0 -0.88525964819E+01 -0.79269414405E+00  0.94885040435E+01  0.13001097548E+02  0.00000000000E+00 0.  1.
</event>
<event>
 7    1  0.2237500E-009  0.4778727E+02  0.7816164E-02  0.1312668E+00
        -11   -1    0    0    0    0  0.00000000000E+00  0.00000000000E+00  0.45593999997E+02  0.45594000000E+02  0.51100000000E-03 0.  1.
         11   -1    0    0    0    0 -0.00000000000E+00 -0.00000000000E+00 -0.45593999997E+02  0.45594000000E+02  0.51100000000E-03 0. -1.
    9900012    2    1    2    0    0  0.24022795140E+02  0.35419017245E+02  0.72126147859E+01  0.47787270963E+02  0.19999999628E+02 0.  0.
         12    1    1    2    0    0 -0.24022795140E+02 -0.35419017245E+02 -0.72126147859E+01  0.43400729037E+02  0.00000000000E+00 0. -1.
         11    1    3    3    0    0  0.86901000490E+01  0.10596035870E+02  0.20807469713E+01  0.13860855790E+02  0.51100000000E-03 0. -1.
        -11    1    3    3    0    0  0.85175634610E+01  0.71629025253E+01  0.93468088280E+01  0.14533371785E+02  0.51100000000E-03 0.  1.
         12    1    3    3    0    0  0.68151316301E+01  0.17660078850E+02 -0.42149410135E+01  0.19393043388E+02  0.00000000000E+00 0. -1.
</event>
<event>
 7    1  0.2237500E-009  0.4778727E+02  0.7816164E-02  0.1312668E+00
        -11   -1    0    0    0    0  0.00000000000E+00  0.00000000000E+00  0.45593999997E+02  0.45594000000E+02  0.51100000000E-03 0.  1.
         11   -1    0    0    0    0 -0.00000000000E+00 -0.00000000000E+00 -0.45593999997E+02  0.45594000000E+02  0.51100000000E-03 0. -1.
    9900012    2    1    2    0    0  0.32286589316E+02  0.14029563219E+02  0.25384468305E+02  0.47787265848E+02  0.19999976308E+02 0.  0.
         12    1    1    2    0    0 -0.32286589316E+02 -0.14029563219E+02 -0.25384468305E+02  0.43400734152E+02  0.00000000000E+00 0. -1.
         11    1    3    3    0    0 -0.11720799515E+01 -0.47632127781E+00  0.35680660485E+01  0.37857296469E+01  0.51100000000E-03 0. -1.
        -11    1    3    3    0    0  0.18057008773E+02  0.13827762471E+02  0.11867446049E+02  0.25653437523E+02  0.51100000000E-03 0.  1.
         12    1    3    3    0    0  0.15401660495E+02  0.67812202614E+00  0.99489562081E+01  0.18348098678E+02  0.00000000000E+00 0. -1.
</event>
<event>
 7    1  0.2237500E-009  0.4778727E+02  0.7816164E-02  0.1312668E+00
        -11   -1    0    0    0    0  0.00000000000E+00  0.00000000000E+00  0.45593999997E+02  0.45594000000E+02  0.51100000000E-03 0.  1.
         11   -1    0    0    0    0 -0.00000000000E+00 -0.00000000000E+00 -0.45593999997E+02  0.45594000000E+02  0.51100000000E-03 0. -1.
    9900012    2    1    2    0    0  0.15053569775E+01  0.22818857473E+02  0.36887081369E+02  0.47787272726E+02  0.20000007668E+02 0.  0.
         12    1    1    2    0    0 -0.15053569775E+01 -0.22818857473E+02 -0.36887081369E+02  0.43400727274E+02  0.00000000000E+00 0. -1.
         11    1    3    3    0    0 -0.63982755551E+01  0.12065243242E+02  0.96747529848E+01  0.16736453332E+02  0.51100000000E-03 0. -1.
        -11    1    3    3    0    0  0.85773217886E+00  0.64245189552E+01  0.14536271492E+02  0.15915820351E+02  0.51100000000E-03 0.  1.
         12    1    3    3    0    0  0.70459003537E+01  0.43290952759E+01  0.12676056892E+02  0.15134999043E+02  0.00000000000E+00 0. -1.
</event>
<event>
 7    1  0.2237500E-009  0.4778727E+02  0.7816164E-02  0.1312668E+00
        -11   -1    0    0    0    0  0.00000000000E+00  0.00000000000E+00  0.45593999997E+02  0.45594000000E+02  0.51100000000E-03 0.  1.
         11   -1    0    0    0    0 -0.00000000000E+00 -0.00000000000E+00 -0.45593999997E+02  0.45594000000E+02  0.51100000000E-03 0. -1.
    9900012    2    1    2    0    0 -0.27646172288E+02 -0.24363399118E+02  0.22928958823E+02  0.47787271764E+02  0.20000003280E+02 0.  0.
         12    1    1    2    0    0  0.27646172288E+02  0.24363399118E+02 -0.22928958823E+02  0.43400728236E+02  0.00000000000E+00 0. -1.
         11    1    3    3    0    0 -0.18277762064E+01  0.18337811188E+01 -0.19838242113E+01  0.32617599260E+01  0.51100000000E-03 0. -1.
        -11    1    3    3    0    0 -0.61599063873E+01 -0.46567570749E+01  0.46396788963E+01  0.90086876778E+01  0.51100000000E-03 0.  1.
         12    1    3    3    0    0 -0.19658489694E+02 -0.21540423162E+02  0.20273104138E+02  0.35516824160E+02  0.00000000000E+00 0. -1.
</event>
<event>
 7    1  0.2237500E-009  0.4778728E+02  0.7816164E-02  0.1312668E+00
        -11   -1    0    0    0    0  0.00000000000E+00  0.00000000000E+00  0.45593999997E+02  0.45594000000E+02  0.51100000000E-03 0. -1.
         11   -1    0    0    0    0 -0.00000000000E+00 -0.00000000000E+00 -0.45593999997E+02  0.45594000000E+02  0.51100000000E-03 0.  1.
    9900012    2    1    2    0    0 -0.12758868490E+02 -0.41480232579E+02  0.47358641659E+00  0.47787277609E+02  0.20000029931E+02 0.  0.
         12    1    1    2    0    0  0.12758868490E+02  0.41480232579E+02 -0.47358641659E+00  0.43400722391E+02  0.00000000000E+00 0. -1.
         11    1    3    3    0    0 -0.66949696107E+01 -0.10155284900E+02 -0.82362313906E+00  0.12191422593E+02  0.51100000000E-03 0. -1.
        -11    1    3    3    0    0 -0.57388661662E+01 -0.33169308505E+02  0.15933764888E+01  0.33699799117E+02  0.51100000000E-03 0.  1.
         12    1    3    3    0    0 -0.32503271270E+00  0.18443608266E+01 -0.29616693318E+00  0.18960558998E+01  0.00000000000E+00 0. -1.
</event>
<event>
 7    1  0.2237500E-009  0.4778727E+02  0.7816164E-02  0.1312668E+00
        -11   -1    0    0    0    0  0.00000000000E+00  0.00000000000E+00  0.45593999997E+02  0.45594000000E+02  0.51100000000E-03 0.  1.
         11   -1    0    0    0    0 -0.00000000000E+00 -0.00000000000E+00 -0.45593999997E+02  0.45594000000E+02  0.51100000000E-03 0. -1.
    9900012    2    1    2    0    0 -0.14357380353E+02  0.26060795916E+02  0.31596261052E+02  0.47787272278E+02  0.20000005623E+02 0.  0.
         12    1    1    2    0    0  0.14357380353E+02 -0.26060795916E+02 -0.31596261052E+02  0.43400727722E+02  0.00000000000E+00 0. -1.
         11    1    3    3    0    0 -0.19660189343E+01  0.43354411476E+01  0.48316704311E+01  0.67827958697E+01  0.51100000000E-03 0. -1.
        -11    1    3    3    0    0 -0.26942723296E+01  0.18964983747E+02  0.23686487525E+02  0.30462754364E+02  0.51100000000E-03 0.  1.
         12    1    3    3    0    0 -0.96970890895E+01  0.27603710215E+01  0.30781030952E+01  0.10541722044E+02  0.00000000000E+00 0. -1.
</event>
<event>
 7    1  0.2237500E-009  0.4778727E+02  0.7816164E-02  0.1312668E+00
        -11   -1    0    0    0    0  0.00000000000E+00  0.00000000000E+00  0.45593999997E+02  0.45594000000E+02  0.51100000000E-03 0.  1.
         11   -1    0    0    0    0 -0.00000000000E+00 -0.00000000000E+00 -0.45593999997E+02  0.45594000000E+02  0.51100000000E-03 0. -1.
    9900012    2    1    2    0    0 -0.22454347426E+01 -0.10430341289E+02  0.42068865946E+02  0.47787268686E+02  0.19999989249E+02 0.  0.
         12    1    1    2    0    0  0.22454347426E+01  0.10430341289E+02 -0.42068865946E+02  0.43400731314E+02  0.00000000000E+00 0. -1.
         11    1    3    3    0    0 -0.44296027797E+01 -0.40121676496E+00  0.20693958184E+02  0.21166536354E+02  0.51100000000E-03 0. -1.
        -11    1    3    3    0    0 -0.17840386165E+01  0.73364859205E+00  0.10955481012E+02  0.11124010001E+02  0.51100000000E-03 0.  1.
        -12    1    3    3    0    0  0.39682066535E+01 -0.10762773117E+02  0.10419426750E+02  0.15496722331E+02  0.00000000000E+00 0.  1.
</event>
<event>
 7    1  0.2237500E-009  0.4778727E+02  0.7816164E-02  0.1312668E+00
        -11   -1    0    0    0    0  0.00000000000E+00  0.00000000000E+00  0.45593999997E+02  0.45594000000E+02  0.51100000000E-03 0.  1.
         11   -1    0    0    0    0 -0.00000000000E+00 -0.00000000000E+00 -0.45593999997E+02  0.45594000000E+02  0.51100000000E-03 0. -1.
    9900012    2    1    2    0    0 -0.16525554632E+02 -0.12922428621E+02  0.37993949102E+02  0.47787270908E+02  0.19999999376E+02 0.  0.
         12    1    1    2    0    0  0.16525554632E+02  0.12922428621E+02 -0.37993949102E+02  0.43400729092E+02  0.00000000000E+00 0. -1.
         11    1    3    3    0    0 -0.67996998295E-01  0.92526894006E+00 -0.13004277238E+01  0.15974538270E+01  0.51100000000E-03 0. -1.
        -11    1    3    3    0    0 -0.10048595930E+02 -0.27144761153E+01  0.11155910536E+02  0.15257686617E+02  0.51100000000E-03 0.  1.
        -12    1    3    3    0    0 -0.64089617039E+01 -0.11133221446E+02  0.28138466290E+02  0.30932130464E+02  0.00000000000E+00 0.  1.
</event>
<event>
 7    1  0.2237500E-009  0.4778725E+02  0.7816164E-02  0.1312668E+00
        -11   -1    0    0    0    0  0.00000000000E+00  0.00000000000E+00  0.45593999997E+02  0.45594000000E+02  0.51100000000E-03 0. -1.
         11   -1    0    0    0    0 -0.00000000000E+00 -0.00000000000E+00 -0.45593999997E+02  0.45594000000E+02  0.51100000000E-03 0.  1.
    9900012    2    1    2    0    0 -0.33832806473E+02 -0.11666122656E+02 -0.24553364392E+02  0.47787252143E+02  0.19999913819E+02 0.  0.
         12    1    1    2    0    0  0.33832806473E+02  0.11666122656E+02  0.24553364392E+02  0.43400747857E+02  0.00000000000E+00 0. -1.
         11    1    3    3    0    0 -0.23121285350E+01 -0.22074905150E+01 -0.77098936522E+01  0.83463413018E+01  0.51100000000E-03 0. -1.
        -11    1    3    3    0    0 -0.15044224432E+02 -0.82024376593E+01 -0.15074682556E+02  0.22822241930E+02  0.51100000000E-03 0.  1.
         12    1    3    3    0    0 -0.16476453506E+02 -0.12561944813E+01 -0.17687881834E+01  0.16618668910E+02  0.00000000000E+00 0. -1.
</event>
<event>
 7    1  0.2237500E-009  0.4778727E+02  0.7816164E-02  0.1312668E+00
        -11   -1    0    0    0    0  0.00000000000E+00  0.00000000000E+00  0.45593999997E+02  0.45594000000E+02  0.51100000000E-03 0. -1.
         11   -1    0    0    0    0 -0.00000000000E+00 -0.00000000000E+00 -0.45593999997E+02  0.45594000000E+02  0.51100000000E-03 0.  1.
    9900012    2    1    2    0    0 -0.30270618923E+02  0.29864135718E+02 -0.86859801201E+01  0.47787271633E+02  0.20000002682E+02 0.  0.
         12    1    1    2    0    0  0.30270618923E+02 -0.29864135718E+02  0.86859801201E+01  0.43400728367E+02  0.00000000000E+00 0. -1.
         11    1    3    3    0    0 -0.61311801213E+01  0.14451743557E+02 -0.34990508331E+01  0.16083768791E+02  0.51100000000E-03 0. -1.
        -11    1    3    3    0    0 -0.17566466301E+02  0.16848728427E+02 -0.55514562347E+01  0.24965557364E+02  0.51100000000E-03 0.  1.
        -12    1    3    3    0    0 -0.65729725009E+01 -0.14363362663E+01  0.36452694769E+00  0.67379454779E+01  0.00000000000E+00 0.  1.
</event>
<event>
 7    1  0.2237500E-009  0.4778727E+02  0.7816164E-02  0.1312668E+00
        -11   -1    0    0    0    0  0.00000000000E+00  0.00000000000E+00  0.45593999997E+02  0.45594000000E+02  0.51100000000E-03 0. -1.
         11   -1    0    0    0    0 -0.00000000000E+00 -0.00000000000E+00 -0.45593999997E+02  0.45594000000E+02  0.51100000000E-03 0.  1.
    9900012    2    1    2    0    0  0.32950978259E+02 -0.12903947131E+02 -0.25126571838E+02  0.47787269221E+02  0.19999991687E+02 0.  0.
         12    1    1    2    0    0 -0.32950978259E+02  0.12903947131E+02  0.25126571838E+02  0.43400730779E+02  0.00000000000E+00 0. -1.
         11    1    3    3    0    0  0.18938009799E+01 -0.56975059192E+01 -0.38521408359E+01  0.71335156221E+01  0.51100000000E-03 0. -1.
        -11    1    3    3    0    0  0.30161296892E+01 -0.21648144337E+01 -0.88014042103E+01  0.95523911231E+01  0.51100000000E-03 0.  1.
        -12    1    3    3    0    0  0.28041047590E+02 -0.50416267785E+01 -0.12473026792E+02  0.31101362476E+02  0.00000000000E+00 0.  1.
</event>
<event>
 7    1  0.2237500E-009  0.4778727E+02  0.7816164E-02  0.1312668E+00
        -11   -1    0    0    0    0  0.00000000000E+00  0.00000000000E+00  0.45593999997E+02  0.45594000000E+02  0.51100000000E-03 0. -1.
         11   -1    0    0    0    0 -0.00000000000E+00 -0.00000000000E+00 -0.45593999997E+02  0.45594000000E+02  0.51100000000E-03 0.  1.
    9900012    2    1    2    0    0  0.13136494070E+02  0.50058921989E+01 -0.41060894342E+02  0.47787268701E+02  0.19999989315E+02 0.  0.
         12    1    1    2    0    0 -0.13136494070E+02 -0.50058921989E+01  0.41060894342E+02  0.43400731299E+02  0.00000000000E+00 0. -1.
         11    1    3    3    0    0  0.10797291648E+02 -0.20668944430E+01 -0.85246234524E+01  0.13911245984E+02  0.51100000000E-03 0. -1.
        -11    1    3    3    0    0  0.15399395919E+01 -0.47442257154E+00 -0.33240200322E+01  0.36939951488E+01  0.51100000000E-03 0.  1.
         12    1    3    3    0    0  0.79926283029E+00  0.75472092134E+01 -0.29212250857E+02  0.30182027568E+02  0.00000000000E+00 0. -1.
</event>
<event>
 7    1  0.2237500E-009  0.4778727E+02  0.7816164E-02  0.1312668E+00
        -11   -1    0    0    0    0  0.00000000000E+00  0.00000000000E+00  0.45593999997E+02  0.45594000000E+02  0.51100000000E-03 0.  1.
         11   -1    0    0    0    0 -0.00000000000E+00 -0.00000000000E+00 -0.45593999997E+02  0.45594000000E+02  0.51100000000E-03 0. -1.
    9900012    2    1    2    0    0  0.11302683466E+02 -0.30296803026E+02  0.28947815302E+02  0.47787274915E+02  0.20000017648E+02 0.  0.
         12    1    1    2    0    0 -0.11302683466E+02  0.30296803026E+02 -0.28947815302E+02  0.43400725085E+02  0.00000000000E+00 0. -1.
         11    1    3    3    0    0 -0.10568937948E+00 -0.66735315392E+01 -0.96281039154E+00  0.67434559063E+01  0.51100000000E-03 0. -1.
        -11    1    3    3    0    0  0.41804015682E+01 -0.15882282220E+02  0.12396830143E+02  0.20576784094E+02  0.51100000000E-03 0.  1.
        -12    1    3    3    0    0  0.72279712776E+01 -0.77409892669E+01  0.17513795551E+02  0.20467034915E+02  0.00000000000E+00 0.  1.
</event>
<event>
 7    1  0.2237500E-009  0.4778727E+02  0.7816164E-02  0.1312668E+00
        -11   -1    0    0    0    0  0.00000000000E+00  0.00000000000E+00  0.45593999997E+02  0.45594000000E+02  0.51100000000E-03 0.  1.
         11   -1    0    0    0    0 -0.00000000000E+00 -0.00000000000E+00 -0.45593999997E+02  0.45594000000E+02  0.51100000000E-03 0. -1.
    9900012    2    1    2    0    0  0.14807053646E+02 -0.21229844663E+02  0.34837741164E+02  0.47787270150E+02  0.19999995924E+02 0.  0.
         12    1    1    2    0    0 -0.14807053646E+02  0.21229844663E+02 -0.34837741164E+02  0.43400729850E+02  0.00000000000E+00 0. -1.
         11    1    3    3    0    0  0.21208655915E+01 -0.51619696431E+01  0.14668737709E+01  0.57702443946E+01  0.51100000000E-03 0. -1.
        -11    1    3    3    0    0  0.64254863739E+01 -0.88794373841E+00  0.23148479638E+01  0.68872229948E+01  0.51100000000E-03 0.  1.
        -12    1    3    3    0    0  0.62607016807E+01 -0.15179931281E+02  0.31056019429E+02  0.35129802761E+02  0.00000000000E+00 0.  1.
</event>
<event>
 7    1  0.2237500E-009  0.4778727E+02  0.7816164E-02  0.1312668E+00
        -11   -1    0    0    0    0  0.00000000000E+00  0.00000000000E+00  0.45593999997E+02  0.45594000000E+02  0.51100000000E-03 0. -1.
         11   -1    0    0    0    0 -0.00000000000E+00 -0.00000000000E+00 -0.45593999997E+02  0.45594000000E+02  0.51100000000E-03 0.  1.
    9900012    2    1    2    0    0  0.34009587623E+02 -0.35180998585E+01 -0.26731897805E+02  0.47787269163E+02  0.19999991422E+02 0.  0.
         12    1    1    2    0    0 -0.34009587623E+02  0.35180998585E+01  0.26731897805E+02  0.43400730837E+02  0.00000000000E+00 0. -1.
         11    1    3    3    0    0  0.89971055606E+01 -0.18489588128E+01 -0.11078633761E+02  0.14391062623E+02  0.51100000000E-03 0. -1.
        -11    1    3    3    0    0  0.92785628789E+01  0.25168474170E+01 -0.14066295673E+02  0.17037808669E+02  0.51100000000E-03 0.  1.
         12    1    3    3    0    0  0.15733919184E+02 -0.41859884627E+01 -0.15869683712E+01  0.16358397871E+02  0.00000000000E+00 0. -1.
</event>
<event>
 7    1  0.2237500E-009  0.4778727E+02  0.7816164E-02  0.1312668E+00
        -11   -1    0    0    0    0  0.00000000000E+00  0.00000000000E+00  0.45593999997E+02  0.45594000000E+02  0.51100000000E-03 0.  1.
         11   -1    0    0    0    0 -0.00000000000E+00 -0.00000000000E+00 -0.45593999997E+02  0.45594000000E+02  0.51100000000E-03 0. -1.
    9900012    2    1    2    0    0 -0.25759879677E+02 -0.75577076956E+01  0.34101802221E+02  0.47787271190E+02  0.20000000662E+02 0.  0.
         12    1    1    2    0    0  0.25759879677E+02  0.75577076956E+01 -0.34101802221E+02  0.43400728810E+02  0.00000000000E+00 0. -1.
         11    1    3    3    0    0 -0.19026914520E+01 -0.31780043667E+01  0.11060059189E+02  0.11663826818E+02  0.51100000000E-03 0. -1.
        -11    1    3    3    0    0 -0.30968386794E+01  0.33874501074E+01  0.83578764827E+01  0.95351626938E+01  0.51100000000E-03 0.  1.
         12    1    3    3    0    0 -0.20760349545E+02 -0.77671534363E+01  0.14683866549E+02  0.26588281678E+02  0.00000000000E+00 0. -1.
</event>
<event>
 7    1  0.2237500E-009  0.4778727E+02  0.7816164E-02  0.1312668E+00
        -11   -1    0    0    0    0  0.00000000000E+00  0.00000000000E+00  0.45593999997E+02  0.45594000000E+02  0.51100000000E-03 0.  1.
         11   -1    0    0    0    0 -0.00000000000E+00 -0.00000000000E+00 -0.45593999997E+02  0.45594000000E+02  0.51100000000E-03 0. -1.
    9900012    2    1    2    0    0  0.28642957145E+02 -0.11241501751E+02  0.30607727879E+02  0.47787270034E+02  0.19999995395E+02 0.  0.
         12    1    1    2    0    0 -0.28642957145E+02  0.11241501751E+02 -0.30607727879E+02  0.43400729966E+02  0.00000000000E+00 0. -1.
         11    1    3    3    0    0  0.97854094833E+01 -0.74644321697E+01  0.52437186784E+01  0.13377913597E+02  0.51100000000E-03 0. -1.
        -11    1    3    3    0    0  0.29311934814E+01 -0.63516251994E+01  0.93555471501E+01  0.11681665148E+02  0.51100000000E-03 0.  1.
         12    1    3    3    0    0  0.15926354180E+02  0.25745556181E+01  0.16008462051E+02  0.22727691289E+02  0.00000000000E+00 0. -1.
</event>
<event>
 7    1  0.2237500E-009  0.4778727E+02  0.7816164E-02  0.1312668E+00
        -11   -1    0    0    0    0  0.00000000000E+00  0.00000000000E+00  0.45593999997E+02  0.45594000000E+02  0.51100000000E-03 0.  1.
         11   -1    0    0    0    0 -0.00000000000E+00 -0.00000000000E+00 -0.45593999997E+02  0.45594000000E+02  0.51100000000E-03 0. -1.
    9900012    2    1    2    0    0 -0.40287887519E+02 -0.87918192030E+01  0.13535648717E+02  0.47787265538E+02  0.19999974893E+02 0.  0.
         12    1    1    2    0    0  0.40287887519E+02  0.87918192030E+01 -0.13535648717E+02  0.43400734462E+02  0.00000000000E+00 0. -1.
         11    1    3    3    0    0 -0.10852455587E+02 -0.65200283941E+01 -0.29048810889E+00  0.12663765085E+02  0.51100000000E-03 0. -1.
        -11    1    3    3    0    0 -0.22203284490E+02 -0.73816483349E+01  0.93003091844E+01  0.25178767354E+02  0.51100000000E-03 0.  1.
         12    1    3    3    0    0 -0.72321474431E+01  0.51098575260E+01  0.45258276415E+01  0.99447330992E+01  0.00000000000E+00 0. -1.
</event>
<event>
 7    1  0.2237500E-009  0.4778730E+02  0.7816164E-02  0.1312668E+00
        -11   -1    0    0    0    0  0.00000000000E+00  0.00000000000E+00  0.45593999997E+02  0.45594000000E+02  0.51100000000E-03 0. -1.
         11   -1    0    0    0    0 -0.00000000000E+00 -0.00000000000E+00 -0.45593999997E+02  0.45594000000E+02  0.51100000000E-03 0.  1.
    9900012    2    1    2    0    0  0.20198371585E+02 -0.37308014431E+02  0.91519541812E+01  0.47787303913E+02  0.20000149860E+02 0.  0.
         12    1    1    2    0    0 -0.20198371585E+02  0.37308014431E+02 -0.91519541812E+01  0.43400696087E+02  0.00000000000E+00 0. -1.
         11    1    3    3    0    0  0.54166134992E+01 -0.46343585888E+01 -0.36209534818E+01  0.79955166004E+01  0.51100000000E-03 0. -1.
        -11    1    3    3    0    0  0.86110245093E+01 -0.15320561329E+02  0.35381618879E+00  0.17578240205E+02  0.51100000000E-03 0.  1.
        -12    1    3    3    0    0  0.61707335768E+01 -0.17353094513E+02  0.12419091474E+02  0.22213547108E+02  0.00000000000E+00 0.  1.
</event>
<event>
 7    1  0.2237500E-009  0.4778726E+02  0.7816164E-02  0.1312668E+00
        -11   -1    0    0    0    0  0.00000000000E+00  0.00000000000E+00  0.45593999997E+02  0.45594000000E+02  0.51100000000E-03 0.  1.
         11   -1    0    0    0    0 -0.00000000000E+00 -0.00000000000E+00 -0.45593999997E+02  0.45594000000E+02  0.51100000000E-03 0. -1.
    9900012    2    1    2    0    0 -0.23559411958E+02  0.96889809716E+01  0.35138326950E+02  0.47787259627E+02  0.19999947944E+02 0.  0.
         12    1    1    2    0    0  0.23559411958E+02 -0.96889809716E+01 -0.35138326950E+02  0.43400740373E+02  0.00000000000E+00 0. -1.
         11    1    3    3    0    0  0.12187494599E+01  0.18697166996E+01  0.22331922485E+01  0.31572675945E+01  0.51100000000E-03 0. -1.
        -11    1    3    3    0    0 -0.20725959912E+01 -0.33101901954E+01  0.12199030451E+01  0.40915983397E+01  0.51100000000E-03 0.  1.
        -12    1    3    3    0    0 -0.22705565427E+02  0.11129454467E+02  0.31685231656E+02  0.40538393693E+02  0.00000000000E+00 0.  1.
</event>
<event>
 7    1  0.2237500E-009  0.4778727E+02  0.7816164E-02  0.1312668E+00
        -11   -1    0    0    0    0  0.00000000000E+00  0.00000000000E+00  0.45593999997E+02  0.45594000000E+02  0.51100000000E-03 0.  1.
         11   -1    0    0    0    0 -0.00000000000E+00 -0.00000000000E+00 -0.45593999997E+02  0.45594000000E+02  0.51100000000E-03 0. -1.
    9900012    2    1    2    0    0 -0.36348705086E+02 -0.23057333731E+02  0.55456637131E+01  0.47787269750E+02  0.19999994097E+02 0.  0.
         12    1    1    2    0    0  0.36348705086E+02  0.23057333731E+02 -0.55456637131E+01  0.43400730250E+02  0.00000000000E+00 0. -1.
         11    1    3    3    0    0 -0.60564466551E+01 -0.14379756881E+01 -0.12759014524E+01  0.63542304761E+01  0.51100000000E-03 0. -1.
        -11    1    3    3    0    0 -0.16975990748E+02 -0.20398231302E+02  0.26372337054E+00  0.26539435796E+02  0.51100000000E-03 0.  1.
        -12    1    3    3    0    0 -0.13316267683E+02 -0.12211267411E+01  0.65578417950E+01  0.14893603477E+02  0.00000000000E+00 0.  1.
</event>
<event>
 7    1  0.2237500E-009  0.4778727E+02  0.7816164E-02  0.1312668E+00
        -11   -1    0    0    0    0  0.00000000000E+00  0.00000000000E+00  0.45593999997E+02  0.45594000000E+02  0.51100000000E-03 0.  1.
         11   -1    0    0    0    0 -0.00000000000E+00 -0.00000000000E+00 -0.45593999997E+02  0.45594000000E+02  0.51100000000E-03 0. -1.
    9900012    2    1    2    0    0  0.39434288307E+02  0.74623937781E+01  0.16518857918E+02  0.47787273254E+02  0.20000010074E+02 0.  0.
         12    1    1    2    0    0 -0.39434288307E+02 -0.74623937781E+01 -0.16518857918E+02  0.43400726746E+02  0.00000000000E+00 0. -1.
         11    1    3    3    0    0  0.20153162237E+01  0.47508878934E+01  0.40042114787E+01  0.65319327220E+01  0.51100000000E-03 0. -1.
        -11    1    3    3    0    0  0.10262505682E+02  0.52933091340E+01  0.82303694460E+00  0.11576507873E+02  0.51100000000E-03 0.  1.
        -12    1    3    3    0    0  0.27156466401E+02 -0.25818032493E+01  0.11691609494E+02  0.29678832659E+02  0.00000000000E+00 0.  1.
</event>
<event>
 7    1  0.2237500E-009  0.4778727E+02  0.7816164E-02  0.1312668E+00
        -11   -1    0    0    0    0  0.00000000000E+00  0.00000000000E+00  0.45593999997E+02  0.45594000000E+02  0.51100000000E-03 0.  1.
         11   -1    0    0    0    0 -0.00000000000E+00 -0.00000000000E+00 -0.45593999997E+02  0.45594000000E+02  0.51100000000E-03 0. -1.
    9900012    2    1    2    0    0 -0.52657357809E+01  0.34028860217E+01  0.42945495386E+02  0.47787272120E+02  0.20000004903E+02 0.  0.
         12    1    1    2    0    0  0.52657357809E+01 -0.34028860217E+01 -0.42945495386E+02  0.43400727880E+02  0.00000000000E+00 0. -1.
         11    1    3    3    0    0 -0.19514074319E+01  0.69707827202E+01  0.16379639588E+02  0.17907886419E+02  0.51100000000E-03 0. -1.
        -11    1    3    3    0    0 -0.14227599209E+01  0.47570123106E+00  0.25151977145E+02  0.25196676209E+02  0.51100000000E-03 0.  1.
         12    1    3    3    0    0 -0.18915684282E+01 -0.40435979296E+01  0.14138786527E+01  0.46827094912E+01  0.00000000000E+00 0. -1.
</event>
<event>
 7    1  0.2237500E-009  0.4778725E+02  0.7816164E-02  0.1312668E+00
        -11   -1    0    0    0    0  0.00000000000E+00  0.00000000000E+00  0.45593999997E+02  0.45594000000E+02  0.51100000000E-03 0.  1.
         11   -1    0    0    0    0 -0.00000000000E+00 -0.00000000000E+00 -0.45593999997E+02  0.45594000000E+02  0.51100000000E-03 0. -1.
    9900012    2    1    2    0    0 -0.61635667275E+01 -0.42509987274E+02 -0.62077517123E+01  0.47787253991E+02  0.19999922245E+02 0.  0.
         12    1    1    2    0    0  0.61635667275E+01  0.42509987274E+02  0.62077517123E+01  0.43400746009E+02  0.00000000000E+00 0. -1.
         11    1    3    3    0    0 -0.60624300154E+01 -0.57146328179E+01 -0.24655891923E+01  0.86884530419E+01  0.51100000000E-03 0. -1.
        -11    1    3    3    0    0 -0.50940322079E+01 -0.80010709360E+01  0.82186831346E+00  0.95205970424E+01  0.51100000000E-03 0.  1.
        -12    1    3    3    0    0  0.49928954957E+01 -0.28794283520E+02 -0.45640308335E+01  0.29578203906E+02  0.00000000000E+00 0.  1.
</event>
<event>
 7    1  0.2237500E-009  0.4778727E+02  0.7816164E-02  0.1312668E+00
        -11   -1    0    0    0    0  0.00000000000E+00  0.00000000000E+00  0.45593999997E+02  0.45594000000E+02  0.51100000000E-03 0.  1.
         11   -1    0    0    0    0 -0.00000000000E+00 -0.00000000000E+00 -0.45593999997E+02  0.45594000000E+02  0.51100000000E-03 0. -1.
    9900012    2    1    2    0    0 -0.41603478481E+02 -0.12107302682E+02  0.24873459612E+01  0.47787273165E+02  0.20000009667E+02 0.  0.
         12    1    1    2    0    0  0.41603478481E+02  0.12107302682E+02 -0.24873459612E+01  0.43400726835E+02  0.00000000000E+00 0. -1.
         11    1    3    3    0    0 -0.33195463043E+00 -0.36248771416E+00 -0.53335498158E+00  0.72529926036E+00  0.51100000000E-03 0. -1.
        -11    1    3    3    0    0 -0.10328014423E+02  0.12699193906E+01 -0.63743107331E+01  0.12202967457E+02  0.51100000000E-03 0.  1.
         12    1    3    3    0    0 -0.30943509427E+02 -0.13014734358E+02  0.93950116759E+01  0.34859006447E+02  0.00000000000E+00 0. -1.
</event>
<event>
 7    1  0.2237500E-009  0.4778726E+02  0.7816164E-02  0.1312668E+00
        -11   -1    0    0    0    0  0.00000000000E+00  0.00000000000E+00  0.45593999997E+02  0.45594000000E+02  0.51100000000E-03 0. -1.
         11   -1    0    0    0    0 -0.00000000000E+00 -0.00000000000E+00 -0.45593999997E+02  0.45594000000E+02  0.51100000000E-03 0.  1.
    9900012    2    1    2    0    0 -0.26203494841E+02  0.32806960045E+02  0.10986539896E+02  0.47787264659E+02  0.19999970886E+02 0.  0.
         12    1    1    2    0    0  0.26203494841E+02 -0.32806960045E+02 -0.10986539896E+02  0.43400735341E+02  0.00000000000E+00 0. -1.
         11    1    3    3    0    0 -0.10515864443E+02  0.90284534696E+01  0.44069706760E+01  0.14543650430E+02  0.51100000000E-03 0. -1.
        -11    1    3    3    0    0 -0.16168309488E+02  0.22153916330E+02  0.10187740328E+02  0.29257482696E+02  0.51100000000E-03 0.  1.
         12    1    3    3    0    0  0.48067908983E+00  0.16245902452E+01 -0.36081711082E+01  0.39861315330E+01  0.00000000000E+00 0. -1.
</event>
<event>
 7    1  0.2237500E-009  0.4778727E+02  0.7816164E-02  0.1312668E+00
        -11   -1    0    0    0    0  0.00000000000E+00  0.00000000000E+00  0.45593999997E+02  0.45594000000E+02  0.51100000000E-03 0.  1.
         11   -1    0    0    0    0 -0.00000000000E+00 -0.00000000000E+00 -0.45593999997E+02  0.45594000000E+02  0.51100000000E-03 0. -1.
    9900012    2    1    2    0    0 -0.13384225499E+01 -0.98125576328E+01  0.42255717016E+02  0.47787270943E+02  0.19999999536E+02 0.  0.
         12    1    1    2    0    0  0.13384225499E+01  0.98125576328E+01 -0.42255717016E+02  0.43400729057E+02  0.00000000000E+00 0. -1.
         11    1    3    3    0    0 -0.85609684034E+01 -0.52798936941E+01  0.13589778046E+02  0.16907085054E+02  0.51100000000E-03 0. -1.
        -11    1    3    3    0    0 -0.35579143008E-01 -0.28110654283E+00 -0.47302535488E+00  0.55139823296E+00  0.51100000000E-03 0.  1.
        -12    1    3    3    0    0  0.72581249965E+01 -0.42515573959E+01  0.29138964324E+02  0.30328787656E+02  0.00000000000E+00 0.  1.
</event>
<event>
 7    1  0.2237500E-009  0.4778727E+02  0.7816164E-02  0.1312668E+00
        -11   -1    0    0    0    0  0.00000000000E+00  0.00000000000E+00  0.45593999997E+02  0.45594000000E+02  0.51100000000E-03 0.  1.
         11   -1    0    0    0    0 -0.00000000000E+00 -0.00000000000E+00 -0.45593999997E+02  0.45594000000E+02  0.51100000000E-03 0. -1.
    9900012    2    1    2    0    0  0.43064591429E+02 -0.41092142223E+01  0.34897998732E+01  0.47787269827E+02  0.19999994447E+02 0.  0.
         12    1    1    2    0    0 -0.43064591429E+02  0.41092142223E+01 -0.34897998732E+01  0.43400730173E+02  0.00000000000E+00 0. -1.
         11    1    3    3    0    0  0.14186681496E+02 -0.70875682939E+00  0.37002074688E+00  0.14209193634E+02  0.51100000000E-03 0. -1.
        -11    1    3    3    0    0  0.29960829949E+02 -0.39087023316E+01 -0.23638781672E-01  0.30214728928E+02  0.51100000000E-03 0.  1.
         12    1    3    3    0    0 -0.10829200162E+01  0.50824493871E+00  0.31434179080E+01  0.33633472648E+01  0.00000000000E+00 0. -1.
</event>
<event>
 7    1  0.2237500E-009  0.4778725E+02  0.7816164E-02  0.1312668E+00
        -11   -1    0    0    0    0  0.00000000000E+00  0.00000000000E+00  0.45593999997E+02  0.45594000000E+02  0.51100000000E-03 0.  1.
         11   -1    0    0    0    0 -0.00000000000E+00 -0.00000000000E+00 -0.45593999997E+02  0.45594000000E+02  0.51100000000E-03 0. -1.
    9900012    2    1    2    0    0 -0.36620223777E+02 -0.15763750080E+02  0.17149016816E+02  0.47787246737E+02  0.19999889171E+02 0.  0.
         12    1    1    2    0    0  0.36620223777E+02  0.15763750080E+02 -0.17149016816E+02  0.43400753263E+02  0.00000000000E+00 0. -1.
         11    1    3    3    0    0 -0.47933493289E+01 -0.46697072648E+01  0.54602262064E+01  0.86369227283E+01  0.51100000000E-03 0. -1.
        -11    1    3    3    0    0 -0.94275509315E+01 -0.11159233133E+02  0.72768729260E+01  0.16320541674E+02  0.51100000000E-03 0.  1.
         12    1    3    3    0    0 -0.22399323517E+02  0.65190318334E-01  0.44119176831E+01  0.22829782334E+02  0.00000000000E+00 0. -1.
</event>
<event>
 7    1  0.2237500E-009  0.4778727E+02  0.7816164E-02  0.1312668E+00
        -11   -1    0    0    0    0  0.00000000000E+00  0.00000000000E+00  0.45593999997E+02  0.45594000000E+02  0.51100000000E-03 0.  1.
         11   -1    0    0    0    0 -0.00000000000E+00 -0.00000000000E+00 -0.45593999997E+02  0.45594000000E+02  0.51100000000E-03 0. -1.
    9900012    2    1    2    0    0 -0.30369919780E+00  0.24130621253E+02  0.36072767327E+02  0.47787266621E+02  0.19999979832E+02 0.  0.
         12    1    1    2    0    0  0.30369919780E+00 -0.24130621253E+02 -0.36072767327E+02  0.43400733379E+02  0.00000000000E+00 0. -1.
         11    1    3    3    0    0 -0.51657399571E-01  0.33710877154E+01  0.16742909712E+02  0.17078990801E+02  0.51100000000E-03 0. -1.
        -11    1    3    3    0    0 -0.49713497052E+01  0.52336731374E+01  0.34378361291E+01  0.79952717222E+01  0.51100000000E-03 0.  1.
         12    1    3    3    0    0  0.47193079070E+01  0.15525860400E+02  0.15892021485E+02  0.22713004098E+02  0.00000000000E+00 0. -1.
</event>
<event>
 7    1  0.2237500E-009  0.4778728E+02  0.7816164E-02  0.1312668E+00
        -11   -1    0    0    0    0  0.00000000000E+00  0.00000000000E+00  0.45593999997E+02  0.45594000000E+02  0.51100000000E-03 0.  1.
         11   -1    0    0    0    0 -0.00000000000E+00 -0.00000000000E+00 -0.45593999997E+02  0.45594000000E+02  0.51100000000E-03 0. -1.
    9900012    2    1    2    0    0  0.43146872302E+02 -0.45185258833E+01 -0.12462933206E+01  0.47787275206E+02  0.20000018975E+02 0.  0.
         12    1    1    2    0    0 -0.43146872302E+02  0.45185258833E+01  0.12462933206E+01  0.43400724794E+02  0.00000000000E+00 0. -1.
         11    1    3    3    0    0  0.73831049659E+01  0.15492870382E+01  0.97811469970E+00  0.76070518528E+01  0.51100000000E-03 0. -1.
        -11    1    3    3    0    0  0.33481187797E+02 -0.43841012850E+01  0.33428570095E+01  0.33932064094E+02  0.51100000000E-03 0.  1.
         12    1    3    3    0    0  0.22825795386E+01 -0.16837116365E+01 -0.55672650298E+01  0.62481592599E+01  0.00000000000E+00 0. -1.
</event>
<event>
 7    1  0.2237500E-009  0.4778727E+02  0.7816164E-02  0.1312668E+00
        -11   -1    0    0    0    0  0.00000000000E+00  0.00000000000E+00  0.45593999997E+02  0.45594000000E+02  0.51100000000E-03 0.  1.
         11   -1    0    0    0    0 -0.00000000000E+00 -0.00000000000E+00 -0.45593999997E+02  0.45594000000E+02  0.51100000000E-03 0. -1.
    9900012    2    1    2    0    0  0.84089108894E+01 -0.30450410316E+02  0.29760477038E+02  0.47787271154E+02  0.20000000502E+02 0.  0.
         12    1    1    2    0    0 -0.84089108894E+01  0.30450410316E+02 -0.29760477038E+02  0.43400728846E+02  0.00000000000E+00 0. -1.
         11    1    3    3    0    0  0.29926349197E+01 -0.13371914187E+02  0.73727869727E+01  0.15560268018E+02  0.51100000000E-03 0. -1.
        -11    1    3    3    0    0  0.45981088626E+01 -0.18019002968E+02  0.12840547520E+02  0.22598821517E+02  0.51100000000E-03 0.  1.
         12    1    3    3    0    0  0.81816710712E+00  0.94050683799E+00  0.95471425456E+01  0.96281816203E+01  0.00000000000E+00 0. -1.
</event>
<event>
 7    1  0.2237500E-009  0.4778727E+02  0.7816164E-02  0.1312668E+00
        -11   -1    0    0    0    0  0.00000000000E+00  0.00000000000E+00  0.45593999997E+02  0.45594000000E+02  0.51100000000E-03 0.  1.
         11   -1    0    0    0    0 -0.00000000000E+00 -0.00000000000E+00 -0.45593999997E+02  0.45594000000E+02  0.51100000000E-03 0. -1.
    9900012    2    1    2    0    0  0.32578917273E+02 -0.66777213495E+01  0.27886293388E+02  0.47787272218E+02  0.20000005349E+02 0.  0.
         12    1    1    2    0    0 -0.32578917273E+02  0.66777213495E+01 -0.27886293388E+02  0.43400727782E+02  0.00000000000E+00 0. -1.
         11    1    3    3    0    0 -0.11231318510E+01 -0.27182469492E+01  0.20037314223E+01  0.35588244555E+01  0.51100000000E-03 0. -1.
        -11    1    3    3    0    0  0.13465233542E+02 -0.73572884761E+01  0.11124674430E+02  0.18952587936E+02  0.51100000000E-03 0.  1.
         12    1    3    3    0    0  0.20236815582E+02  0.33978140757E+01  0.14757887536E+02  0.25275859826E+02  0.00000000000E+00 0. -1.
</event>
<event>
 7    1  0.2237500E-009  0.4778727E+02  0.7816164E-02  0.1312668E+00
        -11   -1    0    0    0    0  0.00000000000E+00  0.00000000000E+00  0.45593999997E+02  0.45594000000E+02  0.51100000000E-03 0.  1.
         11   -1    0    0    0    0 -0.00000000000E+00 -0.00000000000E+00 -0.45593999997E+02  0.45594000000E+02  0.51100000000E-03 0. -1.
    9900012    2    1    2    0    0  0.42215329549E+02  0.95979669742E+01 -0.30607785219E+01  0.47787269774E+02  0.19999994210E+02 0.  0.
         12    1    1    2    0    0 -0.42215329549E+02 -0.95979669742E+01  0.30607785219E+01  0.43400730226E+02  0.00000000000E+00 0. -1.
         11    1    3    3    0    0  0.13777874786E+02  0.88148213350E+01 -0.95561159565E+00  0.16384263870E+02  0.51100000000E-03 0. -1.
        -11    1    3    3    0    0  0.25840055458E+02  0.24881887322E+01 -0.57753732531E+01  0.26594256631E+02  0.51100000000E-03 0.  1.
         12    1    3    3    0    0  0.25973993042E+01 -0.17050430929E+01  0.36702063268E+01  0.48087492735E+01  0.00000000000E+00 0. -1.
</event>
<event>
 7    1  0.2237500E-009  0.4778730E+02  0.7816164E-02  0.1312668E+00
        -11   -1    0    0    0    0  0.00000000000E+00  0.00000000000E+00  0.45593999997E+02  0.45594000000E+02  0.51100000000E-03 0.  1.
         11   -1    0    0    0    0 -0.00000000000E+00 -0.00000000000E+00 -0.45593999997E+02  0.45594000000E+02  0.51100000000E-03 0. -1.
    9900012    2    1    2    0    0  0.33865507012E+02  0.22339684537E+02  0.15417087854E+02  0.47787301062E+02  0.20000136861E+02 0.  0.
         12    1    1    2    0    0 -0.33865507012E+02 -0.22339684537E+02 -0.15417087854E+02  0.43400698938E+02  0.00000000000E+00 0. -1.
         11    1    3    3    0    0 -0.28966865997E+00 -0.52285219056E-01  0.31246739125E+00  0.42927591175E+00  0.51100000000E-03 0. -1.
        -11    1    3    3    0    0  0.32384736332E+02  0.22396546733E+02  0.81863647799E+01  0.40216825104E+02  0.51100000000E-03 0.  1.
        -12    1    3    3    0    0  0.17704393402E+01 -0.45769773227E-02  0.69182556828E+01  0.71412000461E+01  0.00000000000E+00 0.  1.
</event>
<event>
 7    1  0.2237500E-009  0.4778726E+02  0.7816164E-02  0.1312668E+00
        -11   -1    0    0    0    0  0.00000000000E+00  0.00000000000E+00  0.45593999997E+02  0.45594000000E+02  0.51100000000E-03 0.  1.
         11   -1    0    0    0    0 -0.00000000000E+00 -0.00000000000E+00 -0.45593999997E+02  0.45594000000E+02  0.51100000000E-03 0. -1.
    9900012    2    1    2    0    0  0.10283130198E+02  0.57485378790E+01  0.41771232801E+02  0.47787258715E+02  0.19999943783E+02 0.  0.
         12    1    1    2    0    0 -0.10283130198E+02 -0.57485378790E+01 -0.41771232801E+02  0.43400741285E+02  0.00000000000E+00 0. -1.
         11    1    3    3    0    0  0.70947468870E+01  0.43574775470E+01  0.95515157319E+01  0.12671010102E+02  0.51100000000E-03 0. -1.
        -11    1    3    3    0    0 -0.28616804454E+01  0.43709120748E+01  0.56129749133E+01  0.76680880913E+01  0.51100000000E-03 0.  1.
         12    1    3    3    0    0  0.60500637562E+01 -0.29798517428E+01  0.26606742156E+02  0.27448160521E+02  0.00000000000E+00 0. -1.
</event>
<event>
 7    1  0.2237500E-009  0.4778727E+02  0.7816164E-02  0.1312668E+00
        -11   -1    0    0    0    0  0.00000000000E+00  0.00000000000E+00  0.45593999997E+02  0.45594000000E+02  0.51100000000E-03 0.  1.
         11   -1    0    0    0    0 -0.00000000000E+00 -0.00000000000E+00 -0.45593999997E+02  0.45594000000E+02  0.51100000000E-03 0. -1.
    9900012    2    1    2    0    0  0.39034479779E+02  0.28575855099E+01 -0.18755443677E+02  0.47787273347E+02  0.20000010496E+02 0.  0.
         12    1    1    2    0    0 -0.39034479779E+02 -0.28575855099E+01  0.18755443677E+02  0.43400726653E+02  0.00000000000E+00 0. -1.
         11    1    3    3    0    0  0.20960507176E+02 -0.17180241489E+01 -0.48489881897E+01  0.21582565991E+02  0.51100000000E-03 0. -1.
        -11    1    3    3    0    0  0.19622092915E+02  0.28013959036E+01 -0.12864109715E+02  0.23629635384E+02  0.51100000000E-03 0.  1.
        -12    1    3    3    0    0 -0.15481203119E+01  0.17742137552E+01 -0.10423457727E+01  0.25750719716E+01  0.00000000000E+00 0.  1.
</event>
<event>
 7    1  0.2237500E-009  0.4778726E+02  0.7816164E-02  0.1312668E+00
        -11   -1    0    0    0    0  0.00000000000E+00  0.00000000000E+00  0.45593999997E+02  0.45594000000E+02  0.51100000000E-03 0.  1.
         11   -1    0    0    0    0 -0.00000000000E+00 -0.00000000000E+00 -0.45593999997E+02  0.45594000000E+02  0.51100000000E-03 0. -1.
    9900012    2    1    2    0    0  0.28299768270E+02  0.31799911194E+02 -0.84565337388E+01  0.47787260387E+02  0.19999951408E+02 0.  0.
         12    1    1    2    0    0 -0.28299768270E+02 -0.31799911194E+02  0.84565337388E+01  0.43400739613E+02  0.00000000000E+00 0. -1.
         11    1    3    3    0    0 -0.58254129270E+00 -0.86827781136E+00  0.45243423738E+00  0.11392794722E+01  0.51100000000E-03 0. -1.
        -11    1    3    3    0    0  0.26367866688E+01  0.70749752562E+01  0.29691643910E+01  0.81131902636E+01  0.51100000000E-03 0.  1.
        -12    1    3    3    0    0  0.26245522894E+02  0.25593213750E+02 -0.11878132367E+02  0.38534790651E+02  0.00000000000E+00 0.  1.
</event>
<event>
 7    1  0.2237500E-009  0.4778727E+02  0.7816164E-02  0.1312668E+00
        -11   -1    0    0    0    0  0.00000000000E+00  0.00000000000E+00  0.45593999997E+02  0.45594000000E+02  0.51100000000E-03 0. -1.
         11   -1    0    0    0    0 -0.00000000000E+00 -0.00000000000E+00 -0.45593999997E+02  0.45594000000E+02  0.51100000000E-03 0.  1.
    9900012    2    1    2    0    0  0.37423358344E+02 -0.18064106622E+02 -0.12522124018E+02  0.47787270885E+02  0.19999999271E+02 0.  0.
         12    1    1    2    0    0 -0.37423358344E+02  0.18064106622E+02  0.12522124018E+02  0.43400729115E+02  0.00000000000E+00 0. -1.
         11    1    3    3    0    0  0.15582821895E+02 -0.11801577492E+02 -0.10332840343E+02  0.22110385780E+02  0.51100000000E-03 0. -1.
        -11    1    3    3    0    0  0.16509056945E+02 -0.96585813896E+01 -0.27811735925E+01  0.19328012895E+02  0.51100000000E-03 0.  1.
         12    1    3    3    0    0  0.53314795043E+01  0.33960522597E+01  0.59188991746E+00  0.63488722093E+01  0.00000000000E+00 0. -1.
</event>
<event>
 7    1  0.2237500E-009  0.4778727E+02  0.7816164E-02  0.1312668E+00
        -11   -1    0    0    0    0  0.00000000000E+00  0.00000000000E+00  0.45593999997E+02  0.45594000000E+02  0.51100000000E-03 0. -1.
         11   -1    0    0    0    0 -0.00000000000E+00 -0.00000000000E+00 -0.45593999997E+02  0.45594000000E+02  0.51100000000E-03 0.  1.
    9900012    2    1    2    0    0  0.10523512777E+02  0.39854187795E+02 -0.13583918923E+02  0.47787268908E+02  0.19999990260E+02 0.  0.
         12    1    1    2    0    0 -0.10523512777E+02 -0.39854187795E+02  0.13583918923E+02  0.43400731092E+02  0.00000000000E+00 0. -1.
         11    1    3    3    0    0 -0.30052861083E+01  0.92016777659E+00 -0.63654078245E+00  0.32068111511E+01  0.51100000000E-03 0. -1.
        -11    1    3    3    0    0  0.15810756882E+01  0.21224260683E+02 -0.59176152375E+01  0.22090432595E+02  0.51100000000E-03 0.  1.
         12    1    3    3    0    0  0.11947723197E+02  0.17709759336E+02 -0.70297629027E+01  0.22490025162E+02  0.00000000000E+00 0. -1.
</event>
<event>
 7    1  0.2237500E-009  0.4778726E+02  0.7816164E-02  0.1312668E+00
        -11   -1    0    0    0    0  0.00000000000E+00  0.00000000000E+00  0.45593999997E+02  0.45594000000E+02  0.51100000000E-03 0.  1.
         11   -1    0    0    0    0 -0.00000000000E+00 -0.00000000000E+00 -0.45593999997E+02  0.45594000000E+02  0.51100000000E-03 0. -1.
    9900012    2    1    2    0    0  0.13644914652E+02 -0.70164028262E+01  0.40598155063E+02  0.47787264994E+02  0.19999972415E+02 0.  0.
         12    1    1    2    0    0 -0.13644914652E+02  0.70164028262E+01 -0.40598155063E+02  0.43400735006E+02  0.00000000000E+00 0. -1.
         11    1    3    3    0    0 -0.64255031777E+00  0.25918740240E+01  0.23841392369E+01  0.35797768128E+01  0.51100000000E-03 0. -1.
        -11    1    3    3    0    0  0.77156607246E+01  0.17937951131E+01  0.21638125869E+02  0.23042517499E+02  0.51100000000E-03 0.  1.
        -12    1    3    3    0    0  0.65718042457E+01 -0.11402071963E+02  0.16575889957E+02  0.21164970682E+02  0.00000000000E+00 0.  1.
</event>
<event>
 7    1  0.2237500E-009  0.4778727E+02  0.7816164E-02  0.1312668E+00
        -11   -1    0    0    0    0  0.00000000000E+00  0.00000000000E+00  0.45593999997E+02  0.45594000000E+02  0.51100000000E-03 0. -1.
         11   -1    0    0    0    0 -0.00000000000E+00 -0.00000000000E+00 -0.45593999997E+02  0.45594000000E+02  0.51100000000E-03 0.  1.
    9900012    2    1    2    0    0  0.26295067891E+02  0.31343200748E+02  0.14484356839E+02  0.47787269342E+02  0.19999992239E+02 0.  0.
         12    1    1    2    0    0 -0.26295067891E+02 -0.31343200748E+02 -0.14484356839E+02  0.43400730658E+02  0.00000000000E+00 0. -1.
         11    1    3    3    0    0 -0.14564315970E+01  0.26877952114E+01  0.24457899527E+01  0.39150127521E+01  0.51100000000E-03 0. -1.
        -11    1    3    3    0    0  0.10794653951E+02  0.20128399085E+02  0.36867646254E+01  0.23135886352E+02  0.51100000000E-03 0.  1.
        -12    1    3    3    0    0  0.16956845538E+02  0.85270064520E+01  0.83518022614E+01  0.20736370238E+02  0.00000000000E+00 0.  1.
</event>
<event>
 7    1  0.2237500E-009  0.4778727E+02  0.7816164E-02  0.1312668E+00
        -11   -1    0    0    0    0  0.00000000000E+00  0.00000000000E+00  0.45593999997E+02  0.45594000000E+02  0.51100000000E-03 0.  1.
         11   -1    0    0    0    0 -0.00000000000E+00 -0.00000000000E+00 -0.45593999997E+02  0.45594000000E+02  0.51100000000E-03 0. -1.
    9900012    2    1    2    0    0 -0.41454637756E+01 -0.43154967402E+02  0.20216924808E+01  0.47787270492E+02  0.19999997481E+02 0.  0.
         12    1    1    2    0    0  0.41454637756E+01  0.43154967402E+02 -0.20216924808E+01  0.43400729508E+02  0.00000000000E+00 0. -1.
         11    1    3    3    0    0  0.23471186106E+01 -0.59124288888E+01  0.20741530773E+01  0.66908812863E+01  0.51100000000E-03 0. -1.
        -11    1    3    3    0    0 -0.68391807516E+01 -0.24532074108E+02  0.71902348128E+01  0.26463116413E+02  0.51100000000E-03 0.  1.
        -12    1    3    3    0    0  0.34659836536E+00 -0.12710464405E+02 -0.72426954094E+01  0.14633272792E+02  0.00000000000E+00 0.  1.
</event>
<event>
 7    1  0.3948927E-009  0.4778727E+02  0.7816164E-02  0.1312668E+00
        -11   -1    0    0    0    0  0.00000000000E+00  0.00000000000E+00  0.45593999997E+02  0.45594000000E+02  0.51100000000E-03 0. -1.
         11   -1    0    0    0    0 -0.00000000000E+00 -0.00000000000E+00 -0.45593999997E+02  0.45594000000E+02  0.51100000000E-03 0.  1.
    9900012    2    1    2    0    0 -0.36464819233E+02  0.15715203028E+02 -0.17520632109E+02  0.47787271925E+02  0.20000004016E+02 0.  0.
         12    1    1    2    0    0  0.36464819233E+02 -0.15715203028E+02  0.17520632109E+02  0.43400728075E+02  0.00000000000E+00 0. -1.
         11    1    3    3    0    0  0.29325730433E+00  0.97778754096E+00  0.73715785627E+00  0.12591545926E+01  0.51100000000E-03 0. -1.
        -11    1    3    3    0    0 -0.26728568814E+02  0.17830083249E+02 -0.15517248521E+02  0.35680712737E+02  0.51100000000E-03 0.  1.
        -12    1    3    3    0    0 -0.10029507723E+02 -0.30926677613E+01 -0.27405414437E+01  0.10847404595E+02  0.00000000000E+00 0.  1.
</event>
<event>
 7    1  0.2237500E-009  0.4778726E+02  0.7816164E-02  0.1312668E+00
        -11   -1    0    0    0    0  0.00000000000E+00  0.00000000000E+00  0.45593999997E+02  0.45594000000E+02  0.51100000000E-03 0.  1.
         11   -1    0    0    0    0 -0.00000000000E+00 -0.00000000000E+00 -0.45593999997E+02  0.45594000000E+02  0.51100000000E-03 0. -1.
    9900012    2    1    2    0    0  0.56565706228E+01  0.27427263154E+02  0.33156791458E+02  0.47787258358E+02  0.19999942156E+02 0.  0.
         12    1    1    2    0    0 -0.56565706228E+01 -0.27427263154E+02 -0.33156791458E+02  0.43400741642E+02  0.00000000000E+00 0. -1.
         11    1    3    3    0    0 -0.49604296013E+01  0.33551999130E+01  0.77356222557E+01  0.97827951133E+01  0.51100000000E-03 0. -1.
        -11    1    3    3    0    0 -0.11323040297E+01  0.77779588258E+00 -0.25744962739E+00  0.13976263530E+01  0.51100000000E-03 0.  1.
        -12    1    3    3    0    0  0.11749304254E+02  0.23294267358E+02  0.25678618829E+02  0.36606836891E+02  0.00000000000E+00 0.  1.
</event>
<event>
 7    1  0.2237500E-009  0.4778727E+02  0.7816164E-02  0.1312668E+00
        -11   -1    0    0    0    0  0.00000000000E+00  0.00000000000E+00  0.45593999997E+02  0.45594000000E+02  0.51100000000E-03 0. -1.
         11   -1    0    0    0    0 -0.00000000000E+00 -0.00000000000E+00 -0.45593999997E+02  0.45594000000E+02  0.51100000000E-03 0.  1.
    9900012    2    1    2    0    0 -0.38169738327E+02  0.20169708819E+02  0.44583908489E+01  0.47787270435E+02  0.19999997220E+02 0.  0.
         12    1    1    2    0    0  0.38169738327E+02 -0.20169708819E+02 -0.44583908489E+01  0.43400729565E+02  0.00000000000E+00 0. -1.
         11    1    3    3    0    0 -0.56290174268E+00 -0.41602753760E+00  0.29397298273E+01  0.30219114816E+01  0.51100000000E-03 0. -1.
        -11    1    3    3    0    0 -0.11200250503E+02  0.13200999233E+02  0.99125940063E+00  0.17340547498E+02  0.51100000000E-03 0.  1.
         12    1    3    3    0    0 -0.26406586081E+02  0.73847371240E+01  0.52740162100E+00  0.27424811455E+02  0.00000000000E+00 0. -1.
</event>
<event>
 7    1  0.2237500E-009  0.4778727E+02  0.7816164E-02  0.1312668E+00
        -11   -1    0    0    0    0  0.00000000000E+00  0.00000000000E+00  0.45593999997E+02  0.45594000000E+02  0.51100000000E-03 0.  1.
         11   -1    0    0    0    0 -0.00000000000E+00 -0.00000000000E+00 -0.45593999997E+02  0.45594000000E+02  0.51100000000E-03 0. -1.
    9900012    2    1    2    0    0 -0.92919993881E+01  0.29288980885E+02  0.30650242077E+02  0.47787274277E+02  0.20000014738E+02 0.  0.
         12    1    1    2    0    0  0.92919993881E+01 -0.29288980885E+02 -0.30650242077E+02  0.43400725723E+02  0.00000000000E+00 0. -1.
         11    1    3    3    0    0 -0.38867303181E+01  0.43696944482E+01  0.73006568302E+01  0.93541697948E+01  0.51100000000E-03 0. -1.
        -11    1    3    3    0    0 -0.85380601623E+01  0.25732570410E+02  0.19459862733E+02  0.33372891830E+02  0.51100000000E-03 0.  1.
         12    1    3    3    0    0  0.31327910922E+01 -0.81328397360E+00  0.38897225141E+01  0.50602126522E+01  0.00000000000E+00 0. -1.
</event>
<event>
 7    1  0.2237500E-009  0.4778728E+02  0.7816164E-02  0.1312668E+00
        -11   -1    0    0    0    0  0.00000000000E+00  0.00000000000E+00  0.45593999997E+02  0.45594000000E+02  0.51100000000E-03 0. -1.
         11   -1    0    0    0    0 -0.00000000000E+00 -0.00000000000E+00 -0.45593999997E+02  0.45594000000E+02  0.51100000000E-03 0.  1.
    9900012    2    1    2    0    0 -0.25798358212E+02  0.20854008246E+01 -0.34838464134E+02  0.47787276892E+02  0.20000026663E+02 0.  0.
         12    1    1    2    0    0  0.25798358212E+02 -0.20854008246E+01  0.34838464134E+02  0.43400723108E+02  0.00000000000E+00 0. -1.
         11    1    3    3    0    0 -0.19576245160E+02 -0.51716082021E+01 -0.14580583661E+02  0.24951319126E+02  0.51100000000E-03 0. -1.
        -11    1    3    3    0    0 -0.27880722063E+01  0.17013832544E+01 -0.11215959235E+02  0.11681857447E+02  0.51100000000E-03 0.  1.
        -12    1    3    3    0    0 -0.34340408461E+01  0.55556257722E+01 -0.90419212382E+01  0.11154100319E+02  0.00000000000E+00 0.  1.
</event>
<event>
 7    1  0.2237500E-009  0.4778727E+02  0.7816164E-02  0.1312668E+00
        -11   -1    0    0    0    0  0.00000000000E+00  0.00000000000E+00  0.45593999997E+02  0.45594000000E+02  0.51100000000E-03 0.  1.
         11   -1    0    0    0    0 -0.00000000000E+00 -0.00000000000E+00 -0.45593999997E+02  0.45594000000E+02  0.51100000000E-03 0. -1.
    9900012    2    1    2    0    0 -0.30710614422E+02 -0.21001622788E+02  0.22347551553E+02  0.47787273528E+02  0.20000011324E+02 0.  0.
         12    1    1    2    0    0  0.30710614422E+02  0.21001622788E+02 -0.22347551553E+02  0.43400726472E+02  0.00000000000E+00 0. -1.
         11    1    3    3    0    0 -0.17089324990E+01 -0.44860051464E+01  0.12984969572E+01  0.49730058383E+01  0.51100000000E-03 0. -1.
        -11    1    3    3    0    0 -0.24037631272E+02 -0.18173786003E+02  0.22232648891E+02  0.37448429765E+02  0.51100000000E-03 0.  1.
        -12    1    3    3    0    0 -0.49640506507E+01  0.16581683620E+01 -0.11835942955E+01  0.53658379248E+01  0.00000000000E+00 0.  1.
</event>
<event>
 7    1  0.2237500E-009  0.4778726E+02  0.7816164E-02  0.1312668E+00
        -11   -1    0    0    0    0  0.00000000000E+00  0.00000000000E+00  0.45593999997E+02  0.45594000000E+02  0.51100000000E-03 0.  1.
         11   -1    0    0    0    0 -0.00000000000E+00 -0.00000000000E+00 -0.45593999997E+02  0.45594000000E+02  0.51100000000E-03 0. -1.
    9900012    2    1    2    0    0  0.37320130452E+02 -0.19075312137E+02  0.11267838149E+02  0.47787264446E+02  0.19999969915E+02 0.  0.
         12    1    1    2    0    0 -0.37320130452E+02  0.19075312137E+02 -0.11267838149E+02  0.43400735554E+02  0.00000000000E+00 0. -1.
         11    1    3    3    0    0  0.30387918938E+02 -0.19587440838E+02  0.12956553643E+02  0.38405282691E+02  0.51100000000E-03 0.  1.
        -11    1    3    3    0    0  0.24352416023E+01 -0.26597660799E+01 -0.14093885291E+01  0.38718385230E+01  0.51100000000E-03 0. -1.
        -12    1    3    3    0    0  0.44969699113E+01  0.31718947809E+01 -0.27932696499E+00  0.55101432321E+01  0.00000000000E+00 0.  1.
</event>
<event>
 7    1  0.2237500E-009  0.4778725E+02  0.7816164E-02  0.1312668E+00
        -11   -1    0    0    0    0  0.00000000000E+00  0.00000000000E+00  0.45593999997E+02  0.45594000000E+02  0.51100000000E-03 0.  1.
         11   -1    0    0    0    0 -0.00000000000E+00 -0.00000000000E+00 -0.45593999997E+02  0.45594000000E+02  0.51100000000E-03 0. -1.
    9900012    2    1    2    0    0  0.17560235787E+02 -0.14039623810E+02 -0.37123466813E+02  0.47787254547E+02  0.19999924781E+02 0.  0.
         12    1    1    2    0    0 -0.17560235787E+02  0.14039623810E+02  0.37123466813E+02  0.43400745453E+02  0.00000000000E+00 0. -1.
         11    1    3    3    0    0 -0.10851315130E+01 -0.15583589894E+01 -0.55354648440E+00  0.19779805641E+01  0.51100000000E-03 0. -1.
        -11    1    3    3    0    0 -0.25265861470E+01 -0.48348614302E+00 -0.73258951019E+01  0.77644147051E+01  0.51100000000E-03 0.  1.
        -12    1    3    3    0    0  0.21171953447E+02 -0.11997778678E+02 -0.29244025227E+02  0.38044859278E+02  0.00000000000E+00 0.  1.
</event>
<event>
 7    1  0.2237500E-009  0.4778727E+02  0.7816164E-02  0.1312668E+00
        -11   -1    0    0    0    0  0.00000000000E+00  0.00000000000E+00  0.45593999997E+02  0.45594000000E+02  0.51100000000E-03 0. -1.
         11   -1    0    0    0    0 -0.00000000000E+00 -0.00000000000E+00 -0.45593999997E+02  0.45594000000E+02  0.51100000000E-03 0.  1.
    9900012    2    1    2    0    0 -0.24500633715E+02 -0.35812478445E+02  0.89943024720E+00  0.47787266831E+02  0.19999980789E+02 0.  0.
         12    1    1    2    0    0  0.24500633715E+02  0.35812478445E+02 -0.89943024720E+00  0.43400733169E+02  0.00000000000E+00 0. -1.
         11    1    3    3    0    0  0.20576911712E+00 -0.68055345459E+01  0.41024110793E+01  0.79490514094E+01  0.51100000000E-03 0. -1.
        -11    1    3    3    0    0 -0.20021450524E+01  0.87074232723E+00 -0.13050400576E+00  0.21871919367E+01  0.51100000000E-03 0.  1.
        -12    1    3    3    0    0 -0.22704257780E+02 -0.29877686227E+02 -0.30724768263E+01  0.37651023485E+02  0.00000000000E+00 0.  1.
</event>
<event>
 7    1  0.2237500E-009  0.4778728E+02  0.7816164E-02  0.1312668E+00
        -11   -1    0    0    0    0  0.00000000000E+00  0.00000000000E+00  0.45593999997E+02  0.45594000000E+02  0.51100000000E-03 0.  1.
         11   -1    0    0    0    0 -0.00000000000E+00 -0.00000000000E+00 -0.45593999997E+02  0.45594000000E+02  0.51100000000E-03 0. -1.
    9900012    2    1    2    0    0  0.20508751347E+02  0.30228000725E+02  0.23436764239E+02  0.47787276186E+02  0.20000023440E+02 0.  0.
         12    1    1    2    0    0 -0.20508751347E+02 -0.30228000725E+02 -0.23436764239E+02  0.43400723814E+02  0.00000000000E+00 0. -1.
         11    1    3    3    0    0  0.12998082412E+02  0.19148027557E+02  0.93158445562E+01  0.24947586371E+02  0.51100000000E-03 0. -1.
        -11    1    3    3    0    0  0.90603113626E+01  0.72633345648E+01  0.46444321944E+01  0.12506639103E+02  0.51100000000E-03 0.  1.
         12    1    3    3    0    0 -0.15496424274E+01  0.38166386033E+01  0.94764874885E+01  0.10333050711E+02  0.00000000000E+00 0. -1.
</event>
<event>
 7    1  0.2237500E-009  0.4778727E+02  0.7816164E-02  0.1312668E+00
        -11   -1    0    0    0    0  0.00000000000E+00  0.00000000000E+00  0.45593999997E+02  0.45594000000E+02  0.51100000000E-03 0. -1.
         11   -1    0    0    0    0 -0.00000000000E+00 -0.00000000000E+00 -0.45593999997E+02  0.45594000000E+02  0.51100000000E-03 0.  1.
    9900012    2    1    2    0    0 -0.17084695374E+02  0.15627193090E+02 -0.36708680513E+02  0.47787271839E+02  0.20000003623E+02 0.  0.
         12    1    1    2    0    0  0.17084695374E+02 -0.15627193090E+02  0.36708680513E+02  0.43400728161E+02  0.00000000000E+00 0. -1.
         11    1    3    3    0    0  0.27135857234E+01 -0.15147328107E+01 -0.54292754143E+01  0.62557968918E+01  0.51100000000E-03 0. -1.
        -11    1    3    3    0    0 -0.25634739556E+01  0.56799102493E+01 -0.45052313025E+01  0.76895961215E+01  0.51100000000E-03 0.  1.
        -12    1    3    3    0    0 -0.17234807142E+02  0.11462015652E+02 -0.26774173796E+02  0.33841878826E+02  0.00000000000E+00 0.  1.
</event>
<event>
 7    1  0.2237500E-009  0.4778727E+02  0.7816164E-02  0.1312668E+00
        -11   -1    0    0    0    0  0.00000000000E+00  0.00000000000E+00  0.45593999997E+02  0.45594000000E+02  0.51100000000E-03 0.  1.
         11   -1    0    0    0    0 -0.00000000000E+00 -0.00000000000E+00 -0.45593999997E+02  0.45594000000E+02  0.51100000000E-03 0. -1.
    9900012    2    1    2    0    0 -0.49505541184E+01  0.31810001692E+01  0.42999956699E+02  0.47787273920E+02  0.20000013110E+02 0.  0.
         12    1    1    2    0    0  0.49505541184E+01 -0.31810001692E+01 -0.42999956699E+02  0.43400726080E+02  0.00000000000E+00 0. -1.
         11    1    3    3    0    0  0.49189627093E+01 -0.20365411395E+01  0.11275414718E+02  0.12469108680E+02  0.51100000000E-03 0. -1.
        -11    1    3    3    0    0 -0.22244789134E+01 -0.28038846299E+01  0.35422331263E+01  0.50356222293E+01  0.51100000000E-03 0.  1.
        -12    1    3    3    0    0 -0.76450379144E+01  0.80214259386E+01  0.28182308855E+02  0.30282543010E+02  0.00000000000E+00 0.  1.
</event>
<event>
 7    1  0.2237500E-009  0.4778727E+02  0.7816164E-02  0.1312668E+00
        -11   -1    0    0    0    0  0.00000000000E+00  0.00000000000E+00  0.45593999997E+02  0.45594000000E+02  0.51100000000E-03 0.  1.
         11   -1    0    0    0    0 -0.00000000000E+00 -0.00000000000E+00 -0.45593999997E+02  0.45594000000E+02  0.51100000000E-03 0. -1.
    9900012    2    1    2    0    0  0.99369476188E+01  0.39282025476E+02 -0.15550026890E+02  0.47787265101E+02  0.19999972901E+02 0.  0.
         12    1    1    2    0    0 -0.99369476188E+01 -0.39282025476E+02  0.15550026890E+02  0.43400734899E+02  0.00000000000E+00 0. -1.
         11    1    3    3    0    0 -0.97577276222E-01  0.27255655411E+02 -0.80340718255E+01  0.28415252657E+02  0.51100000000E-03 0. -1.
        -11    1    3    3    0    0 -0.10082826575E+01 -0.48548979502E+00 -0.14430442696E+00  0.11283431603E+01  0.51100000000E-03 0.  1.
        -12    1    3    3    0    0  0.11042807553E+02  0.12511859861E+02 -0.73716506380E+01  0.18243669284E+02  0.00000000000E+00 0.  1.
</event>
<event>
 7    1  0.2237500E-009  0.4778727E+02  0.7816164E-02  0.1312668E+00
        -11   -1    0    0    0    0  0.00000000000E+00  0.00000000000E+00  0.45593999997E+02  0.45594000000E+02  0.51100000000E-03 0. -1.
         11   -1    0    0    0    0 -0.00000000000E+00 -0.00000000000E+00 -0.45593999997E+02  0.45594000000E+02  0.51100000000E-03 0.  1.
    9900012    2    1    2    0    0  0.27291405627E+02 -0.11442514042E+02 -0.31746993776E+02  0.47787267719E+02  0.19999984839E+02 0.  0.
         12    1    1    2    0    0 -0.27291405627E+02  0.11442514042E+02  0.31746993776E+02  0.43400732281E+02  0.00000000000E+00 0. -1.
         11    1    3    3    0    0  0.76154299393E+01 -0.60438385033E+01 -0.59348393562E+01  0.11390569585E+02  0.51100000000E-03 0.  1.
        -11    1    3    3    0    0  0.20004823565E+02 -0.14330382496E+01 -0.15512750081E+02  0.25355314627E+02  0.51100000000E-03 0. -1.
         12    1    3    3    0    0 -0.32884787755E+00 -0.39656372894E+01 -0.10299404338E+02  0.11041383507E+02  0.00000000000E+00 0. -1.
</event>
<event>
 7    1  0.2237500E-009  0.4778727E+02  0.7816164E-02  0.1312668E+00
        -11   -1    0    0    0    0  0.00000000000E+00  0.00000000000E+00  0.45593999997E+02  0.45594000000E+02  0.51100000000E-03 0.  1.
         11   -1    0    0    0    0 -0.00000000000E+00 -0.00000000000E+00 -0.45593999997E+02  0.45594000000E+02  0.51100000000E-03 0. -1.
    9900012    2    1    2    0    0 -0.63362468406E+01 -0.38145105652E+02  0.19708529787E+02  0.47787271255E+02  0.20000000962E+02 0.  0.
         12    1    1    2    0    0  0.63362468406E+01  0.38145105652E+02 -0.19708529787E+02  0.43400728745E+02  0.00000000000E+00 0. -1.
         11    1    3    3    0    0 -0.47435999900E+01 -0.72702618504E+01  0.88051014368E+01  0.12364799222E+02  0.51100000000E-03 0. -1.
        -11    1    3    3    0    0 -0.31648828839E+01 -0.22684364614E+02  0.13624201919E+02  0.26649873542E+02  0.51100000000E-03 0.  1.
         12    1    3    3    0    0  0.15722360333E+01 -0.81904791873E+01 -0.27207735695E+01  0.87725984906E+01  0.00000000000E+00 0. -1.
</event>
<event>
 7    1  0.2237500E-009  0.4778726E+02  0.7816164E-02  0.1312668E+00
        -11   -1    0    0    0    0  0.00000000000E+00  0.00000000000E+00  0.45593999997E+02  0.45594000000E+02  0.51100000000E-03 0.  1.
         11   -1    0    0    0    0 -0.00000000000E+00 -0.00000000000E+00 -0.45593999997E+02  0.45594000000E+02  0.51100000000E-03 0. -1.
    9900012    2    1    2    0    0 -0.24663463069E+02 -0.28799622929E+02  0.21116804648E+02  0.47787261182E+02  0.19999955032E+02 0.  0.
         12    1    1    2    0    0  0.24663463069E+02  0.28799622929E+02 -0.21116804648E+02  0.43400738818E+02  0.00000000000E+00 0. -1.
         11    1    3    3    0    0  0.13620413592E+01 -0.16740067789E+01  0.31714348473E+01  0.38360728110E+01  0.51100000000E-03 0.  1.
        -11    1    3    3    0    0 -0.98482698942E-01  0.14515769221E+01  0.15991940497E+00  0.14636764943E+01  0.51100000000E-03 0. -1.
         12    1    3    3    0    0 -0.25927021729E+02 -0.28577193072E+02  0.17785450396E+02  0.42487511876E+02  0.00000000000E+00 0. -1.
</event>
<event>
 7    1  0.2237500E-009  0.4778727E+02  0.7816164E-02  0.1312668E+00
        -11   -1    0    0    0    0  0.00000000000E+00  0.00000000000E+00  0.45593999997E+02  0.45594000000E+02  0.51100000000E-03 0.  1.
         11   -1    0    0    0    0 -0.00000000000E+00 -0.00000000000E+00 -0.45593999997E+02  0.45594000000E+02  0.51100000000E-03 0. -1.
    9900012    2    1    2    0    0 -0.37165804751E+02  0.33610774573E+01  0.22159182198E+02  0.47787271433E+02  0.20000001773E+02 0.  0.
         12    1    1    2    0    0  0.37165804751E+02 -0.33610774573E+01 -0.22159182198E+02  0.43400728567E+02  0.00000000000E+00 0. -1.
         11    1    3    3    0    0 -0.17209152997E+02  0.70214762834E+00  0.18439737546E+00  0.17224458215E+02  0.51100000000E-03 0. -1.
        -11    1    3    3    0    0 -0.10202443660E+01  0.19961547825E+01  0.17096203067E+01  0.28192790455E+01  0.51100000000E-03 0.  1.
        -12    1    3    3    0    0 -0.18936407388E+02  0.66277504645E+00  0.20265164516E+02  0.27743534173E+02  0.00000000000E+00 0.  1.
</event>
<event>
 7    1  0.2237500E-009  0.4778727E+02  0.7816164E-02  0.1312668E+00
        -11   -1    0    0    0    0  0.00000000000E+00  0.00000000000E+00  0.45593999997E+02  0.45594000000E+02  0.51100000000E-03 0.  1.
         11   -1    0    0    0    0 -0.00000000000E+00 -0.00000000000E+00 -0.45593999997E+02  0.45594000000E+02  0.51100000000E-03 0. -1.
    9900012    2    1    2    0    0 -0.35949333011E+01 -0.41872665035E+02 -0.10834187594E+02  0.47787271395E+02  0.20000001601E+02 0.  0.
         12    1    1    2    0    0  0.35949333011E+01  0.41872665035E+02  0.10834187594E+02  0.43400728605E+02  0.00000000000E+00 0. -1.
         11    1    3    3    0    0 -0.39539730877E+00  0.73863855757E+00 -0.96679555004E+00  0.12793044388E+01  0.51100000000E-03 0. -1.
        -11    1    3    3    0    0  0.47310437482E+01 -0.28072907151E+02 -0.92568985525E+01  0.29935949324E+02  0.51100000000E-03 0.  1.
        -12    1    3    3    0    0 -0.79305797406E+01 -0.14538396442E+02 -0.61049349171E+00  0.16572017633E+02  0.00000000000E+00 0.  1.
</event>
<event>
 7    1  0.2237500E-009  0.4778728E+02  0.7816164E-02  0.1312668E+00
        -11   -1    0    0    0    0  0.00000000000E+00  0.00000000000E+00  0.45593999997E+02  0.45594000000E+02  0.51100000000E-03 0.  1.
         11   -1    0    0    0    0 -0.00000000000E+00 -0.00000000000E+00 -0.45593999997E+02  0.45594000000E+02  0.51100000000E-03 0. -1.
    9900012    2    1    2    0    0 -0.28854142609E+02  0.22220528601E+02  0.23607386555E+02  0.47787284142E+02  0.20000059719E+02 0.  0.
         12    1    1    2    0    0  0.28854142609E+02 -0.22220528601E+02 -0.23607386555E+02  0.43400715858E+02  0.00000000000E+00 0. -1.
         11    1    3    3    0    0 -0.79392946390E+01  0.56794054476E+01  0.20447258978E+01  0.99734121474E+01  0.51100000000E-03 0. -1.
        -11    1    3    3    0    0 -0.10358619460E+02  0.10523207679E+01  0.17826373361E+01  0.10563435627E+02  0.51100000000E-03 0.  1.
        -12    1    3    3    0    0 -0.10556228511E+02  0.15488802385E+02  0.19780023321E+02  0.27250436368E+02  0.00000000000E+00 0.  1.
</event>
<event>
 7    1  0.2237500E-009  0.4778727E+02  0.7816164E-02  0.1312668E+00
        -11   -1    0    0    0    0  0.00000000000E+00  0.00000000000E+00  0.45593999997E+02  0.45594000000E+02  0.51100000000E-03 0.  1.
         11   -1    0    0    0    0 -0.00000000000E+00 -0.00000000000E+00 -0.45593999997E+02  0.45594000000E+02  0.51100000000E-03 0. -1.
    9900012    2    1    2    0    0  0.76906305492E+01 -0.42627531255E+02  0.27149282932E+01  0.47787273569E+02  0.20000011509E+02 0.  0.
         12    1    1    2    0    0 -0.76906305492E+01  0.42627531255E+02 -0.27149282932E+01  0.43400726431E+02  0.00000000000E+00 0. -1.
         11    1    3    3    0    0  0.82772046566E+00 -0.31820901852E+02 -0.45226268362E+01  0.32151346310E+02  0.51100000000E-03 0. -1.
        -11    1    3    3    0    0  0.14545843808E+01 -0.78210659593E+00  0.31089542292E+01  0.35203839433E+01  0.51100000000E-03 0.  1.
        -12    1    3    3    0    0  0.54083257027E+01 -0.10024522807E+02  0.41286009002E+01  0.12115543315E+02  0.00000000000E+00 0.  1.
</event>
<event>
 7    1  0.2237500E-009  0.4778727E+02  0.7816164E-02  0.1312668E+00
        -11   -1    0    0    0    0  0.00000000000E+00  0.00000000000E+00  0.45593999997E+02  0.45594000000E+02  0.51100000000E-03 0.  1.
         11   -1    0    0    0    0 -0.00000000000E+00 -0.00000000000E+00 -0.45593999997E+02  0.45594000000E+02  0.51100000000E-03 0. -1.
    9900012    2    1    2    0    0 -0.22718593904E+02 -0.22499079487E+02  0.29347574486E+02  0.47787271723E+02  0.20000003095E+02 0.  0.
         12    1    1    2    0    0  0.22718593904E+02  0.22499079487E+02 -0.29347574486E+02  0.43400728277E+02  0.00000000000E+00 0. -1.
         11    1    3    3    0    0 -0.16432170759E+01  0.40546537756E+00  0.79129977184E+01  0.80919773655E+01  0.51100000000E-03 0. -1.
        -11    1    3    3    0    0 -0.68373101359E+00 -0.74957194986E+01  0.26641873891E+01  0.79844344575E+01  0.51100000000E-03 0.  1.
        -12    1    3    3    0    0 -0.20391645815E+02 -0.15408825366E+02  0.18770389379E+02  0.31710859900E+02  0.00000000000E+00 0.  1.
</event>
<event>
 7    1  0.2237500E-009  0.4778727E+02  0.7816164E-02  0.1312668E+00
        -11   -1    0    0    0    0  0.00000000000E+00  0.00000000000E+00  0.45593999997E+02  0.45594000000E+02  0.51100000000E-03 0. -1.
         11   -1    0    0    0    0 -0.00000000000E+00 -0.00000000000E+00 -0.45593999997E+02  0.45594000000E+02  0.51100000000E-03 0.  1.
    9900012    2    1    2    0    0 -0.41453753749E+02 -0.12082953372E+02  0.43831402671E+01  0.47787269814E+02  0.19999994390E+02 0.  0.
         12    1    1    2    0    0  0.41453753749E+02  0.12082953372E+02 -0.43831402671E+01  0.43400730186E+02  0.00000000000E+00 0. -1.
         11    1    3    3    0    0 -0.13509146781E+01 -0.21191625868E+01  0.17606092555E+01  0.30684793870E+01  0.51100000000E-03 0. -1.
        -11    1    3    3    0    0 -0.23109039604E+02 -0.91569982981E+01 -0.61078425636E+01  0.25596563643E+02  0.51100000000E-03 0.  1.
        -12    1    3    3    0    0 -0.16993799467E+02 -0.80679248736E+00  0.87303735752E+01  0.19122226784E+02  0.00000000000E+00 0.  1.
</event>
<event>
 7    1  0.2237500E-009  0.4778727E+02  0.7816164E-02  0.1312668E+00
        -11   -1    0    0    0    0  0.00000000000E+00  0.00000000000E+00  0.45593999997E+02  0.45594000000E+02  0.51100000000E-03 0.  1.
         11   -1    0    0    0    0 -0.00000000000E+00 -0.00000000000E+00 -0.45593999997E+02  0.45594000000E+02  0.51100000000E-03 0. -1.
    9900012    2    1    2    0    0  0.27236666920E+02  0.21690723211E+02  0.25909452568E+02  0.47787271542E+02  0.20000002267E+02 0.  0.
         12    1    1    2    0    0 -0.27236666920E+02 -0.21690723211E+02 -0.25909452568E+02  0.43400728458E+02  0.00000000000E+00 0. -1.
         11    1    3    3    0    0 -0.21394193634E+01  0.55592709936E+00  0.51172695714E+01  0.55742818623E+01  0.51100000000E-03 0. -1.
        -11    1    3    3    0    0  0.19735779975E+02  0.17661262864E+02  0.14652659766E+02  0.30267501642E+02  0.51100000000E-03 0.  1.
         12    1    3    3    0    0  0.96403063087E+01  0.34735332475E+01  0.61395232309E+01  0.11945488037E+02  0.00000000000E+00 0. -1.
</event>
<event>
 7    1  0.2237500E-009  0.4778727E+02  0.7816164E-02  0.1312668E+00
        -11   -1    0    0    0    0  0.00000000000E+00  0.00000000000E+00  0.45593999997E+02  0.45594000000E+02  0.51100000000E-03 0.  1.
         11   -1    0    0    0    0 -0.00000000000E+00 -0.00000000000E+00 -0.45593999997E+02  0.45594000000E+02  0.51100000000E-03 0. -1.
    9900012    2    1    2    0    0 -0.25190972360E+02  0.11087194152E+02  0.33557598578E+02  0.47787269765E+02  0.19999994168E+02 0.  0.
         12    1    1    2    0    0  0.25190972360E+02 -0.11087194152E+02 -0.33557598578E+02  0.43400730235E+02  0.00000000000E+00 0. -1.
         11    1    3    3    0    0 -0.86382601759E+01  0.15431384254E+01  0.15070769195E+02  0.17439291828E+02  0.51100000000E-03 0. -1.
        -11    1    3    3    0    0 -0.18421394055E+02  0.11038538336E+02  0.15325038372E+02  0.26382833223E+02  0.51100000000E-03 0.  1.
         12    1    3    3    0    0  0.18686818712E+01 -0.14944826097E+01  0.31617910107E+01  0.39651447138E+01  0.00000000000E+00 0. -1.
</event>
<event>
 7    1  0.2237500E-009  0.4778727E+02  0.7816164E-02  0.1312668E+00
        -11   -1    0    0    0    0  0.00000000000E+00  0.00000000000E+00  0.45593999997E+02  0.45594000000E+02  0.51100000000E-03 0. -1.
         11   -1    0    0    0    0 -0.00000000000E+00 -0.00000000000E+00 -0.45593999997E+02  0.45594000000E+02  0.51100000000E-03 0.  1.
    9900012    2    1    2    0    0 -0.24567641850E+02  0.18809593031E+02 -0.30434412718E+02  0.47787270817E+02  0.19999998964E+02 0.  0.
         12    1    1    2    0    0  0.24567641850E+02 -0.18809593031E+02  0.30434412718E+02  0.43400729183E+02  0.00000000000E+00 0. -1.
         11    1    3    3    0    0 -0.10443833015E+02  0.73968883466E+00 -0.12774512433E+02  0.16516929369E+02  0.51100000000E-03 0. -1.
        -11    1    3    3    0    0 -0.72545429425E+01  0.82027714298E+01 -0.15619420100E+02  0.19075642504E+02  0.51100000000E-03 0.  1.
        -12    1    3    3    0    0 -0.68692658934E+01  0.98671327667E+01 -0.20404801849E+01  0.12194698944E+02  0.00000000000E+00 0.  1.
</event>
<event>
 7    1  0.2237500E-009  0.4778727E+02  0.7816164E-02  0.1312668E+00
        -11   -1    0    0    0    0  0.00000000000E+00  0.00000000000E+00  0.45593999997E+02  0.45594000000E+02  0.51100000000E-03 0.  1.
         11   -1    0    0    0    0 -0.00000000000E+00 -0.00000000000E+00 -0.45593999997E+02  0.45594000000E+02  0.51100000000E-03 0. -1.
    9900012    2    1    2    0    0  0.34046116537E+02 -0.58739709651E+01  0.26267505150E+02  0.47787269442E+02  0.19999992694E+02 0.  0.
         12    1    1    2    0    0 -0.34046116537E+02  0.58739709651E+01 -0.26267505150E+02  0.43400730558E+02  0.00000000000E+00 0. -1.
         11    1    3    3    0    0  0.83963855428E+01 -0.66474263593E+01  0.91253627283E+01  0.14069819209E+02  0.51100000000E-03 0. -1.
        -11    1    3    3    0    0  0.17925746539E+02 -0.32661838414E+01  0.52297127880E+01  0.18956535600E+02  0.51100000000E-03 0.  1.
        -12    1    3    3    0    0  0.77239844557E+01  0.40396392356E+01  0.11912429634E+02  0.14760914633E+02  0.00000000000E+00 0.  1.
</event>
<event>
 7    1  0.2237500E-009  0.4778727E+02  0.7816164E-02  0.1312668E+00
        -11   -1    0    0    0    0  0.00000000000E+00  0.00000000000E+00  0.45593999997E+02  0.45594000000E+02  0.51100000000E-03 0. -1.
         11   -1    0    0    0    0 -0.00000000000E+00 -0.00000000000E+00 -0.45593999997E+02  0.45594000000E+02  0.51100000000E-03 0.  1.
    9900012    2    1    2    0    0  0.41866532473E+02  0.46193107061E+00 -0.11428193689E+02  0.47787268063E+02  0.19999986409E+02 0.  0.
         12    1    1    2    0    0 -0.41866532473E+02 -0.46193107061E+00  0.11428193689E+02  0.43400731937E+02  0.00000000000E+00 0. -1.
         11    1    3    3    0    0  0.14545866309E+02 -0.17195639460E+00 -0.12854277782E+02  0.19412476742E+02  0.51100000000E-03 0. -1.
        -11    1    3    3    0    0  0.24698381155E+01  0.12233777932E+01 -0.18244357383E+01  0.33053471173E+01  0.51100000000E-03 0.  1.
        -12    1    3    3    0    0  0.24850828048E+02 -0.58949032801E+00  0.32505198317E+01  0.25069444204E+02  0.00000000000E+00 0.  1.
</event>
<event>
 7    1  0.2237500E-009  0.4778727E+02  0.7816164E-02  0.1312668E+00
        -11   -1    0    0    0    0  0.00000000000E+00  0.00000000000E+00  0.45593999997E+02  0.45594000000E+02  0.51100000000E-03 0. -1.
         11   -1    0    0    0    0 -0.00000000000E+00 -0.00000000000E+00 -0.45593999997E+02  0.45594000000E+02  0.51100000000E-03 0.  1.
    9900012    2    1    2    0    0 -0.27378141340E+02 -0.23316821994E+02 -0.24297867128E+02  0.47787272378E+02  0.20000006082E+02 0.  0.
         12    1    1    2    0    0  0.27378141340E+02  0.23316821994E+02  0.24297867128E+02  0.43400727622E+02  0.00000000000E+00 0. -1.
         11    1    3    3    0    0 -0.37817625360E+01 -0.72286980649E+00  0.14291554471E+01  0.41069154105E+01  0.51100000000E-03 0. -1.
        -11    1    3    3    0    0 -0.90356470855E+01 -0.23408475375E+01 -0.26601645004E+01  0.97056149150E+01  0.51100000000E-03 0.  1.
        -12    1    3    3    0    0 -0.14560731718E+02 -0.20253104650E+02 -0.23066858074E+02  0.33974742053E+02  0.00000000000E+00 0.  1.
</event>
<event>
 7    1  0.2237500E-009  0.4778727E+02  0.7816164E-02  0.1312668E+00
        -11   -1    0    0    0    0  0.00000000000E+00  0.00000000000E+00  0.45593999997E+02  0.45594000000E+02  0.51100000000E-03 0.  1.
         11   -1    0    0    0    0 -0.00000000000E+00 -0.00000000000E+00 -0.45593999997E+02  0.45594000000E+02  0.51100000000E-03 0. -1.
    9900012    2    1    2    0    0  0.33439424926E+02 -0.75973261818E+01 -0.26602799524E+02  0.47787269050E+02  0.19999990909E+02 0.  0.
         12    1    1    2    0    0 -0.33439424926E+02  0.75973261818E+01  0.26602799524E+02  0.43400730950E+02  0.00000000000E+00 0. -1.
         11    1    3    3    0    0  0.75475271791E+01  0.10916525568E+01 -0.38605940724E+01  0.85475761873E+01  0.51100000000E-03 0.  1.
        -11    1    3    3    0    0  0.80262744079E+01  0.22642134826E+01 -0.14487907623E+02  0.16716674643E+02  0.51100000000E-03 0. -1.
         12    1    3    3    0    0  0.17865623339E+02 -0.10953192221E+02 -0.82542978283E+01  0.22523018220E+02  0.00000000000E+00 0. -1.
</event>
<event>
 7    1  0.2237500E-009  0.4778727E+02  0.7816164E-02  0.1312668E+00
        -11   -1    0    0    0    0  0.00000000000E+00  0.00000000000E+00  0.45593999997E+02  0.45594000000E+02  0.51100000000E-03 0. -1.
         11   -1    0    0    0    0 -0.00000000000E+00 -0.00000000000E+00 -0.45593999997E+02  0.45594000000E+02  0.51100000000E-03 0.  1.
    9900012    2    1    2    0    0  0.25928651432E+02  0.16911807912E+02 -0.30419061163E+02  0.47787268509E+02  0.19999988439E+02 0.  0.
         12    1    1    2    0    0 -0.25928651432E+02 -0.16911807912E+02  0.30419061163E+02  0.43400731491E+02  0.00000000000E+00 0. -1.
         11    1    3    3    0    0  0.12095749724E+01  0.40065571527E+01 -0.14063482655E+02  0.14673006389E+02  0.51100000000E-03 0. -1.
        -11    1    3    3    0    0  0.46350167225E+01  0.52249209691E+01 -0.61780997831E+01  0.93248107939E+01  0.51100000000E-03 0.  1.
         12    1    3    3    0    0  0.20084059737E+02  0.76803297900E+01 -0.10177478724E+02  0.23789451326E+02  0.00000000000E+00 0. -1.
</event>
<event>
 7    1  0.2237500E-009  0.4778727E+02  0.7816164E-02  0.1312668E+00
        -11   -1    0    0    0    0  0.00000000000E+00  0.00000000000E+00  0.45593999997E+02  0.45594000000E+02  0.51100000000E-03 0.  1.
         11   -1    0    0    0    0 -0.00000000000E+00 -0.00000000000E+00 -0.45593999997E+02  0.45594000000E+02  0.51100000000E-03 0. -1.
    9900012    2    1    2    0    0 -0.21914615049E+02 -0.18456568243E+02  0.32599512032E+02  0.47787269029E+02  0.19999990811E+02 0.  0.
         12    1    1    2    0    0  0.21914615049E+02  0.18456568243E+02 -0.32599512032E+02  0.43400730971E+02  0.00000000000E+00 0. -1.
         11    1    3    3    0    0 -0.11592159493E+02 -0.54463964337E+01  0.29073191286E+01  0.13133693335E+02  0.51100000000E-03 0. -1.
        -11    1    3    3    0    0 -0.27582247156E+01  0.59141730424E-01  0.42197294084E+01  0.50415689886E+01  0.51100000000E-03 0.  1.
         12    1    3    3    0    0 -0.75642308401E+01 -0.13069313540E+02  0.25472463495E+02  0.29612006706E+02  0.00000000000E+00 0. -1.
</event>
<event>
 7    1  0.2237500E-009  0.4778728E+02  0.7816164E-02  0.1312668E+00
        -11   -1    0    0    0    0  0.00000000000E+00  0.00000000000E+00  0.45593999997E+02  0.45594000000E+02  0.51100000000E-03 0. -1.
         11   -1    0    0    0    0 -0.00000000000E+00 -0.00000000000E+00 -0.45593999997E+02  0.45594000000E+02  0.51100000000E-03 0.  1.
    9900012    2    1    2    0    0 -0.29377171167E+02  0.24796979520E+02 -0.20142345977E+02  0.47787280184E+02  0.20000041672E+02 0.  0.
         12    1    1    2    0    0  0.29377171167E+02 -0.24796979520E+02  0.20142345977E+02  0.43400719816E+02  0.00000000000E+00 0. -1.
         11    1    3    3    0    0 -0.30576295262E+01  0.12238982471E+02 -0.34299304587E+01  0.13073110320E+02  0.51100000000E-03 0. -1.
        -11    1    3    3    0    0 -0.19524271997E+02  0.11584765104E+02 -0.16080343533E+02  0.27820521705E+02  0.51100000000E-03 0.  1.
        -12    1    3    3    0    0 -0.67952696436E+01  0.97323194564E+00 -0.63207198493E+00  0.68936481593E+01  0.00000000000E+00 0.  1.
</event>
<event>
 7    1  0.2237500E-009  0.4778727E+02  0.7816164E-02  0.1312668E+00
        -11   -1    0    0    0    0  0.00000000000E+00  0.00000000000E+00  0.45593999997E+02  0.45594000000E+02  0.51100000000E-03 0.  1.
         11   -1    0    0    0    0 -0.00000000000E+00 -0.00000000000E+00 -0.45593999997E+02  0.45594000000E+02  0.51100000000E-03 0. -1.
    9900012    2    1    2    0    0 -0.30266076128E+02  0.16748096175E+02  0.26212388182E+02  0.47787269777E+02  0.19999994220E+02 0.  0.
         12    1    1    2    0    0  0.30266076128E+02 -0.16748096175E+02 -0.26212388182E+02  0.43400730223E+02  0.00000000000E+00 0. -1.
         11    1    3    3    0    0 -0.17553868711E+02  0.49808756258E+01  0.13468954331E+02  0.22679509689E+02  0.51100000000E-03 0. -1.
        -11    1    3    3    0    0 -0.66023583250E+01 -0.16772826058E+01  0.48558955522E+01  0.83656520527E+01  0.51100000000E-03 0.  1.
         12    1    3    3    0    0 -0.61098490916E+01  0.13444503155E+02  0.78875382997E+01  0.16742108035E+02  0.00000000000E+00 0. -1.
</event>
<event>
 7    1  0.2237500E-009  0.4778727E+02  0.7816164E-02  0.1312668E+00
        -11   -1    0    0    0    0  0.00000000000E+00  0.00000000000E+00  0.45593999997E+02  0.45594000000E+02  0.51100000000E-03 0. -1.
         11   -1    0    0    0    0 -0.00000000000E+00 -0.00000000000E+00 -0.45593999997E+02  0.45594000000E+02  0.51100000000E-03 0.  1.
    9900012    2    1    2    0    0  0.15354326904E+02  0.27365333840E+02 -0.29983439031E+02  0.47787268819E+02  0.19999989854E+02 0.  0.
         12    1    1    2    0    0 -0.15354326904E+02 -0.27365333840E+02  0.29983439031E+02  0.43400731181E+02  0.00000000000E+00 0. -1.
         11    1    3    3    0    0  0.49261135904E+01  0.11918189135E+01  0.10975253602E+01  0.51857101351E+01  0.51100000000E-03 0. -1.
        -11    1    3    3    0    0  0.39598448063E+01  0.27757267594E+01 -0.45352182110E+01  0.66297235550E+01  0.51100000000E-03 0.  1.
        -12    1    3    3    0    0  0.64683685075E+01  0.23397788168E+02 -0.26545746180E+02  0.35971835129E+02  0.00000000000E+00 0.  1.
</event>
<event>
 7    1  0.2237500E-009  0.4778727E+02  0.7816164E-02  0.1312668E+00
        -11   -1    0    0    0    0  0.00000000000E+00  0.00000000000E+00  0.45593999997E+02  0.45594000000E+02  0.51100000000E-03 0.  1.
         11   -1    0    0    0    0 -0.00000000000E+00 -0.00000000000E+00 -0.45593999997E+02  0.45594000000E+02  0.51100000000E-03 0. -1.
    9900012    2    1    2    0    0  0.25523468300E+02  0.35497813538E+01  0.34922410275E+02  0.47787272804E+02  0.20000008023E+02 0.  0.
         12    1    1    2    0    0 -0.25523468300E+02 -0.35497813538E+01 -0.34922410275E+02  0.43400727196E+02  0.00000000000E+00 0. -1.
         11    1    3    3    0    0  0.23635923817E+01 -0.24010237455E+01  0.98584192421E+01  0.10418249094E+02  0.51100000000E-03 0. -1.
        -11    1    3    3    0    0  0.11402444016E+02  0.78375372248E+00  0.20982359512E+02  0.23893292163E+02  0.51100000000E-03 0.  1.
         12    1    3    3    0    0  0.11757431902E+02  0.51670513768E+01  0.40816315216E+01  0.13475731547E+02  0.00000000000E+00 0. -1.
</event>
<event>
 7    1  0.2237500E-009  0.4778727E+02  0.7816164E-02  0.1312668E+00
        -11   -1    0    0    0    0  0.00000000000E+00  0.00000000000E+00  0.45593999997E+02  0.45594000000E+02  0.51100000000E-03 0.  1.
         11   -1    0    0    0    0 -0.00000000000E+00 -0.00000000000E+00 -0.45593999997E+02  0.45594000000E+02  0.51100000000E-03 0. -1.
    9900012    2    1    2    0    0  0.18703487359E+02 -0.26627071412E+02  0.28719366240E+02  0.47787269953E+02  0.19999995025E+02 0.  0.
         12    1    1    2    0    0 -0.18703487359E+02  0.26627071412E+02 -0.28719366240E+02  0.43400730047E+02  0.00000000000E+00 0. -1.
         11    1    3    3    0    0  0.85793443943E+01 -0.76855021259E+01  0.14853782940E+02  0.18796461397E+02  0.51100000000E-03 0. -1.
        -11    1    3    3    0    0 -0.25039325607E+00  0.20370552400E+01  0.12582768831E+01  0.24073952332E+01  0.51100000000E-03 0.  1.
        -12    1    3    3    0    0  0.10374536221E+02 -0.20978624526E+02  0.12607306416E+02  0.26583413323E+02  0.00000000000E+00 0.  1.
</event>
<event>
 7    1  0.2237500E-009  0.4778727E+02  0.7816164E-02  0.1312668E+00
        -11   -1    0    0    0    0  0.00000000000E+00  0.00000000000E+00  0.45593999997E+02  0.45594000000E+02  0.51100000000E-03 0. -1.
         11   -1    0    0    0    0 -0.00000000000E+00 -0.00000000000E+00 -0.45593999997E+02  0.45594000000E+02  0.51100000000E-03 0.  1.
    9900012    2    1    2    0    0  0.38766040883E+02 -0.15500010232E+02  0.11856111393E+02  0.47787267053E+02  0.19999981803E+02 0.  0.
         12    1    1    2    0    0 -0.38766040883E+02  0.15500010232E+02 -0.11856111393E+02  0.43400732947E+02  0.00000000000E+00 0. -1.
         11    1    3    3    0    0  0.16987789665E+02 -0.47138665852E+01  0.89092778075E+00  0.17652175176E+02  0.51100000000E-03 0. -1.
        -11    1    3    3    0    0  0.69693868296E+01  0.19045707018E+01 -0.93995292745E+00  0.72858255611E+01  0.51100000000E-03 0.  1.
         12    1    3    3    0    0  0.14808864389E+02 -0.12690714349E+02  0.11905136539E+02  0.22849266316E+02  0.00000000000E+00 0. -1.
</event>
<event>
 7    1  0.2237500E-009  0.4778729E+02  0.7816164E-02  0.1312668E+00
        -11   -1    0    0    0    0  0.00000000000E+00  0.00000000000E+00  0.45593999997E+02  0.45594000000E+02  0.51100000000E-03 0.  1.
         11   -1    0    0    0    0 -0.00000000000E+00 -0.00000000000E+00 -0.45593999997E+02  0.45594000000E+02  0.51100000000E-03 0. -1.
    9900012    2    1    2    0    0 -0.14702510639E+02  0.29520839507E+02  0.28213080667E+02  0.47787289119E+02  0.20000082408E+02 0.  0.
         12    1    1    2    0    0  0.14702510639E+02 -0.29520839507E+02 -0.28213080667E+02  0.43400710881E+02  0.00000000000E+00 0. -1.
         11    1    3    3    0    0 -0.10847495690E+02  0.89929145379E+01  0.11227569558E+02  0.18016631013E+02  0.51100000000E-03 0. -1.
        -11    1    3    3    0    0 -0.38248704626E+01  0.21831875892E+02  0.13270741051E+02  0.25833563582E+02  0.51100000000E-03 0.  1.
         12    1    3    3    0    0 -0.30144486438E-01 -0.13039509235E+01  0.37147700585E+01  0.39370945237E+01  0.00000000000E+00 0. -1.
</event>
<event>
 7    1  0.2237500E-009  0.4778727E+02  0.7816164E-02  0.1312668E+00
        -11   -1    0    0    0    0  0.00000000000E+00  0.00000000000E+00  0.45593999997E+02  0.45594000000E+02  0.51100000000E-03 0. -1.
         11   -1    0    0    0    0 -0.00000000000E+00 -0.00000000000E+00 -0.45593999997E+02  0.45594000000E+02  0.51100000000E-03 0.  1.
    9900012    2    1    2    0    0 -0.11223048081E+02  0.41844271040E+02 -0.25929057956E+01  0.47787274343E+02  0.20000015039E+02 0.  0.
         12    1    1    2    0    0  0.11223048081E+02 -0.41844271040E+02  0.25929057956E+01  0.43400725657E+02  0.00000000000E+00 0. -1.
         11    1    3    3    0    0  0.21056485373E+01  0.35255715292E+01  0.27242060886E+01  0.49279518508E+01  0.51100000000E-03 0. -1.
        -11    1    3    3    0    0  0.74291765228E+00  0.16567054878E+02 -0.29607281162E+01  0.16845923697E+02  0.51100000000E-03 0.  1.
         12    1    3    3    0    0 -0.14071614270E+02  0.21751644632E+02 -0.23563837680E+01  0.26013398795E+02  0.00000000000E+00 0. -1.
</event>
<event>
 7    1  0.2237500E-009  0.4778727E+02  0.7816164E-02  0.1312668E+00
        -11   -1    0    0    0    0  0.00000000000E+00  0.00000000000E+00  0.45593999997E+02  0.45594000000E+02  0.51100000000E-03 0. -1.
         11   -1    0    0    0    0 -0.00000000000E+00 -0.00000000000E+00 -0.45593999997E+02  0.45594000000E+02  0.51100000000E-03 0.  1.
    9900012    2    1    2    0    0 -0.14253593531E+02 -0.38659592661E+02  0.13634291629E+02  0.47787274873E+02  0.20000017458E+02 0.  0.
         12    1    1    2    0    0  0.14253593531E+02  0.38659592661E+02 -0.13634291629E+02  0.43400725127E+02  0.00000000000E+00 0. -1.
         11    1    3    3    0    0 -0.39527696644E+00 -0.35886313962E+01  0.77788846928E+01  0.85758711804E+01  0.51100000000E-03 0. -1.
        -11    1    3    3    0    0  0.66971243452E+00 -0.79610213072E+01  0.63648636216E+00  0.80144550750E+01  0.51100000000E-03 0.  1.
        -12    1    3    3    0    0 -0.14528028999E+02 -0.27109939958E+02  0.52189205743E+01  0.31196948618E+02  0.00000000000E+00 0.  1.
</event>
<event>
 7    1  0.2237500E-009  0.4778727E+02  0.7816164E-02  0.1312668E+00
        -11   -1    0    0    0    0  0.00000000000E+00  0.00000000000E+00  0.45593999997E+02  0.45594000000E+02  0.51100000000E-03 0. -1.
         11   -1    0    0    0    0 -0.00000000000E+00 -0.00000000000E+00 -0.45593999997E+02  0.45594000000E+02  0.51100000000E-03 0.  1.
    9900012    2    1    2    0    0  0.20722183694E+02 -0.31443754723E+02 -0.21575550957E+02  0.47787274116E+02  0.20000014007E+02 0.  0.
         12    1    1    2    0    0 -0.20722183694E+02  0.31443754723E+02  0.21575550957E+02  0.43400725884E+02  0.00000000000E+00 0. -1.
         11    1    3    3    0    0  0.80087351453E+01 -0.25878759934E+01 -0.12590917017E+01  0.85101264949E+01  0.51100000000E-03 0. -1.
        -11    1    3    3    0    0 -0.86573588491E+00 -0.53891654922E+01 -0.10334201098E+00  0.54592383312E+01  0.51100000000E-03 0.  1.
        -12    1    3    3    0    0  0.13579184434E+02 -0.23466713237E+02 -0.20213117244E+02  0.33817909290E+02  0.00000000000E+00 0.  1.
</event>
<event>
 7    1  0.2237500E-009  0.4778727E+02  0.7816164E-02  0.1312668E+00
        -11   -1    0    0    0    0  0.00000000000E+00  0.00000000000E+00  0.45593999997E+02  0.45594000000E+02  0.51100000000E-03 0. -1.
         11   -1    0    0    0    0 -0.00000000000E+00 -0.00000000000E+00 -0.45593999997E+02  0.45594000000E+02  0.51100000000E-03 0.  1.
    9900012    2    1    2    0    0 -0.11272395325E+02  0.28772273226E+02 -0.30474784871E+02  0.47787272864E+02  0.20000008298E+02 0.  0.
         12    1    1    2    0    0  0.11272395325E+02 -0.28772273226E+02  0.30474784871E+02  0.43400727136E+02  0.00000000000E+00 0. -1.
         11    1    3    3    0    0 -0.39539867825E+01  0.21724532535E+02 -0.11146462009E+02  0.24735257041E+02  0.51100000000E-03 0.  1.
        -11    1    3    3    0    0  0.11321900167E+01  0.27932867518E+01 -0.59020294261E+01  0.66270850847E+01  0.51100000000E-03 0. -1.
        -12    1    3    3    0    0 -0.84505985589E+01  0.42544539398E+01 -0.13426293436E+02  0.16424930739E+02  0.00000000000E+00 0.  1.
</event>
<event>
 7    1  0.2237500E-009  0.4778726E+02  0.7816164E-02  0.1312668E+00
        -11   -1    0    0    0    0  0.00000000000E+00  0.00000000000E+00  0.45593999997E+02  0.45594000000E+02  0.51100000000E-03 0.  1.
         11   -1    0    0    0    0 -0.00000000000E+00 -0.00000000000E+00 -0.45593999997E+02  0.45594000000E+02  0.51100000000E-03 0. -1.
    9900012    2    1    2    0    0  0.97533480359E+01 -0.26631424705E+02  0.32852146635E+02  0.47787261317E+02  0.19999955650E+02 0.  0.
         12    1    1    2    0    0 -0.97533480359E+01  0.26631424705E+02 -0.32852146635E+02  0.43400738683E+02  0.00000000000E+00 0. -1.
         11    1    3    3    0    0  0.65904994241E+00  0.26412272508E+01  0.24585784842E+01  0.36681107727E+01  0.51100000000E-03 0. -1.
        -11    1    3    3    0    0 -0.14967784668E+01 -0.87842047461E+01  0.81102668451E+01  0.12049025992E+02  0.51100000000E-03 0.  1.
        -12    1    3    3    0    0  0.10591076560E+02 -0.20488447209E+02  0.22283301305E+02  0.32070124552E+02  0.00000000000E+00 0.  1.
</event>
<event>
 7    1  0.2237500E-009  0.4778727E+02  0.7816164E-02  0.1312668E+00
        -11   -1    0    0    0    0  0.00000000000E+00  0.00000000000E+00  0.45593999997E+02  0.45594000000E+02  0.51100000000E-03 0.  1.
         11   -1    0    0    0    0 -0.00000000000E+00 -0.00000000000E+00 -0.45593999997E+02  0.45594000000E+02  0.51100000000E-03 0. -1.
    9900012    2    1    2    0    0  0.16536384309E+02 -0.17130295737E+02  0.36286694436E+02  0.47787271537E+02  0.20000002245E+02 0.  0.
         12    1    1    2    0    0 -0.16536384309E+02  0.17130295737E+02 -0.36286694436E+02  0.43400728463E+02  0.00000000000E+00 0. -1.
         11    1    3    3    0    0  0.15252907172E+01 -0.95131779809E+00 -0.22461748741E+00  0.18116209873E+01  0.51100000000E-03 0. -1.
        -11    1    3    3    0    0  0.16039610618E+02 -0.54062849369E+01  0.24847588573E+02  0.30064924476E+02  0.51100000000E-03 0.  1.
         12    1    3    3    0    0 -0.10285170264E+01 -0.10772693002E+02  0.11663723350E+02  0.15910726073E+02  0.00000000000E+00 0. -1.
</event>
<event>
 7    1  0.2237500E-009  0.4778727E+02  0.7816164E-02  0.1312668E+00
        -11   -1    0    0    0    0  0.00000000000E+00  0.00000000000E+00  0.45593999997E+02  0.45594000000E+02  0.51100000000E-03 0.  1.
         11   -1    0    0    0    0 -0.00000000000E+00 -0.00000000000E+00 -0.45593999997E+02  0.45594000000E+02  0.51100000000E-03 0. -1.
    9900012    2    1    2    0    0 -0.33588532537E+02  0.10774860413E+02  0.25285095520E+02  0.47787272007E+02  0.20000004388E+02 0.  0.
         12    1    1    2    0    0  0.33588532537E+02 -0.10774860413E+02 -0.25285095520E+02  0.43400727993E+02  0.00000000000E+00 0. -1.
         11    1    3    3    0    0 -0.30846882276E+02  0.12984510859E+02  0.16369822707E+02  0.37257197481E+02  0.51100000000E-03 0. -1.
        -11    1    3    3    0    0 -0.29536892913E+01 -0.25415050051E+01  0.39475688789E+01  0.55467854146E+01  0.51100000000E-03 0.  1.
         12    1    3    3    0    0  0.21203903041E+00  0.33185455861E+00  0.49677039332E+01  0.49832891113E+01  0.00000000000E+00 0. -1.
</event>
<event>
 7    1  0.2237500E-009  0.4778727E+02  0.7816164E-02  0.1312668E+00
        -11   -1    0    0    0    0  0.00000000000E+00  0.00000000000E+00  0.45593999997E+02  0.45594000000E+02  0.51100000000E-03 0.  1.
         11   -1    0    0    0    0 -0.00000000000E+00 -0.00000000000E+00 -0.45593999997E+02  0.45594000000E+02  0.51100000000E-03 0. -1.
    9900012    2    1    2    0    0 -0.33442059227E+02  0.11314604592E+02  0.25243448140E+02  0.47787271015E+02  0.19999999868E+02 0.  0.
         12    1    1    2    0    0  0.33442059227E+02 -0.11314604592E+02 -0.25243448140E+02  0.43400728985E+02  0.00000000000E+00 0. -1.
         11    1    3    3    0    0 -0.81537725379E+01  0.10175362127E+02  0.36856884821E+01  0.13550140253E+02  0.51100000000E-03 0. -1.
        -11    1    3    3    0    0 -0.13887000802E+02  0.31895193402E+01  0.77717761632E+01  0.16230290505E+02  0.51100000000E-03 0.  1.
         12    1    3    3    0    0 -0.11401285887E+02 -0.20502768758E+01  0.13785983494E+02  0.18006840257E+02  0.00000000000E+00 0. -1.
</event>
<event>
 7    1  0.2237500E-009  0.4778727E+02  0.7816164E-02  0.1312668E+00
        -11   -1    0    0    0    0  0.00000000000E+00  0.00000000000E+00  0.45593999997E+02  0.45594000000E+02  0.51100000000E-03 0. -1.
         11   -1    0    0    0    0 -0.00000000000E+00 -0.00000000000E+00 -0.45593999997E+02  0.45594000000E+02  0.51100000000E-03 0.  1.
    9900012    2    1    2    0    0  0.25974605812E+02  0.30748454076E+02 -0.16231937838E+02  0.47787269809E+02  0.19999994367E+02 0.  0.
         12    1    1    2    0    0 -0.25974605812E+02 -0.30748454076E+02  0.16231937838E+02  0.43400730191E+02  0.00000000000E+00 0. -1.
         11    1    3    3    0    0  0.59677278997E+01  0.31737360842E+01 -0.56101356512E+01  0.87840764627E+01  0.51100000000E-03 0. -1.
        -11    1    3    3    0    0  0.13830375770E+01  0.13568092565E+02 -0.72859607362E+01  0.15462572648E+02  0.51100000000E-03 0.  1.
        -12    1    3    3    0    0  0.18623840335E+02  0.14006625426E+02 -0.33358414511E+01  0.23540620698E+02  0.00000000000E+00 0.  1.
</event>
<event>
 7    1  0.2237500E-009  0.4778728E+02  0.7816164E-02  0.1312668E+00
        -11   -1    0    0    0    0  0.00000000000E+00  0.00000000000E+00  0.45593999997E+02  0.45594000000E+02  0.51100000000E-03 0.  1.
         11   -1    0    0    0    0 -0.00000000000E+00 -0.00000000000E+00 -0.45593999997E+02  0.45594000000E+02  0.51100000000E-03 0. -1.
    9900012    2    1    2    0    0 -0.34948438222E+01  0.20874802805E+02  0.37889988815E+02  0.47787279063E+02  0.20000036559E+02 0.  0.
         12    1    1    2    0    0  0.34948438222E+01 -0.20874802805E+02 -0.37889988815E+02  0.43400720937E+02  0.00000000000E+00 0. -1.
         11    1    3    3    0    0  0.28432031973E+01  0.11057210796E+02  0.62161349130E+01  0.12999463394E+02  0.51100000000E-03 0. -1.
        -11    1    3    3    0    0  0.63470900295E+00  0.44489359653E+01  0.51137859022E+01  0.68078405722E+01  0.51100000000E-03 0.  1.
        -12    1    3    3    0    0 -0.69727560224E+01  0.53686560433E+01  0.26560067999E+02  0.27979975096E+02  0.00000000000E+00 0.  1.
</event>
<event>
 7    1  0.2237500E-009  0.4778727E+02  0.7816164E-02  0.1312668E+00
        -11   -1    0    0    0    0  0.00000000000E+00  0.00000000000E+00  0.45593999997E+02  0.45594000000E+02  0.51100000000E-03 0.  1.
         11   -1    0    0    0    0 -0.00000000000E+00 -0.00000000000E+00 -0.45593999997E+02  0.45594000000E+02  0.51100000000E-03 0. -1.
    9900012    2    1    2    0    0  0.24988929756E+02  0.23430339573E+02  0.26649504594E+02  0.47787268232E+02  0.19999987179E+02 0.  0.
         12    1    1    2    0    0 -0.24988929756E+02 -0.23430339573E+02 -0.26649504594E+02  0.43400731768E+02  0.00000000000E+00 0. -1.
         11    1    3    3    0    0  0.73591747230E+01  0.19598967006E+01  0.58842047010E+01  0.96240590660E+01  0.51100000000E-03 0. -1.
        -11    1    3    3    0    0  0.18791507807E+02  0.21295455873E+02  0.22385048855E+02  0.36162240237E+02  0.51100000000E-03 0.  1.
         12    1    3    3    0    0 -0.11617527738E+01  0.17498699944E+00 -0.16197489616E+01  0.20009689293E+01  0.00000000000E+00 0. -1.
</event>
<event>
 7    1  0.2717499E-009  0.4778727E+02  0.7816164E-02  0.1312668E+00
        -11   -1    0    0    0    0  0.00000000000E+00  0.00000000000E+00  0.45593999997E+02  0.45594000000E+02  0.51100000000E-03 0. -1.
         11   -1    0    0    0    0 -0.00000000000E+00 -0.00000000000E+00 -0.45593999997E+02  0.45594000000E+02  0.51100000000E-03 0.  1.
    9900012    2    1    2    0    0  0.43185441612E+01 -0.28641374388E+02 -0.32320972214E+02  0.47787269645E+02  0.19999993618E+02 0.  0.
         12    1    1    2    0    0 -0.43185441612E+01  0.28641374388E+02  0.32320972214E+02  0.43400730355E+02  0.00000000000E+00 0. -1.
         11    1    3    3    0    0  0.21413928266E+01 -0.42553320063E+01  0.58135684414E+00  0.47991030165E+01  0.51100000000E-03 0. -1.
        -11    1    3    3    0    0  0.44178487643E+01 -0.91849534878E+01 -0.55241600498E+01  0.11592976442E+02  0.51100000000E-03 0.  1.
        -12    1    3    3    0    0 -0.22406974297E+01 -0.15201088894E+02 -0.27378169009E+02  0.31395190186E+02  0.00000000000E+00 0.  1.
</event>
<event>
 7    1  0.2237500E-009  0.4778727E+02  0.7816164E-02  0.1312668E+00
        -11   -1    0    0    0    0  0.00000000000E+00  0.00000000000E+00  0.45593999997E+02  0.45594000000E+02  0.51100000000E-03 0.  1.
         11   -1    0    0    0    0 -0.00000000000E+00 -0.00000000000E+00 -0.45593999997E+02  0.45594000000E+02  0.51100000000E-03 0. -1.
    9900012    2    1    2    0    0 -0.30053783086E+02  0.16120483575E+02  0.26842561848E+02  0.47787274256E+02  0.20000014644E+02 0.  0.
         12    1    1    2    0    0  0.30053783086E+02 -0.16120483575E+02 -0.26842561848E+02  0.43400725744E+02  0.00000000000E+00 0. -1.
         11    1    3    3    0    0 -0.62790617039E+00 -0.28601246467E+01  0.20240507768E+01  0.35596855144E+01  0.51100000000E-03 0. -1.
        -11    1    3    3    0    0 -0.14720598881E+02  0.38859394285E+01  0.76119202169E+01  0.17021688704E+02  0.51100000000E-03 0.  1.
        -12    1    3    3    0    0 -0.14705278034E+02  0.15094668794E+02  0.17206590855E+02  0.27205900038E+02  0.00000000000E+00 0.  1.
</event>
<event>
 7    1  0.2239766E-009  0.4778727E+02  0.7816164E-02  0.1312668E+00
        -11   -1    0    0    0    0  0.00000000000E+00  0.00000000000E+00  0.45593999997E+02  0.45594000000E+02  0.51100000000E-03 0.  1.
         11   -1    0    0    0    0 -0.00000000000E+00 -0.00000000000E+00 -0.45593999997E+02  0.45594000000E+02  0.51100000000E-03 0. -1.
    9900012    2    1    2    0    0 -0.22774665708E+02  0.15241157982E+02  0.33654789240E+02  0.47787272661E+02  0.20000007372E+02 0.  0.
         12    1    1    2    0    0  0.22774665708E+02 -0.15241157982E+02 -0.33654789240E+02  0.43400727339E+02  0.00000000000E+00 0. -1.
         11    1    3    3    0    0 -0.36743105062E+01 -0.89820641554E+00  0.10222127114E+01  0.39181949351E+01  0.51100000000E-03 0. -1.
        -11    1    3    3    0    0 -0.11645831344E+02  0.45227525541E+01  0.25353724953E+02  0.28264678445E+02  0.51100000000E-03 0.  1.
        -12    1    3    3    0    0 -0.74545238574E+01  0.11616611843E+02  0.72788515759E+01  0.15604399281E+02  0.00000000000E+00 0.  1.
</event>
<event>
 7    1  0.2237500E-009  0.4778726E+02  0.7816164E-02  0.1312668E+00
        -11   -1    0    0    0    0  0.00000000000E+00  0.00000000000E+00  0.45593999997E+02  0.45594000000E+02  0.51100000000E-03 0. -1.
         11   -1    0    0    0    0 -0.00000000000E+00 -0.00000000000E+00 -0.45593999997E+02  0.45594000000E+02  0.51100000000E-03 0.  1.
    9900012    2    1    2    0    0 -0.29357783504E+02 -0.31787525175E+02  0.33613069365E+01  0.47787255844E+02  0.19999930695E+02 0.  0.
         12    1    1    2    0    0  0.29357783504E+02  0.31787525175E+02 -0.33613069365E+01  0.43400744156E+02  0.00000000000E+00 0. -1.
         11    1    3    3    0    0 -0.11520892614E+02 -0.51207388984E+01  0.14188347543E+01  0.12687238700E+02  0.51100000000E-03 0. -1.
        -11    1    3    3    0    0 -0.17828833783E+02 -0.16620606444E+02  0.43740135442E+01  0.24763761171E+02  0.51100000000E-03 0.  1.
         12    1    3    3    0    0 -0.80571062333E-02 -0.10046179832E+02 -0.24315413620E+01  0.10336255973E+02  0.00000000000E+00 0. -1.
</event>
<event>
 7    1  0.2237500E-009  0.4778728E+02  0.7816164E-02  0.1312668E+00
        -11   -1    0    0    0    0  0.00000000000E+00  0.00000000000E+00  0.45593999997E+02  0.45594000000E+02  0.51100000000E-03 0.  1.
         11   -1    0    0    0    0 -0.00000000000E+00 -0.00000000000E+00 -0.45593999997E+02  0.45594000000E+02  0.51100000000E-03 0. -1.
    9900012    2    1    2    0    0  0.27645814260E+01 -0.14058456904E+02  0.40967545458E+02  0.47787275331E+02  0.20000019543E+02 0.  0.
         12    1    1    2    0    0 -0.27645814260E+01  0.14058456904E+02 -0.40967545458E+02  0.43400724669E+02  0.00000000000E+00 0. -1.
         11    1    3    3    0    0  0.98329057681E+01 -0.46408801514E+01  0.10957201306E+02  0.15436452479E+02  0.51100000000E-03 0. -1.
        -11    1    3    3    0    0 -0.33074581839E+00 -0.51257257377E+00  0.39788918226E+01  0.40253824461E+01  0.51100000000E-03 0.  1.
         12    1    3    3    0    0 -0.67375785237E+01 -0.89050041784E+01  0.26031452329E+02  0.28325440405E+02  0.00000000000E+00 0. -1.
</event>
<event>
 7    1  0.2708384E-009  0.4778727E+02  0.7816164E-02  0.1312668E+00
        -11   -1    0    0    0    0  0.00000000000E+00  0.00000000000E+00  0.45593999997E+02  0.45594000000E+02  0.51100000000E-03 0.  1.
         11   -1    0    0    0    0 -0.00000000000E+00 -0.00000000000E+00 -0.45593999997E+02  0.45594000000E+02  0.51100000000E-03 0. -1.
    9900012    2    1    2    0    0 -0.34704302664E+02 -0.15408607735E+02  0.21019261610E+02  0.47787272191E+02  0.20000005230E+02 0.  0.
         12    1    1    2    0    0  0.34704302664E+02  0.15408607735E+02 -0.21019261610E+02  0.43400727809E+02  0.00000000000E+00 0. -1.
         11    1    3    3    0    0 -0.31762209866E+01  0.30735465814E+01  0.58272421561E+00  0.44580978137E+01  0.51100000000E-03 0. -1.
        -11    1    3    3    0    0 -0.15204278237E+02 -0.43015683674E+01  0.13005088687E+02  0.20464747718E+02  0.51100000000E-03 0.  1.
        -12    1    3    3    0    0 -0.16323803439E+02 -0.14180585949E+02  0.74314487066E+01  0.22864426660E+02  0.00000000000E+00 0.  1.
</event>
<event>
 7    1  0.2237500E-009  0.4778728E+02  0.7816164E-02  0.1312668E+00
        -11   -1    0    0    0    0  0.00000000000E+00  0.00000000000E+00  0.45593999997E+02  0.45594000000E+02  0.51100000000E-03 0.  1.
         11   -1    0    0    0    0 -0.00000000000E+00 -0.00000000000E+00 -0.45593999997E+02  0.45594000000E+02  0.51100000000E-03 0. -1.
    9900012    2    1    2    0    0  0.30157772621E+02 -0.30710135775E+02  0.55694913741E+01  0.47787275088E+02  0.20000018435E+02 0.  0.
         12    1    1    2    0    0 -0.30157772621E+02  0.30710135775E+02 -0.55694913741E+01  0.43400724912E+02  0.00000000000E+00 0. -1.
         11    1    3    3    0    0  0.14217129137E+01 -0.99732291767E-01  0.32080860844E+01  0.35104174574E+01  0.51100000000E-03 0. -1.
        -11    1    3    3    0    0  0.40298405975E+01 -0.73761904518E+01  0.57638214197E+01  0.10191635710E+02  0.51100000000E-03 0.  1.
        -12    1    3    3    0    0  0.24706219109E+02 -0.23234213031E+02 -0.34024161300E+01  0.34085221921E+02  0.00000000000E+00 0.  1.
</event>
<event>
 7    1  0.2237500E-009  0.4778727E+02  0.7816164E-02  0.1312668E+00
        -11   -1    0    0    0    0  0.00000000000E+00  0.00000000000E+00  0.45593999997E+02  0.45594000000E+02  0.51100000000E-03 0.  1.
         11   -1    0    0    0    0 -0.00000000000E+00 -0.00000000000E+00 -0.45593999997E+02  0.45594000000E+02  0.51100000000E-03 0. -1.
    9900012    2    1    2    0    0 -0.65327583267E+01 -0.29049207505E+02  0.31576733496E+02  0.47787268597E+02  0.19999988840E+02 0.  0.
         12    1    1    2    0    0  0.65327583267E+01  0.29049207505E+02 -0.31576733496E+02  0.43400731403E+02  0.00000000000E+00 0. -1.
         11    1    3    3    0    0 -0.65593811086E+00 -0.81020822398E+01  0.30029593395E+01  0.86655499815E+01  0.51100000000E-03 0. -1.
        -11    1    3    3    0    0  0.35398768947E+01 -0.46357086792E+01  0.12986347557E+01  0.59755314306E+01  0.51100000000E-03 0.  1.
        -12    1    3    3    0    0 -0.94166971105E+01 -0.16311416586E+02  0.27275139401E+02  0.33146187185E+02  0.00000000000E+00 0.  1.
</event>
<event>
 7    1  0.2237500E-009  0.4778726E+02  0.7816164E-02  0.1312668E+00
        -11   -1    0    0    0    0  0.00000000000E+00  0.00000000000E+00  0.45593999997E+02  0.45594000000E+02  0.51100000000E-03 0.  1.
         11   -1    0    0    0    0 -0.00000000000E+00 -0.00000000000E+00 -0.45593999997E+02  0.45594000000E+02  0.51100000000E-03 0. -1.
    9900012    2    1    2    0    0  0.14643993102E+02 -0.38902803099E+02  0.12479969861E+02  0.47787259560E+02  0.19999947639E+02 0.  0.
         12    1    1    2    0    0 -0.14643993102E+02  0.38902803099E+02 -0.12479969861E+02  0.43400740440E+02  0.00000000000E+00 0. -1.
         11    1    3    3    0    0 -0.19382120255E+01 -0.31231787977E+01 -0.68118149133E+00  0.37383044477E+01  0.51100000000E-03 0. -1.
        -11    1    3    3    0    0  0.47745735558E+01 -0.21342945641E+02  0.12223917665E+01  0.21904614198E+02  0.51100000000E-03 0.  1.
        -12    1    3    3    0    0  0.11807631572E+02 -0.14436678661E+02  0.11938759586E+02  0.22144340915E+02  0.00000000000E+00 0.  1.
</event>
<event>
 7    1  0.2237500E-009  0.4778727E+02  0.7816164E-02  0.1312668E+00
        -11   -1    0    0    0    0  0.00000000000E+00  0.00000000000E+00  0.45593999997E+02  0.45594000000E+02  0.51100000000E-03 0. -1.
         11   -1    0    0    0    0 -0.00000000000E+00 -0.00000000000E+00 -0.45593999997E+02  0.45594000000E+02  0.51100000000E-03 0.  1.
    9900012    2    1    2    0    0  0.58176107028E+01  0.15463552441E+02 -0.40132995450E+02  0.47787269912E+02  0.19999994836E+02 0.  0.
         12    1    1    2    0    0 -0.58176107028E+01 -0.15463552441E+02  0.40132995450E+02  0.43400730088E+02  0.00000000000E+00 0. -1.
         11    1    3    3    0    0 -0.70838160684E+00  0.11191112479E+02 -0.86401148187E+01  0.14156072455E+02  0.51100000000E-03 0. -1.
        -11    1    3    3    0    0 -0.33330725410E+00  0.42580355488E+01 -0.70383123164E+01  0.82328488984E+01  0.51100000000E-03 0.  1.
        -12    1    3    3    0    0  0.68592995637E+01  0.14404412899E-01 -0.24454568315E+02  0.25398348558E+02  0.00000000000E+00 0.  1.
</event>
<event>
 7    1  0.2237500E-009  0.4778727E+02  0.7816164E-02  0.1312668E+00
        -11   -1    0    0    0    0  0.00000000000E+00  0.00000000000E+00  0.45593999997E+02  0.45594000000E+02  0.51100000000E-03 0.  1.
         11   -1    0    0    0    0 -0.00000000000E+00 -0.00000000000E+00 -0.45593999997E+02  0.45594000000E+02  0.51100000000E-03 0. -1.
    9900012    2    1    2    0    0  0.84241331887E+01 -0.28330135664E+02  0.31781456657E+02  0.47787267357E+02  0.19999983185E+02 0.  0.
         12    1    1    2    0    0 -0.84241331887E+01  0.28330135664E+02 -0.31781456657E+02  0.43400732643E+02  0.00000000000E+00 0. -1.
         11    1    3    3    0    0  0.17151992699E+01 -0.39388218264E+00 -0.11135781409E+01  0.20825725068E+01  0.51100000000E-03 0. -1.
        -11    1    3    3    0    0  0.21303680838E+01 -0.32281054381E+01  0.13265373117E+02  0.13817715335E+02  0.51100000000E-03 0.  1.
         12    1    3    3    0    0  0.45785658351E+01 -0.24708148044E+02  0.19629661681E+02  0.31886979515E+02  0.00000000000E+00 0. -1.
</event>
<event>
 7    1  0.2237500E-009  0.4778727E+02  0.7816164E-02  0.1312668E+00
        -11   -1    0    0    0    0  0.00000000000E+00  0.00000000000E+00  0.45593999997E+02  0.45594000000E+02  0.51100000000E-03 0. -1.
         11   -1    0    0    0    0 -0.00000000000E+00 -0.00000000000E+00 -0.45593999997E+02  0.45594000000E+02  0.51100000000E-03 0.  1.
    9900012    2    1    2    0    0  0.31886954265E+02  0.18820037876E+02 -0.22641814956E+02  0.47787268871E+02  0.19999990092E+02 0.  0.
         12    1    1    2    0    0 -0.31886954265E+02 -0.18820037876E+02  0.22641814956E+02  0.43400731129E+02  0.00000000000E+00 0. -1.
         11    1    3    3    0    0  0.83211201317E+01  0.11624209611E+01 -0.15031118636E+01  0.85353153587E+01  0.51100000000E-03 0. -1.
        -11    1    3    3    0    0  0.10568211301E+02  0.99532574952E+01 -0.16776224680E+01  0.14613994740E+02  0.51100000000E-03 0.  1.
         12    1    3    3    0    0  0.12997622833E+02  0.77043594199E+01 -0.19461080625E+02  0.24637958772E+02  0.00000000000E+00 0. -1.
</event>
<event>
 7    1  0.2237500E-009  0.4778727E+02  0.7816164E-02  0.1312668E+00
        -11   -1    0    0    0    0  0.00000000000E+00  0.00000000000E+00  0.45593999997E+02  0.45594000000E+02  0.51100000000E-03 0.  1.
         11   -1    0    0    0    0 -0.00000000000E+00 -0.00000000000E+00 -0.45593999997E+02  0.45594000000E+02  0.51100000000E-03 0. -1.
    9900012    2    1    2    0    0  0.39093049871E+02 -0.39217481592E+01  0.18438447967E+02  0.47787273966E+02  0.20000013321E+02 0.  0.
         12    1    1    2    0    0 -0.39093049871E+02  0.39217481592E+01 -0.18438447967E+02  0.43400726034E+02  0.00000000000E+00 0. -1.
         11    1    3    3    0    0  0.14349161282E+02  0.32333182873E+01  0.24760192533E+01  0.14915879064E+02  0.51100000000E-03 0. -1.
        -11    1    3    3    0    0  0.16902573646E+02  0.83466065750E+00  0.12859309017E+02  0.21254540290E+02  0.51100000000E-03 0.  1.
        -12    1    3    3    0    0  0.78413149429E+01 -0.79897271040E+01  0.31031196961E+01  0.11616854612E+02  0.00000000000E+00 0.  1.
</event>
<event>
 7    1  0.2237500E-009  0.4778727E+02  0.7816164E-02  0.1312668E+00
        -11   -1    0    0    0    0  0.00000000000E+00  0.00000000000E+00  0.45593999997E+02  0.45594000000E+02  0.51100000000E-03 0. -1.
         11   -1    0    0    0    0 -0.00000000000E+00 -0.00000000000E+00 -0.45593999997E+02  0.45594000000E+02  0.51100000000E-03 0.  1.
    9900012    2    1    2    0    0  0.25671801631E+01 -0.12217064903E+02 -0.41566527886E+02  0.47787270405E+02  0.19999997087E+02 0.  0.
         12    1    1    2    0    0 -0.25671801631E+01  0.12217064903E+02  0.41566527886E+02  0.43400729595E+02  0.00000000000E+00 0. -1.
         11    1    3    3    0    0 -0.57804917756E+01 -0.29691121605E+01 -0.12345989476E+02  0.13951815961E+02  0.51100000000E-03 0. -1.
        -11    1    3    3    0    0  0.40497007320E+00 -0.64037608732E+01 -0.21365426471E+02  0.22308151036E+02  0.51100000000E-03 0.  1.
         12    1    3    3    0    0  0.79427018656E+01 -0.28441918694E+01 -0.78551119386E+01  0.11527303409E+02  0.00000000000E+00 0. -1.
</event>
<event>
 7    1  0.2237500E-009  0.4778727E+02  0.7816164E-02  0.1312668E+00
        -11   -1    0    0    0    0  0.00000000000E+00  0.00000000000E+00  0.45593999997E+02  0.45594000000E+02  0.51100000000E-03 0.  1.
         11   -1    0    0    0    0 -0.00000000000E+00 -0.00000000000E+00 -0.45593999997E+02  0.45594000000E+02  0.51100000000E-03 0. -1.
    9900012    2    1    2    0    0  0.36279743014E+02  0.18835505860E+02  0.14581732032E+02  0.47787274854E+02  0.20000017370E+02 0.  0.
         12    1    1    2    0    0 -0.36279743014E+02 -0.18835505860E+02 -0.14581732032E+02  0.43400725146E+02  0.00000000000E+00 0. -1.
         11    1    3    3    0    0  0.78013748040E+01  0.10384512652E+02  0.18391245848E+00  0.12989741180E+02  0.51100000000E-03 0. -1.
        -11    1    3    3    0    0  0.89035249078E+01  0.36883626772E+01 -0.63935636711E+00  0.96584445874E+01  0.51100000000E-03 0.  1.
        -12    1    3    3    0    0  0.19574843302E+02  0.47626305303E+01  0.15037175940E+02  0.25139089087E+02  0.00000000000E+00 0.  1.
</event>
<event>
 7    1  0.2237500E-009  0.4778728E+02  0.7816164E-02  0.1312668E+00
        -11   -1    0    0    0    0  0.00000000000E+00  0.00000000000E+00  0.45593999997E+02  0.45594000000E+02  0.51100000000E-03 0.  1.
         11   -1    0    0    0    0 -0.00000000000E+00 -0.00000000000E+00 -0.45593999997E+02  0.45594000000E+02  0.51100000000E-03 0. -1.
    9900012    2    1    2    0    0  0.12808425658E+02  0.21460487719E+02  0.35482595555E+02  0.47787275487E+02  0.20000020255E+02 0.  0.
         12    1    1    2    0    0 -0.12808425658E+02 -0.21460487719E+02 -0.35482595555E+02  0.43400724513E+02  0.00000000000E+00 0. -1.
         11    1    3    3    0    0  0.61436546472E+01  0.70478303545E+01  0.21281789095E+02  0.23245019950E+02  0.51100000000E-03 0.  1.
        -11    1    3    3    0    0 -0.28139261919E+01  0.61973764392E+01  0.81422206212E+01  0.10612323603E+02  0.51100000000E-03 0. -1.
         12    1    3    3    0    0  0.94786972022E+01  0.82152809250E+01  0.60585858387E+01  0.13929931934E+02  0.00000000000E+00 0. -1.
</event>
<event>
 7    1  0.2237500E-009  0.4778727E+02  0.7816164E-02  0.1312668E+00
        -11   -1    0    0    0    0  0.00000000000E+00  0.00000000000E+00  0.45593999997E+02  0.45594000000E+02  0.51100000000E-03 0. -1.
         11   -1    0    0    0    0 -0.00000000000E+00 -0.00000000000E+00 -0.45593999997E+02  0.45594000000E+02  0.51100000000E-03 0.  1.
    9900012    2    1    2    0    0  0.39909315756E+02  0.15502437482E+02 -0.71094628801E+01  0.47787268273E+02  0.19999987364E+02 0.  0.
         12    1    1    2    0    0 -0.39909315756E+02 -0.15502437482E+02  0.71094628801E+01  0.43400731727E+02  0.00000000000E+00 0. -1.
         11    1    3    3    0    0  0.46159181529E+01  0.37533634217E+01 -0.60237920490E+01  0.84664342128E+01  0.51100000000E-03 0. -1.
        -11    1    3    3    0    0  0.20434897152E+02  0.18605980876E+01  0.36813182907E+01  0.20847036996E+02  0.51100000000E-03 0.  1.
         12    1    3    3    0    0  0.14858500450E+02  0.98884759729E+01 -0.47669891217E+01  0.18473797065E+02  0.00000000000E+00 0. -1.
</event>
<event>
 7    1  0.2237500E-009  0.4778727E+02  0.7816164E-02  0.1312668E+00
        -11   -1    0    0    0    0  0.00000000000E+00  0.00000000000E+00  0.45593999997E+02  0.45594000000E+02  0.51100000000E-03 0.  1.
         11   -1    0    0    0    0 -0.00000000000E+00 -0.00000000000E+00 -0.45593999997E+02  0.45594000000E+02  0.51100000000E-03 0. -1.
    9900012    2    1    2    0    0 -0.17419871740E+02 -0.21560543662E+02  0.33396321267E+02  0.47787271336E+02  0.20000001327E+02 0.  0.
         12    1    1    2    0    0  0.17419871740E+02  0.21560543662E+02 -0.33396321267E+02  0.43400728664E+02  0.00000000000E+00 0. -1.
         11    1    3    3    0    0 -0.13487731231E+02 -0.88845675688E+01  0.11239964875E+02  0.19677175745E+02  0.51100000000E-03 0. -1.
        -11    1    3    3    0    0 -0.69874153863E+01 -0.40847580602E+01  0.11834146076E+02  0.14337232501E+02  0.51100000000E-03 0.  1.
        -12    1    3    3    0    0  0.30552748772E+01 -0.85912180332E+01  0.10322210316E+02  0.13772863089E+02  0.00000000000E+00 0.  1.
</event>
<event>
 7    1  0.2237500E-009  0.4778727E+02  0.7816164E-02  0.1312668E+00
        -11   -1    0    0    0    0  0.00000000000E+00  0.00000000000E+00  0.45593999997E+02  0.45594000000E+02  0.51100000000E-03 0.  1.
         11   -1    0    0    0    0 -0.00000000000E+00 -0.00000000000E+00 -0.45593999997E+02  0.45594000000E+02  0.51100000000E-03 0. -1.
    9900012    2    1    2    0    0  0.10637204647E+02  0.13357996369E+02  0.39900342788E+02  0.47787267929E+02  0.19999985798E+02 0.  0.
         12    1    1    2    0    0 -0.10637204647E+02 -0.13357996369E+02 -0.39900342788E+02  0.43400732071E+02  0.00000000000E+00 0. -1.
         11    1    3    3    0    0 -0.69040514015E+00  0.64616677300E+01  0.37548589855E+01  0.75052498541E+01  0.51100000000E-03 0. -1.
        -11    1    3    3    0    0  0.21555019072E+01  0.75234040679E+01  0.22553837892E+02  0.23873068533E+02  0.51100000000E-03 0.  1.
         12    1    3    3    0    0  0.91721078798E+01 -0.62707542899E+00  0.13591645910E+02  0.16408949542E+02  0.00000000000E+00 0. -1.
</event>
<event>
 7    1  0.2237500E-009  0.4778727E+02  0.7816164E-02  0.1312668E+00
        -11   -1    0    0    0    0  0.00000000000E+00  0.00000000000E+00  0.45593999997E+02  0.45594000000E+02  0.51100000000E-03 0.  1.
         11   -1    0    0    0    0 -0.00000000000E+00 -0.00000000000E+00 -0.45593999997E+02  0.45594000000E+02  0.51100000000E-03 0. -1.
    9900012    2    1    2    0    0 -0.15397801891E+02 -0.31608216840E+02  0.25445071871E+02  0.47787270082E+02  0.19999995614E+02 0.  0.
         12    1    1    2    0    0  0.15397801891E+02  0.31608216840E+02 -0.25445071871E+02  0.43400729918E+02  0.00000000000E+00 0. -1.
         11    1    3    3    0    0  0.66525355341E+00  0.87295378272E+00  0.11183512738E+01  0.15669462115E+01  0.51100000000E-03 0. -1.
        -11    1    3    3    0    0 -0.53751408212E+01 -0.10965478267E+02  0.25974810003E+00  0.12214799295E+02  0.51100000000E-03 0.  1.
        -12    1    3    3    0    0 -0.10687914623E+02 -0.21515692355E+02  0.24066972497E+02  0.34005524576E+02  0.00000000000E+00 0.  1.
</event>
<event>
 7    1  0.2237500E-009  0.4778727E+02  0.7816164E-02  0.1312668E+00
        -11   -1    0    0    0    0  0.00000000000E+00  0.00000000000E+00  0.45593999997E+02  0.45594000000E+02  0.51100000000E-03 0.  1.
         11   -1    0    0    0    0 -0.00000000000E+00 -0.00000000000E+00 -0.45593999997E+02  0.45594000000E+02  0.51100000000E-03 0. -1.
    9900012    2    1    2    0    0  0.31650572020E+02 -0.15497795039E+02  0.25331460353E+02  0.47787271390E+02  0.20000001574E+02 0.  0.
         12    1    1    2    0    0 -0.31650572020E+02  0.15497795039E+02 -0.25331460353E+02  0.43400728610E+02  0.00000000000E+00 0. -1.
         11    1    3    3    0    0  0.46149118396E+01  0.74631803580E+00  0.24379685278E+01  0.52723896576E+01  0.51100000000E-03 0.  1.
        -11    1    3    3    0    0  0.21911040980E+02 -0.90612370991E+01  0.23860936709E+02  0.33638430931E+02  0.51100000000E-03 0. -1.
         12    1    3    3    0    0  0.51246192009E+01 -0.71828759754E+01 -0.96744488332E+00  0.88764508017E+01  0.00000000000E+00 0. -1.
</event>
<event>
 7    1  0.2237500E-009  0.4778727E+02  0.7816164E-02  0.1312668E+00
        -11   -1    0    0    0    0  0.00000000000E+00  0.00000000000E+00  0.45593999997E+02  0.45594000000E+02  0.51100000000E-03 0.  1.
         11   -1    0    0    0    0 -0.00000000000E+00 -0.00000000000E+00 -0.45593999997E+02  0.45594000000E+02  0.51100000000E-03 0. -1.
    9900012    2    1    2    0    0  0.96180643338E+01 -0.38316865078E+02  0.17970364357E+02  0.47787270673E+02  0.19999998308E+02 0.  0.
         12    1    1    2    0    0 -0.96180643338E+01  0.38316865078E+02 -0.17970364357E+02  0.43400729327E+02  0.00000000000E+00 0. -1.
         11    1    3    3    0    0  0.13766434293E+01 -0.79829650473E+00  0.19049703914E+01  0.24822040396E+01  0.51100000000E-03 0. -1.
        -11    1    3    3    0    0 -0.56102028928E+01 -0.96747961821E+01  0.54783731444E+01  0.12453458565E+02  0.51100000000E-03 0.  1.
        -12    1    3    3    0    0  0.13851623797E+02 -0.27843772391E+02  0.10587020822E+02  0.32851608068E+02  0.00000000000E+00 0.  1.
</event>
<event>
 7    1  0.2237500E-009  0.4778726E+02  0.7816164E-02  0.1312668E+00
        -11   -1    0    0    0    0  0.00000000000E+00  0.00000000000E+00  0.45593999997E+02  0.45594000000E+02  0.51100000000E-03 0.  1.
         11   -1    0    0    0    0 -0.00000000000E+00 -0.00000000000E+00 -0.45593999997E+02  0.45594000000E+02  0.51100000000E-03 0. -1.
    9900012    2    1    2    0    0 -0.12595663542E+02 -0.33117944050E+02  0.25063419006E+02  0.47787263481E+02  0.19999965514E+02 0.  0.
         12    1    1    2    0    0  0.12595663542E+02  0.33117944050E+02 -0.25063419006E+02  0.43400736519E+02  0.00000000000E+00 0. -1.
         11    1    3    3    0    0 -0.96390328702E+01 -0.85587171269E+01  0.50004659136E+01  0.13826324643E+02  0.51100000000E-03 0. -1.
        -11    1    3    3    0    0 -0.46207524588E+01 -0.49072249922E+01  0.93216852661E+01  0.11503305041E+02  0.51100000000E-03 0.  1.
        -12    1    3    3    0    0  0.16641217869E+01 -0.19652001931E+02  0.10741267826E+02  0.22457633796E+02  0.00000000000E+00 0.  1.
</event>
<event>
 7    1  0.2237500E-009  0.4778726E+02  0.7816164E-02  0.1312668E+00
        -11   -1    0    0    0    0  0.00000000000E+00  0.00000000000E+00  0.45593999997E+02  0.45594000000E+02  0.51100000000E-03 0.  1.
         11   -1    0    0    0    0 -0.00000000000E+00 -0.00000000000E+00 -0.45593999997E+02  0.45594000000E+02  0.51100000000E-03 0. -1.
    9900012    2    1    2    0    0 -0.13022425400E+02  0.34042762252E+02  0.23561209493E+02  0.47787264778E+02  0.19999971427E+02 0.  0.
         12    1    1    2    0    0  0.13022425400E+02 -0.34042762252E+02 -0.23561209493E+02  0.43400735222E+02  0.00000000000E+00 0. -1.
         11    1    3    3    0    0  0.95614841032E+00  0.71466285156E+01  0.11751778525E+01  0.73054474311E+01  0.51100000000E-03 0. -1.
        -11    1    3    3    0    0  0.80358397312E-01  0.15073996913E+02  0.74918845381E+01  0.16833305516E+02  0.51100000000E-03 0.  1.
         12    1    3    3    0    0 -0.14058932207E+02  0.11822136824E+02  0.14894147103E+02  0.23648511831E+02  0.00000000000E+00 0. -1.
</event>
<event>
 7    1  0.2237500E-009  0.4778727E+02  0.7816164E-02  0.1312668E+00
        -11   -1    0    0    0    0  0.00000000000E+00  0.00000000000E+00  0.45593999997E+02  0.45594000000E+02  0.51100000000E-03 0. -1.
         11   -1    0    0    0    0 -0.00000000000E+00 -0.00000000000E+00 -0.45593999997E+02  0.45594000000E+02  0.51100000000E-03 0.  1.
    9900012    2    1    2    0    0  0.26712308834E+01 -0.28945866401E+02 -0.32227698680E+02  0.47787271684E+02  0.20000002918E+02 0.  0.
         12    1    1    2    0    0 -0.26712308834E+01  0.28945866401E+02  0.32227698680E+02  0.43400728316E+02  0.00000000000E+00 0. -1.
         11    1    3    3    0    0  0.37735682326E+01 -0.81399946899E+00 -0.21968501203E+01  0.44416847089E+01  0.51100000000E-03 0. -1.
        -11    1    3    3    0    0  0.33427777654E+01 -0.16397963328E+01 -0.71413359610E+01  0.80536808213E+01  0.51100000000E-03 0.  1.
         12    1    3    3    0    0 -0.44451151146E+01 -0.26492070599E+02 -0.22889512598E+02  0.35291906154E+02  0.00000000000E+00 0. -1.
</event>
<event>
 7    1  0.2237500E-009  0.4778728E+02  0.7816164E-02  0.1312668E+00
        -11   -1    0    0    0    0  0.00000000000E+00  0.00000000000E+00  0.45593999997E+02  0.45594000000E+02  0.51100000000E-03 0.  1.
         11   -1    0    0    0    0 -0.00000000000E+00 -0.00000000000E+00 -0.45593999997E+02  0.45594000000E+02  0.51100000000E-03 0. -1.
    9900012    2    1    2    0    0  0.10546607708E+02  0.25116414976E+02  0.33786945628E+02  0.47787275003E+02  0.20000018048E+02 0.  0.
         12    1    1    2    0    0 -0.10546607708E+02 -0.25116414976E+02 -0.33786945628E+02  0.43400724997E+02  0.00000000000E+00 0. -1.
         11    1    3    3    0    0  0.48540070360E+01  0.28267258708E+01  0.69167464806E+01  0.89102831376E+01  0.51100000000E-03 0. -1.
        -11    1    3    3    0    0  0.78660578957E+01  0.18875829568E+02  0.12543852521E+02  0.23989998854E+02  0.51100000000E-03 0.  1.
        -12    1    3    3    0    0 -0.21734572242E+01  0.34138595378E+01  0.14326346627E+02  0.14886993011E+02  0.00000000000E+00 0.  1.
</event>
<event>
 7    1  0.2237500E-009  0.4778727E+02  0.7816164E-02  0.1312668E+00
        -11   -1    0    0    0    0  0.00000000000E+00  0.00000000000E+00  0.45593999997E+02  0.45594000000E+02  0.51100000000E-03 0.  1.
         11   -1    0    0    0    0 -0.00000000000E+00 -0.00000000000E+00 -0.45593999997E+02  0.45594000000E+02  0.51100000000E-03 0. -1.
    9900012    2    1    2    0    0  0.24151610916E+02  0.36016575120E+02  0.17690842397E+01  0.47787266685E+02  0.19999980125E+02 0.  0.
         12    1    1    2    0    0 -0.24151610916E+02 -0.36016575120E+02 -0.17690842397E+01  0.43400733315E+02  0.00000000000E+00 0. -1.
         11    1    3    3    0    0  0.15558304655E+01  0.60023352560E+01  0.56965505835E+01  0.84201737378E+01  0.51100000000E-03 0. -1.
        -11    1    3    3    0    0  0.44402024499E+01  0.14715283190E+02 -0.25915228259E+01  0.15587525396E+02  0.51100000000E-03 0.  1.
         12    1    3    3    0    0  0.18155578001E+02  0.15298956674E+02 -0.13359435179E+01  0.23779567552E+02  0.00000000000E+00 0. -1.
</event>
<event>
 7    1  0.2237500E-009  0.4778728E+02  0.7816164E-02  0.1312668E+00
        -11   -1    0    0    0    0  0.00000000000E+00  0.00000000000E+00  0.45593999997E+02  0.45594000000E+02  0.51100000000E-03 0.  1.
         11   -1    0    0    0    0 -0.00000000000E+00 -0.00000000000E+00 -0.45593999997E+02  0.45594000000E+02  0.51100000000E-03 0. -1.
    9900012    2    1    2    0    0 -0.13273245426E+02 -0.78083083564E+01  0.40576766751E+02  0.47787277385E+02  0.20000028911E+02 0.  0.
         12    1    1    2    0    0  0.13273245426E+02  0.78083083564E+01 -0.40576766751E+02  0.43400722615E+02  0.00000000000E+00 0. -1.
         11    1    3    3    0    0 -0.89029300245E+01  0.37504813156E+00  0.22625225476E+02  0.24316736052E+02  0.51100000000E-03 0.  1.
        -11    1    3    3    0    0 -0.67693067347E+00  0.23927662120E+01  0.21962275602E+00  0.24963572857E+01  0.51100000000E-03 0. -1.
         12    1    3    3    0    0 -0.36933847279E+01 -0.10576122700E+02  0.17731918518E+02  0.20974184047E+02  0.00000000000E+00 0. -1.
</event>
<event>
 7    1  0.2237500E-009  0.4778727E+02  0.7816164E-02  0.1312668E+00
        -11   -1    0    0    0    0  0.00000000000E+00  0.00000000000E+00  0.45593999997E+02  0.45594000000E+02  0.51100000000E-03 0.  1.
         11   -1    0    0    0    0 -0.00000000000E+00 -0.00000000000E+00 -0.45593999997E+02  0.45594000000E+02  0.51100000000E-03 0. -1.
    9900012    2    1    2    0    0 -0.33949284067E+02 -0.12917388213E+02  0.23753115510E+02  0.47787270705E+02  0.19999998451E+02 0.  0.
         12    1    1    2    0    0  0.33949284067E+02  0.12917388213E+02 -0.23753115510E+02  0.43400729295E+02  0.00000000000E+00 0. -1.
         11    1    3    3    0    0 -0.20225841461E+02 -0.58519539813E+01  0.47269169036E+01  0.21579475709E+02  0.51100000000E-03 0. -1.
        -11    1    3    3    0    0  0.35795903359E+00  0.13256637992E+01  0.47702989273E+00  0.14536426514E+01  0.51100000000E-03 0.  1.
        -12    1    3    3    0    0 -0.14081401640E+02 -0.83910980311E+01  0.18549168714E+02  0.24754152344E+02  0.00000000000E+00 0.  1.
</event>
<event>
 7    1  0.2237500E-009  0.4778727E+02  0.7816164E-02  0.1312668E+00
        -11   -1    0    0    0    0  0.00000000000E+00  0.00000000000E+00  0.45593999997E+02  0.45594000000E+02  0.51100000000E-03 0. -1.
         11   -1    0    0    0    0 -0.00000000000E+00 -0.00000000000E+00 -0.45593999997E+02  0.45594000000E+02  0.51100000000E-03 0.  1.
    9900012    2    1    2    0    0 -0.35698550353E+02  0.23385001262E+02 -0.78980027091E+01  0.47787271571E+02  0.20000002401E+02 0.  0.
         12    1    1    2    0    0  0.35698550353E+02 -0.23385001262E+02  0.78980027091E+01  0.43400728429E+02  0.00000000000E+00 0. -1.
         11    1    3    3    0    0 -0.29179932050E+01 -0.17031964139E+01 -0.49656803871E+01  0.60061255679E+01  0.51100000000E-03 0. -1.
        -11    1    3    3    0    0 -0.89472690520E+00  0.30933268142E-01 -0.75209960108E+00  0.11692506887E+01  0.51100000000E-03 0.  1.
         12    1    3    3    0    0 -0.31885830243E+02  0.25057264408E+02 -0.21802227209E+01  0.40611895314E+02  0.00000000000E+00 0. -1.
</event>
<event>
 7    1  0.2237500E-009  0.4778727E+02  0.7816164E-02  0.1312668E+00
        -11   -1    0    0    0    0  0.00000000000E+00  0.00000000000E+00  0.45593999997E+02  0.45594000000E+02  0.51100000000E-03 0. -1.
         11   -1    0    0    0    0 -0.00000000000E+00 -0.00000000000E+00 -0.45593999997E+02  0.45594000000E+02  0.51100000000E-03 0.  1.
    9900012    2    1    2    0    0  0.72676250433E+01 -0.31860800686E+02 -0.28560367667E+02  0.47787267340E+02  0.19999983110E+02 0.  0.
         12    1    1    2    0    0 -0.72676250433E+01  0.31860800686E+02  0.28560367667E+02  0.43400732660E+02  0.00000000000E+00 0. -1.
         11    1    3    3    0    0 -0.98517302196E+00 -0.94281634525E+01  0.65512673417E-01  0.94797217333E+01  0.51100000000E-03 0. -1.
        -11    1    3    3    0    0  0.65523929684E+00  0.78747370481E+00 -0.11988373053E+01  0.15769161416E+01  0.51100000000E-03 0.  1.
        -12    1    3    3    0    0  0.75975587684E+01 -0.23220110939E+02 -0.27427043035E+02  0.36730629465E+02  0.00000000000E+00 0.  1.
</event>
<event>
 7    1  0.2237500E-009  0.4778728E+02  0.7816164E-02  0.1312668E+00
        -11   -1    0    0    0    0  0.00000000000E+00  0.00000000000E+00  0.45593999997E+02  0.45594000000E+02  0.51100000000E-03 0.  1.
         11   -1    0    0    0    0 -0.00000000000E+00 -0.00000000000E+00 -0.45593999997E+02  0.45594000000E+02  0.51100000000E-03 0. -1.
    9900012    2    1    2    0    0 -0.40492326492E+02 -0.10279698929E+02 -0.11761010734E+02  0.47787284703E+02  0.20000062276E+02 0.  0.
         12    1    1    2    0    0  0.40492326492E+02  0.10279698929E+02  0.11761010734E+02  0.43400715297E+02  0.00000000000E+00 0. -1.
         11    1    3    3    0    0 -0.16652689284E+02 -0.24081854011E+01 -0.11777749857E+02  0.20538422755E+02  0.51100000000E-03 0.  1.
        -11    1    3    3    0    0 -0.11238183005E+00  0.15685290956E+01  0.65789568138E+00  0.17046231807E+01  0.51100000000E-03 0. -1.
        -12    1    3    3    0    0 -0.23727255378E+02 -0.94400426232E+01 -0.64115655881E+00  0.25544238768E+02  0.00000000000E+00 0.  1.
</event>
<event>
 7    1  0.2237500E-009  0.4778728E+02  0.7816164E-02  0.1312668E+00
        -11   -1    0    0    0    0  0.00000000000E+00  0.00000000000E+00  0.45593999997E+02  0.45594000000E+02  0.51100000000E-03 0. -1.
         11   -1    0    0    0    0 -0.00000000000E+00 -0.00000000000E+00 -0.45593999997E+02  0.45594000000E+02  0.51100000000E-03 0.  1.
    9900012    2    1    2    0    0 -0.39918022708E+02  0.59743615864E+01 -0.15952453938E+02  0.47787282035E+02  0.20000050109E+02 0.  0.
         12    1    1    2    0    0  0.39918022708E+02 -0.59743615864E+01  0.15952453938E+02  0.43400717965E+02  0.00000000000E+00 0. -1.
         11    1    3    3    0    0 -0.76386350442E+01  0.39571582609E+01 -0.56262983492E+01  0.10279254847E+02  0.51100000000E-03 0. -1.
        -11    1    3    3    0    0 -0.13090983066E+02 -0.66198461326E+00 -0.12373748470E+02  0.18025584948E+02  0.51100000000E-03 0.  1.
         12    1    3    3    0    0 -0.19188404598E+02  0.26791879387E+01  0.20475928806E+01  0.19482442240E+02  0.00000000000E+00 0. -1.
</event>
<event>
 7    1  0.2237500E-009  0.4778727E+02  0.7816164E-02  0.1312668E+00
        -11   -1    0    0    0    0  0.00000000000E+00  0.00000000000E+00  0.45593999997E+02  0.45594000000E+02  0.51100000000E-03 0.  1.
         11   -1    0    0    0    0 -0.00000000000E+00 -0.00000000000E+00 -0.45593999997E+02  0.45594000000E+02  0.51100000000E-03 0. -1.
    9900012    2    1    2    0    0 -0.24456071035E+02  0.23974388735E+02  0.26659947702E+02  0.47787268011E+02  0.19999986169E+02 0.  0.
         12    1    1    2    0    0  0.24456071035E+02 -0.23974388735E+02 -0.26659947702E+02  0.43400731989E+02  0.00000000000E+00 0. -1.
         11    1    3    3    0    0 -0.58775624140E+01  0.79980640992E+01  0.12901776568E+02  0.16277917807E+02  0.51100000000E-03 0. -1.
        -11    1    3    3    0    0 -0.14910174027E+02  0.81531806385E+01  0.22853042941E+01  0.17146727385E+02  0.51100000000E-03 0.  1.
        -12    1    3    3    0    0 -0.36683345940E+01  0.78231439973E+01  0.11472866840E+02  0.14362622818E+02  0.00000000000E+00 0.  1.
</event>
<event>
 7    1  0.2237500E-009  0.4778727E+02  0.7816164E-02  0.1312668E+00
        -11   -1    0    0    0    0  0.00000000000E+00  0.00000000000E+00  0.45593999997E+02  0.45594000000E+02  0.51100000000E-03 0. -1.
         11   -1    0    0    0    0 -0.00000000000E+00 -0.00000000000E+00 -0.45593999997E+02  0.45594000000E+02  0.51100000000E-03 0.  1.
    9900012    2    1    2    0    0 -0.33563628849E+02  0.27386183341E+02 -0.26651711981E+01  0.47787270087E+02  0.19999995633E+02 0.  0.
         12    1    1    2    0    0  0.33563628849E+02 -0.27386183341E+02  0.26651711981E+01  0.43400729913E+02  0.00000000000E+00 0. -1.
         11    1    3    3    0    0 -0.27112720187E+02  0.16103449336E+02 -0.62143162355E+01  0.32140914781E+02  0.51100000000E-03 0. -1.
        -11    1    3    3    0    0 -0.79123736011E+01  0.66470685575E+01  0.18554610867E+01  0.10499138656E+02  0.51100000000E-03 0.  1.
        -12    1    3    3    0    0  0.14614649391E+01  0.46356654482E+01  0.16936839507E+01  0.51472166499E+01  0.00000000000E+00 0.  1.
</event>
<event>
 7    1  0.2237500E-009  0.4778727E+02  0.7816164E-02  0.1312668E+00
        -11   -1    0    0    0    0  0.00000000000E+00  0.00000000000E+00  0.45593999997E+02  0.45594000000E+02  0.51100000000E-03 0.  1.
         11   -1    0    0    0    0 -0.00000000000E+00 -0.00000000000E+00 -0.45593999997E+02  0.45594000000E+02  0.51100000000E-03 0. -1.
    9900012    2    1    2    0    0  0.36659826321E+02  0.10810207248E+02  0.20562577232E+02  0.47787273864E+02  0.20000012858E+02 0.  0.
         12    1    1    2    0    0 -0.36659826321E+02 -0.10810207248E+02 -0.20562577232E+02  0.43400726136E+02  0.00000000000E+00 0. -1.
         11    1    3    3    0    0  0.10587216615E+02  0.54298150578E+01  0.10010035160E+01  0.11940437827E+02  0.51100000000E-03 0. -1.
        -11    1    3    3    0    0  0.34543034676E+01  0.42902475208E+01 -0.58293348784E+00  0.55387948101E+01  0.51100000000E-03 0.  1.
        -12    1    3    3    0    0  0.22618306239E+02  0.10901446697E+01  0.20144507204E+02  0.30308041227E+02  0.00000000000E+00 0.  1.
</event>
<event>
 7    1  0.2237500E-009  0.4778726E+02  0.7816164E-02  0.1312668E+00
        -11   -1    0    0    0    0  0.00000000000E+00  0.00000000000E+00  0.45593999997E+02  0.45594000000E+02  0.51100000000E-03 0. -1.
         11   -1    0    0    0    0 -0.00000000000E+00 -0.00000000000E+00 -0.45593999997E+02  0.45594000000E+02  0.51100000000E-03 0.  1.
    9900012    2    1    2    0    0  0.26021833954E+02 -0.29925850453E+02 -0.17633270175E+02  0.47787255943E+02  0.19999931145E+02 0.  0.
         12    1    1    2    0    0 -0.26021833954E+02  0.29925850453E+02  0.17633270175E+02  0.43400744057E+02  0.00000000000E+00 0. -1.
         11    1    3    3    0    0  0.13171583970E+01 -0.25041339943E+01  0.36121262313E+01  0.45883602164E+01  0.51100000000E-03 0. -1.
        -11    1    3    3    0    0  0.13373465595E+02 -0.16564322266E+02 -0.82802143103E+01  0.22842685994E+02  0.51100000000E-03 0.  1.
        -12    1    3    3    0    0  0.11331209961E+02 -0.10857394193E+02 -0.12965182096E+02  0.20356209732E+02  0.00000000000E+00 0.  1.
</event>
<event>
 7    1  0.2237500E-009  0.4778725E+02  0.7816164E-02  0.1312668E+00
        -11   -1    0    0    0    0  0.00000000000E+00  0.00000000000E+00  0.45593999997E+02  0.45594000000E+02  0.51100000000E-03 0.  1.
         11   -1    0    0    0    0 -0.00000000000E+00 -0.00000000000E+00 -0.45593999997E+02  0.45594000000E+02  0.51100000000E-03 0. -1.
    9900012    2    1    2    0    0  0.17036122451E+02  0.35953247714E+02  0.17342419853E+02  0.47787250977E+02  0.19999908507E+02 0.  0.
         12    1    1    2    0    0 -0.17036122451E+02 -0.35953247714E+02 -0.17342419853E+02  0.43400749023E+02  0.00000000000E+00 0. -1.
         11    1    3    3    0    0  0.95416771868E+01  0.25467145529E+02  0.14271824519E+02  0.30713255775E+02  0.51100000000E-03 0. -1.
        -11    1    3    3    0    0  0.12037975575E+01  0.24383400652E+01  0.58814564838E+01  0.64796729443E+01  0.51100000000E-03 0.  1.
         12    1    3    3    0    0  0.62906477068E+01  0.80477621196E+01 -0.28108611498E+01  0.10594322258E+02  0.00000000000E+00 0. -1.
</event>
<event>
 7    1  0.2237500E-009  0.4778728E+02  0.7816164E-02  0.1312668E+00
        -11   -1    0    0    0    0  0.00000000000E+00  0.00000000000E+00  0.45593999997E+02  0.45594000000E+02  0.51100000000E-03 0.  1.
         11   -1    0    0    0    0 -0.00000000000E+00 -0.00000000000E+00 -0.45593999997E+02  0.45594000000E+02  0.51100000000E-03 0. -1.
    9900012    2    1    2    0    0 -0.17214307128E+02 -0.25080473297E+02  0.30955778698E+02  0.47787277132E+02  0.20000027753E+02 0.  0.
         12    1    1    2    0    0  0.17214307128E+02  0.25080473297E+02 -0.30955778698E+02  0.43400722868E+02  0.00000000000E+00 0. -1.
         11    1    3    3    0    0 -0.14742136857E+02 -0.10675785997E+02  0.17565167352E+02  0.25295021450E+02  0.51100000000E-03 0. -1.
        -11    1    3    3    0    0 -0.28676393494E+01 -0.27837699917E+01 -0.87189701751E+00  0.40905910912E+01  0.51100000000E-03 0.  1.
        -12    1    3    3    0    0  0.39546907900E+00 -0.11620917308E+02  0.14262508364E+02  0.18401664591E+02  0.00000000000E+00 0.  1.
</event>
<event>
 7    1  0.2237500E-009  0.4778727E+02  0.7816164E-02  0.1312668E+00
        -11   -1    0    0    0    0  0.00000000000E+00  0.00000000000E+00  0.45593999997E+02  0.45594000000E+02  0.51100000000E-03 0.  1.
         11   -1    0    0    0    0 -0.00000000000E+00 -0.00000000000E+00 -0.45593999997E+02  0.45594000000E+02  0.51100000000E-03 0. -1.
    9900012    2    1    2    0    0 -0.21712313371E+02  0.35664787593E+01  0.37409609755E+02  0.47787271611E+02  0.20000002585E+02 0.  0.
         12    1    1    2    0    0  0.21712313371E+02 -0.35664787593E+01 -0.37409609755E+02  0.43400728389E+02  0.00000000000E+00 0. -1.
         11    1    3    3    0    0 -0.29543262236E+00  0.29413291781E+01  0.22351757156E+01  0.37060367657E+01  0.51100000000E-03 0. -1.
        -11    1    3    3    0    0 -0.19374719003E+02  0.49125061901E+01  0.20390031163E+02  0.28552860182E+02  0.51100000000E-03 0.  1.
         12    1    3    3    0    0 -0.20421617462E+01 -0.42873566089E+01  0.14784402876E+02  0.15528374664E+02  0.00000000000E+00 0. -1.
</event>
<event>
 7    1  0.2237500E-009  0.4778727E+02  0.7816164E-02  0.1312668E+00
        -11   -1    0    0    0    0  0.00000000000E+00  0.00000000000E+00  0.45593999997E+02  0.45594000000E+02  0.51100000000E-03 0.  1.
         11   -1    0    0    0    0 -0.00000000000E+00 -0.00000000000E+00 -0.45593999997E+02  0.45594000000E+02  0.51100000000E-03 0. -1.
    9900012    2    1    2    0    0 -0.18772804509E+02  0.11187320760E+02  0.37497322400E+02  0.47787268185E+02  0.19999986963E+02 0.  0.
         12    1    1    2    0    0  0.18772804509E+02 -0.11187320760E+02 -0.37497322400E+02  0.43400731815E+02  0.00000000000E+00 0. -1.
         11    1    3    3    0    0 -0.49072847377E+01  0.85318100067E+01  0.21943724528E+02  0.24049953678E+02  0.51100000000E-03 0. -1.
        -11    1    3    3    0    0 -0.45595685444E+01  0.23926513725E+01  0.13150232041E+02  0.14122430701E+02  0.51100000000E-03 0.  1.
        -12    1    3    3    0    0 -0.93059512268E+01  0.26285938085E+00  0.24033658300E+01  0.96148838059E+01  0.00000000000E+00 0.  1.
</event>
<event>
 7    1  0.2237500E-009  0.4778727E+02  0.7816164E-02  0.1312668E+00
        -11   -1    0    0    0    0  0.00000000000E+00  0.00000000000E+00  0.45593999997E+02  0.45594000000E+02  0.51100000000E-03 0.  1.
         11   -1    0    0    0    0 -0.00000000000E+00 -0.00000000000E+00 -0.45593999997E+02  0.45594000000E+02  0.51100000000E-03 0. -1.
    9900012    2    1    2    0    0 -0.12457094807E+02  0.81566850195E+01  0.40766562192E+02  0.47787270577E+02  0.19999997869E+02 0.  0.
         12    1    1    2    0    0  0.12457094807E+02 -0.81566850195E+01 -0.40766562192E+02  0.43400729423E+02  0.00000000000E+00 0. -1.
         11    1    3    3    0    0 -0.13035691691E+02  0.28589572184E+01  0.19846541460E+02  0.23916272753E+02  0.51100000000E-03 0. -1.
        -11    1    3    3    0    0 -0.31032122838E+01  0.45688104989E+01  0.18725993839E+02  0.19523493575E+02  0.51100000000E-03 0.  1.
         12    1    3    3    0    0  0.36818091684E+01  0.72891730217E+00  0.21940268928E+01  0.43475042487E+01  0.00000000000E+00 0. -1.
</event>
<event>
 7    1  0.2237500E-009  0.4778724E+02  0.7816164E-02  0.1312668E+00
        -11   -1    0    0    0    0  0.00000000000E+00  0.00000000000E+00  0.45593999997E+02  0.45594000000E+02  0.51100000000E-03 0. -1.
         11   -1    0    0    0    0 -0.00000000000E+00 -0.00000000000E+00 -0.45593999997E+02  0.45594000000E+02  0.51100000000E-03 0.  1.
    9900012    2    1    2    0    0  0.42888420058E+02 -0.16701424591E+01 -0.64358242484E+01  0.47787242119E+02  0.19999868117E+02 0.  0.
         12    1    1    2    0    0 -0.42888420058E+02  0.16701424591E+01  0.64358242484E+01  0.43400757881E+02  0.00000000000E+00 0. -1.
         11    1    3    3    0    0  0.47043659762E+00 -0.86624633133E+00 -0.61222026843E+00  0.11603909760E+01  0.51100000000E-03 0. -1.
        -11    1    3    3    0    0  0.25656089664E+02 -0.21988345808E+01 -0.12383482308E+02  0.28573072021E+02  0.51100000000E-03 0.  1.
         12    1    3    3    0    0  0.16761893796E+02  0.13949384530E+01  0.65598783281E+01  0.18053779122E+02  0.00000000000E+00 0. -1.
</event>
<event>
 7    1  0.2237500E-009  0.4778727E+02  0.7816164E-02  0.1312668E+00
        -11   -1    0    0    0    0  0.00000000000E+00  0.00000000000E+00  0.45593999997E+02  0.45594000000E+02  0.51100000000E-03 0. -1.
         11   -1    0    0    0    0 -0.00000000000E+00 -0.00000000000E+00 -0.45593999997E+02  0.45594000000E+02  0.51100000000E-03 0.  1.
    9900012    2    1    2    0    0 -0.30950956003E+02 -0.30417735113E+02  0.65038853179E+00  0.47787270834E+02  0.19999999042E+02 0.  0.
         12    1    1    2    0    0  0.30950956003E+02  0.30417735113E+02 -0.65038853179E+00  0.43400729166E+02  0.00000000000E+00 0. -1.
         11    1    3    3    0    0 -0.17830592700E+02 -0.14664190366E+02 -0.47651859924E+01  0.23572770582E+02  0.51100000000E-03 0. -1.
        -11    1    3    3    0    0 -0.12909845575E+02 -0.68466369883E+01  0.24012790009E+01  0.14809007121E+02  0.51100000000E-03 0.  1.
        -12    1    3    3    0    0 -0.21051772774E+00 -0.89069077583E+01  0.30142955233E+01  0.94054931306E+01  0.00000000000E+00 0.  1.
</event>
<event>
 7    1  0.2237500E-009  0.4778727E+02  0.7816164E-02  0.1312668E+00
        -11   -1    0    0    0    0  0.00000000000E+00  0.00000000000E+00  0.45593999997E+02  0.45594000000E+02  0.51100000000E-03 0.  1.
         11   -1    0    0    0    0 -0.00000000000E+00 -0.00000000000E+00 -0.45593999997E+02  0.45594000000E+02  0.51100000000E-03 0. -1.
    9900012    2    1    2    0    0  0.58611260350E+01 -0.33866222520E+02  0.26501877378E+02  0.47787270389E+02  0.19999997014E+02 0.  0.
         12    1    1    2    0    0 -0.58611260350E+01  0.33866222520E+02 -0.26501877378E+02  0.43400729611E+02  0.00000000000E+00 0. -1.
         11    1    3    3    0    0 -0.18734128270E+01 -0.49688921250E+00  0.29125292147E+01  0.34984855577E+01  0.51100000000E-03 0. -1.
        -11    1    3    3    0    0  0.55576149217E+01 -0.36315049789E+01  0.87481990857E+01  0.10982071732E+02  0.51100000000E-03 0.  1.
        -12    1    3    3    0    0  0.21769239402E+01 -0.29737828328E+02  0.14841149078E+02  0.33306713099E+02  0.00000000000E+00 0.  1.
</event>
<event>
 7    1  0.2237500E-009  0.4778721E+02  0.7816164E-02  0.1312668E+00
        -11   -1    0    0    0    0  0.00000000000E+00  0.00000000000E+00  0.45593999997E+02  0.45594000000E+02  0.51100000000E-03 0. -1.
         11   -1    0    0    0    0 -0.00000000000E+00 -0.00000000000E+00 -0.45593999997E+02  0.45594000000E+02  0.51100000000E-03 0.  1.
    9900012    2    1    2    0    0  0.28777979545E+02  0.28505471782E+02 -0.15585060929E+02  0.47787214842E+02  0.19999743748E+02 0.  0.
         12    1    1    2    0    0 -0.28777979545E+02 -0.28505471782E+02  0.15585060929E+02  0.43400785158E+02  0.00000000000E+00 0. -1.
         11    1    3    3    0    0  0.22321399422E+01  0.69832404976E+01 -0.61063474944E+01  0.95412565500E+01  0.51100000000E-03 0. -1.
        -11    1    3    3    0    0  0.88702936303E+01  0.63278967033E+01 -0.10201213217E+02  0.14926122642E+02  0.51100000000E-03 0.  1.
        -12    1    3    3    0    0  0.17675545972E+02  0.15194334581E+02  0.72249978244E+00  0.23319835650E+02  0.00000000000E+00 0.  1.
</event>
<event>
 7    1  0.2237500E-009  0.4778728E+02  0.7816164E-02  0.1312668E+00
        -11   -1    0    0    0    0  0.00000000000E+00  0.00000000000E+00  0.45593999997E+02  0.45594000000E+02  0.51100000000E-03 0.  1.
         11   -1    0    0    0    0 -0.00000000000E+00 -0.00000000000E+00 -0.45593999997E+02  0.45594000000E+02  0.51100000000E-03 0. -1.
    9900012    2    1    2    0    0 -0.35913269900E+02  0.92997371758E+01  0.22524980066E+02  0.47787276579E+02  0.20000025236E+02 0.  0.
         12    1    1    2    0    0  0.35913269900E+02 -0.92997371758E+01 -0.22524980066E+02  0.43400723421E+02  0.00000000000E+00 0. -1.
         11    1    3    3    0    0 -0.18638414135E+02 -0.19591929019E+01  0.11927999609E+02  0.22214997034E+02  0.51100000000E-03 0. -1.
        -11    1    3    3    0    0 -0.15617470253E+02  0.64486282773E+01  0.11453911683E+02  0.20412796890E+02  0.51100000000E-03 0.  1.
        -12    1    3    3    0    0 -0.16573855124E+01  0.48103018004E+01 -0.85693122613E+00  0.51594826557E+01  0.00000000000E+00 0.  1.
</event>
<event>
 7    1  0.2237500E-009  0.4778727E+02  0.7816164E-02  0.1312668E+00
        -11   -1    0    0    0    0  0.00000000000E+00  0.00000000000E+00  0.45593999997E+02  0.45594000000E+02  0.51100000000E-03 0.  1.
         11   -1    0    0    0    0 -0.00000000000E+00 -0.00000000000E+00 -0.45593999997E+02  0.45594000000E+02  0.51100000000E-03 0. -1.
    9900012    2    1    2    0    0 -0.14615655358E+02 -0.16375520446E+02  0.37441266737E+02  0.47787268366E+02  0.19999987790E+02 0.  0.
         12    1    1    2    0    0  0.14615655358E+02  0.16375520446E+02 -0.37441266737E+02  0.43400731634E+02  0.00000000000E+00 0. -1.
         11    1    3    3    0    0 -0.54970570682E+01  0.46097486365E+00  0.15632207976E+02  0.16576973811E+02  0.51100000000E-03 0. -1.
        -11    1    3    3    0    0 -0.12178383119E+01  0.17465372730E+01  0.22543461815E+01  0.31009030244E+01  0.51100000000E-03 0.  1.
        -12    1    3    3    0    0 -0.79007599775E+01 -0.18583032583E+02  0.19554712580E+02  0.28109391532E+02  0.00000000000E+00 0.  1.
</event>
<event>
 7    1  0.2237500E-009  0.4778730E+02  0.7816164E-02  0.1312668E+00
        -11   -1    0    0    0    0  0.00000000000E+00  0.00000000000E+00  0.45593999997E+02  0.45594000000E+02  0.51100000000E-03 0.  1.
         11   -1    0    0    0    0 -0.00000000000E+00 -0.00000000000E+00 -0.45593999997E+02  0.45594000000E+02  0.51100000000E-03 0. -1.
    9900012    2    1    2    0    0  0.40574435789E+01  0.41902236098E+02 -0.10552752812E+02  0.47787299195E+02  0.20000128351E+02 0.  0.
         12    1    1    2    0    0 -0.40574435789E+01 -0.41902236098E+02  0.10552752812E+02  0.43400700805E+02  0.00000000000E+00 0. -1.
         11    1    3    3    0    0  0.31058989034E+01  0.10721432162E+02  0.90141721763E+00  0.11198583342E+02  0.51100000000E-03 0. -1.
        -11    1    3    3    0    0  0.31315532632E+01  0.31967775129E+02 -0.93389066029E+01  0.33450866197E+02  0.51100000000E-03 0.  1.
         12    1    3    3    0    0 -0.21800085877E+01 -0.78697119289E+00 -0.21152634269E+01  0.31378496564E+01  0.00000000000E+00 0. -1.
</event>
<event>
 7    1  0.2237500E-009  0.4778728E+02  0.7816164E-02  0.1312668E+00
        -11   -1    0    0    0    0  0.00000000000E+00  0.00000000000E+00  0.45593999997E+02  0.45594000000E+02  0.51100000000E-03 0.  1.
         11   -1    0    0    0    0 -0.00000000000E+00 -0.00000000000E+00 -0.45593999997E+02  0.45594000000E+02  0.51100000000E-03 0. -1.
    9900012    2    1    2    0    0  0.20532048562E+02 -0.18942059427E+02  0.33215302065E+02  0.47787275066E+02  0.20000018336E+02 0.  0.
         12    1    1    2    0    0 -0.20532048562E+02  0.18942059427E+02 -0.33215302065E+02  0.43400724934E+02  0.00000000000E+00 0. -1.
         11    1    3    3    0    0  0.40021050607E+01  0.18170190895E+01  0.83397153990E+01  0.94270491929E+01  0.51100000000E-03 0. -1.
        -11    1    3    3    0    0  0.15779377519E+02 -0.11611590892E+02  0.19877436090E+02  0.27909322165E+02  0.51100000000E-03 0.  1.
        -12    1    3    3    0    0  0.75056598233E+00 -0.91474876246E+01  0.49981505767E+01  0.10450903708E+02  0.00000000000E+00 0.  1.
</event>
<event>
 7    1  0.2237500E-009  0.4778728E+02  0.7816164E-02  0.1312668E+00
        -11   -1    0    0    0    0  0.00000000000E+00  0.00000000000E+00  0.45593999997E+02  0.45594000000E+02  0.51100000000E-03 0. -1.
         11   -1    0    0    0    0 -0.00000000000E+00 -0.00000000000E+00 -0.45593999997E+02  0.45594000000E+02  0.51100000000E-03 0.  1.
    9900012    2    1    2    0    0 -0.19199396375E+02  0.22441618208E+02 -0.31802199244E+02  0.47787275055E+02  0.20000018288E+02 0.  0.
         12    1    1    2    0    0  0.19199396375E+02 -0.22441618208E+02  0.31802199244E+02  0.43400724945E+02  0.00000000000E+00 0. -1.
         11    1    3    3    0    0 -0.12311379132E+02  0.13180624992E+02 -0.12289068127E+02  0.21824759495E+02  0.51100000000E-03 0. -1.
        -11    1    3    3    0    0 -0.31607102494E+01  0.12058007343E+02 -0.14269051761E+02  0.18947070190E+02  0.51100000000E-03 0.  1.
        -12    1    3    3    0    0 -0.37273069933E+01 -0.27970141274E+01 -0.52440793566E+01  0.70154453707E+01  0.00000000000E+00 0.  1.
</event>
<event>
 7    1  0.2237500E-009  0.4778727E+02  0.7816164E-02  0.1312668E+00
        -11   -1    0    0    0    0  0.00000000000E+00  0.00000000000E+00  0.45593999997E+02  0.45594000000E+02  0.51100000000E-03 0.  1.
         11   -1    0    0    0    0 -0.00000000000E+00 -0.00000000000E+00 -0.45593999997E+02  0.45594000000E+02  0.51100000000E-03 0. -1.
    9900012    2    1    2    0    0 -0.16823998721E+02  0.35326502357E+02  0.18778046455E+02  0.47787265785E+02  0.19999976020E+02 0.  0.
         12    1    1    2    0    0  0.16823998721E+02 -0.35326502357E+02 -0.18778046455E+02  0.43400734215E+02  0.00000000000E+00 0. -1.
         11    1    3    3    0    0 -0.20423150586E+02  0.28797866334E+02  0.14130938283E+02  0.38027695201E+02  0.51100000000E-03 0. -1.
        -11    1    3    3    0    0  0.10166049383E+01  0.54375120253E+01  0.19392464759E+01  0.58618000462E+01  0.51100000000E-03 0.  1.
         12    1    3    3    0    0  0.25825469258E+01  0.10911239971E+01  0.27078616964E+01  0.38977705381E+01  0.00000000000E+00 0. -1.
</event>
<event>
 7    1  0.2237500E-009  0.4778729E+02  0.7816164E-02  0.1312668E+00
        -11   -1    0    0    0    0  0.00000000000E+00  0.00000000000E+00  0.45593999997E+02  0.45594000000E+02  0.51100000000E-03 0.  1.
         11   -1    0    0    0    0 -0.00000000000E+00 -0.00000000000E+00 -0.45593999997E+02  0.45594000000E+02  0.51100000000E-03 0. -1.
    9900012    2    1    2    0    0  0.11319210873E+02 -0.18067576940E+02  0.37802906015E+02  0.47787290622E+02  0.20000089264E+02 0.  0.
         12    1    1    2    0    0 -0.11319210873E+02  0.18067576940E+02 -0.37802906015E+02  0.43400709378E+02  0.00000000000E+00 0. -1.
         11    1    3    3    0    0 -0.15836603531E+01  0.15246862803E+01 -0.76605798526E+00  0.23279805552E+01  0.51100000000E-03 0. -1.
        -11    1    3    3    0    0  0.18555725304E+01 -0.68742748752E+00  0.50341342809E+01  0.54090862616E+01  0.51100000000E-03 0.  1.
         12    1    3    3    0    0  0.11047298696E+02 -0.18904835733E+02  0.33534829719E+02  0.40050223806E+02  0.00000000000E+00 0. -1.
</event>
<event>
 7    1  0.2237500E-009  0.4778727E+02  0.7816164E-02  0.1312668E+00
        -11   -1    0    0    0    0  0.00000000000E+00  0.00000000000E+00  0.45593999997E+02  0.45594000000E+02  0.51100000000E-03 0. -1.
         11   -1    0    0    0    0 -0.00000000000E+00 -0.00000000000E+00 -0.45593999997E+02  0.45594000000E+02  0.51100000000E-03 0.  1.
    9900012    2    1    2    0    0  0.29515007850E+02  0.25607254674E+02 -0.18887998766E+02  0.47787266392E+02  0.19999978788E+02 0.  0.
         12    1    1    2    0    0 -0.29515007850E+02 -0.25607254674E+02  0.18887998766E+02  0.43400733608E+02  0.00000000000E+00 0. -1.
         11    1    3    3    0    0  0.33406467667E+01 -0.27802277959E+01 -0.18664325741E+01  0.47300272971E+01  0.51100000000E-03 0. -1.
        -11    1    3    3    0    0  0.47112999782E+01  0.51651131675E+01  0.30868158221E+00  0.69978586795E+01  0.51100000000E-03 0.  1.
        -12    1    3    3    0    0  0.21463061105E+02  0.23222369302E+02 -0.17330247774E+02  0.36059380415E+02  0.00000000000E+00 0.  1.
</event>
<event>
 7    1  0.2237500E-009  0.4778727E+02  0.7816164E-02  0.1312668E+00
        -11   -1    0    0    0    0  0.00000000000E+00  0.00000000000E+00  0.45593999997E+02  0.45594000000E+02  0.51100000000E-03 0.  1.
         11   -1    0    0    0    0 -0.00000000000E+00 -0.00000000000E+00 -0.45593999997E+02  0.45594000000E+02  0.51100000000E-03 0. -1.
    9900012    2    1    2    0    0  0.33269785100E+01  0.13861516373E+02  0.40992843621E+02  0.47787266708E+02  0.19999980228E+02 0.  0.
         12    1    1    2    0    0 -0.33269785100E+01 -0.13861516373E+02 -0.40992843621E+02  0.43400733292E+02  0.00000000000E+00 0. -1.
         11    1    3    3    0    0 -0.14613853246E+01 -0.21306640042E+01  0.12938394931E+02  0.13193840980E+02  0.51100000000E-03 0. -1.
        -11    1    3    3    0    0  0.40724257673E+01  0.13684566666E+02  0.28732127328E+02  0.32084063918E+02  0.51100000000E-03 0.  1.
         12    1    3    3    0    0  0.71593806733E+00  0.23076137109E+01 -0.67767863767E+00  0.25093618095E+01  0.00000000000E+00 0. -1.
</event>
<event>
 7    1  0.2237500E-009  0.4778727E+02  0.7816164E-02  0.1312668E+00
        -11   -1    0    0    0    0  0.00000000000E+00  0.00000000000E+00  0.45593999997E+02  0.45594000000E+02  0.51100000000E-03 0. -1.
         11   -1    0    0    0    0 -0.00000000000E+00 -0.00000000000E+00 -0.45593999997E+02  0.45594000000E+02  0.51100000000E-03 0.  1.
    9900012    2    1    2    0    0 -0.83957221061E+01  0.33834604448E+02 -0.25852554129E+02  0.47787272323E+02  0.20000005832E+02 0.  0.
         12    1    1    2    0    0  0.83957221061E+01 -0.33834604448E+02  0.25852554129E+02  0.43400727677E+02  0.00000000000E+00 0. -1.
         11    1    3    3    0    0 -0.76480537352E+01  0.55734977780E+01 -0.78114554594E+01  0.12270918469E+02  0.51100000000E-03 0. -1.
        -11    1    3    3    0    0  0.77019556202E+00 -0.10047955009E+01 -0.10264325767E+01  0.16298402677E+01  0.51100000000E-03 0.  1.
        -12    1    3    3    0    0 -0.15178639329E+01  0.29265902171E+02 -0.17014666093E+02  0.33886513587E+02  0.00000000000E+00 0.  1.
</event>
<event>
 7    1  0.2477127E-009  0.4778727E+02  0.7816164E-02  0.1312668E+00
        -11   -1    0    0    0    0  0.00000000000E+00  0.00000000000E+00  0.45593999997E+02  0.45594000000E+02  0.51100000000E-03 0.  1.
         11   -1    0    0    0    0 -0.00000000000E+00 -0.00000000000E+00 -0.45593999997E+02  0.45594000000E+02  0.51100000000E-03 0. -1.
    9900012    2    1    2    0    0 -0.21690884504E+02 -0.35409689862E+02  0.12620724395E+02  0.47787270848E+02  0.19999999106E+02 0.  0.
         12    1    1    2    0    0  0.21690884504E+02  0.35409689862E+02 -0.12620724395E+02  0.43400729152E+02  0.00000000000E+00 0. -1.
         11    1    3    3    0    0  0.10705059296E+01 -0.73085828207E+01  0.12015349274E+01  0.74836523326E+01  0.51100000000E-03 0. -1.
        -11    1    3    3    0    0 -0.22198841551E+01 -0.56556143271E+00 -0.23607206373E+01  0.32894904750E+01  0.51100000000E-03 0.  1.
        -12    1    3    3    0    0 -0.20541506278E+02 -0.27535545608E+02  0.13779910105E+02  0.37014128041E+02  0.00000000000E+00 0.  1.
</event>
<event>
 7    1  0.2237500E-009  0.4778727E+02  0.7816164E-02  0.1312668E+00
        -11   -1    0    0    0    0  0.00000000000E+00  0.00000000000E+00  0.45593999997E+02  0.45594000000E+02  0.51100000000E-03 0.  1.
         11   -1    0    0    0    0 -0.00000000000E+00 -0.00000000000E+00 -0.45593999997E+02  0.45594000000E+02  0.51100000000E-03 0. -1.
    9900012    2    1    2    0    0  0.18946600951E+02 -0.32401212354E+02  0.21790155148E+02  0.47787272921E+02  0.20000008555E+02 0.  0.
         12    1    1    2    0    0 -0.18946600951E+02  0.32401212354E+02 -0.21790155148E+02  0.43400727079E+02  0.00000000000E+00 0. -1.
         11    1    3    3    0    0  0.48249590968E+01 -0.16726633950E+02  0.62869182633E+01  0.18509074939E+02  0.51100000000E-03 0. -1.
        -11    1    3    3    0    0  0.11060187597E+02 -0.17411981368E+02  0.10460791852E+02  0.23128618879E+02  0.51100000000E-03 0.  1.
        -12    1    3    3    0    0  0.30614542576E+01  0.17374029637E+01  0.50424450323E+01  0.61495791022E+01  0.00000000000E+00 0.  1.
</event>
<event>
 7    1  0.2237500E-009  0.4778727E+02  0.7816164E-02  0.1312668E+00
        -11   -1    0    0    0    0  0.00000000000E+00  0.00000000000E+00  0.45593999997E+02  0.45594000000E+02  0.51100000000E-03 0.  1.
         11   -1    0    0    0    0 -0.00000000000E+00 -0.00000000000E+00 -0.45593999997E+02  0.45594000000E+02  0.51100000000E-03 0. -1.
    9900012    2    1    2    0    0 -0.32524209437E+02  0.43738912027E+01  0.28401906887E+02  0.47787269147E+02  0.19999991348E+02 0.  0.
         12    1    1    2    0    0  0.32524209437E+02 -0.43738912027E+01 -0.28401906887E+02  0.43400730853E+02  0.00000000000E+00 0. -1.
         11    1    3    3    0    0 -0.47618279716E+01  0.12980660586E+01  0.73997119031E+01  0.88947016607E+01  0.51100000000E-03 0.  1.
        -11    1    3    3    0    0 -0.40114255427E+01  0.16210534785E+00 -0.29910255867E+01  0.50064006382E+01  0.51100000000E-03 0. -1.
         12    1    3    3    0    0 -0.23750955923E+02  0.29137197962E+01  0.23993220571E+02  0.33886166848E+02  0.00000000000E+00 0. -1.
</event>
<event>
 7    1  0.2237500E-009  0.4778728E+02  0.7816164E-02  0.1312668E+00
        -11   -1    0    0    0    0  0.00000000000E+00  0.00000000000E+00  0.45593999997E+02  0.45594000000E+02  0.51100000000E-03 0. -1.
         11   -1    0    0    0    0 -0.00000000000E+00 -0.00000000000E+00 -0.45593999997E+02  0.45594000000E+02  0.51100000000E-03 0.  1.
    9900012    2    1    2    0    0  0.39999277357E+02 -0.14852771786E+02 -0.79420306501E+01  0.47787275701E+02  0.20000021232E+02 0.  0.
         12    1    1    2    0    0 -0.39999277357E+02  0.14852771786E+02  0.79420306501E+01  0.43400724299E+02  0.00000000000E+00 0. -1.
         11    1    3    3    0    0  0.33618193241E+02 -0.74227469236E+01 -0.37930588385E+01  0.34636214925E+02  0.51100000000E-03 0. -1.
        -11    1    3    3    0    0  0.20296537225E+01  0.10378240553E+01 -0.26792600502E+01  0.35178129116E+01  0.51100000000E-03 0.  1.
         12    1    3    3    0    0  0.43514303931E+01 -0.84678489177E+01 -0.14697117615E+01  0.96332478646E+01  0.00000000000E+00 0. -1.
</event>
<event>
 7    1  0.2237500E-009  0.4778728E+02  0.7816164E-02  0.1312668E+00
        -11   -1    0    0    0    0  0.00000000000E+00  0.00000000000E+00  0.45593999997E+02  0.45594000000E+02  0.51100000000E-03 0.  1.
         11   -1    0    0    0    0 -0.00000000000E+00 -0.00000000000E+00 -0.45593999997E+02  0.45594000000E+02  0.51100000000E-03 0. -1.
    9900012    2    1    2    0    0 -0.13694307874E+02  0.65081242576E+01  0.40666117338E+02  0.47787275941E+02  0.20000022324E+02 0.  0.
         12    1    1    2    0    0  0.13694307874E+02 -0.65081242576E+01 -0.40666117338E+02  0.43400724059E+02  0.00000000000E+00 0. -1.
         11    1    3    3    0    0 -0.46774685973E+01  0.62384897409E+01  0.11048950429E+02  0.13523193875E+02  0.51100000000E-03 0. -1.
        -11    1    3    3    0    0  0.39989824562E+01  0.11275841909E+01  0.80529298578E+01  0.90616216181E+01  0.51100000000E-03 0.  1.
        -12    1    3    3    0    0 -0.13015821733E+02 -0.85794967422E+00  0.21564237051E+02  0.25202460448E+02  0.00000000000E+00 0.  1.
</event>
<event>
 7    1  0.2237500E-009  0.4778728E+02  0.7816164E-02  0.1312668E+00
        -11   -1    0    0    0    0  0.00000000000E+00  0.00000000000E+00  0.45593999997E+02  0.45594000000E+02  0.51100000000E-03 0.  1.
         11   -1    0    0    0    0 -0.00000000000E+00 -0.00000000000E+00 -0.45593999997E+02  0.45594000000E+02  0.51100000000E-03 0. -1.
    9900012    2    1    2    0    0 -0.21369857988E+02 -0.35192700728E+02  0.13726830011E+02  0.47787275616E+02  0.20000020842E+02 0.  0.
         12    1    1    2    0    0  0.21369857988E+02  0.35192700728E+02 -0.13726830011E+02  0.43400724384E+02  0.00000000000E+00 0. -1.
         11    1    3    3    0    0 -0.71201566534E+01 -0.14866989784E+01  0.38804780017E+00  0.72840569724E+01  0.51100000000E-03 0. -1.
        -11    1    3    3    0    0 -0.36843459003E+01 -0.16377129659E+01 -0.39870382529E+00  0.40516013468E+01  0.51100000000E-03 0.  1.
        -12    1    3    3    0    0 -0.10565355434E+02 -0.32068288784E+02  0.13737486036E+02  0.36451617297E+02  0.00000000000E+00 0.  1.
</event>
<event>
 7    1  0.2237500E-009  0.4778727E+02  0.7816164E-02  0.1312668E+00
        -11   -1    0    0    0    0  0.00000000000E+00  0.00000000000E+00  0.45593999997E+02  0.45594000000E+02  0.51100000000E-03 0.  1.
         11   -1    0    0    0    0 -0.00000000000E+00 -0.00000000000E+00 -0.45593999997E+02  0.45594000000E+02  0.51100000000E-03 0. -1.
    9900012    2    1    2    0    0  0.10568661582E+02  0.13969450189E+02  0.39708706730E+02  0.47787268020E+02  0.19999986210E+02 0.  0.
         12    1    1    2    0    0 -0.10568661582E+02 -0.13969450189E+02 -0.39708706730E+02  0.43400731980E+02  0.00000000000E+00 0. -1.
         11    1    3    3    0    0 -0.14170524926E+01  0.29987156073E+01  0.16788460602E+02  0.17112940797E+02  0.51100000000E-03 0. -1.
        -11    1    3    3    0    0  0.99208341494E+00  0.91340982179E+01  0.92735728423E+01  0.13054314738E+02  0.51100000000E-03 0.  1.
         12    1    3    3    0    0  0.10993630659E+02  0.18366363636E+01  0.13646673286E+02  0.17620012485E+02  0.00000000000E+00 0. -1.
</event>
<event>
 7    1  0.2237500E-009  0.4778727E+02  0.7816164E-02  0.1312668E+00
        -11   -1    0    0    0    0  0.00000000000E+00  0.00000000000E+00  0.45593999997E+02  0.45594000000E+02  0.51100000000E-03 0.  1.
         11   -1    0    0    0    0 -0.00000000000E+00 -0.00000000000E+00 -0.45593999997E+02  0.45594000000E+02  0.51100000000E-03 0. -1.
    9900012    2    1    2    0    0 -0.10186610180E+02 -0.31657314009E+02  0.27886746930E+02  0.47787271762E+02  0.20000003271E+02 0.  0.
         12    1    1    2    0    0  0.10186610180E+02  0.31657314009E+02 -0.27886746930E+02  0.43400728238E+02  0.00000000000E+00 0. -1.
         11    1    3    3    0    0 -0.85020148428E+01 -0.10370897957E+02  0.61233148674E+01  0.14742278184E+02  0.51100000000E-03 0. -1.
        -11    1    3    3    0    0  0.14038075881E+01  0.13073476344E+01  0.83131643122E+00  0.20906747360E+01  0.51100000000E-03 0.  1.
         12    1    3    3    0    0 -0.30884029257E+01 -0.22593763687E+02  0.20932115632E+02  0.30954318842E+02  0.00000000000E+00 0. -1.
</event>
<event>
 7    1  0.2237500E-009  0.4778728E+02  0.7816164E-02  0.1312668E+00
        -11   -1    0    0    0    0  0.00000000000E+00  0.00000000000E+00  0.45593999997E+02  0.45594000000E+02  0.51100000000E-03 0. -1.
         11   -1    0    0    0    0 -0.00000000000E+00 -0.00000000000E+00 -0.45593999997E+02  0.45594000000E+02  0.51100000000E-03 0.  1.
    9900012    2    1    2    0    0  0.28355526676E+02 -0.20664344661E+02 -0.25545483905E+02  0.47787276719E+02  0.20000025874E+02 0.  0.
         12    1    1    2    0    0 -0.28355526676E+02  0.20664344661E+02  0.25545483905E+02  0.43400723281E+02  0.00000000000E+00 0. -1.
         11    1    3    3    0    0  0.27785689627E+01  0.19584808484E+01 -0.62719709680E+01  0.71339829548E+01  0.51100000000E-03 0. -1.
        -11    1    3    3    0    0  0.20168657517E+01 -0.61752122247E+01 -0.65623993328E+01  0.92339633281E+01  0.51100000000E-03 0.  1.
        -12    1    3    3    0    0  0.23560091962E+02 -0.16447613284E+02 -0.12711113604E+02  0.31419330436E+02  0.00000000000E+00 0.  1.
</event>
<event>
 7    1  0.2237500E-009  0.4778728E+02  0.7816164E-02  0.1312668E+00
        -11   -1    0    0    0    0  0.00000000000E+00  0.00000000000E+00  0.45593999997E+02  0.45594000000E+02  0.51100000000E-03 0.  1.
         11   -1    0    0    0    0 -0.00000000000E+00 -0.00000000000E+00 -0.45593999997E+02  0.45594000000E+02  0.51100000000E-03 0. -1.
    9900012    2    1    2    0    0 -0.43291493018E+02 -0.13666952435E+01 -0.27571030552E+01  0.47787276033E+02  0.20000022743E+02 0.  0.
         12    1    1    2    0    0  0.43291493018E+02  0.13666952435E+01  0.27571030552E+01  0.43400723967E+02  0.00000000000E+00 0. -1.
         11    1    3    3    0    0 -0.60371298393E+01 -0.23761647148E+01 -0.54953706493E+01  0.85024816544E+01  0.51100000000E-03 0. -1.
        -11    1    3    3    0    0 -0.60183375576E+01  0.15673232775E+01 -0.39074853069E+01  0.73447485252E+01  0.51100000000E-03 0.  1.
        -12    1    3    3    0    0 -0.31236025621E+02 -0.55785380619E+00  0.66457529010E+01  0.31940045853E+02  0.00000000000E+00 0.  1.
</event>
<event>
 7    1  0.2237500E-009  0.4778727E+02  0.7816164E-02  0.1312668E+00
        -11   -1    0    0    0    0  0.00000000000E+00  0.00000000000E+00  0.45593999997E+02  0.45594000000E+02  0.51100000000E-03 0. -1.
         11   -1    0    0    0    0 -0.00000000000E+00 -0.00000000000E+00 -0.45593999997E+02  0.45594000000E+02  0.51100000000E-03 0.  1.
    9900012    2    1    2    0    0 -0.28632742061E+02  0.21246542569E+02 -0.24746184630E+02  0.47787272555E+02  0.20000006885E+02 0.  0.
         12    1    1    2    0    0  0.28632742061E+02 -0.21246542569E+02  0.24746184630E+02  0.43400727445E+02  0.00000000000E+00 0. -1.
         11    1    3    3    0    0 -0.69069637214E+01  0.68521679259E+01 -0.14768067519E+01  0.98406967018E+01  0.51100000000E-03 0. -1.
        -11    1    3    3    0    0 -0.10827094128E+02 -0.32618988058E+00 -0.45249797617E+01  0.11739157090E+02  0.51100000000E-03 0.  1.
        -12    1    3    3    0    0 -0.10898684211E+02  0.14720564524E+02 -0.18744398116E+02  0.26207418762E+02  0.00000000000E+00 0.  1.
</event>
<event>
 7    1  0.2237500E-009  0.4778727E+02  0.7816164E-02  0.1312668E+00
        -11   -1    0    0    0    0  0.00000000000E+00  0.00000000000E+00  0.45593999997E+02  0.45594000000E+02  0.51100000000E-03 0.  1.
         11   -1    0    0    0    0 -0.00000000000E+00 -0.00000000000E+00 -0.45593999997E+02  0.45594000000E+02  0.51100000000E-03 0. -1.
    9900012    2    1    2    0    0  0.18435499682E+02 -0.37135016719E+02  0.12835346243E+02  0.47787271568E+02  0.20000002386E+02 0.  0.
         12    1    1    2    0    0 -0.18435499682E+02  0.37135016719E+02 -0.12835346243E+02  0.43400728432E+02  0.00000000000E+00 0. -1.
         11    1    3    3    0    0  0.10377587598E+02 -0.25761973722E+02  0.14676433424E+02  0.31412916336E+02  0.51100000000E-03 0. -1.
        -11    1    3    3    0    0  0.11665101122E+01 -0.87633830856E+01 -0.29886736647E+00  0.88457306600E+01  0.51100000000E-03 0.  1.
         12    1    3    3    0    0  0.68914019715E+01 -0.26096599113E+01 -0.15422198143E+01  0.75286245717E+01  0.00000000000E+00 0. -1.
</event>
<event>
 7    1  0.2237500E-009  0.4778727E+02  0.7816164E-02  0.1312668E+00
        -11   -1    0    0    0    0  0.00000000000E+00  0.00000000000E+00  0.45593999997E+02  0.45594000000E+02  0.51100000000E-03 0.  1.
         11   -1    0    0    0    0 -0.00000000000E+00 -0.00000000000E+00 -0.45593999997E+02  0.45594000000E+02  0.51100000000E-03 0. -1.
    9900012    2    1    2    0    0 -0.39107545342E+02  0.17157789514E+02  0.77351930433E+01  0.47787273565E+02  0.20000011493E+02 0.  0.
         12    1    1    2    0    0  0.39107545342E+02 -0.17157789514E+02 -0.77351930433E+01  0.43400726435E+02  0.00000000000E+00 0. -1.
         11    1    3    3    0    0 -0.37052620350E+01 -0.32466582087E+01  0.10657060051E+01  0.50403854835E+01  0.51100000000E-03 0. -1.
        -11    1    3    3    0    0 -0.12931523939E+02  0.27892561000E+01 -0.73776823870E+00  0.13249474073E+02  0.51100000000E-03 0.  1.
        -12    1    3    3    0    0 -0.22470759367E+02  0.17615191623E+02  0.74072552769E+01  0.29497414009E+02  0.00000000000E+00 0.  1.
</event>
<event>
 7    1  0.2237500E-009  0.4778728E+02  0.7816164E-02  0.1312668E+00
        -11   -1    0    0    0    0  0.00000000000E+00  0.00000000000E+00  0.45593999997E+02  0.45594000000E+02  0.51100000000E-03 0. -1.
         11   -1    0    0    0    0 -0.00000000000E+00 -0.00000000000E+00 -0.45593999997E+02  0.45594000000E+02  0.51100000000E-03 0.  1.
    9900012    2    1    2    0    0  0.30004356944E+02  0.29936022832E+02 -0.93378447987E+01  0.47787282908E+02  0.20000054088E+02 0.  0.
         12    1    1    2    0    0 -0.30004356944E+02 -0.29936022832E+02  0.93378447987E+01  0.43400717092E+02  0.00000000000E+00 0. -1.
         11    1    3    3    0    0  0.19600676773E+02  0.13202681436E+02 -0.12398069757E+02  0.26687252781E+02  0.51100000000E-03 0.  1.
        -11    1    3    3    0    0  0.61593179127E+01  0.10671903362E+02 -0.14926205084E+01  0.12411874748E+02  0.51100000000E-03 0. -1.
         12    1    3    3    0    0  0.42443622584E+01  0.60614380351E+01  0.45528454668E+01  0.86881553784E+01  0.00000000000E+00 0. -1.
</event>
<event>
 7    1  0.2567070E-009  0.4778728E+02  0.7816164E-02  0.1312668E+00
        -11   -1    0    0    0    0  0.00000000000E+00  0.00000000000E+00  0.45593999997E+02  0.45594000000E+02  0.51100000000E-03 0. -1.
         11   -1    0    0    0    0 -0.00000000000E+00 -0.00000000000E+00 -0.45593999997E+02  0.45594000000E+02  0.51100000000E-03 0.  1.
    9900012    2    1    2    0    0  0.22106478931E+02  0.23514583772E+02 -0.29017073768E+02  0.47787278453E+02  0.20000033779E+02 0.  0.
         12    1    1    2    0    0 -0.22106478931E+02 -0.23514583772E+02  0.29017073768E+02  0.43400721547E+02  0.00000000000E+00 0. -1.
         11    1    3    3    0    0 -0.14649849096E+01  0.35049610701E+01 -0.84385401854E+01  0.92541824928E+01  0.51100000000E-03 0. -1.
        -11    1    3    3    0    0  0.57379767864E+01  0.10685237118E+02 -0.51556319324E+01  0.13178740864E+02  0.51100000000E-03 0.  1.
        -12    1    3    3    0    0  0.17833487054E+02  0.93243855842E+01 -0.15422901650E+02  0.25354355097E+02  0.00000000000E+00 0.  1.
</event>
<event>
 7    1  0.2308245E-009  0.4778727E+02  0.7816164E-02  0.1312668E+00
        -11   -1    0    0    0    0  0.00000000000E+00  0.00000000000E+00  0.45593999997E+02  0.45594000000E+02  0.51100000000E-03 0.  1.
         11   -1    0    0    0    0 -0.00000000000E+00 -0.00000000000E+00 -0.45593999997E+02  0.45594000000E+02  0.51100000000E-03 0. -1.
    9900012    2    1    2    0    0 -0.29220440037E+02  0.89437285415E+01  0.30818805751E+02  0.47787272079E+02  0.20000004715E+02 0.  0.
         12    1    1    2    0    0  0.29220440037E+02 -0.89437285415E+01 -0.30818805751E+02  0.43400727921E+02  0.00000000000E+00 0. -1.
         11    1    3    3    0    0  0.56937239709E+00  0.24249983004E+01 -0.10611206445E-01  0.24909665880E+01  0.51100000000E-03 0. -1.
        -11    1    3    3    0    0 -0.43545101004E+01  0.60675566161E+01  0.46771821801E+01  0.88120959431E+01  0.51100000000E-03 0.  1.
        -12    1    3    3    0    0 -0.25435302334E+02  0.45117362502E+00  0.26152234778E+02  0.36484209548E+02  0.00000000000E+00 0.  1.
</event>
<event>
 7    1  0.2237500E-009  0.4778727E+02  0.7816164E-02  0.1312668E+00
        -11   -1    0    0    0    0  0.00000000000E+00  0.00000000000E+00  0.45593999997E+02  0.45594000000E+02  0.51100000000E-03 0.  1.
         11   -1    0    0    0    0 -0.00000000000E+00 -0.00000000000E+00 -0.45593999997E+02  0.45594000000E+02  0.51100000000E-03 0. -1.
    9900012    2    1    2    0    0 -0.11496960533E+02  0.25542290696E+02  0.33151690261E+02  0.47787270943E+02  0.19999999539E+02 0.  0.
         12    1    1    2    0    0  0.11496960533E+02 -0.25542290696E+02 -0.33151690261E+02  0.43400729057E+02  0.00000000000E+00 0. -1.
         11    1    3    3    0    0 -0.30795437819E+01  0.88244560564E+01  0.47113194390E+01  0.10466668320E+02  0.51100000000E-03 0. -1.
        -11    1    3    3    0    0 -0.94184095064E+00  0.15425554182E+02  0.23954697696E+02  0.28507232910E+02  0.51100000000E-03 0.  1.
         12    1    3    3    0    0 -0.74755757999E+01  0.12922804582E+01  0.44856731257E+01  0.88133697139E+01  0.00000000000E+00 0. -1.
</event>
<event>
 7    1  0.2237500E-009  0.4778727E+02  0.7816164E-02  0.1312668E+00
        -11   -1    0    0    0    0  0.00000000000E+00  0.00000000000E+00  0.45593999997E+02  0.45594000000E+02  0.51100000000E-03 0. -1.
         11   -1    0    0    0    0 -0.00000000000E+00 -0.00000000000E+00 -0.45593999997E+02  0.45594000000E+02  0.51100000000E-03 0.  1.
    9900012    2    1    2    0    0  0.15154300715E+01  0.38863046662E+02 -0.19261120429E+02  0.47787266315E+02  0.19999978439E+02 0.  0.
         12    1    1    2    0    0 -0.15154300715E+01 -0.38863046662E+02  0.19261120429E+02  0.43400733685E+02  0.00000000000E+00 0. -1.
         11    1    3    3    0    0 -0.20629068948E+01  0.10349546497E+02 -0.98713250360E+01  0.14450320266E+02  0.51100000000E-03 0. -1.
        -11    1    3    3    0    0 -0.52032961730E+01  0.12603089396E+02 -0.22881237433E+01  0.13825616222E+02  0.51100000000E-03 0.  1.
        -12    1    3    3    0    0  0.87816331394E+01  0.15910410768E+02 -0.71016716501E+01  0.19511329828E+02  0.00000000000E+00 0.  1.
</event>
<event>
 7    1  0.2237500E-009  0.4778727E+02  0.7816164E-02  0.1312668E+00
        -11   -1    0    0    0    0  0.00000000000E+00  0.00000000000E+00  0.45593999997E+02  0.45594000000E+02  0.51100000000E-03 0.  1.
         11   -1    0    0    0    0 -0.00000000000E+00 -0.00000000000E+00 -0.45593999997E+02  0.45594000000E+02  0.51100000000E-03 0. -1.
    9900012    2    1    2    0    0 -0.26441160921E+02 -0.13838894009E+02 -0.31511480244E+02  0.47787269989E+02  0.19999995190E+02 0.  0.
         12    1    1    2    0    0  0.26441160921E+02  0.13838894009E+02  0.31511480244E+02  0.43400730011E+02  0.00000000000E+00 0. -1.
         11    1    3    3    0    0 -0.16264235179E+01 -0.60848057079E+01 -0.10732477998E+02  0.12444123039E+02  0.51100000000E-03 0. -1.
        -11    1    3    3    0    0 -0.13126595951E+02 -0.97401709038E+01 -0.14866032218E+02  0.22094736130E+02  0.51100000000E-03 0.  1.
         12    1    3    3    0    0 -0.11688141452E+02  0.19860826024E+01 -0.59129700279E+01  0.13248410820E+02  0.00000000000E+00 0. -1.
</event>
<event>
 7    1  0.2237500E-009  0.4778727E+02  0.7816164E-02  0.1312668E+00
        -11   -1    0    0    0    0  0.00000000000E+00  0.00000000000E+00  0.45593999997E+02  0.45594000000E+02  0.51100000000E-03 0.  1.
         11   -1    0    0    0    0 -0.00000000000E+00 -0.00000000000E+00 -0.45593999997E+02  0.45594000000E+02  0.51100000000E-03 0. -1.
    9900012    2    1    2    0    0  0.11091868767E+02 -0.40894380779E+02  0.93937791138E+01  0.47787273991E+02  0.20000013435E+02 0.  0.
         12    1    1    2    0    0 -0.11091868767E+02  0.40894380779E+02 -0.93937791138E+01  0.43400726009E+02  0.00000000000E+00 0. -1.
         11    1    3    3    0    0 -0.47175769799E+01 -0.41928035357E+01  0.63374596935E+00  0.63432458777E+01  0.51100000000E-03 0. -1.
        -11    1    3    3    0    0  0.76121086306E+00 -0.51427921095E+01  0.30221022344E+01  0.60133896295E+01  0.51100000000E-03 0.  1.
        -12    1    3    3    0    0  0.15048234884E+02 -0.31558785134E+02  0.57379309100E+01  0.35430638484E+02  0.00000000000E+00 0.  1.
</event>
<event>
 7    1  0.2237500E-009  0.4778727E+02  0.7816164E-02  0.1312668E+00
        -11   -1    0    0    0    0  0.00000000000E+00  0.00000000000E+00  0.45593999997E+02  0.45594000000E+02  0.51100000000E-03 0. -1.
         11   -1    0    0    0    0 -0.00000000000E+00 -0.00000000000E+00 -0.45593999997E+02  0.45594000000E+02  0.51100000000E-03 0.  1.
    9900012    2    1    2    0    0 -0.93845255145E+01  0.30355306440E+02 -0.29565334745E+02  0.47787274582E+02  0.20000016129E+02 0.  0.
         12    1    1    2    0    0  0.93845255145E+01 -0.30355306440E+02  0.29565334745E+02  0.43400725418E+02  0.00000000000E+00 0. -1.
         11    1    3    3    0    0 -0.70719396083E+00  0.63588079047E+01 -0.15946176558E+02  0.17181824942E+02  0.51100000000E-03 0. -1.
        -11    1    3    3    0    0 -0.58102610304E+01  0.81856245013E+01 -0.99276744287E+01  0.14118155033E+02  0.51100000000E-03 0.  1.
         12    1    3    3    0    0 -0.28670705233E+01  0.15810874034E+02 -0.36914837589E+01  0.16487294607E+02  0.00000000000E+00 0. -1.
</event>
<event>
 7    1  0.2237500E-009  0.4778727E+02  0.7816164E-02  0.1312668E+00
        -11   -1    0    0    0    0  0.00000000000E+00  0.00000000000E+00  0.45593999997E+02  0.45594000000E+02  0.51100000000E-03 0. -1.
         11   -1    0    0    0    0 -0.00000000000E+00 -0.00000000000E+00 -0.45593999997E+02  0.45594000000E+02  0.51100000000E-03 0.  1.
    9900012    2    1    2    0    0 -0.19931715094E+02 -0.37780295196E+02 -0.76811049796E+01  0.47787270220E+02  0.19999996241E+02 0.  0.
         12    1    1    2    0    0  0.19931715094E+02  0.37780295196E+02  0.76811049796E+01  0.43400729780E+02  0.00000000000E+00 0. -1.
         11    1    3    3    0    0 -0.55283824294E+00  0.88133080259E+00 -0.87447586257E-01  0.10440409225E+01  0.51100000000E-03 0. -1.
        -11    1    3    3    0    0 -0.49181172440E+01 -0.93274618168E+01  0.50347373772E+01  0.11684947663E+02  0.51100000000E-03 0.  1.
        -12    1    3    3    0    0 -0.14460759607E+02 -0.29334164182E+02 -0.12628394771E+02  0.35058281635E+02  0.00000000000E+00 0.  1.
</event>
<event>
 7    1  0.2237500E-009  0.4778727E+02  0.7816164E-02  0.1312668E+00
        -11   -1    0    0    0    0  0.00000000000E+00  0.00000000000E+00  0.45593999997E+02  0.45594000000E+02  0.51100000000E-03 0.  1.
         11   -1    0    0    0    0 -0.00000000000E+00 -0.00000000000E+00 -0.45593999997E+02  0.45594000000E+02  0.51100000000E-03 0. -1.
    9900012    2    1    2    0    0 -0.16778013778E+01 -0.43019385526E+02  0.54900924827E+01  0.47787266550E+02  0.19999979510E+02 0.  0.
         12    1    1    2    0    0  0.16778013778E+01  0.43019385526E+02 -0.54900924827E+01  0.43400733450E+02  0.00000000000E+00 0. -1.
         11    1    3    3    0    0 -0.41315875791E+01 -0.53022168786E+01  0.26352247719E+01  0.72199674245E+01  0.51100000000E-03 0. -1.
        -11    1    3    3    0    0 -0.31624549173E+01 -0.28453587521E+02 -0.19948008982E+01  0.28698205428E+02  0.51100000000E-03 0.  1.
        -12    1    3    3    0    0  0.56162411185E+01 -0.92635811265E+01  0.48496686090E+01  0.11869093698E+02  0.00000000000E+00 0.  1.
</event>
<event>
 7    1  0.2237500E-009  0.4778727E+02  0.7816164E-02  0.1312668E+00
        -11   -1    0    0    0    0  0.00000000000E+00  0.00000000000E+00  0.45593999997E+02  0.45594000000E+02  0.51100000000E-03 0. -1.
         11   -1    0    0    0    0 -0.00000000000E+00 -0.00000000000E+00 -0.45593999997E+02  0.45594000000E+02  0.51100000000E-03 0.  1.
    9900012    2    1    2    0    0 -0.28591640702E+02 -0.20791607428E+02  0.25176387263E+02  0.47787270362E+02  0.19999996890E+02 0.  0.
         12    1    1    2    0    0  0.28591640702E+02  0.20791607428E+02 -0.25176387263E+02  0.43400729638E+02  0.00000000000E+00 0. -1.
         11    1    3    3    0    0 -0.16274996080E+02 -0.14121868225E+02  0.19697794259E+02  0.29194276126E+02  0.51100000000E-03 0. -1.
        -11    1    3    3    0    0 -0.11854763390E+02 -0.85197229754E+01  0.69652497876E+01  0.16175159952E+02  0.51100000000E-03 0.  1.
        -12    1    3    3    0    0 -0.46188123167E+00  0.18499837725E+01 -0.14866567844E+01  0.24178342841E+01  0.00000000000E+00 0.  1.
</event>
<event>
 7    1  0.2237500E-009  0.4778727E+02  0.7816164E-02  0.1312668E+00
        -11   -1    0    0    0    0  0.00000000000E+00  0.00000000000E+00  0.45593999997E+02  0.45594000000E+02  0.51100000000E-03 0.  1.
         11   -1    0    0    0    0 -0.00000000000E+00 -0.00000000000E+00 -0.45593999997E+02  0.45594000000E+02  0.51100000000E-03 0. -1.
    9900012    2    1    2    0    0 -0.13303611781E+02 -0.10841128254E+02  0.39863607125E+02  0.47787270499E+02  0.19999997512E+02 0.  0.
         12    1    1    2    0    0  0.13303611781E+02  0.10841128254E+02 -0.39863607125E+02  0.43400729501E+02  0.00000000000E+00 0. -1.
         11    1    3    3    0    0 -0.31842363870E+01 -0.36524132290E+01  0.51348776423E+01  0.70602020103E+01  0.51100000000E-03 0. -1.
        -11    1    3    3    0    0 -0.78686542784E+01 -0.10262438263E+02  0.34575030993E+02  0.36914307899E+02  0.51100000000E-03 0.  1.
         12    1    3    3    0    0 -0.22507211159E+01  0.30737232379E+01  0.15369848954E+00  0.38127605892E+01  0.00000000000E+00 0. -1.
</event>
<event>
 7    1  0.2237500E-009  0.4778727E+02  0.7816164E-02  0.1312668E+00
        -11   -1    0    0    0    0  0.00000000000E+00  0.00000000000E+00  0.45593999997E+02  0.45594000000E+02  0.51100000000E-03 0.  1.
         11   -1    0    0    0    0 -0.00000000000E+00 -0.00000000000E+00 -0.45593999997E+02  0.45594000000E+02  0.51100000000E-03 0. -1.
    9900012    2    1    2    0    0 -0.10134564101E+02  0.22034457655E+02  0.35991617311E+02  0.47787271546E+02  0.20000002287E+02 0.  0.
         12    1    1    2    0    0  0.10134564101E+02 -0.22034457655E+02 -0.35991617311E+02  0.43400728454E+02  0.00000000000E+00 0. -1.
         11    1    3    3    0    0  0.13166271658E+01  0.19308385463E+01  0.51602500323E+01  0.56647881905E+01  0.51100000000E-03 0. -1.
        -11    1    3    3    0    0 -0.12388969544E+02  0.14561086613E+02  0.31086975667E+02  0.36495367735E+02  0.51100000000E-03 0.  1.
        -12    1    3    3    0    0  0.93777827726E+00  0.55425324955E+01 -0.25560838821E+00  0.56271156207E+01  0.00000000000E+00 0.  1.
</event>
<event>
 7    1  0.2237500E-009  0.4778727E+02  0.7816164E-02  0.1312668E+00
        -11   -1    0    0    0    0  0.00000000000E+00  0.00000000000E+00  0.45593999997E+02  0.45594000000E+02  0.51100000000E-03 0.  1.
         11   -1    0    0    0    0 -0.00000000000E+00 -0.00000000000E+00 -0.45593999997E+02  0.45594000000E+02  0.51100000000E-03 0. -1.
    9900012    2    1    2    0    0  0.24449337431E+02  0.27496576985E+01  0.35753217448E+02  0.47787271018E+02  0.19999999880E+02 0.  0.
         12    1    1    2    0    0 -0.24449337431E+02 -0.27496576985E+01 -0.35753217448E+02  0.43400728982E+02  0.00000000000E+00 0. -1.
         11    1    3    3    0    0 -0.13905117941E+01  0.33522538813E+01  0.24669003251E+00  0.36375796029E+01  0.51100000000E-03 0. -1.
        -11    1    3    3    0    0  0.50385140827E+00  0.29384719352E+00  0.22943872790E+01  0.23673668203E+01  0.51100000000E-03 0.  1.
         12    1    3    3    0    0  0.25335997817E+02 -0.89644337633E+00  0.33212140136E+02  0.41782324595E+02  0.00000000000E+00 0. -1.
</event>
<event>
 7    1  0.2237500E-009  0.4778727E+02  0.7816164E-02  0.1312668E+00
        -11   -1    0    0    0    0  0.00000000000E+00  0.00000000000E+00  0.45593999997E+02  0.45594000000E+02  0.51100000000E-03 0. -1.
         11   -1    0    0    0    0 -0.00000000000E+00 -0.00000000000E+00 -0.45593999997E+02  0.45594000000E+02  0.51100000000E-03 0.  1.
    9900012    2    1    2    0    0 -0.41703710730E+01  0.20587081315E+02 -0.37978988060E+02  0.47787269061E+02  0.19999990957E+02 0.  0.
         12    1    1    2    0    0  0.41703710730E+01 -0.20587081315E+02  0.37978988060E+02  0.43400730939E+02  0.00000000000E+00 0. -1.
         11    1    3    3    0    0  0.12269504766E+01  0.35399936980E+01 -0.62858341299E+00  0.37989577811E+01  0.51100000000E-03 0. -1.
        -11    1    3    3    0    0  0.33617321058E+01  0.13282369189E+02 -0.21811661118E+02  0.25757933438E+02  0.51100000000E-03 0.  1.
         12    1    3    3    0    0 -0.87590536554E+01  0.37647184282E+01 -0.15538743529E+02  0.18230377841E+02  0.00000000000E+00 0. -1.
</event>
<event>
 7    1  0.2237500E-009  0.4778721E+02  0.7816164E-02  0.1312668E+00
        -11   -1    0    0    0    0  0.00000000000E+00  0.00000000000E+00  0.45593999997E+02  0.45594000000E+02  0.51100000000E-03 0. -1.
         11   -1    0    0    0    0 -0.00000000000E+00 -0.00000000000E+00 -0.45593999997E+02  0.45594000000E+02  0.51100000000E-03 0.  1.
    9900012    2    1    2    0    0 -0.37794654227E+02 -0.19123503356E+02 -0.94595962900E+01  0.47787213939E+02  0.19999739631E+02 0.  0.
         12    1    1    2    0    0  0.37794654227E+02  0.19123503356E+02  0.94595962900E+01  0.43400786061E+02  0.00000000000E+00 0. -1.
         11    1    3    3    0    0 -0.11768674166E+02  0.23313572715E+01 -0.49087477989E+01  0.12962743674E+02  0.51100000000E-03 0. -1.
        -11    1    3    3    0    0 -0.10416764376E+02 -0.52444431208E+01  0.81098470741E+00  0.11690631299E+02  0.51100000000E-03 0.  1.
        -12    1    3    3    0    0 -0.15609215686E+02 -0.16210417506E+02 -0.53618331985E+01  0.23133838966E+02  0.00000000000E+00 0.  1.
</event>
<event>
 7    1  0.2237500E-009  0.4778727E+02  0.7816164E-02  0.1312668E+00
        -11   -1    0    0    0    0  0.00000000000E+00  0.00000000000E+00  0.45593999997E+02  0.45594000000E+02  0.51100000000E-03 0.  1.
         11   -1    0    0    0    0 -0.00000000000E+00 -0.00000000000E+00 -0.45593999997E+02  0.45594000000E+02  0.51100000000E-03 0. -1.
    9900012    2    1    2    0    0 -0.43438517217E+01 -0.37474557492E+02  0.21457204854E+02  0.47787272504E+02  0.20000006656E+02 0.  0.
         12    1    1    2    0    0  0.43438517217E+01  0.37474557492E+02 -0.21457204854E+02  0.43400727496E+02  0.00000000000E+00 0. -1.
         11    1    3    3    0    0 -0.32100893457E+01 -0.20325322524E+02  0.94008236954E+01  0.22622972743E+02  0.51100000000E-03 0. -1.
        -11    1    3    3    0    0  0.30271167451E+01 -0.13733947844E+02  0.13600462090E+02  0.19564184841E+02  0.51100000000E-03 0.  1.
         12    1    3    3    0    0 -0.41608791211E+01 -0.34152871241E+01 -0.15440809309E+01  0.56001149204E+01  0.00000000000E+00 0. -1.
</event>
<event>
 7    1  0.2237500E-009  0.4778727E+02  0.7816164E-02  0.1312668E+00
        -11   -1    0    0    0    0  0.00000000000E+00  0.00000000000E+00  0.45593999997E+02  0.45594000000E+02  0.51100000000E-03 0.  1.
         11   -1    0    0    0    0 -0.00000000000E+00 -0.00000000000E+00 -0.45593999997E+02  0.45594000000E+02  0.51100000000E-03 0. -1.
    9900012    2    1    2    0    0 -0.57813781101E+01 -0.23906576360E+02  0.35758555057E+02  0.47787274363E+02  0.20000015130E+02 0.  0.
         12    1    1    2    0    0  0.57813781101E+01  0.23906576360E+02 -0.35758555057E+02  0.43400725637E+02  0.00000000000E+00 0. -1.
         11    1    3    3    0    0  0.37981082536E+01 -0.19735299622E+01  0.45336393303E+01  0.62349284403E+01  0.51100000000E-03 0. -1.
        -11    1    3    3    0    0  0.12256699756E+01 -0.40089298527E+01  0.13468257081E+02  0.14105592313E+02  0.51100000000E-03 0.  1.
        -12    1    3    3    0    0 -0.10805156339E+02 -0.17924116545E+02  0.17756658646E+02  0.27446753609E+02  0.00000000000E+00 0.  1.
</event>
<event>
 7    1  0.2237500E-009  0.4778728E+02  0.7816164E-02  0.1312668E+00
        -11   -1    0    0    0    0  0.00000000000E+00  0.00000000000E+00  0.45593999997E+02  0.45594000000E+02  0.51100000000E-03 0.  1.
         11   -1    0    0    0    0 -0.00000000000E+00 -0.00000000000E+00 -0.45593999997E+02  0.45594000000E+02  0.51100000000E-03 0. -1.
    9900012    2    1    2    0    0  0.37998519738E+02  0.20527318136E+02 -0.42853115660E+01  0.47787283562E+02  0.20000057073E+02 0.  0.
         12    1    1    2    0    0 -0.37998519738E+02 -0.20527318136E+02  0.42853115660E+01  0.43400716438E+02  0.00000000000E+00 0. -1.
         11    1    3    3    0    0  0.77652907465E+01 -0.57133182444E+00  0.83042270023E+00  0.78304382095E+01  0.51100000000E-03 0. -1.
        -11    1    3    3    0    0  0.27221228458E+02  0.13241625421E+02 -0.75478277798E+01  0.31197846513E+02  0.51100000000E-03 0.  1.
        -12    1    3    3    0    0  0.30120005329E+01  0.78570245390E+01  0.24320935135E+01  0.87589988398E+01  0.00000000000E+00 0.  1.
</event>
<event>
 7    1  0.2237500E-009  0.4778726E+02  0.7816164E-02  0.1312668E+00
        -11   -1    0    0    0    0  0.00000000000E+00  0.00000000000E+00  0.45593999997E+02  0.45594000000E+02  0.51100000000E-03 0.  1.
         11   -1    0    0    0    0 -0.00000000000E+00 -0.00000000000E+00 -0.45593999997E+02  0.45594000000E+02  0.51100000000E-03 0. -1.
    9900012    2    1    2    0    0 -0.36000823830E+02 -0.22003726818E+02  0.10168610140E+02  0.47787263341E+02  0.19999964879E+02 0.  0.
         12    1    1    2    0    0  0.36000823830E+02  0.22003726818E+02 -0.10168610140E+02  0.43400736659E+02  0.00000000000E+00 0. -1.
         11    1    3    3    0    0 -0.10444159555E+02 -0.12465361972E+02  0.19489978148E+01  0.16378776225E+02  0.51100000000E-03 0. -1.
        -11    1    3    3    0    0 -0.17828546980E+02 -0.86866089661E+01 -0.35299095490E+00  0.19835293434E+02  0.51100000000E-03 0.  1.
         12    1    3    3    0    0 -0.77281172959E+01 -0.85175588020E+00  0.85726032797E+01  0.11573193682E+02  0.00000000000E+00 0. -1.
</event>
<event>
 7    1  0.2237500E-009  0.4778727E+02  0.7816164E-02  0.1312668E+00
        -11   -1    0    0    0    0  0.00000000000E+00  0.00000000000E+00  0.45593999997E+02  0.45594000000E+02  0.51100000000E-03 0. -1.
         11   -1    0    0    0    0 -0.00000000000E+00 -0.00000000000E+00 -0.45593999997E+02  0.45594000000E+02  0.51100000000E-03 0.  1.
    9900012    2    1    2    0    0 -0.25934576940E+02  0.11616075300E+02 -0.32803781394E+02  0.47787267746E+02  0.19999984960E+02 0.  0.
         12    1    1    2    0    0  0.25934576940E+02 -0.11616075300E+02  0.32803781394E+02  0.43400732254E+02  0.00000000000E+00 0. -1.
         11    1    3    3    0    0  0.56783463109E+00  0.13548956795E+01  0.70135394513E+00  0.16279054297E+01  0.51100000000E-03 0. -1.
        -11    1    3    3    0    0 -0.15716998545E+02  0.11916061600E+02 -0.15413347212E+02  0.25031736653E+02  0.51100000000E-03 0.  1.
         12    1    3    3    0    0 -0.10785413026E+02 -0.16548819797E+01 -0.18091788127E+02  0.21127625663E+02  0.00000000000E+00 0. -1.
</event>
<event>
 7    1  0.2237500E-009  0.4778721E+02  0.7816164E-02  0.1312668E+00
        -11   -1    0    0    0    0  0.00000000000E+00  0.00000000000E+00  0.45593999997E+02  0.45594000000E+02  0.51100000000E-03 0. -1.
         11   -1    0    0    0    0 -0.00000000000E+00 -0.00000000000E+00 -0.45593999997E+02  0.45594000000E+02  0.51100000000E-03 0.  1.
    9900012    2    1    2    0    0 -0.23597237977E+02  0.36310045696E+02 -0.28947411402E+01  0.47787209859E+02  0.19999721031E+02 0.  0.
         12    1    1    2    0    0  0.23597237977E+02 -0.36310045696E+02  0.28947411402E+01  0.43400790141E+02  0.00000000000E+00 0. -1.
         11    1    3    3    0    0  0.61010164350E+00 -0.13499496420E+01 -0.22262465001E+00  0.14980487466E+01  0.51100000000E-03 0. -1.
        -11    1    3    3    0    0 -0.10354226786E+02  0.13679276060E+02  0.43891129177E+01  0.17708667887E+02  0.51100000000E-03 0.  1.
        -12    1    3    3    0    0 -0.13853112834E+02  0.23980719278E+02 -0.70612294078E+01  0.28580493226E+02  0.00000000000E+00 0.  1.
</event>
<event>
 7    1  0.2237500E-009  0.4778727E+02  0.7816164E-02  0.1312668E+00
        -11   -1    0    0    0    0  0.00000000000E+00  0.00000000000E+00  0.45593999997E+02  0.45594000000E+02  0.51100000000E-03 0.  1.
         11   -1    0    0    0    0 -0.00000000000E+00 -0.00000000000E+00 -0.45593999997E+02  0.45594000000E+02  0.51100000000E-03 0. -1.
    9900012    2    1    2    0    0  0.25236396899E+02  0.22287982744E+01  0.35238899853E+02  0.47787270363E+02  0.19999996891E+02 0.  0.
         12    1    1    2    0    0 -0.25236396899E+02 -0.22287982744E+01 -0.35238899853E+02  0.43400729637E+02  0.00000000000E+00 0. -1.
         11    1    3    3    0    0  0.10692986193E+02 -0.41946729591E+00  0.76564403759E+01  0.13158152835E+02  0.51100000000E-03 0. -1.
        -11    1    3    3    0    0  0.31931307869E+01 -0.75591514788E+00 -0.12070003010E+01  0.34963326387E+01  0.51100000000E-03 0.  1.
        -12    1    3    3    0    0  0.11350279919E+02  0.34041807182E+01  0.28789459778E+02  0.31132784889E+02  0.00000000000E+00 0.  1.
</event>
<event>
 7    1  0.2237500E-009  0.4778727E+02  0.7816164E-02  0.1312668E+00
        -11   -1    0    0    0    0  0.00000000000E+00  0.00000000000E+00  0.45593999997E+02  0.45594000000E+02  0.51100000000E-03 0.  1.
         11   -1    0    0    0    0 -0.00000000000E+00 -0.00000000000E+00 -0.45593999997E+02  0.45594000000E+02  0.51100000000E-03 0. -1.
    9900012    2    1    2    0    0  0.26788216185E+02 -0.17508402583E+02  0.29316729762E+02  0.47787270382E+02  0.19999996982E+02 0.  0.
         12    1    1    2    0    0 -0.26788216185E+02  0.17508402583E+02 -0.29316729762E+02  0.43400729618E+02  0.00000000000E+00 0. -1.
         11    1    3    3    0    0  0.12041804980E+02 -0.41326752662E+00  0.91949947047E+01  0.15156641617E+02  0.51100000000E-03 0.  1.
        -11    1    3    3    0    0  0.96172597550E+01 -0.84016831078E+01  0.35973757170E+01  0.13267293490E+02  0.51100000000E-03 0. -1.
        -12    1    3    3    0    0  0.51291514502E+01 -0.86934519488E+01  0.16524359341E+02  0.19363335276E+02  0.00000000000E+00 0.  1.
</event>
<event>
 7    1  0.2237500E-009  0.4778727E+02  0.7816164E-02  0.1312668E+00
        -11   -1    0    0    0    0  0.00000000000E+00  0.00000000000E+00  0.45593999997E+02  0.45594000000E+02  0.51100000000E-03 0. -1.
         11   -1    0    0    0    0 -0.00000000000E+00 -0.00000000000E+00 -0.45593999997E+02  0.45594000000E+02  0.51100000000E-03 0.  1.
    9900012    2    1    2    0    0  0.29350886657E+02 -0.17361821889E+02 -0.26846156805E+02  0.47787267955E+02  0.19999985914E+02 0.  0.
         12    1    1    2    0    0 -0.29350886657E+02  0.17361821889E+02  0.26846156805E+02  0.43400732045E+02  0.00000000000E+00 0. -1.
         11    1    3    3    0    0  0.43948049757E+00 -0.78199383504E+00  0.68053303856E+00  0.11259586775E+01  0.51100000000E-03 0. -1.
        -11    1    3    3    0    0  0.14530031170E+02 -0.10225678799E+02 -0.25100594158E+02  0.30752660698E+02  0.51100000000E-03 0.  1.
        -12    1    3    3    0    0  0.14381374989E+02 -0.63541492550E+01 -0.24260956854E+01  0.15908648579E+02  0.00000000000E+00 0.  1.
</event>
<event>
 7    1  0.2237500E-009  0.4778727E+02  0.7816164E-02  0.1312668E+00
        -11   -1    0    0    0    0  0.00000000000E+00  0.00000000000E+00  0.45593999997E+02  0.45594000000E+02  0.51100000000E-03 0.  1.
         11   -1    0    0    0    0 -0.00000000000E+00 -0.00000000000E+00 -0.45593999997E+02  0.45594000000E+02  0.51100000000E-03 0. -1.
    9900012    2    1    2    0    0 -0.37151627223E+02  0.22367103349E+02 -0.17586337226E+01  0.47787268323E+02  0.19999987592E+02 0.  0.
         12    1    1    2    0    0  0.37151627223E+02 -0.22367103349E+02  0.17586337226E+01  0.43400731677E+02  0.00000000000E+00 0. -1.
         11    1    3    3    0    0 -0.55778899783E+01 -0.15764108366E+01  0.26951956225E+01  0.63923397470E+01  0.51100000000E-03 0. -1.
        -11    1    3    3    0    0 -0.11345934794E+02  0.44893528962E+01  0.25590324600E+01  0.12467284114E+02  0.51100000000E-03 0.  1.
        -12    1    3    3    0    0 -0.20227802451E+02  0.19454161289E+02 -0.70128618050E+01  0.28927644462E+02  0.00000000000E+00 0.  1.
</event>
<event>
 7    1  0.2237500E-009  0.4778727E+02  0.7816164E-02  0.1312668E+00
        -11   -1    0    0    0    0  0.00000000000E+00  0.00000000000E+00  0.45593999997E+02  0.45594000000E+02  0.51100000000E-03 0.  1.
         11   -1    0    0    0    0 -0.00000000000E+00 -0.00000000000E+00 -0.45593999997E+02  0.45594000000E+02  0.51100000000E-03 0. -1.
    9900012    2    1    2    0    0 -0.10325851319E+02  0.16437225044E+01  0.42122419065E+02  0.47787271699E+02  0.20000002984E+02 0.  0.
         12    1    1    2    0    0  0.10325851319E+02 -0.16437225044E+01 -0.42122419065E+02  0.43400728301E+02  0.00000000000E+00 0. -1.
         11    1    3    3    0    0 -0.82984239482E+01  0.29152351710E+00  0.84307936456E+01  0.11833305022E+02  0.51100000000E-03 0. -1.
        -11    1    3    3    0    0 -0.21714293094E+01 -0.53497947330E+01  0.13646573058E+02  0.14817704459E+02  0.51100000000E-03 0.  1.
         12    1    3    3    0    0  0.14400193871E+00  0.67019937203E+01  0.20045052361E+02  0.21136262218E+02  0.00000000000E+00 0. -1.
</event>
<event>
 7    1  0.2237500E-009  0.4778727E+02  0.7816164E-02  0.1312668E+00
        -11   -1    0    0    0    0  0.00000000000E+00  0.00000000000E+00  0.45593999997E+02  0.45594000000E+02  0.51100000000E-03 0.  1.
         11   -1    0    0    0    0 -0.00000000000E+00 -0.00000000000E+00 -0.45593999997E+02  0.45594000000E+02  0.51100000000E-03 0. -1.
    9900012    2    1    2    0    0 -0.36447151625E+02 -0.12476206919E+02  0.19989309027E+02  0.47787273324E+02  0.20000010392E+02 0.  0.
         12    1    1    2    0    0  0.36447151625E+02  0.12476206919E+02 -0.19989309027E+02  0.43400726676E+02  0.00000000000E+00 0. -1.
         11    1    3    3    0    0 -0.19959054761E+02 -0.67797499669E+01  0.12871915408E+02  0.24698483417E+02  0.51100000000E-03 0. -1.
        -11    1    3    3    0    0 -0.16145896567E+02 -0.76762743025E+00  0.25570068030E+01  0.16365130977E+02  0.51100000000E-03 0.  1.
         12    1    3    3    0    0 -0.34220029631E+00 -0.49288295213E+01  0.45603868159E+01  0.67236589297E+01  0.00000000000E+00 0. -1.
</event>
<event>
 7    1  0.2237500E-009  0.4778727E+02  0.7816164E-02  0.1312668E+00
        -11   -1    0    0    0    0  0.00000000000E+00  0.00000000000E+00  0.45593999997E+02  0.45594000000E+02  0.51100000000E-03 0.  1.
         11   -1    0    0    0    0 -0.00000000000E+00 -0.00000000000E+00 -0.45593999997E+02  0.45594000000E+02  0.51100000000E-03 0. -1.
    9900012    2    1    2    0    0  0.17788470752E+02  0.13730482669E+02  0.37130416308E+02  0.47787266582E+02  0.19999979656E+02 0.  0.
         12    1    1    2    0    0 -0.17788470752E+02 -0.13730482669E+02 -0.37130416308E+02  0.43400733418E+02  0.00000000000E+00 0. -1.
         11    1    3    3    0    0 -0.25112146771E+01  0.27117614385E+01 -0.51144767534E-02  0.36959269031E+01  0.51100000000E-03 0. -1.
        -11    1    3    3    0    0  0.73897259494E+01  0.27824364353E+01  0.83906405043E+01  0.11521842320E+02  0.51100000000E-03 0.  1.
         12    1    3    3    0    0  0.12909959479E+02  0.82362847951E+01  0.28744890280E+02  0.32569497359E+02  0.00000000000E+00 0. -1.
</event>
<event>
 7    1  0.2237500E-009  0.4778727E+02  0.7816164E-02  0.1312668E+00
        -11   -1    0    0    0    0  0.00000000000E+00  0.00000000000E+00  0.45593999997E+02  0.45594000000E+02  0.51100000000E-03 0.  1.
         11   -1    0    0    0    0 -0.00000000000E+00 -0.00000000000E+00 -0.45593999997E+02  0.45594000000E+02  0.51100000000E-03 0. -1.
    9900012    2    1    2    0    0 -0.43329061781E+02  0.24443174110E+01 -0.49102147057E+00  0.47787269770E+02  0.19999994189E+02 0.  0.
         12    1    1    2    0    0  0.43329061781E+02 -0.24443174110E+01  0.49102147057E+00  0.43400730230E+02  0.00000000000E+00 0. -1.
         11    1    3    3    0    0 -0.97731550650E+01 -0.53371581834E+01 -0.37857689752E+00  0.11141953964E+02  0.51100000000E-03 0. -1.
        -11    1    3    3    0    0 -0.92421407016E+01  0.18746110834E+01  0.56173945067E+01  0.10976632123E+02  0.51100000000E-03 0.  1.
        -12    1    3    3    0    0 -0.24313766014E+02  0.59068645109E+01 -0.57298390797E+01  0.25668683683E+02  0.00000000000E+00 0.  1.
</event>
<event>
 7    1  0.2237500E-009  0.4778727E+02  0.7816164E-02  0.1312668E+00
        -11   -1    0    0    0    0  0.00000000000E+00  0.00000000000E+00  0.45593999997E+02  0.45594000000E+02  0.51100000000E-03 0. -1.
         11   -1    0    0    0    0 -0.00000000000E+00 -0.00000000000E+00 -0.45593999997E+02  0.45594000000E+02  0.51100000000E-03 0.  1.
    9900012    2    1    2    0    0  0.33453216961E+02  0.26734530165E+02  0.70548185325E+01  0.47787270827E+02  0.19999999009E+02 0.  0.
         12    1    1    2    0    0 -0.33453216961E+02 -0.26734530165E+02 -0.70548185325E+01  0.43400729173E+02  0.00000000000E+00 0. -1.
         11    1    3    3    0    0 -0.68228242632E+00 -0.10623232559E+01 -0.53548161711E+00  0.13714156309E+01  0.51100000000E-03 0. -1.
        -11    1    3    3    0    0  0.12703162586E+02  0.91997450859E+01  0.88552107746E+01  0.18011674199E+02  0.51100000000E-03 0.  1.
        -12    1    3    3    0    0  0.21432336802E+02  0.18597108335E+02 -0.12649106250E+01  0.28404180997E+02  0.00000000000E+00 0.  1.
</event>
<event>
 7    1  0.2237500E-009  0.4778727E+02  0.7816164E-02  0.1312668E+00
        -11   -1    0    0    0    0  0.00000000000E+00  0.00000000000E+00  0.45593999997E+02  0.45594000000E+02  0.51100000000E-03 0.  1.
         11   -1    0    0    0    0 -0.00000000000E+00 -0.00000000000E+00 -0.45593999997E+02  0.45594000000E+02  0.51100000000E-03 0. -1.
    9900012    2    1    2    0    0  0.40990337854E+02  0.10641004042E+02  0.94965641858E+01  0.47787268488E+02  0.19999988346E+02 0.  0.
         12    1    1    2    0    0 -0.40990337854E+02 -0.10641004042E+02 -0.94965641858E+01  0.43400731512E+02  0.00000000000E+00 0. -1.
         11    1    3    3    0    0  0.29177320672E+01  0.25956058503E+01  0.42009119567E+01  0.57356770895E+01  0.51100000000E-03 0. -1.
        -11    1    3    3    0    0  0.61988967283E+01  0.33843940401E+01 -0.45096859193E+01  0.83796008866E+01  0.51100000000E-03 0.  1.
         12    1    3    3    0    0  0.31873709059E+02  0.46610041516E+01  0.98053381484E+01  0.33671990512E+02  0.00000000000E+00 0. -1.
</event>
<event>
 7    1  0.2237500E-009  0.4778727E+02  0.7816164E-02  0.1312668E+00
        -11   -1    0    0    0    0  0.00000000000E+00  0.00000000000E+00  0.45593999997E+02  0.45594000000E+02  0.51100000000E-03 0.  1.
         11   -1    0    0    0    0 -0.00000000000E+00 -0.00000000000E+00 -0.45593999997E+02  0.45594000000E+02  0.51100000000E-03 0. -1.
    9900012    2    1    2    0    0  0.14816583688E+01 -0.18608280631E+02  0.39181114376E+02  0.47787272549E+02  0.20000006859E+02 0.  0.
         12    1    1    2    0    0 -0.14816583688E+01  0.18608280631E+02 -0.39181114376E+02  0.43400727451E+02  0.00000000000E+00 0. -1.
         11    1    3    3    0    0 -0.18127666880E+01  0.90558987060E+00  0.30238108752E+00  0.20488168932E+01  0.51100000000E-03 0. -1.
        -11    1    3    3    0    0  0.68209301512E+01 -0.36817758375E+01  0.14786016989E+02  0.16694515869E+02  0.51100000000E-03 0.  1.
        -12    1    3    3    0    0 -0.35265050945E+01 -0.15832094664E+02  0.24092716299E+02  0.29043939786E+02  0.00000000000E+00 0.  1.
</event>
<event>
 7    1  0.2237500E-009  0.4778727E+02  0.7816164E-02  0.1312668E+00
        -11   -1    0    0    0    0  0.00000000000E+00  0.00000000000E+00  0.45593999997E+02  0.45594000000E+02  0.51100000000E-03 0. -1.
         11   -1    0    0    0    0 -0.00000000000E+00 -0.00000000000E+00 -0.45593999997E+02  0.45594000000E+02  0.51100000000E-03 0.  1.
    9900012    2    1    2    0    0  0.11145343559E+02 -0.35470694912E+02 -0.22388264815E+02  0.47787270951E+02  0.19999999574E+02 0.  0.
         12    1    1    2    0    0 -0.11145343559E+02  0.35470694912E+02  0.22388264815E+02  0.43400729049E+02  0.00000000000E+00 0. -1.
         11    1    3    3    0    0  0.84502250914E+01 -0.17716780757E+02 -0.78524075455E+01  0.21141213991E+02  0.51100000000E-03 0. -1.
        -11    1    3    3    0    0  0.79900593672E+01 -0.12628726283E+02 -0.10246045532E+02  0.18119250137E+02  0.51100000000E-03 0.  1.
        -12    1    3    3    0    0 -0.52949409000E+01 -0.51251878720E+01 -0.42898117373E+01  0.85268068231E+01  0.00000000000E+00 0.  1.
</event>
<event>
 7    1  0.2237500E-009  0.4778728E+02  0.7816164E-02  0.1312668E+00
        -11   -1    0    0    0    0  0.00000000000E+00  0.00000000000E+00  0.45593999997E+02  0.45594000000E+02  0.51100000000E-03 0. -1.
         11   -1    0    0    0    0 -0.00000000000E+00 -0.00000000000E+00 -0.45593999997E+02  0.45594000000E+02  0.51100000000E-03 0.  1.
    9900012    2    1    2    0    0  0.31400194719E+02 -0.29786644046E+02  0.32259049707E+01  0.47787275872E+02  0.20000022012E+02 0.  0.
         12    1    1    2    0    0 -0.31400194719E+02  0.29786644046E+02 -0.32259049707E+01  0.43400724128E+02  0.00000000000E+00 0. -1.
         11    1    3    3    0    0  0.36167870727E+01 -0.20652897352E+01  0.39123500273E+01  0.57142850311E+01  0.51100000000E-03 0. -1.
        -11    1    3    3    0    0  0.15648292229E+02 -0.84913510152E+01  0.52693566420E+01  0.18567127172E+02  0.51100000000E-03 0.  1.
         12    1    3    3    0    0  0.12135115417E+02 -0.19230003296E+02 -0.59558016986E+01  0.23505863669E+02  0.00000000000E+00 0. -1.
</event>
<event>
 7    1  0.2237500E-009  0.4778728E+02  0.7816164E-02  0.1312668E+00
        -11   -1    0    0    0    0  0.00000000000E+00  0.00000000000E+00  0.45593999997E+02  0.45594000000E+02  0.51100000000E-03 0.  1.
         11   -1    0    0    0    0 -0.00000000000E+00 -0.00000000000E+00 -0.45593999997E+02  0.45594000000E+02  0.51100000000E-03 0. -1.
    9900012    2    1    2    0    0 -0.24823951910E+02  0.40751651774E+01  0.35366463966E+02  0.47787281883E+02  0.20000049417E+02 0.  0.
         12    1    1    2    0    0  0.24823951910E+02 -0.40751651774E+01 -0.35366463966E+02  0.43400718117E+02  0.00000000000E+00 0. -1.
         11    1    3    3    0    0  0.10498009919E+01 -0.18363400583E+01  0.56346911151E+01  0.60186353234E+01  0.51100000000E-03 0. -1.
        -11    1    3    3    0    0 -0.19168263205E+02 -0.10704739525E+01  0.23090861832E+02  0.30029254556E+02  0.51100000000E-03 0.  1.
         12    1    3    3    0    0 -0.67054896969E+01  0.69819791882E+01  0.66409110187E+01  0.11739392004E+02  0.00000000000E+00 0. -1.
</event>
<event>
 7    1  0.2237500E-009  0.4778727E+02  0.7816164E-02  0.1312668E+00
        -11   -1    0    0    0    0  0.00000000000E+00  0.00000000000E+00  0.45593999997E+02  0.45594000000E+02  0.51100000000E-03 0. -1.
         11   -1    0    0    0    0 -0.00000000000E+00 -0.00000000000E+00 -0.45593999997E+02  0.45594000000E+02  0.51100000000E-03 0.  1.
    9900012    2    1    2    0    0  0.26190721843E+02  0.58037987128E+01 -0.34117226988E+02  0.47787272270E+02  0.20000005589E+02 0.  0.
         12    1    1    2    0    0 -0.26190721843E+02 -0.58037987128E+01  0.34117226988E+02  0.43400727730E+02  0.00000000000E+00 0. -1.
         11    1    3    3    0    0  0.58750681932E+01  0.39187058470E+01 -0.40463080516E+01  0.81391210152E+01  0.51100000000E-03 0. -1.
        -11    1    3    3    0    0  0.15439485210E+02  0.40187639511E+01 -0.30382449704E+02  0.34316489003E+02  0.51100000000E-03 0.  1.
        -12    1    3    3    0    0  0.48761684398E+01 -0.21336710854E+01  0.31153076723E+00  0.53316622523E+01  0.00000000000E+00 0.  1.
</event>
<event>
 7    1  0.2237500E-009  0.4778727E+02  0.7816164E-02  0.1312668E+00
        -11   -1    0    0    0    0  0.00000000000E+00  0.00000000000E+00  0.45593999997E+02  0.45594000000E+02  0.51100000000E-03 0.  1.
         11   -1    0    0    0    0 -0.00000000000E+00 -0.00000000000E+00 -0.45593999997E+02  0.45594000000E+02  0.51100000000E-03 0. -1.
    9900012    2    1    2    0    0  0.92633340983E+01  0.19297863041E+02  0.37754555773E+02  0.47787270073E+02  0.19999995570E+02 0.  0.
         12    1    1    2    0    0 -0.92633340983E+01 -0.19297863041E+02 -0.37754555773E+02  0.43400729927E+02  0.00000000000E+00 0. -1.
         11    1    3    3    0    0  0.56132639439E+01  0.85699266041E+01  0.16959481772E+02  0.19813540732E+02  0.51100000000E-03 0. -1.
        -11    1    3    3    0    0  0.12417678584E+01  0.14249731421E+02  0.14489022107E+02  0.20359975316E+02  0.51100000000E-03 0.  1.
         12    1    3    3    0    0  0.24083022960E+01 -0.35217949840E+01  0.63060518945E+01  0.76137540251E+01  0.00000000000E+00 0. -1.
</event>
<event>
 7    1  0.2237500E-009  0.4778727E+02  0.7816164E-02  0.1312668E+00
        -11   -1    0    0    0    0  0.00000000000E+00  0.00000000000E+00  0.45593999997E+02  0.45594000000E+02  0.51100000000E-03 0.  1.
         11   -1    0    0    0    0 -0.00000000000E+00 -0.00000000000E+00 -0.45593999997E+02  0.45594000000E+02  0.51100000000E-03 0. -1.
    9900012    2    1    2    0    0 -0.41806046306E+02  0.11415473778E+02 -0.23589710113E+01  0.47787270817E+02  0.19999998965E+02 0.  0.
         12    1    1    2    0    0  0.41806046306E+02 -0.11415473778E+02  0.23589710113E+01  0.43400729183E+02  0.00000000000E+00 0. -1.
         11    1    3    3    0    0 -0.96592393246E+01  0.35883640464E+01 -0.56302376016E+00  0.10319605461E+02  0.51100000000E-03 0. -1.
        -11    1    3    3    0    0 -0.30657462592E+02  0.27815434164E+01  0.21991747835E+01  0.30861843210E+02  0.51100000000E-03 0.  1.
         12    1    3    3    0    0 -0.14893443900E+01  0.50455663150E+01 -0.39951220346E+01  0.66058221459E+01  0.00000000000E+00 0. -1.
</event>
<event>
 7    1  0.2237500E-009  0.4778727E+02  0.7816164E-02  0.1312668E+00
        -11   -1    0    0    0    0  0.00000000000E+00  0.00000000000E+00  0.45593999997E+02  0.45594000000E+02  0.51100000000E-03 0. -1.
         11   -1    0    0    0    0 -0.00000000000E+00 -0.00000000000E+00 -0.45593999997E+02  0.45594000000E+02  0.51100000000E-03 0.  1.
    9900012    2    1    2    0    0 -0.57310647212E+01 -0.20006922924E+02 -0.38085446693E+02  0.47787270541E+02  0.19999997707E+02 0.  0.
         12    1    1    2    0    0  0.57310647212E+01  0.20006922924E+02  0.38085446693E+02  0.43400729459E+02  0.00000000000E+00 0. -1.
         11    1    3    3    0    0  0.15728559542E+01 -0.61134674412E+00 -0.26840070479E+01  0.31704124004E+01  0.51100000000E-03 0.  1.
        -11    1    3    3    0    0  0.42497499131E+01 -0.13027156915E+02 -0.14952458360E+02  0.20281597641E+02  0.51100000000E-03 0. -1.
         12    1    3    3    0    0 -0.11553670589E+02 -0.63684192652E+01 -0.20448981285E+02  0.24335260500E+02  0.00000000000E+00 0. -1.
</event>
<event>
 7    1  0.2237500E-009  0.4778725E+02  0.7816164E-02  0.1312668E+00
        -11   -1    0    0    0    0  0.00000000000E+00  0.00000000000E+00  0.45593999997E+02  0.45594000000E+02  0.51100000000E-03 0. -1.
         11   -1    0    0    0    0 -0.00000000000E+00 -0.00000000000E+00 -0.45593999997E+02  0.45594000000E+02  0.51100000000E-03 0.  1.
    9900012    2    1    2    0    0  0.74586740389E+01 -0.30074575032E+02 -0.30389362127E+02  0.47787248713E+02  0.19999898184E+02 0.  0.
         12    1    1    2    0    0 -0.74586740389E+01  0.30074575032E+02  0.30389362127E+02  0.43400751287E+02  0.00000000000E+00 0. -1.
         11    1    3    3    0    0  0.25365501769E+01 -0.50298798621E-01 -0.22831683632E+01  0.34131326966E+01  0.51100000000E-03 0. -1.
        -11    1    3    3    0    0  0.92324652058E+01 -0.14140635649E+02 -0.89291663215E+01  0.19103036455E+02  0.51100000000E-03 0.  1.
         12    1    3    3    0    0 -0.43103413438E+01 -0.15883640584E+02 -0.19177027442E+02  0.25271079562E+02  0.00000000000E+00 0. -1.
</event>
<event>
 7    1  0.2237500E-009  0.4778728E+02  0.7816164E-02  0.1312668E+00
        -11   -1    0    0    0    0  0.00000000000E+00  0.00000000000E+00  0.45593999997E+02  0.45594000000E+02  0.51100000000E-03 0.  1.
         11   -1    0    0    0    0 -0.00000000000E+00 -0.00000000000E+00 -0.45593999997E+02  0.45594000000E+02  0.51100000000E-03 0. -1.
    9900012    2    1    2    0    0 -0.33066718627E+02  0.50996824946E+01  0.27644315787E+02  0.47787276070E+02  0.20000022912E+02 0.  0.
         12    1    1    2    0    0  0.33066718627E+02 -0.50996824946E+01 -0.27644315787E+02  0.43400723930E+02  0.00000000000E+00 0. -1.
         11    1    3    3    0    0 -0.75824118711E+01 -0.43659756030E+01  0.11607324823E+02  0.14535635609E+02  0.51100000000E-03 0. -1.
        -11    1    3    3    0    0 -0.90801037300E+01 -0.16748610016E+01  0.61502463037E+01  0.11094096312E+02  0.51100000000E-03 0.  1.
         12    1    3    3    0    0 -0.16404203026E+02  0.11140519099E+02  0.98867446612E+01  0.22157544149E+02  0.00000000000E+00 0. -1.
</event>
<event>
 7    1  0.2237500E-009  0.4778726E+02  0.7816164E-02  0.1312668E+00
        -11   -1    0    0    0    0  0.00000000000E+00  0.00000000000E+00  0.45593999997E+02  0.45594000000E+02  0.51100000000E-03 0.  1.
         11   -1    0    0    0    0 -0.00000000000E+00 -0.00000000000E+00 -0.45593999997E+02  0.45594000000E+02  0.51100000000E-03 0. -1.
    9900012    2    1    2    0    0 -0.44368128925E+01  0.18281586518E+01  0.43134634181E+02  0.47787261082E+02  0.19999954577E+02 0.  0.
         12    1    1    2    0    0  0.44368128925E+01 -0.18281586518E+01 -0.43134634181E+02  0.43400738918E+02  0.00000000000E+00 0. -1.
         11    1    3    3    0    0 -0.43931344762E+01  0.18394888176E+01  0.40389996329E+00  0.47797996901E+01  0.51100000000E-03 0. -1.
        -11    1    3    3    0    0  0.12971415314E+01  0.15471792768E+01  0.94493333556E+01  0.96626208139E+01  0.51100000000E-03 0.  1.
         12    1    3    3    0    0 -0.13408199476E+01 -0.15585094426E+01  0.33281400862E+02  0.33344840578E+02  0.00000000000E+00 0. -1.
</event>
<event>
 7    1  0.2237500E-009  0.4778728E+02  0.7816164E-02  0.1312668E+00
        -11   -1    0    0    0    0  0.00000000000E+00  0.00000000000E+00  0.45593999997E+02  0.45594000000E+02  0.51100000000E-03 0.  1.
         11   -1    0    0    0    0 -0.00000000000E+00 -0.00000000000E+00 -0.45593999997E+02  0.45594000000E+02  0.51100000000E-03 0. -1.
    9900012    2    1    2    0    0 -0.29320947057E+02  0.31912596334E+02 -0.23433071791E+01  0.47787276162E+02  0.20000023333E+02 0.  0.
         12    1    1    2    0    0  0.29320947057E+02 -0.31912596334E+02  0.23433071791E+01  0.43400723838E+02  0.00000000000E+00 0. -1.
         11    1    3    3    0    0 -0.10791225403E+02  0.10700175416E+02 -0.61723647768E+01  0.16402511601E+02  0.51100000000E-03 0. -1.
        -11    1    3    3    0    0 -0.52705276475E+01  0.77192604660E+01 -0.48966120905E+01  0.10551883910E+02  0.51100000000E-03 0.  1.
        -12    1    3    3    0    0 -0.13259194007E+02  0.13493160452E+02  0.87256696882E+01  0.20832880651E+02  0.00000000000E+00 0.  1.
</event>
<event>
 7    1  0.2237500E-009  0.4778726E+02  0.7816164E-02  0.1312668E+00
        -11   -1    0    0    0    0  0.00000000000E+00  0.00000000000E+00  0.45593999997E+02  0.45594000000E+02  0.51100000000E-03 0. -1.
         11   -1    0    0    0    0 -0.00000000000E+00 -0.00000000000E+00 -0.45593999997E+02  0.45594000000E+02  0.51100000000E-03 0.  1.
    9900012    2    1    2    0    0  0.29560726241E+02  0.14111024487E+02 -0.28472210739E+02  0.47787258850E+02  0.19999944401E+02 0.  0.
         12    1    1    2    0    0 -0.29560726241E+02 -0.14111024487E+02  0.28472210739E+02  0.43400741150E+02  0.00000000000E+00 0. -1.
         11    1    3    3    0    0  0.69964475625E+01 -0.62033530181E+00 -0.28906592796E+00  0.70298402367E+01  0.51100000000E-03 0. -1.
        -11    1    3    3    0    0  0.12267844262E+02  0.50020674929E+01 -0.62532972176E+01  0.14650065133E+02  0.51100000000E-03 0.  1.
        -12    1    3    3    0    0  0.10296434416E+02  0.97292922960E+01 -0.21929847594E+02  0.26107353480E+02  0.00000000000E+00 0.  1.
</event>
<event>
 7    1  0.2237500E-009  0.4778727E+02  0.7816164E-02  0.1312668E+00
        -11   -1    0    0    0    0  0.00000000000E+00  0.00000000000E+00  0.45593999997E+02  0.45594000000E+02  0.51100000000E-03 0. -1.
         11   -1    0    0    0    0 -0.00000000000E+00 -0.00000000000E+00 -0.45593999997E+02  0.45594000000E+02  0.51100000000E-03 0.  1.
    9900012    2    1    2    0    0  0.20978215897E+02  0.37425304758E+02  0.65485995453E+01  0.47787272650E+02  0.20000007322E+02 0.  0.
         12    1    1    2    0    0 -0.20978215897E+02 -0.37425304758E+02 -0.65485995453E+01  0.43400727350E+02  0.00000000000E+00 0. -1.
         11    1    3    3    0    0  0.61091535119E+01  0.34389209513E+01 -0.10720232562E+01  0.70920496378E+01  0.51100000000E-03 0. -1.
        -11    1    3    3    0    0  0.96996792878E+01  0.16638348529E+02  0.11147846815E+02  0.22252930344E+02  0.51100000000E-03 0.  1.
        -12    1    3    3    0    0  0.51693830976E+01  0.17348035278E+02 -0.35272240134E+01  0.18442292668E+02  0.00000000000E+00 0.  1.
</event>
<event>
 7    1  0.2237500E-009  0.4778728E+02  0.7816164E-02  0.1312668E+00
        -11   -1    0    0    0    0  0.00000000000E+00  0.00000000000E+00  0.45593999997E+02  0.45594000000E+02  0.51100000000E-03 0.  1.
         11   -1    0    0    0    0 -0.00000000000E+00 -0.00000000000E+00 -0.45593999997E+02  0.45594000000E+02  0.51100000000E-03 0. -1.
    9900012    2    1    2    0    0 -0.65704199569E+01  0.12122336109E+01  0.42883357308E+02  0.47787282693E+02  0.20000053109E+02 0.  0.
         12    1    1    2    0    0  0.65704199569E+01 -0.12122336109E+01 -0.42883357308E+02  0.43400717307E+02  0.00000000000E+00 0. -1.
         11    1    3    3    0    0  0.13820792116E+01 -0.30239457687E+01  0.16189587573E+02  0.16527466140E+02  0.51100000000E-03 0. -1.
        -11    1    3    3    0    0  0.58157238098E-01  0.46013352638E+01  0.20812892856E+02  0.21315538412E+02  0.51100000000E-03 0.  1.
        -12    1    3    3    0    0 -0.80106564066E+01 -0.36515588424E+00  0.58808768795E+01  0.99442781415E+01  0.00000000000E+00 0.  1.
</event>
<event>
 7    1  0.2237500E-009  0.4778727E+02  0.7816164E-02  0.1312668E+00
        -11   -1    0    0    0    0  0.00000000000E+00  0.00000000000E+00  0.45593999997E+02  0.45594000000E+02  0.51100000000E-03 0.  1.
         11   -1    0    0    0    0 -0.00000000000E+00 -0.00000000000E+00 -0.45593999997E+02  0.45594000000E+02  0.51100000000E-03 0. -1.
    9900012    2    1    2    0    0  0.34720922160E+02 -0.21843201121E+02  0.14175887693E+02  0.47787266564E+02  0.19999979574E+02 0.  0.
         12    1    1    2    0    0 -0.34720922160E+02  0.21843201121E+02 -0.14175887693E+02  0.43400733436E+02  0.00000000000E+00 0. -1.
         11    1    3    3    0    0  0.20339565833E+02 -0.48016665416E+01  0.38976961678E+01  0.21259021039E+02  0.51100000000E-03 0. -1.
        -11    1    3    3    0    0  0.10188803498E+02 -0.47614867967E+01  0.66039129426E+01  0.13042052739E+02  0.51100000000E-03 0.  1.
        -12    1    3    3    0    0  0.41925528289E+01 -0.12280047782E+02  0.36742785825E+01  0.13486192786E+02  0.00000000000E+00 0.  1.
</event>
<event>
 7    1  0.2237500E-009  0.4778728E+02  0.7816164E-02  0.1312668E+00
        -11   -1    0    0    0    0  0.00000000000E+00  0.00000000000E+00  0.45593999997E+02  0.45594000000E+02  0.51100000000E-03 0.  1.
         11   -1    0    0    0    0 -0.00000000000E+00 -0.00000000000E+00 -0.45593999997E+02  0.45594000000E+02  0.51100000000E-03 0. -1.
    9900012    2    1    2    0    0  0.12317570203E+01  0.41164649925E+02  0.13695861926E+02  0.47787282693E+02  0.20000053113E+02 0.  0.
         12    1    1    2    0    0 -0.12317570203E+01 -0.41164649925E+02 -0.13695861926E+02  0.43400717307E+02  0.00000000000E+00 0. -1.
         11    1    3    3    0    0  0.38043501340E+01  0.61385490617E+01  0.74448099036E+01  0.10372080760E+02  0.51100000000E-03 0.  1.
        -11    1    3    3    0    0  0.15993312748E+01  0.12976013057E+02 -0.25306536503E+01  0.13316868384E+02  0.51100000000E-03 0. -1.
        -12    1    3    3    0    0 -0.41719243886E+01  0.22050087806E+02  0.87817056728E+01  0.24098333550E+02  0.00000000000E+00 0.  1.
</event>
<event>
 7    1  0.2237500E-009  0.4778725E+02  0.7816164E-02  0.1312668E+00
        -11   -1    0    0    0    0  0.00000000000E+00  0.00000000000E+00  0.45593999997E+02  0.45594000000E+02  0.51100000000E-03 0. -1.
         11   -1    0    0    0    0 -0.00000000000E+00 -0.00000000000E+00 -0.45593999997E+02  0.45594000000E+02  0.51100000000E-03 0.  1.
    9900012    2    1    2    0    0 -0.42212703165E+01  0.16495340466E+02 -0.39921293162E+02  0.47787250837E+02  0.19999907868E+02 0.  0.
         12    1    1    2    0    0  0.42212703165E+01 -0.16495340466E+02  0.39921293162E+02  0.43400749163E+02  0.00000000000E+00 0. -1.
         11    1    3    3    0    0 -0.20133011861E+01  0.23207670391E+01 -0.13404765950E+01  0.33520469982E+01  0.51100000000E-03 0. -1.
        -11    1    3    3    0    0 -0.47821702709E+01  0.13670690083E+02 -0.39157027332E+02  0.41749607298E+02  0.51100000000E-03 0.  1.
        -12    1    3    3    0    0  0.25742011405E+01  0.50388334387E+00  0.57621076491E+00  0.26855965411E+01  0.00000000000E+00 0.  1.
</event>
<event>
 7    1  0.2237500E-009  0.4778727E+02  0.7816164E-02  0.1312668E+00
        -11   -1    0    0    0    0  0.00000000000E+00  0.00000000000E+00  0.45593999997E+02  0.45594000000E+02  0.51100000000E-03 0. -1.
         11   -1    0    0    0    0 -0.00000000000E+00 -0.00000000000E+00 -0.45593999997E+02  0.45594000000E+02  0.51100000000E-03 0.  1.
    9900012    2    1    2    0    0 -0.18566769179E+02  0.39148117751E+02 -0.25146721336E+01  0.47787267090E+02  0.19999981972E+02 0.  0.
         12    1    1    2    0    0  0.18566769179E+02 -0.39148117751E+02  0.25146721336E+01  0.43400732910E+02  0.00000000000E+00 0. -1.
         11    1    3    3    0    0 -0.11074640441E+02  0.19235474383E+02 -0.35779067847E+01  0.22482271969E+02  0.51100000000E-03 0. -1.
        -11    1    3    3    0    0 -0.55556641919E+01  0.16951078379E+02 -0.47856187921E+01  0.18469071723E+02  0.51100000000E-03 0.  1.
         12    1    3    3    0    0 -0.19364645453E+01  0.29615649889E+01  0.58488534432E+01  0.68359233991E+01  0.00000000000E+00 0. -1.
</event>
<event>
 7    1  0.2237500E-009  0.4778727E+02  0.7816164E-02  0.1312668E+00
        -11   -1    0    0    0    0  0.00000000000E+00  0.00000000000E+00  0.45593999997E+02  0.45594000000E+02  0.51100000000E-03 0.  1.
         11   -1    0    0    0    0 -0.00000000000E+00 -0.00000000000E+00 -0.45593999997E+02  0.45594000000E+02  0.51100000000E-03 0. -1.
    9900012    2    1    2    0    0  0.27860101656E+02 -0.50834034928E+01  0.32887641517E+02  0.47787271666E+02  0.20000002835E+02 0.  0.
         12    1    1    2    0    0 -0.27860101656E+02  0.50834034928E+01 -0.32887641517E+02  0.43400728334E+02  0.00000000000E+00 0. -1.
         11    1    3    3    0    0  0.63786063105E+01 -0.38604703340E+01  0.13669174397E+02  0.15570362187E+02  0.51100000000E-03 0.  1.
        -11    1    3    3    0    0  0.51777839330E-02 -0.25929952865E+01  0.70120654589E+01  0.74761429646E+01  0.51100000000E-03 0. -1.
        -12    1    3    3    0    0  0.21476317561E+02  0.13700621278E+01  0.12206401661E+02  0.24740766515E+02  0.00000000000E+00 0.  1.
</event>
<event>
 7    1  0.2237500E-009  0.4778727E+02  0.7816164E-02  0.1312668E+00
        -11   -1    0    0    0    0  0.00000000000E+00  0.00000000000E+00  0.45593999997E+02  0.45594000000E+02  0.51100000000E-03 0.  1.
         11   -1    0    0    0    0 -0.00000000000E+00 -0.00000000000E+00 -0.45593999997E+02  0.45594000000E+02  0.51100000000E-03 0. -1.
    9900012    2    1    2    0    0  0.22598274655E+02 -0.16374650632E+02  0.33238708993E+02  0.47787274474E+02  0.20000015635E+02 0.  0.
         12    1    1    2    0    0 -0.22598274655E+02  0.16374650632E+02 -0.33238708993E+02  0.43400725526E+02  0.00000000000E+00 0. -1.
         11    1    3    3    0    0  0.99654274599E+01 -0.13861691997E+02  0.15246462645E+02  0.22889099435E+02  0.51100000000E-03 0. -1.
        -11    1    3    3    0    0  0.70568335079E+01 -0.56206983534E+01  0.15715153825E+02  0.18120629380E+02  0.51100000000E-03 0.  1.
         12    1    3    3    0    0  0.55760136869E+01  0.31077397185E+01  0.22770925234E+01  0.67775456586E+01  0.00000000000E+00 0. -1.
</event>
<event>
 7    1  0.2237500E-009  0.4778727E+02  0.7816164E-02  0.1312668E+00
        -11   -1    0    0    0    0  0.00000000000E+00  0.00000000000E+00  0.45593999997E+02  0.45594000000E+02  0.51100000000E-03 0.  1.
         11   -1    0    0    0    0 -0.00000000000E+00 -0.00000000000E+00 -0.45593999997E+02  0.45594000000E+02  0.51100000000E-03 0. -1.
    9900012    2    1    2    0    0 -0.28337848703E+02 -0.32870925198E+02 -0.30312719781E+00  0.47787270990E+02  0.19999999751E+02 0.  0.
         12    1    1    2    0    0  0.28337848703E+02  0.32870925198E+02  0.30312719781E+00  0.43400729010E+02  0.00000000000E+00 0. -1.
         11    1    3    3    0    0 -0.13127593774E+02 -0.87335047331E+01 -0.65815759871E+00  0.15781032758E+02  0.51100000000E-03 0.  1.
        -11    1    3    3    0    0 -0.37534499732E+01 -0.87191293363E+01 -0.66168150981E+01  0.11571250813E+02  0.51100000000E-03 0. -1.
         12    1    3    3    0    0 -0.11456804956E+02 -0.15418291129E+02  0.69718454990E+01  0.20434987418E+02  0.00000000000E+00 0. -1.
</event>
<event>
 7    1  0.2237500E-009  0.4778727E+02  0.7816164E-02  0.1312668E+00
        -11   -1    0    0    0    0  0.00000000000E+00  0.00000000000E+00  0.45593999997E+02  0.45594000000E+02  0.51100000000E-03 0.  1.
         11   -1    0    0    0    0 -0.00000000000E+00 -0.00000000000E+00 -0.45593999997E+02  0.45594000000E+02  0.51100000000E-03 0. -1.
    9900012    2    1    2    0    0  0.20186780399E+02 -0.30216195467E+02  0.23729710727E+02  0.47787265645E+02  0.19999975380E+02 0.  0.
         12    1    1    2    0    0 -0.20186780399E+02  0.30216195467E+02 -0.23729710727E+02  0.43400734355E+02  0.00000000000E+00 0. -1.
         11    1    3    3    0    0  0.50145363798E+01 -0.14466554904E+02  0.22178166555E+01  0.15470794966E+02  0.51100000000E-03 0. -1.
        -11    1    3    3    0    0 -0.44465593161E+00 -0.10967420705E+01 -0.77018743333E+00  0.14120024824E+01  0.51100000000E-03 0.  1.
        -12    1    3    3    0    0  0.15616899951E+02 -0.14652898492E+02  0.22282081505E+02  0.30904468196E+02  0.00000000000E+00 0.  1.
</event>
<event>
 7    1  0.2237500E-009  0.4778727E+02  0.7816164E-02  0.1312668E+00
        -11   -1    0    0    0    0  0.00000000000E+00  0.00000000000E+00  0.45593999997E+02  0.45594000000E+02  0.51100000000E-03 0. -1.
         11   -1    0    0    0    0 -0.00000000000E+00 -0.00000000000E+00 -0.45593999997E+02  0.45594000000E+02  0.51100000000E-03 0.  1.
    9900012    2    1    2    0    0  0.37904311086E+02 -0.10223101173E+02 -0.18503365516E+02  0.47787272680E+02  0.20000007457E+02 0.  0.
         12    1    1    2    0    0 -0.37904311086E+02  0.10223101173E+02  0.18503365516E+02  0.43400727320E+02  0.00000000000E+00 0. -1.
         11    1    3    3    0    0  0.44614700982E+01  0.24916427544E+01 -0.16187079045E+01  0.53603371716E+01  0.51100000000E-03 0. -1.
        -11    1    3    3    0    0  0.20522240943E+02 -0.28973357642E+01 -0.15986430003E+02  0.26174851907E+02  0.51100000000E-03 0.  1.
         12    1    3    3    0    0  0.12920600045E+02 -0.98174081628E+01 -0.89822760872E+00  0.16252083601E+02  0.00000000000E+00 0. -1.
</event>
<event>
 7    1  0.2237500E-009  0.4778727E+02  0.7816164E-02  0.1312668E+00
        -11   -1    0    0    0    0  0.00000000000E+00  0.00000000000E+00  0.45593999997E+02  0.45594000000E+02  0.51100000000E-03 0. -1.
         11   -1    0    0    0    0 -0.00000000000E+00 -0.00000000000E+00 -0.45593999997E+02  0.45594000000E+02  0.51100000000E-03 0.  1.
    9900012    2    1    2    0    0 -0.15959727456E+02 -0.35323324078E+02 -0.19523657111E+02  0.47787270613E+02  0.19999998031E+02 0.  0.
         12    1    1    2    0    0  0.15959727456E+02  0.35323324078E+02  0.19523657111E+02  0.43400729387E+02  0.00000000000E+00 0. -1.
         11    1    3    3    0    0  0.26026943107E+01 -0.39610825790E+01 -0.44594602499E+01  0.65077629685E+01  0.51100000000E-03 0. -1.
        -11    1    3    3    0    0 -0.63678709287E+01 -0.15256630127E+02 -0.12885971192E+02  0.20960982725E+02  0.51100000000E-03 0.  1.
        -12    1    3    3    0    0 -0.12194550838E+02 -0.16105611372E+02 -0.21782256690E+01  0.20318524919E+02  0.00000000000E+00 0.  1.
</event>
<event>
 7    1  0.2237500E-009  0.4778729E+02  0.7816164E-02  0.1312668E+00
        -11   -1    0    0    0    0  0.00000000000E+00  0.00000000000E+00  0.45593999997E+02  0.45594000000E+02  0.51100000000E-03 0. -1.
         11   -1    0    0    0    0 -0.00000000000E+00 -0.00000000000E+00 -0.45593999997E+02  0.45594000000E+02  0.51100000000E-03 0.  1.
    9900012    2    1    2    0    0  0.42601242508E+02 -0.16609875533E+01  0.81238694090E+01  0.47787285754E+02  0.20000067065E+02 0.  0.
         12    1    1    2    0    0 -0.42601242508E+02  0.16609875533E+01 -0.81238694090E+01  0.43400714246E+02  0.00000000000E+00 0. -1.
         11    1    3    3    0    0  0.11500101657E+02  0.13946408011E+01  0.73506892174E+01  0.13719693631E+02  0.51100000000E-03 0. -1.
        -11    1    3    3    0    0  0.68774087742E+01  0.43973613383E+01  0.28305234115E+01  0.86398727555E+01  0.51100000000E-03 0.  1.
        -12    1    3    3    0    0  0.24223732077E+02 -0.74529896928E+01 -0.20573432199E+01  0.25427719368E+02  0.00000000000E+00 0.  1.
</event>
<event>
 7    1  0.2237500E-009  0.4778727E+02  0.7816164E-02  0.1312668E+00
        -11   -1    0    0    0    0  0.00000000000E+00  0.00000000000E+00  0.45593999997E+02  0.45594000000E+02  0.51100000000E-03 0.  1.
         11   -1    0    0    0    0 -0.00000000000E+00 -0.00000000000E+00 -0.45593999997E+02  0.45594000000E+02  0.51100000000E-03 0. -1.
    9900012    2    1    2    0    0  0.32820860833E+02 -0.20007258496E+02  0.20152516169E+02  0.47787271823E+02  0.20000003550E+02 0.  0.
         12    1    1    2    0    0 -0.32820860833E+02  0.20007258496E+02 -0.20152516169E+02  0.43400728177E+02  0.00000000000E+00 0. -1.
         11    1    3    3    0    0  0.19257999477E+02 -0.11785749915E+02  0.15734317484E+02  0.27519869038E+02  0.51100000000E-03 0. -1.
        -11    1    3    3    0    0  0.87879323238E+01 -0.45021689615E+01  0.84489916798E+01  0.12995489239E+02  0.51100000000E-03 0.  1.
         12    1    3    3    0    0  0.47749290322E+01 -0.37193396190E+01 -0.40307929942E+01  0.72719135464E+01  0.00000000000E+00 0. -1.
</event>
<event>
 7    1  0.2237500E-009  0.4778727E+02  0.7816164E-02  0.1312668E+00
        -11   -1    0    0    0    0  0.00000000000E+00  0.00000000000E+00  0.45593999997E+02  0.45594000000E+02  0.51100000000E-03 0. -1.
         11   -1    0    0    0    0 -0.00000000000E+00 -0.00000000000E+00 -0.45593999997E+02  0.45594000000E+02  0.51100000000E-03 0.  1.
    9900012    2    1    2    0    0 -0.30824875063E+02  0.13403327339E+02 -0.27455438875E+02  0.47787271547E+02  0.20000002291E+02 0.  0.
         12    1    1    2    0    0  0.30824875063E+02 -0.13403327339E+02  0.27455438875E+02  0.43400728453E+02  0.00000000000E+00 0. -1.
         11    1    3    3    0    0 -0.13955408114E+02  0.19804100362E+01 -0.51497764015E+01  0.15006519810E+02  0.51100000000E-03 0. -1.
        -11    1    3    3    0    0 -0.10539658051E+02 -0.45402424427E+00 -0.92529366563E+01  0.14032368541E+02  0.51100000000E-03 0.  1.
         12    1    3    3    0    0 -0.63298088976E+01  0.11876941547E+02 -0.13052725817E+02  0.18748383196E+02  0.00000000000E+00 0. -1.
</event>
<event>
 7    1  0.2237500E-009  0.4778727E+02  0.7816164E-02  0.1312668E+00
        -11   -1    0    0    0    0  0.00000000000E+00  0.00000000000E+00  0.45593999997E+02  0.45594000000E+02  0.51100000000E-03 0. -1.
         11   -1    0    0    0    0 -0.00000000000E+00 -0.00000000000E+00 -0.45593999997E+02  0.45594000000E+02  0.51100000000E-03 0.  1.
    9900012    2    1    2    0    0  0.30338180296E+02 -0.19948529000E+02 -0.23775499201E+02  0.47787270108E+02  0.19999995730E+02 0.  0.
         12    1    1    2    0    0 -0.30338180296E+02  0.19948529000E+02  0.23775499201E+02  0.43400729892E+02  0.00000000000E+00 0. -1.
         11    1    3    3    0    0  0.17129626245E+02 -0.95387292925E+01 -0.15693975408E+02  0.25113986465E+02  0.51100000000E-03 0. -1.
        -11    1    3    3    0    0  0.12047171849E+02 -0.40458000583E+01 -0.97205824211E+01  0.15999767827E+02  0.51100000000E-03 0.  1.
         12    1    3    3    0    0  0.11613822023E+01 -0.63639996488E+01  0.16390586283E+01  0.66735158152E+01  0.00000000000E+00 0. -1.
</event>
<event>
 7    1  0.2237500E-009  0.4778726E+02  0.7816164E-02  0.1312668E+00
        -11   -1    0    0    0    0  0.00000000000E+00  0.00000000000E+00  0.45593999997E+02  0.45594000000E+02  0.51100000000E-03 0. -1.
         11   -1    0    0    0    0 -0.00000000000E+00 -0.00000000000E+00 -0.45593999997E+02  0.45594000000E+02  0.51100000000E-03 0.  1.
    9900012    2    1    2    0    0  0.30787709818E+02 -0.28302193407E+02  0.11607188908E+02  0.47787261967E+02  0.19999958612E+02 0.  0.
         12    1    1    2    0    0 -0.30787709818E+02  0.28302193407E+02 -0.11607188908E+02  0.43400738033E+02  0.00000000000E+00 0. -1.
         11    1    3    3    0    0  0.12318565601E+02 -0.11729035864E+02 -0.22919553542E+01  0.17163053352E+02  0.51100000000E-03 0. -1.
        -11    1    3    3    0    0  0.38417299959E+01 -0.80062355065E+00 -0.14658004131E+01  0.41890880325E+01  0.51100000000E-03 0.  1.
         12    1    3    3    0    0  0.14627414221E+02 -0.15772533992E+02  0.15364944675E+02  0.26435120583E+02  0.00000000000E+00 0. -1.
</event>
<event>
 7    1  0.2237500E-009  0.4778727E+02  0.7816164E-02  0.1312668E+00
        -11   -1    0    0    0    0  0.00000000000E+00  0.00000000000E+00  0.45593999997E+02  0.45594000000E+02  0.51100000000E-03 0.  1.
         11   -1    0    0    0    0 -0.00000000000E+00 -0.00000000000E+00 -0.45593999997E+02  0.45594000000E+02  0.51100000000E-03 0. -1.
    9900012    2    1    2    0    0  0.21084256217E+02 -0.19970377538E+02  0.32253078881E+02  0.47787274931E+02  0.20000017721E+02 0.  0.
         12    1    1    2    0    0 -0.21084256217E+02  0.19970377538E+02 -0.32253078881E+02  0.43400725069E+02  0.00000000000E+00 0. -1.
         11    1    3    3    0    0 -0.16499509271E+01  0.90159655252E+00  0.22597387958E+01  0.29396656429E+01  0.51100000000E-03 0. -1.
        -11    1    3    3    0    0  0.74053295797E+01 -0.10917720112E+02  0.55154133542E+01  0.14298786779E+02  0.51100000000E-03 0.  1.
        -12    1    3    3    0    0  0.15328877565E+02 -0.99542539780E+01  0.24477926731E+02  0.30548822509E+02  0.00000000000E+00 0.  1.
</event>
<event>
 7    1  0.2237500E-009  0.4778727E+02  0.7816164E-02  0.1312668E+00
        -11   -1    0    0    0    0  0.00000000000E+00  0.00000000000E+00  0.45593999997E+02  0.45594000000E+02  0.51100000000E-03 0.  1.
         11   -1    0    0    0    0 -0.00000000000E+00 -0.00000000000E+00 -0.45593999997E+02  0.45594000000E+02  0.51100000000E-03 0. -1.
    9900012    2    1    2    0    0 -0.18091897115E+02 -0.26926361665E+02  0.28831883721E+02  0.47787271750E+02  0.20000003217E+02 0.  0.
         12    1    1    2    0    0  0.18091897115E+02  0.26926361665E+02 -0.28831883721E+02  0.43400728250E+02  0.00000000000E+00 0. -1.
         11    1    3    3    0    0  0.14213730698E+01 -0.55367975972E+01  0.43066355373E+01  0.71570621730E+01  0.51100000000E-03 0. -1.
        -11    1    3    3    0    0 -0.34630955576E+01  0.14574599314E+01  0.49054020256E+00  0.37891754042E+01  0.51100000000E-03 0.  1.
        -12    1    3    3    0    0 -0.16050174627E+02 -0.22847023999E+02  0.24034707981E+02  0.36841034173E+02  0.00000000000E+00 0.  1.
</event>
<event>
 7    1  0.2237500E-009  0.4778727E+02  0.7816164E-02  0.1312668E+00
        -11   -1    0    0    0    0  0.00000000000E+00  0.00000000000E+00  0.45593999997E+02  0.45594000000E+02  0.51100000000E-03 0.  1.
         11   -1    0    0    0    0 -0.00000000000E+00 -0.00000000000E+00 -0.45593999997E+02  0.45594000000E+02  0.51100000000E-03 0. -1.
    9900012    2    1    2    0    0 -0.33282735914E+02 -0.17057191242E+02  0.22021242564E+02  0.47787269510E+02  0.19999993006E+02 0.  0.
         12    1    1    2    0    0  0.33282735914E+02  0.17057191242E+02 -0.22021242564E+02  0.43400730490E+02  0.00000000000E+00 0. -1.
         11    1    3    3    0    0 -0.23273062910E+01  0.59992754461E+00  0.32456637380E+01  0.40386385072E+01  0.51100000000E-03 0. -1.
        -11    1    3    3    0    0 -0.24569902184E+02 -0.83735310037E+01  0.19487411966E+02  0.32458517221E+02  0.51100000000E-03 0.  1.
         12    1    3    3    0    0 -0.63855274392E+01 -0.92835877827E+01 -0.71183314014E+00  0.11290113782E+02  0.00000000000E+00 0. -1.
</event>
<event>
 7    1  0.2237500E-009  0.4778727E+02  0.7816164E-02  0.1312668E+00
        -11   -1    0    0    0    0  0.00000000000E+00  0.00000000000E+00  0.45593999997E+02  0.45594000000E+02  0.51100000000E-03 0. -1.
         11   -1    0    0    0    0 -0.00000000000E+00 -0.00000000000E+00 -0.45593999997E+02  0.45594000000E+02  0.51100000000E-03 0.  1.
    9900012    2    1    2    0    0  0.24981241819E+02  0.34630698967E+02 -0.77637326855E+01  0.47787270755E+02  0.19999998681E+02 0.  0.
         12    1    1    2    0    0 -0.24981241819E+02 -0.34630698967E+02  0.77637326855E+01  0.43400729245E+02  0.00000000000E+00 0. -1.
         11    1    3    3    0    0  0.18721179450E+02  0.21448893654E+02 -0.86506168352E+01  0.29755180572E+02  0.51100000000E-03 0.  1.
        -11    1    3    3    0    0  0.54735554978E+01  0.74123823911E+00 -0.13219587370E+00  0.55250990873E+01  0.51100000000E-03 0. -1.
        -12    1    3    3    0    0  0.78650687176E+00  0.12440567074E+02  0.10190800234E+01  0.12506991096E+02  0.00000000000E+00 0.  1.
</event>
<event>
 7    1  0.2237500E-009  0.4778727E+02  0.7816164E-02  0.1312668E+00
        -11   -1    0    0    0    0  0.00000000000E+00  0.00000000000E+00  0.45593999997E+02  0.45594000000E+02  0.51100000000E-03 0.  1.
         11   -1    0    0    0    0 -0.00000000000E+00 -0.00000000000E+00 -0.45593999997E+02  0.45594000000E+02  0.51100000000E-03 0. -1.
    9900012    2    1    2    0    0  0.36329432231E+02  0.24731038882E+01  0.23615232375E+02  0.47787273172E+02  0.20000009700E+02 0.  0.
         12    1    1    2    0    0 -0.36329432231E+02 -0.24731038882E+01 -0.23615232375E+02  0.43400726828E+02  0.00000000000E+00 0. -1.
         11    1    3    3    0    0  0.29739695689E+01 -0.14584278863E+01  0.87998387204E+00  0.34272261047E+01  0.51100000000E-03 0. -1.
        -11    1    3    3    0    0  0.35279744474E+02  0.51681104468E+01  0.22227428307E+02  0.42017000192E+02  0.51100000000E-03 0.  1.
        -12    1    3    3    0    0 -0.19242818123E+01 -0.12365786722E+01  0.50782019606E+00  0.23430468747E+01  0.00000000000E+00 0.  1.
</event>
<event>
 7    1  0.2237500E-009  0.4778726E+02  0.7816164E-02  0.1312668E+00
        -11   -1    0    0    0    0  0.00000000000E+00  0.00000000000E+00  0.45593999997E+02  0.45594000000E+02  0.51100000000E-03 0. -1.
         11   -1    0    0    0    0 -0.00000000000E+00 -0.00000000000E+00 -0.45593999997E+02  0.45594000000E+02  0.51100000000E-03 0.  1.
    9900012    2    1    2    0    0  0.31296952188E+02  0.10413627183E+02 -0.28207819042E+02  0.47787263803E+02  0.19999966981E+02 0.  0.
         12    1    1    2    0    0 -0.31296952188E+02 -0.10413627183E+02  0.28207819042E+02  0.43400736197E+02  0.00000000000E+00 0. -1.
         11    1    3    3    0    0  0.21609852271E+01  0.42236122851E+01 -0.88637979723E+00  0.48264300775E+01  0.51100000000E-03 0.  1.
        -11    1    3    3    0    0  0.12676482527E+02 -0.29100205113E+01 -0.17318793561E+02  0.21658763568E+02  0.51100000000E-03 0. -1.
         12    1    3    3    0    0  0.16459484434E+02  0.91000354093E+01 -0.10002645683E+02  0.21302070157E+02  0.00000000000E+00 0. -1.
</event>
<event>
 7    1  0.2401289E-009  0.4778727E+02  0.7816164E-02  0.1312668E+00
        -11   -1    0    0    0    0  0.00000000000E+00  0.00000000000E+00  0.45593999997E+02  0.45594000000E+02  0.51100000000E-03 0. -1.
         11   -1    0    0    0    0 -0.00000000000E+00 -0.00000000000E+00 -0.45593999997E+02  0.45594000000E+02  0.51100000000E-03 0.  1.
    9900012    2    1    2    0    0  0.24099941317E+01 -0.23561862388E+02 -0.36368306610E+02  0.47787272395E+02  0.20000006159E+02 0.  0.
         12    1    1    2    0    0 -0.24099941317E+01  0.23561862388E+02  0.36368306610E+02  0.43400727605E+02  0.00000000000E+00 0. -1.
         11    1    3    3    0    0  0.24914835250E+00 -0.76099061613E+00  0.19738653350E+01  0.21301000542E+01  0.51100000000E-03 0. -1.
        -11    1    3    3    0    0  0.24150897554E+01 -0.10703230918E+02 -0.10022674067E+02  0.14860881748E+02  0.51100000000E-03 0.  1.
        -12    1    3    3    0    0 -0.25424397624E+00 -0.12097640855E+02 -0.28319497878E+02  0.30796290593E+02  0.00000000000E+00 0.  1.
</event>
<event>
 7    1  0.4127791E-009  0.4778728E+02  0.7816164E-02  0.1312668E+00
        -11   -1    0    0    0    0  0.00000000000E+00  0.00000000000E+00  0.45593999997E+02  0.45594000000E+02  0.51100000000E-03 0. -1.
         11   -1    0    0    0    0 -0.00000000000E+00 -0.00000000000E+00 -0.45593999997E+02  0.45594000000E+02  0.51100000000E-03 0.  1.
    9900012    2    1    2    0    0 -0.35711294085E+02 -0.57378687076E+01 -0.23987564679E+02  0.47787275101E+02  0.20000018494E+02 0.  0.
         12    1    1    2    0    0  0.35711294085E+02  0.57378687076E+01  0.23987564679E+02  0.43400724899E+02  0.00000000000E+00 0. -1.
         11    1    3    3    0    0 -0.28328006823E+01 -0.31647489948E+01  0.11507443434E+01  0.44005236859E+01  0.51100000000E-03 0. -1.
        -11    1    3    3    0    0 -0.28408896931E+01 -0.36996179699E+01 -0.65626608843E+01  0.80514809517E+01  0.51100000000E-03 0.  1.
        -12    1    3    3    0    0 -0.30037603710E+02  0.11264982571E+01 -0.18575648138E+02  0.35335270463E+02  0.00000000000E+00 0.  1.
</event>
<event>
 7    1  0.2237500E-009  0.4778728E+02  0.7816164E-02  0.1312668E+00
        -11   -1    0    0    0    0  0.00000000000E+00  0.00000000000E+00  0.45593999997E+02  0.45594000000E+02  0.51100000000E-03 0.  1.
         11   -1    0    0    0    0 -0.00000000000E+00 -0.00000000000E+00 -0.45593999997E+02  0.45594000000E+02  0.51100000000E-03 0. -1.
    9900012    2    1    2    0    0 -0.16722661212E+02  0.37048944480E+02  0.15210230271E+02  0.47787276619E+02  0.20000025416E+02 0.  0.
         12    1    1    2    0    0  0.16722661212E+02 -0.37048944480E+02 -0.15210230271E+02  0.43400723381E+02  0.00000000000E+00 0. -1.
         11    1    3    3    0    0  0.55794293394E+00  0.35736626808E+00  0.11716377726E+01  0.13460112550E+01  0.51100000000E-03 0. -1.
        -11    1    3    3    0    0  0.78154826921E+00  0.12865995779E+02 -0.10857578532E+01  0.12935359889E+02  0.51100000000E-03 0.  1.
        -12    1    3    3    0    0 -0.18062152415E+02  0.23825582434E+02  0.15124350352E+02  0.33505905475E+02  0.00000000000E+00 0.  1.
</event>
<event>
 7    1  0.2237500E-009  0.4778727E+02  0.7816164E-02  0.1312668E+00
        -11   -1    0    0    0    0  0.00000000000E+00  0.00000000000E+00  0.45593999997E+02  0.45594000000E+02  0.51100000000E-03 0. -1.
         11   -1    0    0    0    0 -0.00000000000E+00 -0.00000000000E+00 -0.45593999997E+02  0.45594000000E+02  0.51100000000E-03 0.  1.
    9900012    2    1    2    0    0 -0.12607020404E+02 -0.18973158238E+02 -0.36941926921E+02  0.47787266578E+02  0.19999979634E+02 0.  0.
         12    1    1    2    0    0  0.12607020404E+02  0.18973158238E+02  0.36941926921E+02  0.43400733422E+02  0.00000000000E+00 0. -1.
         11    1    3    3    0    0 -0.87851354710E+01 -0.46554476689E+01 -0.67564968612E+01  0.12020900480E+02  0.51100000000E-03 0. -1.
        -11    1    3    3    0    0 -0.40440036761E+01 -0.61006038301E+01 -0.40421598870E+01  0.83612433069E+01  0.51100000000E-03 0.  1.
         12    1    3    3    0    0  0.22211874294E+00 -0.82171067390E+01 -0.26143270172E+02  0.27405122791E+02  0.00000000000E+00 0. -1.
</event>
<event>
 7    1  0.2237500E-009  0.4778727E+02  0.7816164E-02  0.1312668E+00
        -11   -1    0    0    0    0  0.00000000000E+00  0.00000000000E+00  0.45593999997E+02  0.45594000000E+02  0.51100000000E-03 0. -1.
         11   -1    0    0    0    0 -0.00000000000E+00 -0.00000000000E+00 -0.45593999997E+02  0.45594000000E+02  0.51100000000E-03 0.  1.
    9900012    2    1    2    0    0  0.23636135298E+02 -0.48150091571E+01 -0.36080081227E+02  0.47787268827E+02  0.19999989891E+02 0.  0.
         12    1    1    2    0    0 -0.23636135298E+02  0.48150091571E+01  0.36080081227E+02  0.43400731173E+02  0.00000000000E+00 0. -1.
         11    1    3    3    0    0 -0.11986320329E-01  0.17617326576E+01 -0.81782900952E+01  0.83658995195E+01  0.51100000000E-03 0. -1.
        -11    1    3    3    0    0  0.23120533443E+01 -0.46240591978E+01 -0.10921354519E+02  0.12083190759E+02  0.51100000000E-03 0.  1.
         12    1    3    3    0    0  0.21336068274E+02 -0.19526826168E+01 -0.16980436612E+02  0.27338178548E+02  0.00000000000E+00 0. -1.
</event>
<event>
 7    1  0.2237500E-009  0.4778727E+02  0.7816164E-02  0.1312668E+00
        -11   -1    0    0    0    0  0.00000000000E+00  0.00000000000E+00  0.45593999997E+02  0.45594000000E+02  0.51100000000E-03 0.  1.
         11   -1    0    0    0    0 -0.00000000000E+00 -0.00000000000E+00 -0.45593999997E+02  0.45594000000E+02  0.51100000000E-03 0. -1.
    9900012    2    1    2    0    0  0.24539328364E+02 -0.10878114094E+02  0.34104419205E+02  0.47787269452E+02  0.19999992739E+02 0.  0.
         12    1    1    2    0    0 -0.24539328364E+02  0.10878114094E+02 -0.34104419205E+02  0.43400730548E+02  0.00000000000E+00 0. -1.
         11    1    3    3    0    0  0.47965631917E+01  0.24162245418E+00  0.76735064304E+01  0.90525190451E+01  0.51100000000E-03 0. -1.
        -11    1    3    3    0    0  0.19941683440E+02 -0.13319642139E+02  0.27321491457E+02  0.36353094790E+02  0.51100000000E-03 0.  1.
         12    1    3    3    0    0 -0.19891826774E+00  0.21999055913E+01 -0.89057868204E+00  0.23816556167E+01  0.00000000000E+00 0. -1.
</event>
<event>
 7    1  0.2237500E-009  0.4778727E+02  0.7816164E-02  0.1312668E+00
        -11   -1    0    0    0    0  0.00000000000E+00  0.00000000000E+00  0.45593999997E+02  0.45594000000E+02  0.51100000000E-03 0. -1.
         11   -1    0    0    0    0 -0.00000000000E+00 -0.00000000000E+00 -0.45593999997E+02  0.45594000000E+02  0.51100000000E-03 0.  1.
    9900012    2    1    2    0    0  0.19636494053E+02  0.20674310889E+02  0.32720088211E+02  0.47787271873E+02  0.20000003777E+02 0.  0.
         12    1    1    2    0    0 -0.19636494053E+02 -0.20674310889E+02 -0.32720088211E+02  0.43400728127E+02  0.00000000000E+00 0. -1.
         11    1    3    3    0    0  0.10760671029E+02  0.58757685811E+01  0.14061239184E+02  0.18655700069E+02  0.51100000000E-03 0. -1.
        -11    1    3    3    0    0  0.80835359834E+01  0.33802657583E+01  0.21135803773E+01  0.90131555442E+01  0.51100000000E-03 0.  1.
         12    1    3    3    0    0  0.79228704100E+00  0.11418276549E+02  0.16545268649E+02  0.20118416260E+02  0.00000000000E+00 0. -1.
</event>
<event>
 7    1  0.2237500E-009  0.4778727E+02  0.7816164E-02  0.1312668E+00
        -11   -1    0    0    0    0  0.00000000000E+00  0.00000000000E+00  0.45593999997E+02  0.45594000000E+02  0.51100000000E-03 0.  1.
         11   -1    0    0    0    0 -0.00000000000E+00 -0.00000000000E+00 -0.45593999997E+02  0.45594000000E+02  0.51100000000E-03 0. -1.
    9900012    2    1    2    0    0 -0.63305300616E+00 -0.42181619372E+02  0.10194777516E+02  0.47787271233E+02  0.20000000858E+02 0.  0.
         12    1    1    2    0    0  0.63305300616E+00  0.42181619372E+02 -0.10194777516E+02  0.43400728767E+02  0.00000000000E+00 0. -1.
         11    1    3    3    0    0  0.93637981256E+00 -0.52799106683E+01 -0.27911321138E+01  0.60452198104E+01  0.51100000000E-03 0. -1.
        -11    1    3    3    0    0  0.21284638088E+01 -0.32307094808E+01  0.60258930298E+01  0.71609516828E+01  0.51100000000E-03 0.  1.
        -12    1    3    3    0    0 -0.36978966275E+01 -0.33670999223E+02  0.69600165997E+01  0.34581099740E+02  0.00000000000E+00 0.  1.
</event>
<event>
 7    1  0.2237500E-009  0.4778727E+02  0.7816164E-02  0.1312668E+00
        -11   -1    0    0    0    0  0.00000000000E+00  0.00000000000E+00  0.45593999997E+02  0.45594000000E+02  0.51100000000E-03 0.  1.
         11   -1    0    0    0    0 -0.00000000000E+00 -0.00000000000E+00 -0.45593999997E+02  0.45594000000E+02  0.51100000000E-03 0. -1.
    9900012    2    1    2    0    0 -0.11125349243E+01  0.34956262478E+01  0.43245416854E+02  0.47787271715E+02  0.20000003056E+02 0.  0.
         12    1    1    2    0    0  0.11125349243E+01 -0.34956262478E+01 -0.43245416854E+02  0.43400728285E+02  0.00000000000E+00 0. -1.
         11    1    3    3    0    0  0.37278325123E+00  0.25580580561E+01  0.85643159379E+01  0.89459564115E+01  0.51100000000E-03 0. -1.
        -11    1    3    3    0    0 -0.72021562033E+01 -0.27740271264E+01  0.72956972036E+01  0.10620427412E+02  0.51100000000E-03 0.  1.
        -12    1    3    3    0    0  0.57168380278E+01  0.37115953181E+01  0.27385403712E+02  0.28220887891E+02  0.00000000000E+00 0.  1.
</event>
<event>
 7    1  0.2237500E-009  0.4778727E+02  0.7816164E-02  0.1312668E+00
        -11   -1    0    0    0    0  0.00000000000E+00  0.00000000000E+00  0.45593999997E+02  0.45594000000E+02  0.51100000000E-03 0.  1.
         11   -1    0    0    0    0 -0.00000000000E+00 -0.00000000000E+00 -0.45593999997E+02  0.45594000000E+02  0.51100000000E-03 0. -1.
    9900012    2    1    2    0    0 -0.77016107842E+01  0.10715258123E+01  0.42698481861E+02  0.47787270404E+02  0.19999997080E+02 0.  0.
         12    1    1    2    0    0  0.77016107842E+01 -0.10715258123E+01 -0.42698481861E+02  0.43400729596E+02  0.00000000000E+00 0. -1.
         11    1    3    3    0    0 -0.40704251836E+01  0.83728034621E+01  0.10943367643E+02  0.14367654458E+02  0.51100000000E-03 0. -1.
        -11    1    3    3    0    0 -0.44204216703E+01 -0.41882825041E+01  0.12567443182E+02  0.13965044449E+02  0.51100000000E-03 0.  1.
         12    1    3    3    0    0  0.78923606978E+00 -0.31129951457E+01  0.19187671036E+02  0.19454571497E+02  0.00000000000E+00 0. -1.
</event>
<event>
 7    1  0.2397047E-009  0.4778730E+02  0.7816164E-02  0.1312668E+00
        -11   -1    0    0    0    0  0.00000000000E+00  0.00000000000E+00  0.45593999997E+02  0.45594000000E+02  0.51100000000E-03 0. -1.
         11   -1    0    0    0    0 -0.00000000000E+00 -0.00000000000E+00 -0.45593999997E+02  0.45594000000E+02  0.51100000000E-03 0.  1.
    9900012    2    1    2    0    0 -0.38427358985E+02  0.18156330942E+02  0.87924345660E+01  0.47787295197E+02  0.20000110121E+02 0.  0.
         12    1    1    2    0    0  0.38427358985E+02 -0.18156330942E+02 -0.87924345660E+01  0.43400704803E+02  0.00000000000E+00 0. -1.
         11    1    3    3    0    0 -0.63025264837E+01 -0.11959411327E+01 -0.72594412515E+00  0.64559360595E+01  0.51100000000E-03 0. -1.
        -11    1    3    3    0    0 -0.34591166791E+01  0.50004124430E+01 -0.31662788595E+01  0.68552851784E+01  0.51100000000E-03 0.  1.
        -12    1    3    3    0    0 -0.28665715822E+02  0.14351859632E+02  0.12684657551E+02  0.34476073959E+02  0.00000000000E+00 0.  1.
</event>
<event>
 7    1  0.2237500E-009  0.4778727E+02  0.7816164E-02  0.1312668E+00
        -11   -1    0    0    0    0  0.00000000000E+00  0.00000000000E+00  0.45593999997E+02  0.45594000000E+02  0.51100000000E-03 0.  1.
         11   -1    0    0    0    0 -0.00000000000E+00 -0.00000000000E+00 -0.45593999997E+02  0.45594000000E+02  0.51100000000E-03 0. -1.
    9900012    2    1    2    0    0 -0.14220383238E+02  0.51774844855E+01  0.40676746874E+02  0.47787269807E+02  0.19999994357E+02 0.  0.
         12    1    1    2    0    0  0.14220383238E+02 -0.51774844855E+01 -0.40676746874E+02  0.43400730193E+02  0.00000000000E+00 0. -1.
         11    1    3    3    0    0 -0.48497236084E+01 -0.74026003688E+01  0.13733682012E+02  0.16338063935E+02  0.51100000000E-03 0. -1.
        -11    1    3    3    0    0 -0.15136101922E+00  0.25546778135E+01  0.51358762041E+01  0.57381629058E+01  0.51100000000E-03 0.  1.
        -12    1    3    3    0    0 -0.92192986105E+01  0.10025407041E+02  0.21807188658E+02  0.25711042966E+02  0.00000000000E+00 0.  1.
</event>
<event>
 7    1  0.2237500E-009  0.4778727E+02  0.7816164E-02  0.1312668E+00
        -11   -1    0    0    0    0  0.00000000000E+00  0.00000000000E+00  0.45593999997E+02  0.45594000000E+02  0.51100000000E-03 0.  1.
         11   -1    0    0    0    0 -0.00000000000E+00 -0.00000000000E+00 -0.45593999997E+02  0.45594000000E+02  0.51100000000E-03 0. -1.
    9900012    2    1    2    0    0 -0.13814436221E+02  0.22161269100E+02  0.34665003455E+02  0.47787274652E+02  0.20000016446E+02 0.  0.
         12    1    1    2    0    0  0.13814436221E+02 -0.22161269100E+02 -0.34665003455E+02  0.43400725348E+02  0.00000000000E+00 0. -1.
         11    1    3    3    0    0 -0.12571315515E+02  0.12344211754E+02  0.94101621001E+01  0.19974200575E+02  0.51100000000E-03 0. -1.
        -11    1    3    3    0    0 -0.23281349272E+01  0.74436776505E+00  0.66636065749E+01  0.70977424900E+01  0.51100000000E-03 0.  1.
        -12    1    3    3    0    0  0.10850142210E+01  0.90726895812E+01  0.18591234780E+02  0.20715331587E+02  0.00000000000E+00 0.  1.
</event>
<event>
 7    1  0.2237500E-009  0.4778726E+02  0.7816164E-02  0.1312668E+00
        -11   -1    0    0    0    0  0.00000000000E+00  0.00000000000E+00  0.45593999997E+02  0.45594000000E+02  0.51100000000E-03 0.  1.
         11   -1    0    0    0    0 -0.00000000000E+00 -0.00000000000E+00 -0.45593999997E+02  0.45594000000E+02  0.51100000000E-03 0. -1.
    9900012    2    1    2    0    0 -0.17029021297E+02  0.15372745162E+02  0.36841757945E+02  0.47787262810E+02  0.19999962456E+02 0.  0.
         12    1    1    2    0    0  0.17029021297E+02 -0.15372745162E+02 -0.36841757945E+02  0.43400737190E+02  0.00000000000E+00 0. -1.
         11    1    3    3    0    0 -0.15081701012E+02  0.13148129381E+02  0.17207353323E+02  0.26389846916E+02  0.51100000000E-03 0. -1.
        -11    1    3    3    0    0  0.66896316708E+00  0.47906145417E+01  0.10862949710E+02  0.11891222648E+02  0.51100000000E-03 0.  1.
        -12    1    3    3    0    0 -0.26162834513E+01 -0.25659987602E+01  0.87714549123E+01  0.95061932451E+01  0.00000000000E+00 0.  1.
</event>
<event>
 7    1  0.2237500E-009  0.4778726E+02  0.7816164E-02  0.1312668E+00
        -11   -1    0    0    0    0  0.00000000000E+00  0.00000000000E+00  0.45593999997E+02  0.45594000000E+02  0.51100000000E-03 0. -1.
         11   -1    0    0    0    0 -0.00000000000E+00 -0.00000000000E+00 -0.45593999997E+02  0.45594000000E+02  0.51100000000E-03 0.  1.
    9900012    2    1    2    0    0  0.21660930728E+02 -0.17122712138E+02 -0.33484934137E+02  0.47787262620E+02  0.19999961589E+02 0.  0.
         12    1    1    2    0    0 -0.21660930728E+02  0.17122712138E+02  0.33484934137E+02  0.43400737380E+02  0.00000000000E+00 0. -1.
         11    1    3    3    0    0  0.13140641986E+02 -0.91621779659E+00 -0.80408728760E+01  0.15432808031E+02  0.51100000000E-03 0. -1.
        -11    1    3    3    0    0  0.32587295881E+01 -0.20294839183E+01 -0.10127780936E+02  0.10830977354E+02  0.51100000000E-03 0.  1.
         12    1    3    3    0    0  0.52615591544E+01 -0.14177010423E+02 -0.15316280326E+02  0.21523477235E+02  0.00000000000E+00 0. -1.
</event>
<event>
 7    1  0.2237500E-009  0.4778727E+02  0.7816164E-02  0.1312668E+00
        -11   -1    0    0    0    0  0.00000000000E+00  0.00000000000E+00  0.45593999997E+02  0.45594000000E+02  0.51100000000E-03 0.  1.
         11   -1    0    0    0    0 -0.00000000000E+00 -0.00000000000E+00 -0.45593999997E+02  0.45594000000E+02  0.51100000000E-03 0. -1.
    9900012    2    1    2    0    0 -0.14927007287E+02  0.18564482123E+02  0.36279029659E+02  0.47787268025E+02  0.19999986231E+02 0.  0.
         12    1    1    2    0    0  0.14927007287E+02 -0.18564482123E+02 -0.36279029659E+02  0.43400731975E+02  0.00000000000E+00 0. -1.
         11    1    3    3    0    0  0.13588254373E+01 -0.51027620863E+00  0.37155615784E+01  0.39890082078E+01  0.51100000000E-03 0. -1.
        -11    1    3    3    0    0 -0.68700704343E+00  0.65275365059E+01  0.17661827998E+02  0.18841997771E+02  0.51100000000E-03 0.  1.
         12    1    3    3    0    0 -0.15598825680E+02  0.12547221826E+02  0.14901640083E+02  0.24956262046E+02  0.00000000000E+00 0. -1.
</event>
<event>
 7    1  0.2237500E-009  0.4778726E+02  0.7816164E-02  0.1312668E+00
        -11   -1    0    0    0    0  0.00000000000E+00  0.00000000000E+00  0.45593999997E+02  0.45594000000E+02  0.51100000000E-03 0. -1.
         11   -1    0    0    0    0 -0.00000000000E+00 -0.00000000000E+00 -0.45593999997E+02  0.45594000000E+02  0.51100000000E-03 0.  1.
    9900012    2    1    2    0    0 -0.90647125672E+01 -0.29626593713E+02 -0.30392764755E+02  0.47787260163E+02  0.19999950387E+02 0.  0.
         12    1    1    2    0    0  0.90647125672E+01  0.29626593713E+02  0.30392764755E+02  0.43400739837E+02  0.00000000000E+00 0. -1.
         11    1    3    3    0    0 -0.16530799935E+01 -0.47720316294E+01  0.17194384355E+01  0.53349253164E+01  0.51100000000E-03 0. -1.
        -11    1    3    3    0    0 -0.13240718806E+01  0.69881750119E+00 -0.16381465489E+01  0.22192423531E+01  0.51100000000E-03 0.  1.
        -12    1    3    3    0    0 -0.60875606931E+01 -0.25553379585E+02 -0.30474056641E+02  0.40233092493E+02  0.00000000000E+00 0.  1.
</event>
<event>
 7    1  0.2768250E-009  0.4778728E+02  0.7816164E-02  0.1312668E+00
        -11   -1    0    0    0    0  0.00000000000E+00  0.00000000000E+00  0.45593999997E+02  0.45594000000E+02  0.51100000000E-03 0.  1.
         11   -1    0    0    0    0 -0.00000000000E+00 -0.00000000000E+00 -0.45593999997E+02  0.45594000000E+02  0.51100000000E-03 0. -1.
    9900012    2    1    2    0    0  0.40074219625E+02 -0.14760352620E+02  0.77338082503E+01  0.47787275604E+02  0.20000020789E+02 0.  0.
         12    1    1    2    0    0 -0.40074219625E+02  0.14760352620E+02 -0.77338082503E+01  0.43400724396E+02  0.00000000000E+00 0. -1.
         11    1    3    3    0    0 -0.15533112704E+00 -0.18577120074E+01 -0.25238830963E+01  0.31377074125E+01  0.51100000000E-03 0. -1.
        -11    1    3    3    0    0  0.61043626564E+01 -0.12962925272E-01 -0.15674193045E+01  0.63023975609E+01  0.51100000000E-03 0.  1.
        -12    1    3    3    0    0  0.34125188096E+02 -0.12889677688E+02  0.11825110651E+02  0.38347170631E+02  0.00000000000E+00 0.  1.
</event>
<event>
 7    1  0.2237500E-009  0.4778726E+02  0.7816164E-02  0.1312668E+00
        -11   -1    0    0    0    0  0.00000000000E+00  0.00000000000E+00  0.45593999997E+02  0.45594000000E+02  0.51100000000E-03 0.  1.
         11   -1    0    0    0    0 -0.00000000000E+00 -0.00000000000E+00 -0.45593999997E+02  0.45594000000E+02  0.51100000000E-03 0. -1.
    9900012    2    1    2    0    0  0.67545216036E+01  0.30698212064E+01  0.42761859876E+02  0.47787262398E+02  0.19999960579E+02 0.  0.
         12    1    1    2    0    0 -0.67545216036E+01 -0.30698212064E+01 -0.42761859876E+02  0.43400737602E+02  0.00000000000E+00 0. -1.
         11    1    3    3    0    0 -0.20466505791E+01  0.36574530109E+00  0.81065322072E+01  0.83688955607E+01  0.51100000000E-03 0. -1.
        -11    1    3    3    0    0  0.10973732673E+02  0.73477474907E+01  0.28474381110E+02  0.31387936884E+02  0.51100000000E-03 0.  1.
        -12    1    3    3    0    0 -0.21725604906E+01 -0.46436715854E+01  0.61809465583E+01  0.80304299533E+01  0.00000000000E+00 0.  1.
</event>
<event>
 7    1  0.2237500E-009  0.4778728E+02  0.7816164E-02  0.1312668E+00
        -11   -1    0    0    0    0  0.00000000000E+00  0.00000000000E+00  0.45593999997E+02  0.45594000000E+02  0.51100000000E-03 0.  1.
         11   -1    0    0    0    0 -0.00000000000E+00 -0.00000000000E+00 -0.45593999997E+02  0.45594000000E+02  0.51100000000E-03 0. -1.
    9900012    2    1    2    0    0  0.48551871235E+01 -0.26639560027E+02  0.33917300950E+02  0.47787282216E+02  0.20000050936E+02 0.  0.
         12    1    1    2    0    0 -0.48551871235E+01  0.26639560027E+02 -0.33917300950E+02  0.43400717784E+02  0.00000000000E+00 0. -1.
         11    1    3    3    0    0  0.30035872604E+01 -0.16656823237E+02  0.19499826166E+02  0.25820815586E+02  0.51100000000E-03 0.  1.
        -11    1    3    3    0    0  0.30531171937E+01 -0.10535315713E+02  0.43297441705E+01  0.11792416488E+02  0.51100000000E-03 0. -1.
        -12    1    3    3    0    0 -0.12015173306E+01  0.55257892313E+00  0.10087730614E+02  0.10174050142E+02  0.00000000000E+00 0.  1.
</event>
<event>
 7    1  0.2237500E-009  0.4778727E+02  0.7816164E-02  0.1312668E+00
        -11   -1    0    0    0    0  0.00000000000E+00  0.00000000000E+00  0.45593999997E+02  0.45594000000E+02  0.51100000000E-03 0. -1.
         11   -1    0    0    0    0 -0.00000000000E+00 -0.00000000000E+00 -0.45593999997E+02  0.45594000000E+02  0.51100000000E-03 0.  1.
    9900012    2    1    2    0    0 -0.29442448022E+01 -0.15745926532E+02 -0.40336341057E+02  0.47787272014E+02  0.20000004423E+02 0.  0.
         12    1    1    2    0    0  0.29442448022E+01  0.15745926532E+02  0.40336341057E+02  0.43400727986E+02  0.00000000000E+00 0. -1.
         11    1    3    3    0    0 -0.63438544032E+00  0.16441438936E+01 -0.14482448189E+01  0.22810233112E+01  0.51100000000E-03 0. -1.
        -11    1    3    3    0    0 -0.14008694429E+01 -0.14705161239E+01 -0.22675482853E+02  0.22766255198E+02  0.51100000000E-03 0.  1.
         12    1    3    3    0    0 -0.90898991894E+00 -0.15919554302E+02 -0.16212613385E+02  0.22739993505E+02  0.00000000000E+00 0. -1.
</event>
<event>
 7    1  0.2237500E-009  0.4778727E+02  0.7816164E-02  0.1312668E+00
        -11   -1    0    0    0    0  0.00000000000E+00  0.00000000000E+00  0.45593999997E+02  0.45594000000E+02  0.51100000000E-03 0.  1.
         11   -1    0    0    0    0 -0.00000000000E+00 -0.00000000000E+00 -0.45593999997E+02  0.45594000000E+02  0.51100000000E-03 0. -1.
    9900012    2    1    2    0    0  0.16659688247E+02  0.34307216524E+02  0.20714554734E+02  0.47787273095E+02  0.20000009348E+02 0.  0.
         12    1    1    2    0    0 -0.16659688247E+02 -0.34307216524E+02 -0.20714554734E+02  0.43400726905E+02  0.00000000000E+00 0. -1.
         11    1    3    3    0    0 -0.88868770400E+00 -0.10982550827E+01  0.25154055119E+01  0.28849948375E+01  0.51100000000E-03 0.  1.
        -11    1    3    3    0    0  0.25472825504E+01  0.33314871295E+01 -0.14125279204E+01  0.44252333580E+01  0.51100000000E-03 0. -1.
        -12    1    3    3    0    0  0.15001093401E+02  0.32073984477E+02  0.19611677143E+02  0.40477044899E+02  0.00000000000E+00 0.  1.
</event>
<event>
 7    1  0.2237500E-009  0.4778727E+02  0.7816164E-02  0.1312668E+00
        -11   -1    0    0    0    0  0.00000000000E+00  0.00000000000E+00  0.45593999997E+02  0.45594000000E+02  0.51100000000E-03 0. -1.
         11   -1    0    0    0    0 -0.00000000000E+00 -0.00000000000E+00 -0.45593999997E+02  0.45594000000E+02  0.51100000000E-03 0.  1.
    9900012    2    1    2    0    0 -0.32944202079E+02 -0.84278798569E+01  0.26968010222E+02  0.47787272070E+02  0.20000004675E+02 0.  0.
         12    1    1    2    0    0  0.32944202079E+02  0.84278798569E+01 -0.26968010222E+02  0.43400727930E+02  0.00000000000E+00 0. -1.
         11    1    3    3    0    0 -0.23454666156E+00 -0.45795886207E+00 -0.13313348377E+01  0.14273020587E+01  0.51100000000E-03 0. -1.
        -11    1    3    3    0    0 -0.13740079905E+02 -0.48178994015E+01  0.34935326615E+01  0.14973534024E+02  0.51100000000E-03 0.  1.
         12    1    3    3    0    0 -0.18969575513E+02 -0.31520215933E+01  0.24805812398E+02  0.31386435988E+02  0.00000000000E+00 0. -1.
</event>
<event>
 7    1  0.2237500E-009  0.4778728E+02  0.7816164E-02  0.1312668E+00
        -11   -1    0    0    0    0  0.00000000000E+00  0.00000000000E+00  0.45593999997E+02  0.45594000000E+02  0.51100000000E-03 0.  1.
         11   -1    0    0    0    0 -0.00000000000E+00 -0.00000000000E+00 -0.45593999997E+02  0.45594000000E+02  0.51100000000E-03 0. -1.
    9900012    2    1    2    0    0  0.30042768518E+02 -0.31252444475E+02 -0.20830577830E+01  0.47787281623E+02  0.20000048233E+02 0.  0.
         12    1    1    2    0    0 -0.30042768518E+02  0.31252444475E+02  0.20830577830E+01  0.43400718377E+02  0.00000000000E+00 0. -1.
         11    1    3    3    0    0  0.23298908019E+02 -0.13806935681E+02 -0.39607506951E+01  0.27370753262E+02  0.51100000000E-03 0.  1.
        -11    1    3    3    0    0 -0.59330600717E+00 -0.11587442845E+01 -0.17576061925E+01  0.21872082946E+01  0.51100000000E-03 0. -1.
        -12    1    3    3    0    0  0.73371665058E+01 -0.16286764510E+02  0.36352991046E+01  0.18229320067E+02  0.00000000000E+00 0.  1.
</event>
<event>
 7    1  0.2237500E-009  0.4778727E+02  0.7816164E-02  0.1312668E+00
        -11   -1    0    0    0    0  0.00000000000E+00  0.00000000000E+00  0.45593999997E+02  0.45594000000E+02  0.51100000000E-03 0.  1.
         11   -1    0    0    0    0 -0.00000000000E+00 -0.00000000000E+00 -0.45593999997E+02  0.45594000000E+02  0.51100000000E-03 0. -1.
    9900012    2    1    2    0    0  0.17984288082E+02 -0.37887241906E+02 -0.11168964834E+02  0.47787268526E+02  0.19999988516E+02 0.  0.
         12    1    1    2    0    0 -0.17984288082E+02  0.37887241906E+02  0.11168964834E+02  0.43400731474E+02  0.00000000000E+00 0. -1.
         11    1    3    3    0    0  0.16844875748E+00 -0.23518228428E+01 -0.16881168840E+00  0.23638831010E+01  0.51100000000E-03 0. -1.
        -11    1    3    3    0    0  0.39962132797E+01 -0.14440514541E+02 -0.13386426392E+02  0.20092152513E+02  0.51100000000E-03 0.  1.
         12    1    3    3    0    0  0.13819626045E+02 -0.21094904522E+02  0.23862732472E+01  0.25331232912E+02  0.00000000000E+00 0. -1.
</event>
<event>
 7    1  0.2902352E-009  0.4778727E+02  0.7816164E-02  0.1312668E+00
        -11   -1    0    0    0    0  0.00000000000E+00  0.00000000000E+00  0.45593999997E+02  0.45594000000E+02  0.51100000000E-03 0.  1.
         11   -1    0    0    0    0 -0.00000000000E+00 -0.00000000000E+00 -0.45593999997E+02  0.45594000000E+02  0.51100000000E-03 0. -1.
    9900012    2    1    2    0    0 -0.24213841608E+02  0.18683834150E+02  0.30793300974E+02  0.47787272255E+02  0.20000005518E+02 0.  0.
         12    1    1    2    0    0  0.24213841608E+02 -0.18683834150E+02 -0.30793300974E+02  0.43400727745E+02  0.00000000000E+00 0. -1.
         11    1    3    3    0    0 -0.20091312519E+01  0.22720973136E+01 -0.18000349310E+01  0.35269194213E+01  0.51100000000E-03 0. -1.
        -11    1    3    3    0    0 -0.11708068800E+02  0.17071967686E+01  0.11713764349E+02  0.16649494626E+02  0.51100000000E-03 0.  1.
        -12    1    3    3    0    0 -0.10496641556E+02  0.14704540068E+02  0.20879571556E+02  0.27610858207E+02  0.00000000000E+00 0.  1.
</event>
<event>
 7    1  0.2237500E-009  0.4778725E+02  0.7816164E-02  0.1312668E+00
        -11   -1    0    0    0    0  0.00000000000E+00  0.00000000000E+00  0.45593999997E+02  0.45594000000E+02  0.51100000000E-03 0.  1.
         11   -1    0    0    0    0 -0.00000000000E+00 -0.00000000000E+00 -0.45593999997E+02  0.45594000000E+02  0.51100000000E-03 0. -1.
    9900012    2    1    2    0    0 -0.33664493081E+02  0.71612181565E+00  0.27382727188E+02  0.47787254925E+02  0.19999926505E+02 0.  0.
         12    1    1    2    0    0  0.33664493081E+02 -0.71612181565E+00 -0.27382727188E+02  0.43400745075E+02  0.00000000000E+00 0. -1.
         11    1    3    3    0    0 -0.11235777613E+02 -0.19119833140E+01 -0.32941163730E+00  0.11402056439E+02  0.51100000000E-03 0. -1.
        -11    1    3    3    0    0 -0.79118775706E+01 -0.31451174076E+00  0.53271290997E+01  0.95433237938E+01  0.51100000000E-03 0.  1.
         12    1    3    3    0    0 -0.14516837897E+02  0.29426168704E+01  0.22385009725E+02  0.26841874692E+02  0.00000000000E+00 0. -1.
</event>
<event>
 7    1  0.2237500E-009  0.4778727E+02  0.7816164E-02  0.1312668E+00
        -11   -1    0    0    0    0  0.00000000000E+00  0.00000000000E+00  0.45593999997E+02  0.45594000000E+02  0.51100000000E-03 0.  1.
         11   -1    0    0    0    0 -0.00000000000E+00 -0.00000000000E+00 -0.45593999997E+02  0.45594000000E+02  0.51100000000E-03 0. -1.
    9900012    2    1    2    0    0  0.51843403788E+01  0.27224437457E+02  0.33400243136E+02  0.47787267039E+02  0.19999981735E+02 0.  0.
         12    1    1    2    0    0 -0.51843403788E+01 -0.27224437457E+02 -0.33400243136E+02  0.43400732961E+02  0.00000000000E+00 0. -1.
         11    1    3    3    0    0  0.80150495011E+00  0.20894810821E+01  0.98549459347E+00  0.24453100483E+01  0.51100000000E-03 0. -1.
        -11    1    3    3    0    0  0.77885862176E+01  0.19008231070E+02  0.12074852469E+02  0.23828071388E+02  0.51100000000E-03 0.  1.
         12    1    3    3    0    0 -0.34057507889E+01  0.61267253052E+01  0.20339896074E+02  0.21513885602E+02  0.00000000000E+00 0. -1.
</event>
<event>
 7    1  0.2237500E-009  0.4778727E+02  0.7816164E-02  0.1312668E+00
        -11   -1    0    0    0    0  0.00000000000E+00  0.00000000000E+00  0.45593999997E+02  0.45594000000E+02  0.51100000000E-03 0. -1.
         11   -1    0    0    0    0 -0.00000000000E+00 -0.00000000000E+00 -0.45593999997E+02  0.45594000000E+02  0.51100000000E-03 0.  1.
    9900012    2    1    2    0    0 -0.17920533999E+02  0.39104761490E+02  0.57702307182E+01  0.47787268756E+02  0.19999989565E+02 0.  0.
         12    1    1    2    0    0  0.17920533999E+02 -0.39104761490E+02 -0.57702307182E+01  0.43400731244E+02  0.00000000000E+00 0. -1.
         11    1    3    3    0    0 -0.25913263517E+01  0.12302639207E+02 -0.37734887806E+00  0.12578246943E+02  0.51100000000E-03 0. -1.
        -11    1    3    3    0    0  0.13486362235E+01  0.10778213534E+02  0.52472162610E+01  0.12063249371E+02  0.51100000000E-03 0.  1.
         12    1    3    3    0    0 -0.16677843871E+02  0.16023908749E+02  0.90036333527E+00  0.23145772442E+02  0.00000000000E+00 0. -1.
</event>
<event>
 7    1  0.2237500E-009  0.4778727E+02  0.7816164E-02  0.1312668E+00
        -11   -1    0    0    0    0  0.00000000000E+00  0.00000000000E+00  0.45593999997E+02  0.45594000000E+02  0.51100000000E-03 0.  1.
         11   -1    0    0    0    0 -0.00000000000E+00 -0.00000000000E+00 -0.45593999997E+02  0.45594000000E+02  0.51100000000E-03 0. -1.
    9900012    2    1    2    0    0  0.13657488075E+02 -0.15748762157E+02  0.38066687982E+02  0.47787271620E+02  0.20000002622E+02 0.  0.
         12    1    1    2    0    0 -0.13657488075E+02  0.15748762157E+02 -0.38066687982E+02  0.43400728380E+02  0.00000000000E+00 0. -1.
         11    1    3    3    0    0 -0.76070013675E+00 -0.75479763714E+01  0.81348844711E+01  0.11123262005E+02  0.51100000000E-03 0. -1.
        -11    1    3    3    0    0  0.11671617573E+02 -0.11641749837E+02  0.25857183682E+02  0.30665142170E+02  0.51100000000E-03 0.  1.
         12    1    3    3    0    0  0.27465706385E+01  0.34409640516E+01  0.40746198290E+01  0.59988674453E+01  0.00000000000E+00 0. -1.
</event>
<event>
 7    1  0.2237500E-009  0.4778726E+02  0.7816164E-02  0.1312668E+00
        -11   -1    0    0    0    0  0.00000000000E+00  0.00000000000E+00  0.45593999997E+02  0.45594000000E+02  0.51100000000E-03 0. -1.
         11   -1    0    0    0    0 -0.00000000000E+00 -0.00000000000E+00 -0.45593999997E+02  0.45594000000E+02  0.51100000000E-03 0.  1.
    9900012    2    1    2    0    0  0.40250390367E+02  0.15035354417E+02 -0.61211600913E+01  0.47787257978E+02  0.19999940425E+02 0.  0.
         12    1    1    2    0    0 -0.40250390367E+02 -0.15035354417E+02  0.61211600913E+01  0.43400742022E+02  0.00000000000E+00 0. -1.
         11    1    3    3    0    0  0.24081857558E+01  0.42157462785E+01  0.17911794082E+01  0.51749588648E+01  0.51100000000E-03 0. -1.
        -11    1    3    3    0    0  0.59069143742E+01  0.76305812161E+01 -0.43990198216E+00  0.96597578196E+01  0.51100000000E-03 0.  1.
        -12    1    3    3    0    0  0.31935290237E+02  0.31890269229E+01 -0.74724375174E+01  0.32952541294E+02  0.00000000000E+00 0.  1.
</event>
<event>
 7    1  0.2237500E-009  0.4778725E+02  0.7816164E-02  0.1312668E+00
        -11   -1    0    0    0    0  0.00000000000E+00  0.00000000000E+00  0.45593999997E+02  0.45594000000E+02  0.51100000000E-03 0. -1.
         11   -1    0    0    0    0 -0.00000000000E+00 -0.00000000000E+00 -0.45593999997E+02  0.45594000000E+02  0.51100000000E-03 0.  1.
    9900012    2    1    2    0    0  0.32042360829E+02 -0.93073263153E+00 -0.29258256379E+02  0.47787254419E+02  0.19999924197E+02 0.  0.
         12    1    1    2    0    0 -0.32042360829E+02  0.93073263153E+00  0.29258256379E+02  0.43400745581E+02  0.00000000000E+00 0. -1.
         11    1    3    3    0    0  0.58621714344E+01  0.27214586201E+01 -0.10299217286E+02  0.12159163948E+02  0.51100000000E-03 0. -1.
        -11    1    3    3    0    0  0.12034578765E+02  0.50579353173E+01 -0.51776295593E+01  0.14043562363E+02  0.51100000000E-03 0.  1.
         12    1    3    3    0    0  0.14145610629E+02 -0.87101265688E+01 -0.13781409533E+02  0.21584528107E+02  0.00000000000E+00 0. -1.
</event>
<event>
 7    1  0.2237500E-009  0.4778727E+02  0.7816164E-02  0.1312668E+00
        -11   -1    0    0    0    0  0.00000000000E+00  0.00000000000E+00  0.45593999997E+02  0.45594000000E+02  0.51100000000E-03 0. -1.
         11   -1    0    0    0    0 -0.00000000000E+00 -0.00000000000E+00 -0.45593999997E+02  0.45594000000E+02  0.51100000000E-03 0.  1.
    9900012    2    1    2    0    0  0.69440523217E+01  0.19767171401E+02 -0.38008713523E+02  0.47787271533E+02  0.20000002228E+02 0.  0.
         12    1    1    2    0    0 -0.69440523217E+01 -0.19767171401E+02  0.38008713523E+02  0.43400728467E+02  0.00000000000E+00 0. -1.
         11    1    3    3    0    0  0.41204667433E+01  0.13168237608E+02 -0.78657212537E+01  0.15882389586E+02  0.51100000000E-03 0. -1.
        -11    1    3    3    0    0 -0.55190582783E+00 -0.84870798065E-01  0.24367600974E+00  0.60924654616E+00  0.51100000000E-03 0.  1.
        -12    1    3    3    0    0  0.33754914062E+01  0.66838045910E+01 -0.30386668279E+02  0.31295635400E+02  0.00000000000E+00 0.  1.
</event>
<event>
 7    1  0.2237500E-009  0.4778727E+02  0.7816164E-02  0.1312668E+00
        -11   -1    0    0    0    0  0.00000000000E+00  0.00000000000E+00  0.45593999997E+02  0.45594000000E+02  0.51100000000E-03 0. -1.
         11   -1    0    0    0    0 -0.00000000000E+00 -0.00000000000E+00 -0.45593999997E+02  0.45594000000E+02  0.51100000000E-03 0.  1.
    9900012    2    1    2    0    0 -0.24834681893E+02  0.22135218145E+02  0.27872818285E+02  0.47787270672E+02  0.19999998301E+02 0.  0.
         12    1    1    2    0    0  0.24834681893E+02 -0.22135218145E+02 -0.27872818285E+02  0.43400729328E+02  0.00000000000E+00 0. -1.
         11    1    3    3    0    0 -0.13068589321E+02  0.97652869396E+01  0.25850846324E+02  0.30568204262E+02  0.51100000000E-03 0. -1.
        -11    1    3    3    0    0 -0.46979471430E+01  0.52389757803E+01  0.39719810502E+00  0.70480735794E+01  0.51100000000E-03 0.  1.
         12    1    3    3    0    0 -0.70681454290E+01  0.71309554247E+01  0.16247738562E+01  0.10170992830E+02  0.00000000000E+00 0. -1.
</event>
<event>
 7    1  0.2237500E-009  0.4778727E+02  0.7816164E-02  0.1312668E+00
        -11   -1    0    0    0    0  0.00000000000E+00  0.00000000000E+00  0.45593999997E+02  0.45594000000E+02  0.51100000000E-03 0.  1.
         11   -1    0    0    0    0 -0.00000000000E+00 -0.00000000000E+00 -0.45593999997E+02  0.45594000000E+02  0.51100000000E-03 0. -1.
    9900012    2    1    2    0    0 -0.98619362137E+01 -0.79847481506E+00  0.42257873799E+02  0.47787271366E+02  0.20000001468E+02 0.  0.
         12    1    1    2    0    0  0.98619362137E+01  0.79847481506E+00 -0.42257873799E+02  0.43400728634E+02  0.00000000000E+00 0. -1.
         11    1    3    3    0    0 -0.18873273496E+01 -0.10464613629E+01 -0.27628091200E+00  0.21756418162E+01  0.51100000000E-03 0. -1.
        -11    1    3    3    0    0 -0.18805399174E+01  0.69228334526E+01  0.14901087514E+02  0.16537970334E+02  0.51100000000E-03 0.  1.
        -12    1    3    3    0    0 -0.60940689467E+01 -0.66748469047E+01  0.27633067197E+02  0.29073659217E+02  0.00000000000E+00 0.  1.
</event>
<event>
 7    1  0.2237500E-009  0.4778727E+02  0.7816164E-02  0.1312668E+00
        -11   -1    0    0    0    0  0.00000000000E+00  0.00000000000E+00  0.45593999997E+02  0.45594000000E+02  0.51100000000E-03 0. -1.
         11   -1    0    0    0    0 -0.00000000000E+00 -0.00000000000E+00 -0.45593999997E+02  0.45594000000E+02  0.51100000000E-03 0.  1.
    9900012    2    1    2    0    0  0.25562008076E+02 -0.32557765968E+02 -0.13046038312E+02  0.47787268470E+02  0.19999988263E+02 0.  0.
         12    1    1    2    0    0 -0.25562008076E+02  0.32557765968E+02  0.13046038312E+02  0.43400731530E+02  0.00000000000E+00 0. -1.
         11    1    3    3    0    0 -0.86207429410E+00  0.29968142182E+00  0.24008564065E+00  0.94372793701E+00  0.51100000000E-03 0. -1.
        -11    1    3    3    0    0 -0.75487407727E+00 -0.10312738847E+01 -0.36904338727E+01  0.39054658017E+01  0.51100000000E-03 0.  1.
        -12    1    3    3    0    0  0.27178956447E+02 -0.31826173505E+02 -0.95956900797E+01  0.42938074731E+02  0.00000000000E+00 0.  1.
</event>
<event>
 7    1  0.2237500E-009  0.4778727E+02  0.7816164E-02  0.1312668E+00
        -11   -1    0    0    0    0  0.00000000000E+00  0.00000000000E+00  0.45593999997E+02  0.45594000000E+02  0.51100000000E-03 0.  1.
         11   -1    0    0    0    0 -0.00000000000E+00 -0.00000000000E+00 -0.45593999997E+02  0.45594000000E+02  0.51100000000E-03 0. -1.
    9900012    2    1    2    0    0 -0.15879277110E+02 -0.30185768792E+02  0.26838242116E+02  0.47787270525E+02  0.19999997632E+02 0.  0.
         12    1    1    2    0    0  0.15879277110E+02  0.30185768792E+02 -0.26838242116E+02  0.43400729475E+02  0.00000000000E+00 0. -1.
         11    1    3    3    0    0 -0.89569255052E+00 -0.49907821853E+01 -0.39396981261E+00  0.50858022415E+01  0.51100000000E-03 0. -1.
        -11    1    3    3    0    0 -0.58268420557E+01 -0.30069518787E+01  0.21334529313E+00  0.65604393464E+01  0.51100000000E-03 0.  1.
        -12    1    3    3    0    0 -0.91567425033E+01 -0.22188034728E+02  0.27018866636E+02  0.36141028937E+02  0.00000000000E+00 0.  1.
</event>
<event>
 7    1  0.2237500E-009  0.4778727E+02  0.7816164E-02  0.1312668E+00
        -11   -1    0    0    0    0  0.00000000000E+00  0.00000000000E+00  0.45593999997E+02  0.45594000000E+02  0.51100000000E-03 0.  1.
         11   -1    0    0    0    0 -0.00000000000E+00 -0.00000000000E+00 -0.45593999997E+02  0.45594000000E+02  0.51100000000E-03 0. -1.
    9900012    2    1    2    0    0  0.28673017480E+02 -0.21157256463E+02  0.24776026919E+02  0.47787274864E+02  0.20000017416E+02 0.  0.
         12    1    1    2    0    0 -0.28673017480E+02  0.21157256463E+02 -0.24776026919E+02  0.43400725136E+02  0.00000000000E+00 0. -1.
         11    1    3    3    0    0 -0.70936800827E+00 -0.25153821026E+01  0.21551487713E+01  0.33874793846E+01  0.51100000000E-03 0. -1.
        -11    1    3    3    0    0  0.16367905364E+02 -0.16786048004E+02  0.80829169368E+01  0.24799461286E+02  0.51100000000E-03 0.  1.
         12    1    3    3    0    0  0.13014480124E+02 -0.18558263565E+01  0.14537961210E+02  0.19600334194E+02  0.00000000000E+00 0. -1.
</event>
<event>
 7    1  0.2237500E-009  0.4778727E+02  0.7816164E-02  0.1312668E+00
        -11   -1    0    0    0    0  0.00000000000E+00  0.00000000000E+00  0.45593999997E+02  0.45594000000E+02  0.51100000000E-03 0.  1.
         11   -1    0    0    0    0 -0.00000000000E+00 -0.00000000000E+00 -0.45593999997E+02  0.45594000000E+02  0.51100000000E-03 0. -1.
    9900012    2    1    2    0    0 -0.11182490766E+02 -0.37514144968E+02  0.18742034097E+02  0.47787274033E+02  0.20000013625E+02 0.  0.
         12    1    1    2    0    0  0.11182490766E+02  0.37514144968E+02 -0.18742034097E+02  0.43400725967E+02  0.00000000000E+00 0. -1.
         11    1    3    3    0    0 -0.61804156152E+01 -0.26282288446E+01  0.60686180829E+00  0.67433971818E+01  0.51100000000E-03 0. -1.
        -11    1    3    3    0    0  0.73643676350E+00 -0.18414584218E+01  0.43529898441E+01  0.47834954865E+01  0.51100000000E-03 0.  1.
         12    1    3    3    0    0 -0.57385119147E+01 -0.33044457701E+02  0.13782182445E+02  0.36260381364E+02  0.00000000000E+00 0. -1.
</event>
<event>
 7    1  0.2237500E-009  0.4778727E+02  0.7816164E-02  0.1312668E+00
        -11   -1    0    0    0    0  0.00000000000E+00  0.00000000000E+00  0.45593999997E+02  0.45594000000E+02  0.51100000000E-03 0.  1.
         11   -1    0    0    0    0 -0.00000000000E+00 -0.00000000000E+00 -0.45593999997E+02  0.45594000000E+02  0.51100000000E-03 0. -1.
    9900012    2    1    2    0    0 -0.39653216308E+01 -0.22033517055E+02  0.37180956485E+02  0.47787272188E+02  0.20000005216E+02 0.  0.
         12    1    1    2    0    0  0.39653216308E+01  0.22033517055E+02 -0.37180956485E+02  0.43400727812E+02  0.00000000000E+00 0. -1.
         11    1    3    3    0    0 -0.50549404278E+01  0.18403257784E+00  0.13576961284E+01  0.52373304036E+01  0.51100000000E-03 0. -1.
        -11    1    3    3    0    0 -0.23100795316E+01 -0.71347803173E+01  0.11738877244E+02  0.13929924509E+02  0.51100000000E-03 0.  1.
         12    1    3    3    0    0  0.33996983286E+01 -0.15082769316E+02  0.24084383112E+02  0.28620017276E+02  0.00000000000E+00 0. -1.
</event>
<event>
 7    1  0.2237500E-009  0.4778727E+02  0.7816164E-02  0.1312668E+00
        -11   -1    0    0    0    0  0.00000000000E+00  0.00000000000E+00  0.45593999997E+02  0.45594000000E+02  0.51100000000E-03 0.  1.
         11   -1    0    0    0    0 -0.00000000000E+00 -0.00000000000E+00 -0.45593999997E+02  0.45594000000E+02  0.51100000000E-03 0. -1.
    9900012    2    1    2    0    0  0.10413449581E+02 -0.40601228193E+02  0.11257158126E+02  0.47787271066E+02  0.20000000097E+02 0.  0.
         12    1    1    2    0    0 -0.10413449581E+02  0.40601228193E+02 -0.11257158126E+02  0.43400728934E+02  0.00000000000E+00 0. -1.
         11    1    3    3    0    0  0.82067410979E+00 -0.11239404014E+02  0.77347908150E+01  0.13668383145E+02  0.51100000000E-03 0. -1.
        -11    1    3    3    0    0 -0.10735066555E+01 -0.18443797434E+02  0.37592766396E+01  0.18853600225E+02  0.51100000000E-03 0.  1.
         12    1    3    3    0    0  0.10666282126E+02 -0.10918026745E+02 -0.23690932893E+00  0.15265287696E+02  0.00000000000E+00 0. -1.
</event>
<event>
 7    1  0.2237500E-009  0.4778727E+02  0.7816164E-02  0.1312668E+00
        -11   -1    0    0    0    0  0.00000000000E+00  0.00000000000E+00  0.45593999997E+02  0.45594000000E+02  0.51100000000E-03 0.  1.
         11   -1    0    0    0    0 -0.00000000000E+00 -0.00000000000E+00 -0.45593999997E+02  0.45594000000E+02  0.51100000000E-03 0. -1.
    9900012    2    1    2    0    0 -0.15593295230E+00 -0.37391016426E+02  0.22034309102E+02  0.47787271871E+02  0.20000003770E+02 0.  0.
         12    1    1    2    0    0  0.15593295230E+00  0.37391016426E+02 -0.22034309102E+02  0.43400728129E+02  0.00000000000E+00 0. -1.
         11    1    3    3    0    0 -0.46845734885E+01 -0.59902914759E+01  0.12714105606E+01  0.77100781974E+01  0.51100000000E-03 0. -1.
        -11    1    3    3    0    0 -0.17708234674E+01 -0.18782093210E+02  0.63339782782E+01  0.19900304575E+02  0.51100000000E-03 0.  1.
        -12    1    3    3    0    0  0.62994640036E+01 -0.12618631741E+02  0.14428920263E+02  0.20176889099E+02  0.00000000000E+00 0.  1.
</event>
<event>
 7    1  0.2237500E-009  0.4778725E+02  0.7816164E-02  0.1312668E+00
        -11   -1    0    0    0    0  0.00000000000E+00  0.00000000000E+00  0.45593999997E+02  0.45594000000E+02  0.51100000000E-03 0.  1.
         11   -1    0    0    0    0 -0.00000000000E+00 -0.00000000000E+00 -0.45593999997E+02  0.45594000000E+02  0.51100000000E-03 0. -1.
    9900012    2    1    2    0    0 -0.13293304024E+02 -0.34826804251E+02  0.22226273060E+02  0.47787246086E+02  0.19999886204E+02 0.  0.
         12    1    1    2    0    0  0.13293304024E+02  0.34826804251E+02 -0.22226273060E+02  0.43400753914E+02  0.00000000000E+00 0. -1.
         11    1    3    3    0    0 -0.30116849824E+01 -0.14607313213E+01 -0.11936621544E+01  0.35537039869E+01  0.51100000000E-03 0. -1.
        -11    1    3    3    0    0 -0.12224047230E+02 -0.17178363841E+02  0.11321481782E+02  0.23931140067E+02  0.51100000000E-03 0.  1.
         12    1    3    3    0    0  0.19424281885E+01 -0.16187709089E+02  0.12098453432E+02  0.20302402032E+02  0.00000000000E+00 0. -1.
</event>
<event>
 7    1  0.2237500E-009  0.4778727E+02  0.7816164E-02  0.1312668E+00
        -11   -1    0    0    0    0  0.00000000000E+00  0.00000000000E+00  0.45593999997E+02  0.45594000000E+02  0.51100000000E-03 0.  1.
         11   -1    0    0    0    0 -0.00000000000E+00 -0.00000000000E+00 -0.45593999997E+02  0.45594000000E+02  0.51100000000E-03 0. -1.
    9900012    2    1    2    0    0 -0.19146688014E+02  0.37359730999E+02  0.11012643619E+02  0.47787268650E+02  0.19999989083E+02 0.  0.
         12    1    1    2    0    0  0.19146688014E+02 -0.37359730999E+02 -0.11012643619E+02  0.43400731350E+02  0.00000000000E+00 0. -1.
         11    1    3    3    0    0 -0.17860380036E+02  0.25597001266E+02  0.31428587928E+01  0.31370004949E+02  0.51100000000E-03 0.  1.
        -11    1    3    3    0    0  0.23447631575E+01  0.11061893856E+01 -0.14648103286E+00  0.25967337514E+01  0.51100000000E-03 0. -1.
        -12    1    3    3    0    0 -0.36310711355E+01  0.10656540347E+02  0.80162658590E+01  0.13820529950E+02  0.00000000000E+00 0.  1.
</event>
<event>
 7    1  0.2237500E-009  0.4778727E+02  0.7816164E-02  0.1312668E+00
        -11   -1    0    0    0    0  0.00000000000E+00  0.00000000000E+00  0.45593999997E+02  0.45594000000E+02  0.51100000000E-03 0.  1.
         11   -1    0    0    0    0 -0.00000000000E+00 -0.00000000000E+00 -0.45593999997E+02  0.45594000000E+02  0.51100000000E-03 0. -1.
    9900012    2    1    2    0    0 -0.23419577401E+01  0.90157952749E+01  0.42389310011E+02  0.47787274964E+02  0.20000017870E+02 0.  0.
         12    1    1    2    0    0  0.23419577401E+01 -0.90157952749E+01 -0.42389310011E+02  0.43400725036E+02  0.00000000000E+00 0. -1.
         11    1    3    3    0    0  0.13419413118E+01  0.64602747727E+00  0.14352085651E+02  0.14429155234E+02  0.51100000000E-03 0. -1.
        -11    1    3    3    0    0 -0.98002005524E+00  0.34346118890E+01  0.27471188162E+02  0.27702403820E+02  0.51100000000E-03 0.  1.
        -12    1    3    3    0    0 -0.27038789967E+01  0.49351559086E+01  0.56603619802E+00  0.56557159094E+01  0.00000000000E+00 0.  1.
</event>
<event>
 7    1  0.2237500E-009  0.4778728E+02  0.7816164E-02  0.1312668E+00
        -11   -1    0    0    0    0  0.00000000000E+00  0.00000000000E+00  0.45593999997E+02  0.45594000000E+02  0.51100000000E-03 0. -1.
         11   -1    0    0    0    0 -0.00000000000E+00 -0.00000000000E+00 -0.45593999997E+02  0.45594000000E+02  0.51100000000E-03 0.  1.
    9900012    2    1    2    0    0  0.25560741827E+02 -0.27174303634E+02 -0.22177206397E+02  0.47787276685E+02  0.20000025716E+02 0.  0.
         12    1    1    2    0    0 -0.25560741827E+02  0.27174303634E+02  0.22177206397E+02  0.43400723315E+02  0.00000000000E+00 0. -1.
         11    1    3    3    0    0  0.23438837175E+02 -0.17336148261E+02 -0.20168374924E+02  0.35449745726E+02  0.51100000000E-03 0.  1.
        -11    1    3    3    0    0  0.10081995784E+01  0.21335867571E+00 -0.19713267125E+01  0.22244364641E+01  0.51100000000E-03 0. -1.
        -12    1    3    3    0    0  0.11137050732E+01 -0.10051514049E+02 -0.37504760001E-01  0.10113094495E+02  0.00000000000E+00 0.  1.
</event>
<event>
 7    1  0.2237500E-009  0.4778727E+02  0.7816164E-02  0.1312668E+00
        -11   -1    0    0    0    0  0.00000000000E+00  0.00000000000E+00  0.45593999997E+02  0.45594000000E+02  0.51100000000E-03 0.  1.
         11   -1    0    0    0    0 -0.00000000000E+00 -0.00000000000E+00 -0.45593999997E+02  0.45594000000E+02  0.51100000000E-03 0. -1.
    9900012    2    1    2    0    0 -0.39909824074E+02  0.12659066681E+02 -0.11427038629E+02  0.47787271450E+02  0.20000001848E+02 0.  0.
         12    1    1    2    0    0  0.39909824074E+02 -0.12659066681E+02  0.11427038629E+02  0.43400728550E+02  0.00000000000E+00 0. -1.
         11    1    3    3    0    0 -0.12381965667E+02 -0.19913318745E+00 -0.31382371314E+01  0.12775024867E+02  0.51100000000E-03 0. -1.
        -11    1    3    3    0    0 -0.28136118613E+02  0.14860168584E+02 -0.84241827041E+01  0.32915537903E+02  0.51100000000E-03 0.  1.
         12    1    3    3    0    0  0.60826020614E+00 -0.20019687152E+01  0.13538120647E+00  0.20967086794E+01  0.00000000000E+00 0. -1.
</event>
<event>
 7    1  0.2237500E-009  0.4778727E+02  0.7816164E-02  0.1312668E+00
        -11   -1    0    0    0    0  0.00000000000E+00  0.00000000000E+00  0.45593999997E+02  0.45594000000E+02  0.51100000000E-03 0. -1.
         11   -1    0    0    0    0 -0.00000000000E+00 -0.00000000000E+00 -0.45593999997E+02  0.45594000000E+02  0.51100000000E-03 0.  1.
    9900012    2    1    2    0    0  0.67347904053E+01  0.10833989753E+01 -0.42861312582E+02  0.47787271073E+02  0.20000000131E+02 0.  0.
         12    1    1    2    0    0 -0.67347904053E+01 -0.10833989753E+01  0.42861312582E+02  0.43400728927E+02  0.00000000000E+00 0. -1.
         11    1    3    3    0    0  0.56041634816E+00  0.15528590324E+01  0.28159967022E+00  0.16747346934E+01  0.51100000000E-03 0. -1.
        -11    1    3    3    0    0  0.68400460588E+01 -0.54076534791E+01 -0.37857299629E+02  0.38848475925E+02  0.51100000000E-03 0.  1.
        -12    1    3    3    0    0 -0.66567200162E+00  0.49381934220E+01 -0.52856126230E+01  0.72640604546E+01  0.00000000000E+00 0.  1.
</event>
<event>
 7    1  0.2237500E-009  0.4778727E+02  0.7816164E-02  0.1312668E+00
        -11   -1    0    0    0    0  0.00000000000E+00  0.00000000000E+00  0.45593999997E+02  0.45594000000E+02  0.51100000000E-03 0. -1.
         11   -1    0    0    0    0 -0.00000000000E+00 -0.00000000000E+00 -0.45593999997E+02  0.45594000000E+02  0.51100000000E-03 0.  1.
    9900012    2    1    2    0    0  0.70814422187E+01 -0.42539769044E+02 -0.48830979275E+01  0.47787269366E+02  0.19999992346E+02 0.  0.
         12    1    1    2    0    0 -0.70814422187E+01  0.42539769044E+02  0.48830979275E+01  0.43400730634E+02  0.00000000000E+00 0. -1.
         11    1    3    3    0    0 -0.22747081097E+01 -0.62120711441E+01 -0.29416714806E+01  0.72399969782E+01  0.51100000000E-03 0. -1.
        -11    1    3    3    0    0 -0.29081393656E+01 -0.38095328471E+01  0.26738644706E+01  0.54881113829E+01  0.51100000000E-03 0.  1.
         12    1    3    3    0    0  0.12264289694E+02 -0.32518165053E+02 -0.46152909175E+01  0.35059161005E+02  0.00000000000E+00 0. -1.
</event>
<event>
 7    1  0.2237500E-009  0.4778727E+02  0.7816164E-02  0.1312668E+00
        -11   -1    0    0    0    0  0.00000000000E+00  0.00000000000E+00  0.45593999997E+02  0.45594000000E+02  0.51100000000E-03 0.  1.
         11   -1    0    0    0    0 -0.00000000000E+00 -0.00000000000E+00 -0.45593999997E+02  0.45594000000E+02  0.51100000000E-03 0. -1.
    9900012    2    1    2    0    0  0.10887052252E+01 -0.70329118121E+01  0.42813267429E+02  0.47787274251E+02  0.20000014619E+02 0.  0.
         12    1    1    2    0    0 -0.10887052252E+01  0.70329118121E+01 -0.42813267429E+02  0.43400725749E+02  0.00000000000E+00 0. -1.
         11    1    3    3    0    0 -0.16432394596E+01 -0.38708156419E+01  0.31333174474E+01  0.52441518039E+01  0.51100000000E-03 0. -1.
        -11    1    3    3    0    0  0.56629159748E+01  0.21531919553E+01  0.67991719886E+01  0.91067882882E+01  0.51100000000E-03 0.  1.
        -12    1    3    3    0    0 -0.29309712899E+01 -0.53152881255E+01  0.32880777993E+02  0.33436334159E+02  0.00000000000E+00 0.  1.
</event>
<event>
 7    1  0.2237500E-009  0.4778726E+02  0.7816164E-02  0.1312668E+00
        -11   -1    0    0    0    0  0.00000000000E+00  0.00000000000E+00  0.45593999997E+02  0.45594000000E+02  0.51100000000E-03 0. -1.
         11   -1    0    0    0    0 -0.00000000000E+00 -0.00000000000E+00 -0.45593999997E+02  0.45594000000E+02  0.51100000000E-03 0.  1.
    9900012    2    1    2    0    0 -0.42057167856E+02 -0.10714555569E+02  0.12986517820E+00  0.47787263439E+02  0.19999965323E+02 0.  0.
         12    1    1    2    0    0  0.42057167856E+02  0.10714555569E+02 -0.12986517820E+00  0.43400736561E+02  0.00000000000E+00 0. -1.
         11    1    3    3    0    0 -0.16764848350E+02 -0.60933846056E+01  0.32147933782E+01  0.18125241319E+02  0.51100000000E-03 0.  1.
        -11    1    3    3    0    0 -0.68380049064E+01 -0.77340766217E+01  0.13976490481E+01  0.10417661706E+02  0.51100000000E-03 0. -1.
         12    1    3    3    0    0 -0.18454314599E+02  0.31129056579E+01 -0.44825772482E+01  0.19244360414E+02  0.00000000000E+00 0. -1.
</event>
<event>
 7    1  0.2237500E-009  0.4778727E+02  0.7816164E-02  0.1312668E+00
        -11   -1    0    0    0    0  0.00000000000E+00  0.00000000000E+00  0.45593999997E+02  0.45594000000E+02  0.51100000000E-03 0.  1.
         11   -1    0    0    0    0 -0.00000000000E+00 -0.00000000000E+00 -0.45593999997E+02  0.45594000000E+02  0.51100000000E-03 0. -1.
    9900012    2    1    2    0    0 -0.16293062660E+02 -0.29269612529E+02  0.27594376172E+02  0.47787266080E+02  0.19999977365E+02 0.  0.
         12    1    1    2    0    0  0.16293062660E+02  0.29269612529E+02 -0.27594376172E+02  0.43400733920E+02  0.00000000000E+00 0. -1.
         11    1    3    3    0    0 -0.44999551679E+00 -0.25863117227E+01  0.39146686115E+01  0.47133995047E+01  0.51100000000E-03 0. -1.
        -11    1    3    3    0    0 -0.79650688296E+01 -0.39149910211E+01 -0.56603158693E+00  0.88932484602E+01  0.51100000000E-03 0.  1.
         12    1    3    3    0    0 -0.78779983138E+01 -0.22768309786E+02  0.24245739147E+02  0.34180618115E+02  0.00000000000E+00 0. -1.
</event>
<event>
 7    1  0.2237500E-009  0.4778727E+02  0.7816164E-02  0.1312668E+00
        -11   -1    0    0    0    0  0.00000000000E+00  0.00000000000E+00  0.45593999997E+02  0.45594000000E+02  0.51100000000E-03 0. -1.
         11   -1    0    0    0    0 -0.00000000000E+00 -0.00000000000E+00 -0.45593999997E+02  0.45594000000E+02  0.51100000000E-03 0.  1.
    9900012    2    1    2    0    0 -0.18145812678E+02  0.25327666109E+02 -0.30213604594E+02  0.47787273153E+02  0.20000009612E+02 0.  0.
         12    1    1    2    0    0  0.18145812678E+02 -0.25327666109E+02  0.30213604594E+02  0.43400726847E+02  0.00000000000E+00 0. -1.
         11    1    3    3    0    0  0.54943657390E-01  0.44545369706E+01  0.16787924670E+01  0.47606998264E+01  0.51100000000E-03 0. -1.
        -11    1    3    3    0    0 -0.51211725269E+01  0.30140418117E+01 -0.30822195470E+01  0.66940969286E+01  0.51100000000E-03 0.  1.
        -12    1    3    3    0    0 -0.13079583809E+02  0.17859087327E+02 -0.28810177515E+02  0.36332476398E+02  0.00000000000E+00 0.  1.
</event>
<event>
 7    1  0.2237500E-009  0.4778725E+02  0.7816164E-02  0.1312668E+00
        -11   -1    0    0    0    0  0.00000000000E+00  0.00000000000E+00  0.45593999997E+02  0.45594000000E+02  0.51100000000E-03 0.  1.
         11   -1    0    0    0    0 -0.00000000000E+00 -0.00000000000E+00 -0.45593999997E+02  0.45594000000E+02  0.51100000000E-03 0. -1.
    9900012    2    1    2    0    0  0.21608770359E+02 -0.32902785833E+02  0.18278201971E+02  0.47787251858E+02  0.19999912519E+02 0.  0.
         12    1    1    2    0    0 -0.21608770359E+02  0.32902785833E+02 -0.18278201971E+02  0.43400748142E+02  0.00000000000E+00 0. -1.
         11    1    3    3    0    0 -0.38974180827E+00 -0.19601319715E+01 -0.14414147698E+00  0.20036948494E+01  0.51100000000E-03 0. -1.
        -11    1    3    3    0    0  0.17871276560E+02 -0.98963778367E+01  0.80126297062E+01  0.21943633592E+02  0.51100000000E-03 0.  1.
        -12    1    3    3    0    0  0.41272356073E+01 -0.21046276025E+02  0.10409713742E+02  0.23839923416E+02  0.00000000000E+00 0.  1.
</event>
<event>
 7    1  0.2237500E-009  0.4778727E+02  0.7816164E-02  0.1312668E+00
        -11   -1    0    0    0    0  0.00000000000E+00  0.00000000000E+00  0.45593999997E+02  0.45594000000E+02  0.51100000000E-03 0.  1.
         11   -1    0    0    0    0 -0.00000000000E+00 -0.00000000000E+00 -0.45593999997E+02  0.45594000000E+02  0.51100000000E-03 0. -1.
    9900012    2    1    2    0    0  0.25985900886E+02  0.19337985903E+02  0.28885957207E+02  0.47787271119E+02  0.20000000341E+02 0.  0.
         12    1    1    2    0    0 -0.25985900886E+02 -0.19337985903E+02 -0.28885957207E+02  0.43400728881E+02  0.00000000000E+00 0. -1.
         11    1    3    3    0    0 -0.17922644250E+01  0.25193553315E+01  0.51475013625E+01  0.60046759774E+01  0.51100000000E-03 0. -1.
        -11    1    3    3    0    0  0.75279613692E+01  0.10972091863E+02  0.90679532512E+01  0.16102322151E+02  0.51100000000E-03 0.  1.
        -12    1    3    3    0    0  0.20250203942E+02  0.58465387078E+01  0.14670502593E+02  0.25680272991E+02  0.00000000000E+00 0.  1.
</event>
<event>
 7    1  0.2237500E-009  0.4778728E+02  0.7816164E-02  0.1312668E+00
        -11   -1    0    0    0    0  0.00000000000E+00  0.00000000000E+00  0.45593999997E+02  0.45594000000E+02  0.51100000000E-03 0. -1.
         11   -1    0    0    0    0 -0.00000000000E+00 -0.00000000000E+00 -0.45593999997E+02  0.45594000000E+02  0.51100000000E-03 0.  1.
    9900012    2    1    2    0    0 -0.24664723940E+01  0.11262445403E+02 -0.41841328269E+02  0.47787275193E+02  0.20000018913E+02 0.  0.
         12    1    1    2    0    0  0.24664723940E+01 -0.11262445403E+02  0.41841328269E+02  0.43400724807E+02  0.00000000000E+00 0. -1.
         11    1    3    3    0    0 -0.30500246983E+01  0.23535966901E+01 -0.97093890178E+00  0.39730077589E+01  0.51100000000E-03 0. -1.
        -11    1    3    3    0    0 -0.40086734157E+01  0.74909168961E+01 -0.12983605909E+02  0.15516356568E+02  0.51100000000E-03 0.  1.
         12    1    3    3    0    0  0.45922257200E+01  0.14179318164E+01 -0.27886783458E+02  0.28297910865E+02  0.00000000000E+00 0. -1.
</event>
<event>
 7    1  0.2237500E-009  0.4778727E+02  0.7816164E-02  0.1312668E+00
        -11   -1    0    0    0    0  0.00000000000E+00  0.00000000000E+00  0.45593999997E+02  0.45594000000E+02  0.51100000000E-03 0.  1.
         11   -1    0    0    0    0 -0.00000000000E+00 -0.00000000000E+00 -0.45593999997E+02  0.45594000000E+02  0.51100000000E-03 0. -1.
    9900012    2    1    2    0    0 -0.42577187562E+02 -0.82412763601E+01 -0.16993616342E+01  0.47787269975E+02  0.19999995125E+02 0.  0.
         12    1    1    2    0    0  0.42577187562E+02  0.82412763601E+01  0.16993616342E+01  0.43400730025E+02  0.00000000000E+00 0. -1.
         11    1    3    3    0    0 -0.84568436296E+01 -0.34346403662E+01 -0.74608031432E+01  0.11788916083E+02  0.51100000000E-03 0. -1.
        -11    1    3    3    0    0 -0.64146867701E+01 -0.44743743460E+01  0.15347725260E+01  0.79701793652E+01  0.51100000000E-03 0.  1.
        -12    1    3    3    0    0 -0.27705657162E+02 -0.33226164788E+00  0.42266689830E+01  0.28028174526E+02  0.00000000000E+00 0.  1.
</event>
<event>
 7    1  0.2237500E-009  0.4778727E+02  0.7816164E-02  0.1312668E+00
        -11   -1    0    0    0    0  0.00000000000E+00  0.00000000000E+00  0.45593999997E+02  0.45594000000E+02  0.51100000000E-03 0. -1.
         11   -1    0    0    0    0 -0.00000000000E+00 -0.00000000000E+00 -0.45593999997E+02  0.45594000000E+02  0.51100000000E-03 0.  1.
    9900012    2    1    2    0    0 -0.11029696555E+02 -0.33408788547E+02 -0.25413020600E+02  0.47787274495E+02  0.20000015734E+02 0.  0.
         12    1    1    2    0    0  0.11029696555E+02  0.33408788547E+02  0.25413020600E+02  0.43400725505E+02  0.00000000000E+00 0. -1.
         11    1    3    3    0    0  0.13143718857E+01 -0.12197556733E+02 -0.11708305671E+02  0.16958549044E+02  0.51100000000E-03 0. -1.
        -11    1    3    3    0    0  0.11550715486E+01 -0.80990482688E+01 -0.72568012068E+01  0.10935718411E+02  0.51100000000E-03 0.  1.
        -12    1    3    3    0    0 -0.13499139989E+02 -0.13112183545E+02 -0.64479137224E+01  0.19893007041E+02  0.00000000000E+00 0.  1.
</event>
<event>
 7    1  0.2237500E-009  0.4778727E+02  0.7816164E-02  0.1312668E+00
        -11   -1    0    0    0    0  0.00000000000E+00  0.00000000000E+00  0.45593999997E+02  0.45594000000E+02  0.51100000000E-03 0.  1.
         11   -1    0    0    0    0 -0.00000000000E+00 -0.00000000000E+00 -0.45593999997E+02  0.45594000000E+02  0.51100000000E-03 0. -1.
    9900012    2    1    2    0    0 -0.10371002577E+01 -0.10333646097E+02  0.42139805489E+02  0.47787273909E+02  0.20000013058E+02 0.  0.
         12    1    1    2    0    0  0.10371002577E+01  0.10333646097E+02 -0.42139805489E+02  0.43400726091E+02  0.00000000000E+00 0. -1.
         11    1    3    3    0    0  0.23428629381E+01 -0.85914501839E+01  0.17554881049E+02  0.19684406821E+02  0.51100000000E-03 0. -1.
        -11    1    3    3    0    0  0.35003787259E+01 -0.48691753824E+01  0.95798469814E+01  0.11301990470E+02  0.51100000000E-03 0.  1.
         12    1    3    3    0    0 -0.68803419217E+01  0.31269794696E+01  0.15005077459E+02  0.16800876617E+02  0.00000000000E+00 0. -1.
</event>
<event>
 7    1  0.2237500E-009  0.4778727E+02  0.7816164E-02  0.1312668E+00
        -11   -1    0    0    0    0  0.00000000000E+00  0.00000000000E+00  0.45593999997E+02  0.45594000000E+02  0.51100000000E-03 0.  1.
         11   -1    0    0    0    0 -0.00000000000E+00 -0.00000000000E+00 -0.45593999997E+02  0.45594000000E+02  0.51100000000E-03 0. -1.
    9900012    2    1    2    0    0 -0.79208821899E+01 -0.38697602835E+02  0.17982727640E+02  0.47787270361E+02  0.19999996885E+02 0.  0.
         12    1    1    2    0    0  0.79208821899E+01  0.38697602835E+02 -0.17982727640E+02  0.43400729639E+02  0.00000000000E+00 0. -1.
         11    1    3    3    0    0 -0.62444931951E+01 -0.37845816764E+02  0.14118654557E+02  0.40873413713E+02  0.51100000000E-03 0. -1.
        -11    1    3    3    0    0 -0.17428096392E+01 -0.29453650358E+01  0.32775435977E+01  0.47386551814E+01  0.51100000000E-03 0.  1.
         12    1    3    3    0    0  0.66420644390E-01  0.20935789650E+01  0.58652948470E+00  0.21752014668E+01  0.00000000000E+00 0. -1.
</event>
<event>
 7    1  0.2237500E-009  0.4778727E+02  0.7816164E-02  0.1312668E+00
        -11   -1    0    0    0    0  0.00000000000E+00  0.00000000000E+00  0.45593999997E+02  0.45594000000E+02  0.51100000000E-03 0.  1.
         11   -1    0    0    0    0 -0.00000000000E+00 -0.00000000000E+00 -0.45593999997E+02  0.45594000000E+02  0.51100000000E-03 0. -1.
    9900012    2    1    2    0    0  0.21738071598E+02 -0.37419456591E+02  0.32960735075E+01  0.47787267415E+02  0.19999983450E+02 0.  0.
         12    1    1    2    0    0 -0.21738071598E+02  0.37419456591E+02 -0.32960735075E+01  0.43400732585E+02  0.00000000000E+00 0. -1.
         11    1    3    3    0    0  0.52499073391E+01 -0.90011800324E+01  0.55986203415E+01  0.11829087836E+02  0.51100000000E-03 0. -1.
        -11    1    3    3    0    0  0.17545038601E+02 -0.27542061740E+02  0.69299142121E+00  0.32663033873E+02  0.51100000000E-03 0.  1.
         12    1    3    3    0    0 -0.10568743418E+01 -0.87621481858E+00 -0.29955382552E+01  0.32951457056E+01  0.00000000000E+00 0. -1.
</event>
<event>
 7    1  0.2237500E-009  0.4778727E+02  0.7816164E-02  0.1312668E+00
        -11   -1    0    0    0    0  0.00000000000E+00  0.00000000000E+00  0.45593999997E+02  0.45594000000E+02  0.51100000000E-03 0. -1.
         11   -1    0    0    0    0 -0.00000000000E+00 -0.00000000000E+00 -0.45593999997E+02  0.45594000000E+02  0.51100000000E-03 0.  1.
    9900012    2    1    2    0    0  0.31284213753E+02  0.28421285735E+02  0.98565769512E+01  0.47787267032E+02  0.19999981707E+02 0.  0.
         12    1    1    2    0    0 -0.31284213753E+02 -0.28421285735E+02 -0.98565769512E+01  0.43400732968E+02  0.00000000000E+00 0. -1.
         11    1    3    3    0    0  0.43502481311E+01 -0.63732525116E+00  0.37464648934E+01  0.57764038758E+01  0.51100000000E-03 0. -1.
        -11    1    3    3    0    0  0.10975853732E+01  0.24561361111E+01 -0.27881434120E+01  0.38744086252E+01  0.51100000000E-03 0.  1.
        -12    1    3    3    0    0  0.25836380248E+02  0.26602474875E+02  0.88982554699E+01  0.38136454531E+02  0.00000000000E+00 0.  1.
</event>
<event>
 7    1  0.2237500E-009  0.4778727E+02  0.7816164E-02  0.1312668E+00
        -11   -1    0    0    0    0  0.00000000000E+00  0.00000000000E+00  0.45593999997E+02  0.45594000000E+02  0.51100000000E-03 0.  1.
         11   -1    0    0    0    0 -0.00000000000E+00 -0.00000000000E+00 -0.45593999997E+02  0.45594000000E+02  0.51100000000E-03 0. -1.
    9900012    2    1    2    0    0  0.20984967693E+02 -0.60319039391E+01  0.37508272934E+02  0.47787271058E+02  0.20000000062E+02 0.  0.
         12    1    1    2    0    0 -0.20984967693E+02  0.60319039391E+01 -0.37508272934E+02  0.43400728942E+02  0.00000000000E+00 0. -1.
         11    1    3    3    0    0  0.11724021541E+02  0.12547005257E+01  0.10853813149E+02  0.16025985606E+02  0.51100000000E-03 0. -1.
        -11    1    3    3    0    0 -0.13122008120E+01  0.14148128208E+00 -0.71053728916E+00  0.14989167504E+01  0.51100000000E-03 0.  1.
        -12    1    3    3    0    0  0.10573146964E+02 -0.74280857469E+01  0.27364997074E+02  0.30262368701E+02  0.00000000000E+00 0.  1.
</event>
<event>
 7    1  0.2237500E-009  0.4778727E+02  0.7816164E-02  0.1312668E+00
        -11   -1    0    0    0    0  0.00000000000E+00  0.00000000000E+00  0.45593999997E+02  0.45594000000E+02  0.51100000000E-03 0. -1.
         11   -1    0    0    0    0 -0.00000000000E+00 -0.00000000000E+00 -0.45593999997E+02  0.45594000000E+02  0.51100000000E-03 0.  1.
    9900012    2    1    2    0    0 -0.50189023782E+01  0.37450158079E+02 -0.21352268788E+02  0.47787273006E+02  0.20000008943E+02 0.  0.
         12    1    1    2    0    0  0.50189023782E+01 -0.37450158079E+02  0.21352268788E+02  0.43400726994E+02  0.00000000000E+00 0. -1.
         11    1    3    3    0    0  0.32350345696E+01  0.84353219151E+01 -0.23987889029E+01  0.93474217268E+01  0.51100000000E-03 0. -1.
        -11    1    3    3    0    0 -0.34126467114E-01  0.22560039799E+02 -0.15730721000E+02  0.27502947911E+02  0.51100000000E-03 0.  1.
         12    1    3    3    0    0 -0.82198104807E+01  0.64547963650E+01 -0.32227588851E+01  0.10936903368E+02  0.00000000000E+00 0. -1.
</event>
<event>
 7    1  0.2237500E-009  0.4778727E+02  0.7816164E-02  0.1312668E+00
        -11   -1    0    0    0    0  0.00000000000E+00  0.00000000000E+00  0.45593999997E+02  0.45594000000E+02  0.51100000000E-03 0. -1.
         11   -1    0    0    0    0 -0.00000000000E+00 -0.00000000000E+00 -0.45593999997E+02  0.45594000000E+02  0.51100000000E-03 0.  1.
    9900012    2    1    2    0    0  0.37010280166E+02 -0.19490149024E+02 -0.11575691112E+02  0.47787269918E+02  0.19999994863E+02 0.  0.
         12    1    1    2    0    0 -0.37010280166E+02  0.19490149024E+02  0.11575691112E+02  0.43400730082E+02  0.00000000000E+00 0. -1.
         11    1    3    3    0    0  0.64048718825E+00  0.10805742147E+01  0.61269194559E+00  0.13975894079E+01  0.51100000000E-03 0. -1.
        -11    1    3    3    0    0  0.18927620133E+02 -0.96404699986E+01 -0.14437263845E+02  0.25683225134E+02  0.51100000000E-03 0.  1.
        -12    1    3    3    0    0  0.17442172845E+02 -0.10930253240E+02  0.22488807868E+01  0.20706455376E+02  0.00000000000E+00 0.  1.
</event>
<event>
 7    1  0.2237500E-009  0.4778727E+02  0.7816164E-02  0.1312668E+00
        -11   -1    0    0    0    0  0.00000000000E+00  0.00000000000E+00  0.45593999997E+02  0.45594000000E+02  0.51100000000E-03 0. -1.
         11   -1    0    0    0    0 -0.00000000000E+00 -0.00000000000E+00 -0.45593999997E+02  0.45594000000E+02  0.51100000000E-03 0.  1.
    9900012    2    1    2    0    0  0.33190324291E+02  0.19492884991E+02 -0.20051261039E+02  0.47787271192E+02  0.20000000673E+02 0.  0.
         12    1    1    2    0    0 -0.33190324291E+02 -0.19492884991E+02  0.20051261039E+02  0.43400728808E+02  0.00000000000E+00 0. -1.
         11    1    3    3    0    0  0.42186585128E+00 -0.11184487366E+01 -0.41321566643E+01  0.43015831193E+01  0.51100000000E-03 0. -1.
        -11    1    3    3    0    0  0.18670100296E+02  0.18199584129E+02 -0.11663923309E+02  0.28562993799E+02  0.51100000000E-03 0.  1.
         12    1    3    3    0    0  0.14098358144E+02  0.24117495982E+01 -0.42551810652E+01  0.14922694274E+02  0.00000000000E+00 0. -1.
</event>
<event>
 7    1  0.2237500E-009  0.4778727E+02  0.7816164E-02  0.1312668E+00
        -11   -1    0    0    0    0  0.00000000000E+00  0.00000000000E+00  0.45593999997E+02  0.45594000000E+02  0.51100000000E-03 0.  1.
         11   -1    0    0    0    0 -0.00000000000E+00 -0.00000000000E+00 -0.45593999997E+02  0.45594000000E+02  0.51100000000E-03 0. -1.
    9900012    2    1    2    0    0  0.22570143798E+02 -0.30891891469E+02  0.20491528692E+02  0.47787273074E+02  0.20000009251E+02 0.  0.
         12    1    1    2    0    0 -0.22570143798E+02  0.30891891469E+02 -0.20491528692E+02  0.43400726926E+02  0.00000000000E+00 0. -1.
         11    1    3    3    0    0 -0.13595549647E+01 -0.21640206770E+01  0.14203896587E+01  0.29238471636E+01  0.51100000000E-03 0. -1.
        -11    1    3    3    0    0  0.13650184080E+02 -0.65302104040E+01  0.25510356854E+01  0.15345323609E+02  0.51100000000E-03 0.  1.
        -12    1    3    3    0    0  0.10279514683E+02 -0.22197660388E+02  0.16520103348E+02  0.29518102301E+02  0.00000000000E+00 0.  1.
</event>
<event>
 7    1  0.2237500E-009  0.4778726E+02  0.7816164E-02  0.1312668E+00
        -11   -1    0    0    0    0  0.00000000000E+00  0.00000000000E+00  0.45593999997E+02  0.45594000000E+02  0.51100000000E-03 0. -1.
         11   -1    0    0    0    0 -0.00000000000E+00 -0.00000000000E+00 -0.45593999997E+02  0.45594000000E+02  0.51100000000E-03 0.  1.
    9900012    2    1    2    0    0  0.33545420259E+02  0.18126062793E+02 -0.20731002360E+02  0.47787264619E+02  0.19999970705E+02 0.  0.
         12    1    1    2    0    0 -0.33545420259E+02 -0.18126062793E+02  0.20731002360E+02  0.43400735381E+02  0.00000000000E+00 0. -1.
         11    1    3    3    0    0  0.60395881285E+01 -0.10510486464E+01 -0.86228781057E+01  0.10579950619E+02  0.51100000000E-03 0. -1.
        -11    1    3    3    0    0  0.27785370744E+01 -0.12982795575E+01 -0.13210821294E+01  0.33393197417E+01  0.51100000000E-03 0.  1.
        -12    1    3    3    0    0  0.24727295057E+02  0.20475390997E+02 -0.10787042125E+02  0.33867994258E+02  0.00000000000E+00 0.  1.
</event>
<event>
 7    1  0.2237500E-009  0.4778727E+02  0.7816164E-02  0.1312668E+00
        -11   -1    0    0    0    0  0.00000000000E+00  0.00000000000E+00  0.45593999997E+02  0.45594000000E+02  0.51100000000E-03 0.  1.
         11   -1    0    0    0    0 -0.00000000000E+00 -0.00000000000E+00 -0.45593999997E+02  0.45594000000E+02  0.51100000000E-03 0. -1.
    9900012    2    1    2    0    0 -0.29923034717E+02  0.31394176710E+02 -0.16250108217E+01  0.47787274221E+02  0.20000014483E+02 0.  0.
         12    1    1    2    0    0  0.29923034717E+02 -0.31394176710E+02  0.16250108217E+01  0.43400725779E+02  0.00000000000E+00 0. -1.
         11    1    3    3    0    0 -0.17384470082E+02  0.66501594970E+01  0.47970239921E+01  0.19221234633E+02  0.51100000000E-03 0. -1.
        -11    1    3    3    0    0 -0.65049631522E+01  0.11772542142E+02 -0.41843738351E+01  0.14086031335E+02  0.51100000000E-03 0.  1.
         12    1    3    3    0    0 -0.60336014829E+01  0.12971475070E+02 -0.22376609788E+01  0.14480008253E+02  0.00000000000E+00 0. -1.
</event>
<event>
 7    1  0.2237500E-009  0.4778726E+02  0.7816164E-02  0.1312668E+00
        -11   -1    0    0    0    0  0.00000000000E+00  0.00000000000E+00  0.45593999997E+02  0.45594000000E+02  0.51100000000E-03 0.  1.
         11   -1    0    0    0    0 -0.00000000000E+00 -0.00000000000E+00 -0.45593999997E+02  0.45594000000E+02  0.51100000000E-03 0. -1.
    9900012    2    1    2    0    0  0.11577869564E+02  0.41169407296E+02  0.73930494454E+01  0.47787258753E+02  0.19999943957E+02 0.  0.
         12    1    1    2    0    0 -0.11577869564E+02 -0.41169407296E+02 -0.73930494454E+01  0.43400741247E+02  0.00000000000E+00 0. -1.
         11    1    3    3    0    0  0.44040509982E+01  0.13621384802E+02  0.92955854682E+01  0.17068851706E+02  0.51100000000E-03 0.  1.
        -11    1    3    3    0    0  0.80142289687E+01  0.21270713194E+02  0.26987907332E+01  0.22890054116E+02  0.51100000000E-03 0. -1.
         12    1    3    3    0    0 -0.84041040269E+00  0.62773092997E+01 -0.46013267560E+01  0.78283529305E+01  0.00000000000E+00 0. -1.
</event>
<event>
 7    1  0.2237500E-009  0.4778727E+02  0.7816164E-02  0.1312668E+00
        -11   -1    0    0    0    0  0.00000000000E+00  0.00000000000E+00  0.45593999997E+02  0.45594000000E+02  0.51100000000E-03 0.  1.
         11   -1    0    0    0    0 -0.00000000000E+00 -0.00000000000E+00 -0.45593999997E+02  0.45594000000E+02  0.51100000000E-03 0. -1.
    9900012    2    1    2    0    0 -0.37638536494E+02 -0.20522825341E+02  0.67658888868E+01  0.47787273717E+02  0.20000012187E+02 0.  0.
         12    1    1    2    0    0  0.37638536494E+02  0.20522825341E+02 -0.67658888868E+01  0.43400726283E+02  0.00000000000E+00 0. -1.
         11    1    3    3    0    0  0.45169764892E+00 -0.14024737185E+00 -0.10907707769E+01  0.11888991716E+01  0.51100000000E-03 0. -1.
        -11    1    3    3    0    0 -0.51768182526E+01 -0.68593866756E+01 -0.34524125802E+01  0.92611978529E+01  0.51100000000E-03 0.  1.
        -12    1    3    3    0    0 -0.32913415891E+02 -0.13523191294E+02  0.11309072244E+02  0.37337176693E+02  0.00000000000E+00 0.  1.
</event>
<event>
 7    1  0.2237500E-009  0.4778727E+02  0.7816164E-02  0.1312668E+00
        -11   -1    0    0    0    0  0.00000000000E+00  0.00000000000E+00  0.45593999997E+02  0.45594000000E+02  0.51100000000E-03 0.  1.
         11   -1    0    0    0    0 -0.00000000000E+00 -0.00000000000E+00 -0.45593999997E+02  0.45594000000E+02  0.51100000000E-03 0. -1.
    9900012    2    1    2    0    0 -0.21264751107E+02  0.32216477057E+02  0.19837648516E+02  0.47787270372E+02  0.19999996933E+02 0.  0.
         12    1    1    2    0    0  0.21264751107E+02 -0.32216477057E+02 -0.19837648516E+02  0.43400729628E+02  0.00000000000E+00 0. -1.
         11    1    3    3    0    0 -0.51271645995E+01  0.10489197405E+02  0.51118369087E+01  0.12745271902E+02  0.51100000000E-03 0. -1.
        -11    1    3    3    0    0 -0.13693494685E+02  0.16646504503E+02  0.18376548451E+02  0.28325173293E+02  0.51100000000E-03 0.  1.
         12    1    3    3    0    0 -0.24440918227E+01  0.50807751491E+01 -0.36507368431E+01  0.67168251765E+01  0.00000000000E+00 0. -1.
</event>
<event>
 7    1  0.2237500E-009  0.4778727E+02  0.7816164E-02  0.1312668E+00
        -11   -1    0    0    0    0  0.00000000000E+00  0.00000000000E+00  0.45593999997E+02  0.45594000000E+02  0.51100000000E-03 0.  1.
         11   -1    0    0    0    0 -0.00000000000E+00 -0.00000000000E+00 -0.45593999997E+02  0.45594000000E+02  0.51100000000E-03 0. -1.
    9900012    2    1    2    0    0 -0.97927154443E+01  0.26940327722E+02  0.32587492388E+02  0.47787271969E+02  0.20000004214E+02 0.  0.
         12    1    1    2    0    0  0.97927154443E+01 -0.26940327722E+02 -0.32587492388E+02  0.43400728031E+02  0.00000000000E+00 0. -1.
         11    1    3    3    0    0 -0.38992838906E+01  0.60874631300E+01  0.48982089915E+01  0.87323578605E+01  0.51100000000E-03 0. -1.
        -11    1    3    3    0    0  0.11499224718E+01  0.14127487285E+02  0.62175680022E+01  0.15477931735E+02  0.51100000000E-03 0.  1.
         12    1    3    3    0    0 -0.70433540255E+01  0.67253773069E+01  0.21471715394E+02  0.23576982373E+02  0.00000000000E+00 0. -1.
</event>
<event>
 7    1  0.2237500E-009  0.4778727E+02  0.7816164E-02  0.1312668E+00
        -11   -1    0    0    0    0  0.00000000000E+00  0.00000000000E+00  0.45593999997E+02  0.45594000000E+02  0.51100000000E-03 0.  1.
         11   -1    0    0    0    0 -0.00000000000E+00 -0.00000000000E+00 -0.45593999997E+02  0.45594000000E+02  0.51100000000E-03 0. -1.
    9900012    2    1    2    0    0 -0.98056701076E+01 -0.39333587484E+02  0.15502944910E+02  0.47787267616E+02  0.19999984368E+02 0.  0.
         12    1    1    2    0    0  0.98056701076E+01  0.39333587484E+02 -0.15502944910E+02  0.43400732384E+02  0.00000000000E+00 0. -1.
         11    1    3    3    0    0 -0.29460352327E+01 -0.10011717757E+02 -0.12945348381E+00  0.10436971519E+02  0.51100000000E-03 0. -1.
        -11    1    3    3    0    0 -0.11475960704E+02 -0.24213302836E+02  0.10571910819E+02  0.28805329489E+02  0.51100000000E-03 0.  1.
         12    1    3    3    0    0  0.46163258287E+01 -0.51085668903E+01  0.50604875749E+01  0.85449666076E+01  0.00000000000E+00 0. -1.
</event>
<event>
 7    1  0.2237500E-009  0.4778727E+02  0.7816164E-02  0.1312668E+00
        -11   -1    0    0    0    0  0.00000000000E+00  0.00000000000E+00  0.45593999997E+02  0.45594000000E+02  0.51100000000E-03 0. -1.
         11   -1    0    0    0    0 -0.00000000000E+00 -0.00000000000E+00 -0.45593999997E+02  0.45594000000E+02  0.51100000000E-03 0.  1.
    9900012    2    1    2    0    0  0.25275179742E+02  0.27804273724E+02  0.21718907355E+02  0.47787270916E+02  0.19999999414E+02 0.  0.
         12    1    1    2    0    0 -0.25275179742E+02 -0.27804273724E+02 -0.21718907355E+02  0.43400729084E+02  0.00000000000E+00 0. -1.
         11    1    3    3    0    0 -0.16668227413E+00  0.39421648032E+01  0.42648739735E+01  0.58101287926E+01  0.51100000000E-03 0. -1.
        -11    1    3    3    0    0  0.92762588975E+01  0.42097047819E+01  0.12374809931E+02  0.16028303546E+02  0.51100000000E-03 0.  1.
        -12    1    3    3    0    0  0.16165603119E+02  0.19652404139E+02  0.50792234508E+01  0.25948838577E+02  0.00000000000E+00 0.  1.
</event>
<event>
 7    1  0.2237500E-009  0.4778727E+02  0.7816164E-02  0.1312668E+00
        -11   -1    0    0    0    0  0.00000000000E+00  0.00000000000E+00  0.45593999997E+02  0.45594000000E+02  0.51100000000E-03 0.  1.
         11   -1    0    0    0    0 -0.00000000000E+00 -0.00000000000E+00 -0.45593999997E+02  0.45594000000E+02  0.51100000000E-03 0. -1.
    9900012    2    1    2    0    0 -0.37584163125E+02  0.20279028110E+02  0.77340299771E+01  0.47787268225E+02  0.19999987147E+02 0.  0.
         12    1    1    2    0    0  0.37584163125E+02 -0.20279028110E+02 -0.77340299771E+01  0.43400731775E+02  0.00000000000E+00 0. -1.
         11    1    3    3    0    0  0.10337577633E+01 -0.16353508524E+00 -0.89063668092E+00  0.13742753712E+01  0.51100000000E-03 0. -1.
        -11    1    3    3    0    0 -0.22321992887E+02  0.18386449359E+02  0.31069236562E+01  0.29085836094E+02  0.51100000000E-03 0.  1.
        -12    1    3    3    0    0 -0.16295928002E+02  0.20561138363E+01  0.55177430018E+01  0.17327156760E+02  0.00000000000E+00 0.  1.
</event>
<event>
 7    1  0.2237500E-009  0.4778727E+02  0.7816164E-02  0.1312668E+00
        -11   -1    0    0    0    0  0.00000000000E+00  0.00000000000E+00  0.45593999997E+02  0.45594000000E+02  0.51100000000E-03 0. -1.
         11   -1    0    0    0    0 -0.00000000000E+00 -0.00000000000E+00 -0.45593999997E+02  0.45594000000E+02  0.51100000000E-03 0.  1.
    9900012    2    1    2    0    0  0.85735043533E+01 -0.28203949037E+02 -0.31853658112E+02  0.47787271281E+02  0.20000001081E+02 0.  0.
         12    1    1    2    0    0 -0.85735043533E+01  0.28203949037E+02  0.31853658112E+02  0.43400728719E+02  0.00000000000E+00 0. -1.
         11    1    3    3    0    0  0.14697919470E+01 -0.88920053750E+01 -0.38904570838E+01  0.98165016446E+01  0.51100000000E-03 0. -1.
        -11    1    3    3    0    0 -0.13525073460E+01 -0.39880238389E+01  0.81398226031E+00  0.42890765489E+01  0.51100000000E-03 0.  1.
        -12    1    3    3    0    0  0.84562197522E+01 -0.15323919823E+02 -0.28777183289E+02  0.33681693088E+02  0.00000000000E+00 0.  1.
</event>
<event>
 7    1  0.2237500E-009  0.4778727E+02  0.7816164E-02  0.1312668E+00
        -11   -1    0    0    0    0  0.00000000000E+00  0.00000000000E+00  0.45593999997E+02  0.45594000000E+02  0.51100000000E-03 0.  1.
         11   -1    0    0    0    0 -0.00000000000E+00 -0.00000000000E+00 -0.45593999997E+02  0.45594000000E+02  0.51100000000E-03 0. -1.
    9900012    2    1    2    0    0 -0.42924947200E+02  0.56673659961E+01  0.29921995450E+01  0.47787269734E+02  0.19999994027E+02 0.  0.
         12    1    1    2    0    0  0.42924947200E+02 -0.56673659961E+01 -0.29921995450E+01  0.43400730266E+02  0.00000000000E+00 0. -1.
         11    1    3    3    0    0 -0.12191217194E+02 -0.51627862884E+01 -0.16514595347E+01  0.13341943554E+02  0.51100000000E-03 0. -1.
        -11    1    3    3    0    0 -0.51559076509E+01 -0.46505257508E+00 -0.22540614674E+01  0.56462776200E+01  0.51100000000E-03 0.  1.
        -12    1    3    3    0    0 -0.25577822355E+02  0.11295204860E+02  0.68977205471E+01  0.28799048561E+02  0.00000000000E+00 0.  1.
</event>
<event>
 7    1  0.2237500E-009  0.4778725E+02  0.7816164E-02  0.1312668E+00
        -11   -1    0    0    0    0  0.00000000000E+00  0.00000000000E+00  0.45593999997E+02  0.45594000000E+02  0.51100000000E-03 0.  1.
         11   -1    0    0    0    0 -0.00000000000E+00 -0.00000000000E+00 -0.45593999997E+02  0.45594000000E+02  0.51100000000E-03 0. -1.
    9900012    2    1    2    0    0  0.42486650451E+02 -0.24611841099E+01  0.85118670344E+01  0.47787253760E+02  0.19999921192E+02 0.  0.
         12    1    1    2    0    0 -0.42486650451E+02  0.24611841099E+01 -0.85118670344E+01  0.43400746240E+02  0.00000000000E+00 0. -1.
         11    1    3    3    0    0  0.38889985820E+01  0.11474579700E+01 -0.81711138651E+00  0.41362593056E+01  0.51100000000E-03 0. -1.
        -11    1    3    3    0    0  0.33689040216E+02  0.31730844589E+01  0.99090377358E+01  0.35259167953E+02  0.51100000000E-03 0.  1.
        -12    1    3    3    0    0  0.49086116538E+01 -0.67817265388E+01 -0.58005931487E+00  0.83918265011E+01  0.00000000000E+00 0.  1.
</event>
<event>
 7    1  0.2237500E-009  0.4778727E+02  0.7816164E-02  0.1312668E+00
        -11   -1    0    0    0    0  0.00000000000E+00  0.00000000000E+00  0.45593999997E+02  0.45594000000E+02  0.51100000000E-03 0.  1.
         11   -1    0    0    0    0 -0.00000000000E+00 -0.00000000000E+00 -0.45593999997E+02  0.45594000000E+02  0.51100000000E-03 0. -1.
    9900012    2    1    2    0    0 -0.13054136328E+02  0.32930706620E+02  0.25075516290E+02  0.47787269235E+02  0.19999991748E+02 0.  0.
         12    1    1    2    0    0  0.13054136328E+02 -0.32930706620E+02 -0.25075516290E+02  0.43400730765E+02  0.00000000000E+00 0. -1.
         11    1    3    3    0    0 -0.60647145106E+00  0.13680274233E+02  0.11922566930E+02  0.18156687836E+02  0.51100000000E-03 0. -1.
        -11    1    3    3    0    0  0.19610254061E+01 -0.35134693471E+00  0.21473944935E+01  0.29292266358E+01  0.51100000000E-03 0.  1.
        -12    1    3    3    0    0 -0.14408690283E+02  0.19601779323E+02  0.11005554866E+02  0.26701354763E+02  0.00000000000E+00 0.  1.
</event>
<event>
 7    1  0.2237500E-009  0.4778727E+02  0.7816164E-02  0.1312668E+00
        -11   -1    0    0    0    0  0.00000000000E+00  0.00000000000E+00  0.45593999997E+02  0.45594000000E+02  0.51100000000E-03 0.  1.
         11   -1    0    0    0    0 -0.00000000000E+00 -0.00000000000E+00 -0.45593999997E+02  0.45594000000E+02  0.51100000000E-03 0. -1.
    9900012    2    1    2    0    0  0.38598838550E+02  0.96253358753E+01  0.17352412212E+02  0.47787266853E+02  0.19999980890E+02 0.  0.
         12    1    1    2    0    0 -0.38598838550E+02 -0.96253358753E+01 -0.17352412212E+02  0.43400733147E+02  0.00000000000E+00 0. -1.
         11    1    3    3    0    0  0.86465796446E+01  0.27902067992E+01 -0.12093291097E+01  0.91657553256E+01  0.51100000000E-03 0. -1.
        -11    1    3    3    0    0  0.14257311935E+02  0.97700499827E+00  0.96158095300E+00  0.14323062542E+02  0.51100000000E-03 0.  1.
        -12    1    3    3    0    0  0.15694946970E+02  0.58581240778E+01  0.17600160369E+02  0.24298448986E+02  0.00000000000E+00 0.  1.
</event>
<event>
 7    1  0.2237500E-009  0.4778730E+02  0.7816164E-02  0.1312668E+00
        -11   -1    0    0    0    0  0.00000000000E+00  0.00000000000E+00  0.45593999997E+02  0.45594000000E+02  0.51100000000E-03 0.  1.
         11   -1    0    0    0    0 -0.00000000000E+00 -0.00000000000E+00 -0.45593999997E+02  0.45594000000E+02  0.51100000000E-03 0. -1.
    9900012    2    1    2    0    0 -0.17508968391E+02 -0.86186695480E+01  0.38765647747E+02  0.47787298575E+02  0.20000125524E+02 0.  0.
         12    1    1    2    0    0  0.17508968391E+02  0.86186695480E+01 -0.38765647747E+02  0.43400701425E+02  0.00000000000E+00 0. -1.
         11    1    3    3    0    0  0.29942896924E+01 -0.36002830739E+01  0.54769205932E+01  0.72058634749E+01  0.51100000000E-03 0. -1.
        -11    1    3    3    0    0 -0.21560922128E+01  0.92054124540E+00  0.29175532573E+00  0.23624671946E+01  0.51100000000E-03 0.  1.
        -12    1    3    3    0    0 -0.18347165870E+02 -0.59389277196E+01  0.32996971828E+02  0.38218967906E+02  0.00000000000E+00 0.  1.
</event>
<event>
 7    1  0.2237500E-009  0.4778727E+02  0.7816164E-02  0.1312668E+00
        -11   -1    0    0    0    0  0.00000000000E+00  0.00000000000E+00  0.45593999997E+02  0.45594000000E+02  0.51100000000E-03 0. -1.
         11   -1    0    0    0    0 -0.00000000000E+00 -0.00000000000E+00 -0.45593999997E+02  0.45594000000E+02  0.51100000000E-03 0.  1.
    9900012    2    1    2    0    0 -0.37643503126E+02 -0.10740191768E+02  0.18741353991E+02  0.47787269635E+02  0.19999993573E+02 0.  0.
         12    1    1    2    0    0  0.37643503126E+02  0.10740191768E+02 -0.18741353991E+02  0.43400730365E+02  0.00000000000E+00 0. -1.
         11    1    3    3    0    0 -0.44536533467E+01 -0.62305030962E+01  0.27835608597E+01  0.81487672862E+01  0.51100000000E-03 0. -1.
        -11    1    3    3    0    0 -0.36784069848E+01 -0.28549722924E+01 -0.19840716271E+01  0.50614311434E+01  0.51100000000E-03 0.  1.
         12    1    3    3    0    0 -0.29511442794E+02 -0.16547163794E+01  0.17941864759E+02  0.34577071205E+02  0.00000000000E+00 0. -1.
</event>
<event>
 7    1  0.2237500E-009  0.4778726E+02  0.7816164E-02  0.1312668E+00
        -11   -1    0    0    0    0  0.00000000000E+00  0.00000000000E+00  0.45593999997E+02  0.45594000000E+02  0.51100000000E-03 0.  1.
         11   -1    0    0    0    0 -0.00000000000E+00 -0.00000000000E+00 -0.45593999997E+02  0.45594000000E+02  0.51100000000E-03 0. -1.
    9900012    2    1    2    0    0 -0.31783120791E+02 -0.29327403936E+02 -0.36552086666E+01  0.47787263379E+02  0.19999965050E+02 0.  0.
         12    1    1    2    0    0  0.31783120791E+02  0.29327403936E+02  0.36552086666E+01  0.43400736621E+02  0.00000000000E+00 0. -1.
         11    1    3    3    0    0 -0.16017606586E+02 -0.14708215291E+02  0.15122160814E+01  0.21798672334E+02  0.51100000000E-03 0.  1.
        -11    1    3    3    0    0 -0.11605499364E+02 -0.13140491678E+02  0.19220864241E+01  0.17636738743E+02  0.51100000000E-03 0. -1.
         12    1    3    3    0    0 -0.41600148414E+01 -0.14786969666E+01 -0.70895111722E+01  0.83518523012E+01  0.00000000000E+00 0. -1.
</event>
<event>
 7    1  0.2237500E-009  0.4778726E+02  0.7816164E-02  0.1312668E+00
        -11   -1    0    0    0    0  0.00000000000E+00  0.00000000000E+00  0.45593999997E+02  0.45594000000E+02  0.51100000000E-03 0.  1.
         11   -1    0    0    0    0 -0.00000000000E+00 -0.00000000000E+00 -0.45593999997E+02  0.45594000000E+02  0.51100000000E-03 0. -1.
    9900012    2    1    2    0    0  0.17792438346E+02 -0.19626136870E+02  0.34378310649E+02  0.47787258603E+02  0.19999943276E+02 0.  0.
         12    1    1    2    0    0 -0.17792438346E+02  0.19626136870E+02 -0.34378310649E+02  0.43400741397E+02  0.00000000000E+00 0. -1.
         11    1    3    3    0    0 -0.25020127798E+01 -0.54496384631E+01  0.17035382155E+01  0.62338326927E+01  0.51100000000E-03 0. -1.
        -11    1    3    3    0    0  0.13247539281E+00 -0.17042314323E+01  0.39813727639E+01  0.43328147723E+01  0.51100000000E-03 0.  1.
         12    1    3    3    0    0  0.20161975733E+02 -0.12472266974E+02  0.28693399669E+02  0.37220611138E+02  0.00000000000E+00 0. -1.
</event>
<event>
 7    1  0.2237500E-009  0.4778727E+02  0.7816164E-02  0.1312668E+00
        -11   -1    0    0    0    0  0.00000000000E+00  0.00000000000E+00  0.45593999997E+02  0.45594000000E+02  0.51100000000E-03 0.  1.
         11   -1    0    0    0    0 -0.00000000000E+00 -0.00000000000E+00 -0.45593999997E+02  0.45594000000E+02  0.51100000000E-03 0. -1.
    9900012    2    1    2    0    0 -0.14929807502E+02 -0.17436738465E+02  0.36833195818E+02  0.47787270576E+02  0.19999997864E+02 0.  0.
         12    1    1    2    0    0  0.14929807502E+02  0.17436738465E+02 -0.36833195818E+02  0.43400729424E+02  0.00000000000E+00 0. -1.
         11    1    3    3    0    0  0.17940996853E+01 -0.11998095851E+01  0.10371979487E+02  0.10594163273E+02  0.51100000000E-03 0. -1.
        -11    1    3    3    0    0 -0.71750407607E+01 -0.38837045658E+01  0.17206576123E+02  0.19042863052E+02  0.51100000000E-03 0.  1.
        -12    1    3    3    0    0 -0.95488664263E+01 -0.12353224314E+02  0.92546402089E+01  0.18150244251E+02  0.00000000000E+00 0.  1.
</event>
<event>
 7    1  0.2237500E-009  0.4778726E+02  0.7816164E-02  0.1312668E+00
        -11   -1    0    0    0    0  0.00000000000E+00  0.00000000000E+00  0.45593999997E+02  0.45594000000E+02  0.51100000000E-03 0.  1.
         11   -1    0    0    0    0 -0.00000000000E+00 -0.00000000000E+00 -0.45593999997E+02  0.45594000000E+02  0.51100000000E-03 0. -1.
    9900012    2    1    2    0    0 -0.42753543861E+02 -0.58332286798E+01  0.46617489451E+01  0.47787262993E+02  0.19999963290E+02 0.  0.
         12    1    1    2    0    0  0.42753543861E+02  0.58332286798E+01 -0.46617489451E+01  0.43400737007E+02  0.00000000000E+00 0. -1.
         11    1    3    3    0    0 -0.14596375901E+02 -0.53936164176E+01  0.47608891899E+01  0.16273025338E+02  0.51100000000E-03 0. -1.
        -11    1    3    3    0    0 -0.15436072586E+02 -0.63340662409E+01  0.34801734159E+01  0.17044187844E+02  0.51100000000E-03 0.  1.
        -12    1    3    3    0    0 -0.12721095374E+02  0.58944539788E+01 -0.35793136607E+01  0.14470049810E+02  0.00000000000E+00 0.  1.
</event>
<event>
 7    1  0.2237500E-009  0.4778727E+02  0.7816164E-02  0.1312668E+00
        -11   -1    0    0    0    0  0.00000000000E+00  0.00000000000E+00  0.45593999997E+02  0.45594000000E+02  0.51100000000E-03 0.  1.
         11   -1    0    0    0    0 -0.00000000000E+00 -0.00000000000E+00 -0.45593999997E+02  0.45594000000E+02  0.51100000000E-03 0. -1.
    9900012    2    1    2    0    0 -0.32398685793E+02 -0.11519787186E+02  0.26480986308E+02  0.47787274502E+02  0.20000015766E+02 0.  0.
         12    1    1    2    0    0  0.32398685793E+02  0.11519787186E+02 -0.26480986308E+02  0.43400725498E+02  0.00000000000E+00 0. -1.
         11    1    3    3    0    0 -0.37942832135E+01  0.13776247518E+01  0.21676013741E+00  0.40424522606E+01  0.51100000000E-03 0. -1.
        -11    1    3    3    0    0 -0.18693524262E+02 -0.10027345268E+01  0.97474139097E+01  0.21106051361E+02  0.51100000000E-03 0.  1.
         12    1    3    3    0    0 -0.99108783169E+01 -0.11894677411E+02  0.16516812260E+02  0.22638770880E+02  0.00000000000E+00 0. -1.
</event>
<event>
 7    1  0.2237500E-009  0.4778727E+02  0.7816164E-02  0.1312668E+00
        -11   -1    0    0    0    0  0.00000000000E+00  0.00000000000E+00  0.45593999997E+02  0.45594000000E+02  0.51100000000E-03 0. -1.
         11   -1    0    0    0    0 -0.00000000000E+00 -0.00000000000E+00 -0.45593999997E+02  0.45594000000E+02  0.51100000000E-03 0.  1.
    9900012    2    1    2    0    0 -0.13411909344E+02 -0.27514217406E+02 -0.30768684890E+02  0.47787269112E+02  0.19999991189E+02 0.  0.
         12    1    1    2    0    0  0.13411909344E+02  0.27514217406E+02  0.30768684890E+02  0.43400730888E+02  0.00000000000E+00 0. -1.
         11    1    3    3    0    0 -0.23226981894E+01 -0.71084066777E+01 -0.38101318687E+01  0.83929421237E+01  0.51100000000E-03 0. -1.
        -11    1    3    3    0    0 -0.14357764240E+02 -0.18974989824E+02 -0.26776819136E+02  0.35821692815E+02  0.51100000000E-03 0.  1.
         12    1    3    3    0    0  0.32685530854E+01 -0.14308209044E+01 -0.18173388516E+00  0.35726341735E+01  0.00000000000E+00 0. -1.
</event>
<event>
 7    1  0.2237500E-009  0.4778727E+02  0.7816164E-02  0.1312668E+00
        -11   -1    0    0    0    0  0.00000000000E+00  0.00000000000E+00  0.45593999997E+02  0.45594000000E+02  0.51100000000E-03 0. -1.
         11   -1    0    0    0    0 -0.00000000000E+00 -0.00000000000E+00 -0.45593999997E+02  0.45594000000E+02  0.51100000000E-03 0.  1.
    9900012    2    1    2    0    0  0.14598259917E+02  0.34896910049E+02  0.21277206169E+02  0.47787273901E+02  0.20000013023E+02 0.  0.
         12    1    1    2    0    0 -0.14598259917E+02 -0.34896910049E+02 -0.21277206169E+02  0.43400726099E+02  0.00000000000E+00 0. -1.
         11    1    3    3    0    0  0.55417726165E+01  0.86433238386E+01  0.53729357048E+01  0.11588215094E+02  0.51100000000E-03 0.  1.
        -11    1    3    3    0    0  0.18289394074E+01  0.22953070475E+02  0.65777563134E+01  0.23946927610E+02  0.51100000000E-03 0. -1.
         12    1    3    3    0    0  0.72275478928E+01  0.33005157359E+01  0.93265141508E+01  0.12252131197E+02  0.00000000000E+00 0. -1.
</event>
<event>
 7    1  0.2237500E-009  0.4778727E+02  0.7816164E-02  0.1312668E+00
        -11   -1    0    0    0    0  0.00000000000E+00  0.00000000000E+00  0.45593999997E+02  0.45594000000E+02  0.51100000000E-03 0.  1.
         11   -1    0    0    0    0 -0.00000000000E+00 -0.00000000000E+00 -0.45593999997E+02  0.45594000000E+02  0.51100000000E-03 0. -1.
    9900012    2    1    2    0    0 -0.63115885971E+01  0.30260342140E+01  0.42832583840E+02  0.47787271065E+02  0.20000000095E+02 0.  0.
         12    1    1    2    0    0  0.63115885971E+01 -0.30260342140E+01 -0.42832583840E+02  0.43400728935E+02  0.00000000000E+00 0. -1.
         11    1    3    3    0    0  0.23528158119E+01 -0.78857614059E+00  0.14263912149E+01  0.28621996319E+01  0.51100000000E-03 0. -1.
        -11    1    3    3    0    0 -0.86433575858E+01 -0.35410914634E+01  0.16556945103E+02  0.19009981339E+02  0.51100000000E-03 0.  1.
         12    1    3    3    0    0 -0.21046823207E-01  0.73557018179E+01  0.24849247522E+02  0.25915090094E+02  0.00000000000E+00 0. -1.
</event>
<event>
 7    1  0.2237500E-009  0.4778727E+02  0.7816164E-02  0.1312668E+00
        -11   -1    0    0    0    0  0.00000000000E+00  0.00000000000E+00  0.45593999997E+02  0.45594000000E+02  0.51100000000E-03 0. -1.
         11   -1    0    0    0    0 -0.00000000000E+00 -0.00000000000E+00 -0.45593999997E+02  0.45594000000E+02  0.51100000000E-03 0.  1.
    9900012    2    1    2    0    0 -0.21748144151E+02 -0.16826375005E+01 -0.37520798336E+02  0.47787270159E+02  0.19999995963E+02 0.  0.
         12    1    1    2    0    0  0.21748144151E+02  0.16826375005E+01  0.37520798336E+02  0.43400729841E+02  0.00000000000E+00 0. -1.
         11    1    3    3    0    0 -0.11859064671E+02 -0.19657362529E+01 -0.20205790840E+02  0.23511178568E+02  0.51100000000E-03 0. -1.
        -11    1    3    3    0    0 -0.59939488166E+01 -0.51868775356E+01 -0.15355874389E+02  0.17281030048E+02  0.51100000000E-03 0.  1.
         12    1    3    3    0    0 -0.38951306634E+01  0.54699762880E+01 -0.19591331060E+01  0.69950615439E+01  0.00000000000E+00 0. -1.
</event>
<event>
 7    1  0.2237500E-009  0.4778727E+02  0.7816164E-02  0.1312668E+00
        -11   -1    0    0    0    0  0.00000000000E+00  0.00000000000E+00  0.45593999997E+02  0.45594000000E+02  0.51100000000E-03 0. -1.
         11   -1    0    0    0    0 -0.00000000000E+00 -0.00000000000E+00 -0.45593999997E+02  0.45594000000E+02  0.51100000000E-03 0.  1.
    9900012    2    1    2    0    0 -0.39154505535E+02 -0.12482338166E+02 -0.13954892393E+02  0.47787273146E+02  0.20000009582E+02 0.  0.
         12    1    1    2    0    0  0.39154505535E+02  0.12482338166E+02  0.13954892393E+02  0.43400726854E+02  0.00000000000E+00 0. -1.
         11    1    3    3    0    0 -0.87134804619E+01 -0.13664917297E+01  0.23214882793E+01  0.91203809953E+01  0.51100000000E-03 0. -1.
        -11    1    3    3    0    0 -0.23294747395E+02 -0.11835702248E+02 -0.72202861933E+01  0.27108331503E+02  0.51100000000E-03 0.  1.
         12    1    3    3    0    0 -0.71462776783E+01  0.71985581246E+00 -0.90560944786E+01  0.11558560648E+02  0.00000000000E+00 0. -1.
</event>
<event>
 7    1  0.2237500E-009  0.4778727E+02  0.7816164E-02  0.1312668E+00
        -11   -1    0    0    0    0  0.00000000000E+00  0.00000000000E+00  0.45593999997E+02  0.45594000000E+02  0.51100000000E-03 0.  1.
         11   -1    0    0    0    0 -0.00000000000E+00 -0.00000000000E+00 -0.45593999997E+02  0.45594000000E+02  0.51100000000E-03 0. -1.
    9900012    2    1    2    0    0 -0.13533560707E+02 -0.21140068107E+01  0.41182486096E+02  0.47787269001E+02  0.19999990683E+02 0.  0.
         12    1    1    2    0    0  0.13533560707E+02  0.21140068107E+01 -0.41182486096E+02  0.43400730999E+02  0.00000000000E+00 0. -1.
         11    1    3    3    0    0 -0.80227932937E+01 -0.64541766468E+01  0.72631717679E+01  0.12600606049E+02  0.51100000000E-03 0. -1.
        -11    1    3    3    0    0 -0.94308431201E+00 -0.84680699700E+00  0.12002696709E+01  0.17456052399E+01  0.51100000000E-03 0.  1.
        -12    1    3    3    0    0 -0.45676831008E+01  0.51869768332E+01  0.32719044657E+02  0.33441057712E+02  0.00000000000E+00 0.  1.
</event>
<event>
 7    1  0.2237500E-009  0.4778728E+02  0.7816164E-02  0.1312668E+00
        -11   -1    0    0    0    0  0.00000000000E+00  0.00000000000E+00  0.45593999997E+02  0.45594000000E+02  0.51100000000E-03 0. -1.
         11   -1    0    0    0    0 -0.00000000000E+00 -0.00000000000E+00 -0.45593999997E+02  0.45594000000E+02  0.51100000000E-03 0.  1.
    9900012    2    1    2    0    0  0.33249433940E+02 -0.11471898008E+02 -0.25426230619E+02  0.47787279905E+02  0.20000040400E+02 0.  0.
         12    1    1    2    0    0 -0.33249433940E+02  0.11471898008E+02  0.25426230619E+02  0.43400720095E+02  0.00000000000E+00 0. -1.
         11    1    3    3    0    0  0.33918248528E+00  0.27501206821E+01 -0.11819259057E+01  0.30125002294E+01  0.51100000000E-03 0. -1.
        -11    1    3    3    0    0  0.18077014809E+02 -0.20879033869E+01 -0.14546064313E+02  0.23296475961E+02  0.51100000000E-03 0.  1.
         12    1    3    3    0    0  0.14833236647E+02 -0.12134115303E+02 -0.96982403998E+01  0.21478303715E+02  0.00000000000E+00 0. -1.
</event>
<event>
 7    1  0.2237500E-009  0.4778727E+02  0.7816164E-02  0.1312668E+00
        -11   -1    0    0    0    0  0.00000000000E+00  0.00000000000E+00  0.45593999997E+02  0.45594000000E+02  0.51100000000E-03 0. -1.
         11   -1    0    0    0    0 -0.00000000000E+00 -0.00000000000E+00 -0.45593999997E+02  0.45594000000E+02  0.51100000000E-03 0.  1.
    9900012    2    1    2    0    0  0.23127787607E+02  0.31707453796E+02 -0.18530140464E+02  0.47787270842E+02  0.19999999075E+02 0.  0.
         12    1    1    2    0    0 -0.23127787607E+02 -0.31707453796E+02  0.18530140464E+02  0.43400729158E+02  0.00000000000E+00 0. -1.
         11    1    3    3    0    0  0.16112439668E+02  0.17709403085E+02 -0.76587486475E+01  0.25137424307E+02  0.51100000000E-03 0. -1.
        -11    1    3    3    0    0  0.99433476693E+01  0.11770682775E+02 -0.59771658946E+01  0.16527118571E+02  0.51100000000E-03 0.  1.
         12    1    3    3    0    0 -0.29279997300E+01  0.22273679362E+01 -0.48942259219E+01  0.61227279636E+01  0.00000000000E+00 0. -1.
</event>
<event>
 7    1  0.2237500E-009  0.4778727E+02  0.7816164E-02  0.1312668E+00
        -11   -1    0    0    0    0  0.00000000000E+00  0.00000000000E+00  0.45593999997E+02  0.45594000000E+02  0.51100000000E-03 0.  1.
         11   -1    0    0    0    0 -0.00000000000E+00 -0.00000000000E+00 -0.45593999997E+02  0.45594000000E+02  0.51100000000E-03 0. -1.
    9900012    2    1    2    0    0  0.22010717640E+02  0.28380629253E+02  0.24365781554E+02  0.47787272833E+02  0.20000008157E+02 0.  0.
         12    1    1    2    0    0 -0.22010717640E+02 -0.28380629253E+02 -0.24365781554E+02  0.43400727167E+02  0.00000000000E+00 0. -1.
         11    1    3    3    0    0 -0.10142938268E+01  0.10037641972E+01  0.93804283823E+00  0.17077058172E+01  0.51100000000E-03 0. -1.
        -11    1    3    3    0    0  0.25224103554E+02  0.27442800340E+02  0.20919967543E+02  0.42743511003E+02  0.51100000000E-03 0.  1.
        -12    1    3    3    0    0 -0.21990920871E+01 -0.65935283650E-01  0.25077711729E+01  0.33360560135E+01  0.00000000000E+00 0.  1.
</event>
<event>
 7    1  0.2237500E-009  0.4778727E+02  0.7816164E-02  0.1312668E+00
        -11   -1    0    0    0    0  0.00000000000E+00  0.00000000000E+00  0.45593999997E+02  0.45594000000E+02  0.51100000000E-03 0.  1.
         11   -1    0    0    0    0 -0.00000000000E+00 -0.00000000000E+00 -0.45593999997E+02  0.45594000000E+02  0.51100000000E-03 0. -1.
    9900012    2    1    2    0    0 -0.27645279713E+02 -0.27638032983E+02  0.18854726093E+02  0.47787273582E+02  0.20000011572E+02 0.  0.
         12    1    1    2    0    0  0.27645279713E+02  0.27638032983E+02 -0.18854726093E+02  0.43400726418E+02  0.00000000000E+00 0. -1.
         11    1    3    3    0    0 -0.19698656650E+02 -0.20342996666E+02  0.22025276070E+02  0.35874606247E+02  0.51100000000E-03 0.  1.
        -11    1    3    3    0    0 -0.33979852609E+00  0.32369540226E+00 -0.73896406721E+00  0.87539128709E+00  0.51100000000E-03 0. -1.
        -12    1    3    3    0    0 -0.76068245367E+01 -0.76187317187E+01 -0.24315859094E+01  0.11037276048E+02  0.00000000000E+00 0.  1.
</event>
<event>
 7    1  0.2237500E-009  0.4778727E+02  0.7816164E-02  0.1312668E+00
        -11   -1    0    0    0    0  0.00000000000E+00  0.00000000000E+00  0.45593999997E+02  0.45594000000E+02  0.51100000000E-03 0. -1.
         11   -1    0    0    0    0 -0.00000000000E+00 -0.00000000000E+00 -0.45593999997E+02  0.45594000000E+02  0.51100000000E-03 0.  1.
    9900012    2    1    2    0    0  0.37182420942E+02 -0.64528776010E+01 -0.21434812060E+02  0.47787271613E+02  0.20000002594E+02 0.  0.
         12    1    1    2    0    0 -0.37182420942E+02  0.64528776010E+01  0.21434812060E+02  0.43400728387E+02  0.00000000000E+00 0. -1.
         11    1    3    3    0    0  0.14357812324E+02 -0.52645803918E+01 -0.58265928804E+01  0.16364955432E+02  0.51100000000E-03 0. -1.
        -11    1    3    3    0    0  0.21019513861E+02 -0.62117516802E+01 -0.12967989160E+02  0.25467127145E+02  0.51100000000E-03 0.  1.
        -12    1    3    3    0    0  0.18050947567E+01  0.50234544711E+01 -0.26402300200E+01  0.59551890366E+01  0.00000000000E+00 0.  1.
</event>
<event>
 7    1  0.2237500E-009  0.4778727E+02  0.7816164E-02  0.1312668E+00
        -11   -1    0    0    0    0  0.00000000000E+00  0.00000000000E+00  0.45593999997E+02  0.45594000000E+02  0.51100000000E-03 0. -1.
         11   -1    0    0    0    0 -0.00000000000E+00 -0.00000000000E+00 -0.45593999997E+02  0.45594000000E+02  0.51100000000E-03 0.  1.
    9900012    2    1    2    0    0  0.19881382145E+02  0.26688884519E+02 -0.27857810206E+02  0.47787268412E+02  0.19999988000E+02 0.  0.
         12    1    1    2    0    0 -0.19881382145E+02 -0.26688884519E+02  0.27857810206E+02  0.43400731588E+02  0.00000000000E+00 0. -1.
         11    1    3    3    0    0  0.60825711393E+01  0.13362638953E+02 -0.79562087078E+01  0.16699073289E+02  0.51100000000E-03 0. -1.
        -11    1    3    3    0    0 -0.29711849656E+01  0.14245832168E+01 -0.22823136236E+01  0.40082830712E+01  0.51100000000E-03 0.  1.
        -12    1    3    3    0    0  0.16769995971E+02  0.11901662349E+02 -0.17619287874E+02  0.27079912052E+02  0.00000000000E+00 0.  1.
</event>
<event>
 7    1  0.2237500E-009  0.4778727E+02  0.7816164E-02  0.1312668E+00
        -11   -1    0    0    0    0  0.00000000000E+00  0.00000000000E+00  0.45593999997E+02  0.45594000000E+02  0.51100000000E-03 0.  1.
         11   -1    0    0    0    0 -0.00000000000E+00 -0.00000000000E+00 -0.45593999997E+02  0.45594000000E+02  0.51100000000E-03 0. -1.
    9900012    2    1    2    0    0  0.10759609991E+02  0.17864027557E+02  0.38062193064E+02  0.47787271566E+02  0.20000002377E+02 0.  0.
         12    1    1    2    0    0 -0.10759609991E+02 -0.17864027557E+02 -0.38062193064E+02  0.43400728434E+02  0.00000000000E+00 0. -1.
         11    1    3    3    0    0 -0.30915447034E+01  0.19479857541E+01  0.12887308030E+01  0.38746773408E+01  0.51100000000E-03 0.  1.
        -11    1    3    3    0    0  0.22662110632E+01 -0.17524513888E+01  0.40328201216E+01  0.49467602375E+01  0.51100000000E-03 0. -1.
        -12    1    3    3    0    0  0.11584943631E+02  0.17668493192E+02  0.32740642140E+02  0.38965833988E+02  0.00000000000E+00 0.  1.
</event>
<event>
 7    1  0.2237500E-009  0.4778727E+02  0.7816164E-02  0.1312668E+00
        -11   -1    0    0    0    0  0.00000000000E+00  0.00000000000E+00  0.45593999997E+02  0.45594000000E+02  0.51100000000E-03 0.  1.
         11   -1    0    0    0    0 -0.00000000000E+00 -0.00000000000E+00 -0.45593999997E+02  0.45594000000E+02  0.51100000000E-03 0. -1.
    9900012    2    1    2    0    0  0.36617684258E+02  0.13882539619E+02 -0.18709449763E+02  0.47787271699E+02  0.20000002984E+02 0.  0.
         12    1    1    2    0    0 -0.36617684258E+02 -0.13882539619E+02  0.18709449763E+02  0.43400728301E+02  0.00000000000E+00 0. -1.
         11    1    3    3    0    0  0.58033966009E-02 -0.63065791706E+00 -0.18242229367E+01  0.19301690785E+01  0.51100000000E-03 0. -1.
        -11    1    3    3    0    0  0.30971856275E+02  0.95633801085E+01 -0.19596921092E+02  0.37878139299E+02  0.51100000000E-03 0.  1.
        -12    1    3    3    0    0  0.56400245854E+01  0.49498174271E+01  0.27116942656E+01  0.79789633209E+01  0.00000000000E+00 0.  1.
</event>
<event>
 7    1  0.2237500E-009  0.4778727E+02  0.7816164E-02  0.1312668E+00
        -11   -1    0    0    0    0  0.00000000000E+00  0.00000000000E+00  0.45593999997E+02  0.45594000000E+02  0.51100000000E-03 0.  1.
         11   -1    0    0    0    0 -0.00000000000E+00 -0.00000000000E+00 -0.45593999997E+02  0.45594000000E+02  0.51100000000E-03 0. -1.
    9900012    2    1    2    0    0 -0.23703847029E+02 -0.31174253003E+02  0.18706067910E+02  0.47787269696E+02  0.19999993852E+02 0.  0.
         12    1    1    2    0    0  0.23703847029E+02  0.31174253003E+02 -0.18706067910E+02  0.43400730304E+02  0.00000000000E+00 0. -1.
         11    1    3    3    0    0 -0.15995250381E+02 -0.16421955281E+02  0.15205922209E+02  0.27509066152E+02  0.51100000000E-03 0.  1.
        -11    1    3    3    0    0 -0.80764787589E+01 -0.37149506904E+01  0.92044202752E+00  0.89374258913E+01  0.51100000000E-03 0. -1.
        -12    1    3    3    0    0  0.36788211132E+00 -0.11037347031E+02  0.25797036727E+01  0.11340777653E+02  0.00000000000E+00 0.  1.
</event>
<event>
 7    1  0.2237500E-009  0.4778727E+02  0.7816164E-02  0.1312668E+00
        -11   -1    0    0    0    0  0.00000000000E+00  0.00000000000E+00  0.45593999997E+02  0.45594000000E+02  0.51100000000E-03 0.  1.
         11   -1    0    0    0    0 -0.00000000000E+00 -0.00000000000E+00 -0.45593999997E+02  0.45594000000E+02  0.51100000000E-03 0. -1.
    9900012    2    1    2    0    0 -0.31128640673E+02 -0.26898050687E+02  0.13824831423E+02  0.47787269997E+02  0.19999995224E+02 0.  0.
         12    1    1    2    0    0  0.31128640673E+02  0.26898050687E+02 -0.13824831423E+02  0.43400730003E+02  0.00000000000E+00 0. -1.
         11    1    3    3    0    0  0.21917441994E+00 -0.38243251349E+01  0.52001107348E+01  0.64586881082E+01  0.51100000000E-03 0. -1.
        -11    1    3    3    0    0 -0.82633367203E+01 -0.32825688249E+01 -0.20094928058E+01  0.91157036723E+01  0.51100000000E-03 0.  1.
        -12    1    3    3    0    0 -0.23084478373E+02 -0.19791156727E+02  0.10634213494E+02  0.32212878216E+02  0.00000000000E+00 0.  1.
</event>
<event>
 7    1  0.2237500E-009  0.4778727E+02  0.7816164E-02  0.1312668E+00
        -11   -1    0    0    0    0  0.00000000000E+00  0.00000000000E+00  0.45593999997E+02  0.45594000000E+02  0.51100000000E-03 0. -1.
         11   -1    0    0    0    0 -0.00000000000E+00 -0.00000000000E+00 -0.45593999997E+02  0.45594000000E+02  0.51100000000E-03 0.  1.
    9900012    2    1    2    0    0 -0.19179551034E+02  0.34286791641E+02 -0.18444076739E+02  0.47787271600E+02  0.20000002533E+02 0.  0.
         12    1    1    2    0    0  0.19179551034E+02 -0.34286791641E+02  0.18444076739E+02  0.43400728400E+02  0.00000000000E+00 0. -1.
         11    1    3    3    0    0 -0.10054568312E+02  0.22960712606E+02 -0.14577783566E+02  0.28996559128E+02  0.51100000000E-03 0. -1.
        -11    1    3    3    0    0 -0.48786708501E+01  0.10786603850E+02  0.14924151418E+01  0.11932290438E+02  0.51100000000E-03 0.  1.
        -12    1    3    3    0    0 -0.42463118724E+01  0.53947518493E+00 -0.53587083142E+01  0.68584220335E+01  0.00000000000E+00 0.  1.
</event>
<event>
 7    1  0.2237500E-009  0.4778727E+02  0.7816164E-02  0.1312668E+00
        -11   -1    0    0    0    0  0.00000000000E+00  0.00000000000E+00  0.45593999997E+02  0.45594000000E+02  0.51100000000E-03 0. -1.
         11   -1    0    0    0    0 -0.00000000000E+00 -0.00000000000E+00 -0.45593999997E+02  0.45594000000E+02  0.51100000000E-03 0.  1.
    9900012    2    1    2    0    0  0.14400907831E+02  0.38897580421E+02  0.12775577182E+02  0.47787270959E+02  0.19999999609E+02 0.  0.
         12    1    1    2    0    0 -0.14400907831E+02 -0.38897580421E+02 -0.12775577182E+02  0.43400729041E+02  0.00000000000E+00 0. -1.
         11    1    3    3    0    0  0.42399439388E+01  0.13976240962E+02  0.88799051371E+01  0.17092839189E+02  0.51100000000E-03 0. -1.
        -11    1    3    3    0    0  0.11560568544E+02  0.26060202971E+02  0.29619973062E+01  0.28662769445E+02  0.51100000000E-03 0.  1.
        -12    1    3    3    0    0 -0.13996046526E+01 -0.11388635119E+01  0.93367473890E+00  0.20316623244E+01  0.00000000000E+00 0.  1.
</event>
<event>
 7    1  0.2237500E-009  0.4778727E+02  0.7816164E-02  0.1312668E+00
        -11   -1    0    0    0    0  0.00000000000E+00  0.00000000000E+00  0.45593999997E+02  0.45594000000E+02  0.51100000000E-03 0.  1.
         11   -1    0    0    0    0 -0.00000000000E+00 -0.00000000000E+00 -0.45593999997E+02  0.45594000000E+02  0.51100000000E-03 0. -1.
    9900012    2    1    2    0    0 -0.38877934291E+02  0.12525763878E+02  0.14670872505E+02  0.47787273791E+02  0.20000012521E+02 0.  0.
         12    1    1    2    0    0  0.38877934291E+02 -0.12525763878E+02 -0.14670872505E+02  0.43400726209E+02  0.00000000000E+00 0. -1.
         11    1    3    3    0    0 -0.13432935177E+02  0.49337635822E+01  0.15506346331E+02  0.21100534291E+02  0.51100000000E-03 0. -1.
        -11    1    3    3    0    0 -0.24437077977E+01  0.11207913394E+00  0.34771531073E+00  0.24708653810E+01  0.51100000000E-03 0.  1.
         12    1    3    3    0    0 -0.23001291316E+02  0.74799211622E+01 -0.11831891373E+01  0.24215874119E+02  0.00000000000E+00 0. -1.
</event>
<event>
 7    1  0.2237500E-009  0.4778727E+02  0.7816164E-02  0.1312668E+00
        -11   -1    0    0    0    0  0.00000000000E+00  0.00000000000E+00  0.45593999997E+02  0.45594000000E+02  0.51100000000E-03 0.  1.
         11   -1    0    0    0    0 -0.00000000000E+00 -0.00000000000E+00 -0.45593999997E+02  0.45594000000E+02  0.51100000000E-03 0. -1.
    9900012    2    1    2    0    0 -0.27015841075E+02  0.19076247897E+02  0.28104530381E+02  0.47787268085E+02  0.19999986509E+02 0.  0.
         12    1    1    2    0    0  0.27015841075E+02 -0.19076247897E+02 -0.28104530381E+02  0.43400731915E+02  0.00000000000E+00 0. -1.
         11    1    3    3    0    0 -0.95046836066E+01  0.96736488015E+01  0.62835159754E+01  0.14946607136E+02  0.51100000000E-03 0. -1.
        -11    1    3    3    0    0 -0.10240451296E+02  0.14850616127E+01  0.23677712648E+01  0.10615017276E+02  0.51100000000E-03 0.  1.
        -12    1    3    3    0    0 -0.72707061721E+01  0.79175374823E+01  0.19453243141E+02  0.22225643674E+02  0.00000000000E+00 0.  1.
</event>
<event>
 7    1  0.2237500E-009  0.4778727E+02  0.7816164E-02  0.1312668E+00
        -11   -1    0    0    0    0  0.00000000000E+00  0.00000000000E+00  0.45593999997E+02  0.45594000000E+02  0.51100000000E-03 0. -1.
         11   -1    0    0    0    0 -0.00000000000E+00 -0.00000000000E+00 -0.45593999997E+02  0.45594000000E+02  0.51100000000E-03 0.  1.
    9900012    2    1    2    0    0 -0.86153923000E+01 -0.38603742006E+02 -0.17864756722E+02  0.47787269429E+02  0.19999992636E+02 0.  0.
         12    1    1    2    0    0  0.86153923000E+01  0.38603742006E+02  0.17864756722E+02  0.43400730571E+02  0.00000000000E+00 0. -1.
         11    1    3    3    0    0 -0.11027819311E+02 -0.19864050075E+02 -0.14193343406E+02  0.26788883542E+02  0.51100000000E-03 0. -1.
        -11    1    3    3    0    0 -0.23726649004E+01 -0.11991934053E+02 -0.35342271982E+01  0.12725045509E+02  0.51100000000E-03 0.  1.
        -12    1    3    3    0    0  0.47850919111E+01 -0.67477578781E+01 -0.13718611756E+00  0.82733403779E+01  0.00000000000E+00 0.  1.
</event>
<event>
 7    1  0.2237500E-009  0.4778727E+02  0.7816164E-02  0.1312668E+00
        -11   -1    0    0    0    0  0.00000000000E+00  0.00000000000E+00  0.45593999997E+02  0.45594000000E+02  0.51100000000E-03 0.  1.
         11   -1    0    0    0    0 -0.00000000000E+00 -0.00000000000E+00 -0.45593999997E+02  0.45594000000E+02  0.51100000000E-03 0. -1.
    9900012    2    1    2    0    0  0.20675050895E+02  0.32326070439E+02  0.20277841669E+02  0.47787269334E+02  0.19999992204E+02 0.  0.
         12    1    1    2    0    0 -0.20675050895E+02 -0.32326070439E+02 -0.20277841669E+02  0.43400730666E+02  0.00000000000E+00 0. -1.
         11    1    3    3    0    0  0.14237646541E+02  0.17625094780E+02  0.91989400878E+01  0.24453528253E+02  0.51100000000E-03 0. -1.
        -11    1    3    3    0    0  0.10214367481E+02  0.10121309976E+02  0.62401307377E+01  0.15675249617E+02  0.51100000000E-03 0.  1.
         12    1    3    3    0    0 -0.37769631272E+01  0.45796656838E+01  0.48387708437E+01  0.76584914649E+01  0.00000000000E+00 0. -1.
</event>
<event>
 7    1  0.2237500E-009  0.4778727E+02  0.7816164E-02  0.1312668E+00
        -11   -1    0    0    0    0  0.00000000000E+00  0.00000000000E+00  0.45593999997E+02  0.45594000000E+02  0.51100000000E-03 0. -1.
         11   -1    0    0    0    0 -0.00000000000E+00 -0.00000000000E+00 -0.45593999997E+02  0.45594000000E+02  0.51100000000E-03 0.  1.
    9900012    2    1    2    0    0  0.20302472325E+02 -0.17636303556E+02 -0.34064552534E+02  0.47787270455E+02  0.19999997314E+02 0.  0.
         12    1    1    2    0    0 -0.20302472325E+02  0.17636303556E+02  0.34064552534E+02  0.43400729545E+02  0.00000000000E+00 0. -1.
         11    1    3    3    0    0  0.40422744197E+01 -0.11788901791E+02 -0.91356722986E+01  0.15452465710E+02  0.51100000000E-03 0. -1.
        -11    1    3    3    0    0  0.13519201116E+02 -0.91269902851E+01 -0.19391572716E+02  0.25339768017E+02  0.51100000000E-03 0.  1.
         12    1    3    3    0    0  0.27409967888E+01  0.32795885199E+01 -0.55373075198E+01  0.69950367280E+01  0.00000000000E+00 0. -1.
</event>
<event>
 7    1  0.3073275E-009  0.4778727E+02  0.7816164E-02  0.1312668E+00
        -11   -1    0    0    0    0  0.00000000000E+00  0.00000000000E+00  0.45593999997E+02  0.45594000000E+02  0.51100000000E-03 0. -1.
         11   -1    0    0    0    0 -0.00000000000E+00 -0.00000000000E+00 -0.45593999997E+02  0.45594000000E+02  0.51100000000E-03 0.  1.
    9900012    2    1    2    0    0  0.61031247504E+01  0.18037842464E+02 -0.39000145016E+02  0.47787271852E+02  0.20000003683E+02 0.  0.
         12    1    1    2    0    0 -0.61031247504E+01 -0.18037842464E+02  0.39000145016E+02  0.43400728148E+02  0.00000000000E+00 0. -1.
         11    1    3    3    0    0  0.44838036255E+01  0.19649243658E+01 -0.19010606047E+01  0.52516144565E+01  0.51100000000E-03 0.  1.
        -11    1    3    3    0    0 -0.32182490541E+01  0.48070449742E+01 -0.34806233545E+01  0.67512626637E+01  0.51100000000E-03 0. -1.
        -12    1    3    3    0    0  0.48375701790E+01  0.11265873124E+02 -0.33618461057E+02  0.35784394732E+02  0.00000000000E+00 0.  1.
</event>
<event>
 7    1  0.2887151E-009  0.4778725E+02  0.7816164E-02  0.1312668E+00
        -11   -1    0    0    0    0  0.00000000000E+00  0.00000000000E+00  0.45593999997E+02  0.45594000000E+02  0.51100000000E-03 0.  1.
         11   -1    0    0    0    0 -0.00000000000E+00 -0.00000000000E+00 -0.45593999997E+02  0.45594000000E+02  0.51100000000E-03 0. -1.
    9900012    2    1    2    0    0 -0.42459055568E+02  0.84624419934E+01  0.30398305131E+01  0.47787252383E+02  0.19999914913E+02 0.  0.
         12    1    1    2    0    0  0.42459055568E+02 -0.84624419934E+01 -0.30398305131E+01  0.43400747617E+02  0.00000000000E+00 0. -1.
         11    1    3    3    0    0 -0.31866565017E+01  0.31329052864E+00 -0.35978524663E+01  0.48163755300E+01  0.51100000000E-03 0. -1.
        -11    1    3    3    0    0 -0.81087114873E+01  0.65379977067E+01  0.54197300175E+01  0.11741809474E+02  0.51100000000E-03 0.  1.
        -12    1    3    3    0    0 -0.31163687579E+02  0.16111537580E+01  0.12179529619E+01  0.31229067379E+02  0.00000000000E+00 0.  1.
</event>
<event>
 7    1  0.2237500E-009  0.4778727E+02  0.7816164E-02  0.1312668E+00
        -11   -1    0    0    0    0  0.00000000000E+00  0.00000000000E+00  0.45593999997E+02  0.45594000000E+02  0.51100000000E-03 0.  1.
         11   -1    0    0    0    0 -0.00000000000E+00 -0.00000000000E+00 -0.45593999997E+02  0.45594000000E+02  0.51100000000E-03 0. -1.
    9900012    2    1    2    0    0  0.37102670955E+02  0.76859212960E+01  0.21164631406E+02  0.47787271887E+02  0.20000003843E+02 0.  0.
         12    1    1    2    0    0 -0.37102670955E+02 -0.76859212960E+01 -0.21164631406E+02  0.43400728113E+02  0.00000000000E+00 0. -1.
         11    1    3    3    0    0  0.72348160287E+01 -0.10977453435E+01  0.31255308904E+01  0.79571698119E+01  0.51100000000E-03 0. -1.
        -11    1    3    3    0    0  0.41314865858E-01  0.13688660787E+01 -0.25097438798E+01  0.28590760505E+01  0.51100000000E-03 0.  1.
        -12    1    3    3    0    0  0.29826540061E+02  0.74148005608E+01  0.20548844395E+02  0.36971026025E+02  0.00000000000E+00 0.  1.
</event>
<event>
 7    1  0.2237500E-009  0.4778732E+02  0.7816164E-02  0.1312668E+00
        -11   -1    0    0    0    0  0.00000000000E+00  0.00000000000E+00  0.45593999997E+02  0.45594000000E+02  0.51100000000E-03 0.  1.
         11   -1    0    0    0    0 -0.00000000000E+00 -0.00000000000E+00 -0.45593999997E+02  0.45594000000E+02  0.51100000000E-03 0. -1.
    9900012    2    1    2    0    0 -0.30969411635E+02 -0.36156468345E+01  0.30190086348E+02  0.47787324052E+02  0.20000241679E+02 0.  0.
         12    1    1    2    0    0  0.30969411635E+02  0.36156468345E+01 -0.30190086348E+02  0.43400675948E+02  0.00000000000E+00 0. -1.
         11    1    3    3    0    0 -0.30195155874E+02  0.10249765495E+01  0.26063826835E+02  0.39901392015E+02  0.51100000000E-03 0.  1.
        -11    1    3    3    0    0 -0.19636922677E+01 -0.26786132101E+01  0.44669413073E+01  0.55663831125E+01  0.51100000000E-03 0. -1.
        -12    1    3    3    0    0  0.11894365070E+01 -0.19620101740E+01 -0.34068179356E+00  0.23195489241E+01  0.00000000000E+00 0.  1.
</event>
<event>
 7    1  0.2237500E-009  0.4778727E+02  0.7816164E-02  0.1312668E+00
        -11   -1    0    0    0    0  0.00000000000E+00  0.00000000000E+00  0.45593999997E+02  0.45594000000E+02  0.51100000000E-03 0. -1.
         11   -1    0    0    0    0 -0.00000000000E+00 -0.00000000000E+00 -0.45593999997E+02  0.45594000000E+02  0.51100000000E-03 0.  1.
    9900012    2    1    2    0    0 -0.17555580971E+02 -0.38890107225E+02 -0.79362940845E+01  0.47787266976E+02  0.19999981451E+02 0.  0.
         12    1    1    2    0    0  0.17555580971E+02  0.38890107225E+02  0.79362940845E+01  0.43400733024E+02  0.00000000000E+00 0. -1.
         11    1    3    3    0    0 -0.41859726268E+01 -0.26809209401E+01  0.18507535237E+01  0.53042429041E+01  0.51100000000E-03 0. -1.
        -11    1    3    3    0    0 -0.10249922872E+02 -0.18621569021E+02  0.15733394561E+01  0.21314294475E+02  0.51100000000E-03 0.  1.
        -12    1    3    3    0    0 -0.31196854722E+01 -0.17587617264E+02 -0.11360387064E+02  0.21168729597E+02  0.00000000000E+00 0.  1.
</event>
<event>
 7    1  0.2237500E-009  0.4778727E+02  0.7816164E-02  0.1312668E+00
        -11   -1    0    0    0    0  0.00000000000E+00  0.00000000000E+00  0.45593999997E+02  0.45594000000E+02  0.51100000000E-03 0. -1.
         11   -1    0    0    0    0 -0.00000000000E+00 -0.00000000000E+00 -0.45593999997E+02  0.45594000000E+02  0.51100000000E-03 0.  1.
    9900012    2    1    2    0    0  0.98007808170E+01 -0.36358155472E+02 -0.21578977580E+02  0.47787273655E+02  0.20000011901E+02 0.  0.
         12    1    1    2    0    0 -0.98007808170E+01  0.36358155472E+02  0.21578977580E+02  0.43400726345E+02  0.00000000000E+00 0. -1.
         11    1    3    3    0    0  0.32097348716E+01 -0.12198071038E+02  0.13816456324E+01  0.12688746191E+02  0.51100000000E-03 0. -1.
        -11    1    3    3    0    0  0.16434668494E+01 -0.56875241270E+00  0.96753240870E-01  0.17417875998E+01  0.51100000000E-03 0.  1.
        -12    1    3    3    0    0  0.49475790960E+01 -0.23591332021E+02 -0.23057376453E+02  0.33356739863E+02  0.00000000000E+00 0.  1.
</event>
<event>
 7    1  0.2237500E-009  0.4778727E+02  0.7816164E-02  0.1312668E+00
        -11   -1    0    0    0    0  0.00000000000E+00  0.00000000000E+00  0.45593999997E+02  0.45594000000E+02  0.51100000000E-03 0.  1.
         11   -1    0    0    0    0 -0.00000000000E+00 -0.00000000000E+00 -0.45593999997E+02  0.45594000000E+02  0.51100000000E-03 0. -1.
    9900012    2    1    2    0    0 -0.97471298082E+01  0.35323983454E+02  0.23255818508E+02  0.47787269119E+02  0.19999991220E+02 0.  0.
         12    1    1    2    0    0  0.97471298082E+01 -0.35323983454E+02 -0.23255818508E+02  0.43400730881E+02  0.00000000000E+00 0. -1.
         11    1    3    3    0    0  0.13182362032E+01  0.81658091543E-02  0.37165277450E+01  0.39433985480E+01  0.51100000000E-03 0. -1.
        -11    1    3    3    0    0  0.28194986733E+01  0.95631468252E+01  0.43352787180E+01  0.10871889983E+02  0.51100000000E-03 0.  1.
         12    1    3    3    0    0 -0.13884864685E+02  0.25752670820E+02  0.15204012045E+02  0.32971980588E+02  0.00000000000E+00 0. -1.
</event>
<event>
 7    1  0.2237500E-009  0.4778727E+02  0.7816164E-02  0.1312668E+00
        -11   -1    0    0    0    0  0.00000000000E+00  0.00000000000E+00  0.45593999997E+02  0.45594000000E+02  0.51100000000E-03 0.  1.
         11   -1    0    0    0    0 -0.00000000000E+00 -0.00000000000E+00 -0.45593999997E+02  0.45594000000E+02  0.51100000000E-03 0. -1.
    9900012    2    1    2    0    0  0.39166529704E+02 -0.15206166503E+02  0.10880202781E+02  0.47787270036E+02  0.19999995404E+02 0.  0.
         12    1    1    2    0    0 -0.39166529704E+02  0.15206166503E+02 -0.10880202781E+02  0.43400729964E+02  0.00000000000E+00 0. -1.
         11    1    3    3    0    0  0.12458062266E+02 -0.34502384667E+01  0.84171067818E+01  0.15425794882E+02  0.51100000000E-03 0.  1.
        -11    1    3    3    0    0  0.20421404726E+02 -0.31659874488E+01  0.53213688095E+01  0.21339498912E+02  0.51100000000E-03 0. -1.
         12    1    3    3    0    0  0.62870627121E+01 -0.85899405879E+01 -0.28582728101E+01  0.11021976243E+02  0.00000000000E+00 0. -1.
</event>
<event>
 7    1  0.2237500E-009  0.4778728E+02  0.7816164E-02  0.1312668E+00
        -11   -1    0    0    0    0  0.00000000000E+00  0.00000000000E+00  0.45593999997E+02  0.45594000000E+02  0.51100000000E-03 0.  1.
         11   -1    0    0    0    0 -0.00000000000E+00 -0.00000000000E+00 -0.45593999997E+02  0.45594000000E+02  0.51100000000E-03 0. -1.
    9900012    2    1    2    0    0  0.28042932484E+02 -0.22031666134E+00  0.33123527650E+02  0.47787277821E+02  0.20000030895E+02 0.  0.
         12    1    1    2    0    0 -0.28042932484E+02  0.22031666134E+00 -0.33123527650E+02  0.43400722179E+02  0.00000000000E+00 0. -1.
         11    1    3    3    0    0  0.25489340276E+02  0.32592483276E+01  0.16848648971E+02  0.30727937447E+02  0.51100000000E-03 0. -1.
        -11    1    3    3    0    0  0.17074081793E+01 -0.22861356765E+00  0.64480639144E+01  0.66742067214E+01  0.51100000000E-03 0.  1.
         12    1    3    3    0    0  0.84618402866E+00 -0.32509514213E+01  0.98268147646E+01  0.10385133652E+02  0.00000000000E+00 0. -1.
</event>
<event>
 7    1  0.2237500E-009  0.4778727E+02  0.7816164E-02  0.1312668E+00
        -11   -1    0    0    0    0  0.00000000000E+00  0.00000000000E+00  0.45593999997E+02  0.45594000000E+02  0.51100000000E-03 0.  1.
         11   -1    0    0    0    0 -0.00000000000E+00 -0.00000000000E+00 -0.45593999997E+02  0.45594000000E+02  0.51100000000E-03 0. -1.
    9900012    2    1    2    0    0 -0.22250318995E+02  0.36551091523E+02  0.72501077632E+01  0.47787273630E+02  0.20000011787E+02 0.  0.
         12    1    1    2    0    0  0.22250318995E+02 -0.36551091523E+02 -0.72501077632E+01  0.43400726370E+02  0.00000000000E+00 0. -1.
         11    1    3    3    0    0 -0.10068378740E+02  0.60968686620E+01  0.17722500370E+01  0.11903147835E+02  0.51100000000E-03 0.  1.
        -11    1    3    3    0    0 -0.30245952285E+01 -0.54940753254E+00  0.10817299101E+01  0.32588594312E+01  0.51100000000E-03 0. -1.
        -12    1    3    3    0    0 -0.91573450266E+01  0.31003630394E+02  0.43961278161E+01  0.32625266364E+02  0.00000000000E+00 0.  1.
</event>
<event>
 7    1  0.2237500E-009  0.4778727E+02  0.7816164E-02  0.1312668E+00
        -11   -1    0    0    0    0  0.00000000000E+00  0.00000000000E+00  0.45593999997E+02  0.45594000000E+02  0.51100000000E-03 0.  1.
         11   -1    0    0    0    0 -0.00000000000E+00 -0.00000000000E+00 -0.45593999997E+02  0.45594000000E+02  0.51100000000E-03 0. -1.
    9900012    2    1    2    0    0  0.14384627100E+02  0.96007656562E+01  0.39806174283E+02  0.47787266031E+02  0.19999977143E+02 0.  0.
         12    1    1    2    0    0 -0.14384627100E+02 -0.96007656562E+01 -0.39806174283E+02  0.43400733969E+02  0.00000000000E+00 0. -1.
         11    1    3    3    0    0 -0.11219177122E+01  0.26995572285E+01  0.19753367047E+02  0.19968520690E+02  0.51100000000E-03 0. -1.
        -11    1    3    3    0    0  0.24688858544E+01 -0.20698205045E+01  0.51851265579E+01  0.61045140646E+01  0.51100000000E-03 0.  1.
        -12    1    3    3    0    0  0.13037658957E+02  0.89710289323E+01  0.14867680678E+02  0.21714231276E+02  0.00000000000E+00 0.  1.
</event>
<event>
 7    1  0.2237500E-009  0.4778727E+02  0.7816164E-02  0.1312668E+00
        -11   -1    0    0    0    0  0.00000000000E+00  0.00000000000E+00  0.45593999997E+02  0.45594000000E+02  0.51100000000E-03 0. -1.
         11   -1    0    0    0    0 -0.00000000000E+00 -0.00000000000E+00 -0.45593999997E+02  0.45594000000E+02  0.51100000000E-03 0.  1.
    9900012    2    1    2    0    0 -0.32128737824E+01 -0.34223867255E+02 -0.26495801418E+02  0.47787272579E+02  0.20000006999E+02 0.  0.
         12    1    1    2    0    0  0.32128737824E+01  0.34223867255E+02  0.26495801418E+02  0.43400727421E+02  0.00000000000E+00 0. -1.
         11    1    3    3    0    0 -0.32405966509E+01 -0.21950490662E+01 -0.15143352599E+01  0.41967747852E+01  0.51100000000E-03 0. -1.
        -11    1    3    3    0    0  0.60254142708E+01 -0.20771127699E+02 -0.97507581351E+01  0.23723883482E+02  0.51100000000E-03 0.  1.
        -12    1    3    3    0    0 -0.59976914023E+01 -0.11257690490E+02 -0.15230708023E+02  0.19866614312E+02  0.00000000000E+00 0.  1.
</event>
<event>
 7    1  0.2237500E-009  0.4778727E+02  0.7816164E-02  0.1312668E+00
        -11   -1    0    0    0    0  0.00000000000E+00  0.00000000000E+00  0.45593999997E+02  0.45594000000E+02  0.51100000000E-03 0.  1.
         11   -1    0    0    0    0 -0.00000000000E+00 -0.00000000000E+00 -0.45593999997E+02  0.45594000000E+02  0.51100000000E-03 0. -1.
    9900012    2    1    2    0    0 -0.17198944481E+02  0.23854726373E+02  0.31918201165E+02  0.47787271582E+02  0.20000002452E+02 0.  0.
         12    1    1    2    0    0  0.17198944481E+02 -0.23854726373E+02 -0.31918201165E+02  0.43400728418E+02  0.00000000000E+00 0. -1.
         11    1    3    3    0    0  0.35676240893E+00 -0.96315974931E+00  0.79582960443E+00  0.12993464278E+01  0.51100000000E-03 0. -1.
        -11    1    3    3    0    0 -0.21046619847E+00  0.40558234796E+01  0.13748013967E+02  0.14335337053E+02  0.51100000000E-03 0.  1.
         12    1    3    3    0    0 -0.17345240691E+02  0.20762062643E+02  0.17374357593E+02  0.32152588101E+02  0.00000000000E+00 0. -1.
</event>
<event>
 7    1  0.2237500E-009  0.4778727E+02  0.7816164E-02  0.1312668E+00
        -11   -1    0    0    0    0  0.00000000000E+00  0.00000000000E+00  0.45593999997E+02  0.45594000000E+02  0.51100000000E-03 0. -1.
         11   -1    0    0    0    0 -0.00000000000E+00 -0.00000000000E+00 -0.45593999997E+02  0.45594000000E+02  0.51100000000E-03 0.  1.
    9900012    2    1    2    0    0 -0.21732005640E+02 -0.36145589904E+02 -0.10239106316E+02  0.47787273776E+02  0.20000012453E+02 0.  0.
         12    1    1    2    0    0  0.21732005640E+02  0.36145589904E+02  0.10239106316E+02  0.43400726224E+02  0.00000000000E+00 0. -1.
         11    1    3    3    0    0 -0.45592355363E+01 -0.27572441565E+00  0.18838640793E+01  0.49408093223E+01  0.51100000000E-03 0. -1.
        -11    1    3    3    0    0 -0.10759735223E+02 -0.10931292579E+02 -0.41337439482E+01  0.15885619245E+02  0.51100000000E-03 0.  1.
         12    1    3    3    0    0 -0.64130348815E+01 -0.24938572909E+02 -0.79892264468E+01  0.26960845208E+02  0.00000000000E+00 0. -1.
</event>
<event>
 7    1  0.2237500E-009  0.4778727E+02  0.7816164E-02  0.1312668E+00
        -11   -1    0    0    0    0  0.00000000000E+00  0.00000000000E+00  0.45593999997E+02  0.45594000000E+02  0.51100000000E-03 0.  1.
         11   -1    0    0    0    0 -0.00000000000E+00 -0.00000000000E+00 -0.45593999997E+02  0.45594000000E+02  0.51100000000E-03 0. -1.
    9900012    2    1    2    0    0 -0.27512468295E+02 -0.14570741925E+02  0.30238734369E+02  0.47787268575E+02  0.19999988743E+02 0.  0.
         12    1    1    2    0    0  0.27512468295E+02  0.14570741925E+02 -0.30238734369E+02  0.43400731425E+02  0.00000000000E+00 0. -1.
         11    1    3    3    0    0 -0.45403864343E+01  0.25876229121E+01  0.11051100817E+02  0.12224472620E+02  0.51100000000E-03 0. -1.
        -11    1    3    3    0    0 -0.88090657551E+00 -0.27537136535E+01 -0.94961174254E-01  0.28927414620E+01  0.51100000000E-03 0.  1.
        -12    1    3    3    0    0 -0.22091175285E+02 -0.14404651184E+02  0.19282594727E+02  0.32670054493E+02  0.00000000000E+00 0.  1.
</event>
<event>
 7    1  0.2237500E-009  0.4778727E+02  0.7816164E-02  0.1312668E+00
        -11   -1    0    0    0    0  0.00000000000E+00  0.00000000000E+00  0.45593999997E+02  0.45594000000E+02  0.51100000000E-03 0. -1.
         11   -1    0    0    0    0 -0.00000000000E+00 -0.00000000000E+00 -0.45593999997E+02  0.45594000000E+02  0.51100000000E-03 0.  1.
    9900012    2    1    2    0    0  0.35585262488E+01  0.21569845412E+02 -0.37492692805E+02  0.47787270122E+02  0.19999995794E+02 0.  0.
         12    1    1    2    0    0 -0.35585262488E+01 -0.21569845412E+02  0.37492692805E+02  0.43400729878E+02  0.00000000000E+00 0. -1.
         11    1    3    3    0    0  0.13366556307E+01  0.60327893617E+01 -0.29585293435E+01  0.68508460714E+01  0.51100000000E-03 0. -1.
        -11    1    3    3    0    0 -0.46727364720E+01  0.14208684723E+02 -0.23798768277E+02  0.28108763037E+02  0.51100000000E-03 0.  1.
         12    1    3    3    0    0  0.68946070901E+01  0.13283713271E+01 -0.10735395184E+02  0.12827661013E+02  0.00000000000E+00 0. -1.
</event>
<event>
 7    1  0.2237500E-009  0.4778727E+02  0.7816164E-02  0.1312668E+00
        -11   -1    0    0    0    0  0.00000000000E+00  0.00000000000E+00  0.45593999997E+02  0.45594000000E+02  0.51100000000E-03 0.  1.
         11   -1    0    0    0    0 -0.00000000000E+00 -0.00000000000E+00 -0.45593999997E+02  0.45594000000E+02  0.51100000000E-03 0. -1.
    9900012    2    1    2    0    0  0.23381316643E+02 -0.98474266315E+01  0.35213143619E+02  0.47787271173E+02  0.20000000586E+02 0.  0.
         12    1    1    2    0    0 -0.23381316643E+02  0.98474266315E+01 -0.35213143619E+02  0.43400728827E+02  0.00000000000E+00 0. -1.
         11    1    3    3    0    0  0.18401565601E+02 -0.84313022543E+01  0.15400095752E+02  0.25433588495E+02  0.51100000000E-03 0. -1.
        -11    1    3    3    0    0  0.67432338061E+01  0.11676202098E+01  0.10536836306E+02  0.12564213414E+02  0.51100000000E-03 0.  1.
        -12    1    3    3    0    0 -0.17634827649E+01 -0.25837445870E+01  0.92762115606E+01  0.97894692639E+01  0.00000000000E+00 0.  1.
</event>
<event>
 7    1  0.2237500E-009  0.4778727E+02  0.7816164E-02  0.1312668E+00
        -11   -1    0    0    0    0  0.00000000000E+00  0.00000000000E+00  0.45593999997E+02  0.45594000000E+02  0.51100000000E-03 0. -1.
         11   -1    0    0    0    0 -0.00000000000E+00 -0.00000000000E+00 -0.45593999997E+02  0.45594000000E+02  0.51100000000E-03 0.  1.
    9900012    2    1    2    0    0  0.17095010024E+02  0.39890115921E+02 -0.40323435525E+00  0.47787270584E+02  0.19999997901E+02 0.  0.
         12    1    1    2    0    0 -0.17095010024E+02 -0.39890115921E+02  0.40323435525E+00  0.43400729416E+02  0.00000000000E+00 0. -1.
         11    1    3    3    0    0  0.66197555899E+01  0.10911289097E+02  0.26237704203E+01  0.13029258049E+02  0.51100000000E-03 0. -1.
        -11    1    3    3    0    0  0.16472284684E+01  0.14574868942E+02  0.57082580576E+01  0.15739262264E+02  0.51100000000E-03 0.  1.
        -12    1    3    3    0    0  0.88280259653E+01  0.14403957882E+02 -0.87352628331E+01  0.19018750271E+02  0.00000000000E+00 0.  1.
</event>
<event>
 7    1  0.2237500E-009  0.4778723E+02  0.7816164E-02  0.1312668E+00
        -11   -1    0    0    0    0  0.00000000000E+00  0.00000000000E+00  0.45593999997E+02  0.45594000000E+02  0.51100000000E-03 0.  1.
         11   -1    0    0    0    0 -0.00000000000E+00 -0.00000000000E+00 -0.45593999997E+02  0.45594000000E+02  0.51100000000E-03 0. -1.
    9900012    2    1    2    0    0  0.41472963976E+02  0.15393037028E+01  0.12698449042E+02  0.47787230365E+02  0.19999814525E+02 0.  0.
         12    1    1    2    0    0 -0.41472963976E+02 -0.15393037028E+01 -0.12698449042E+02  0.43400769635E+02  0.00000000000E+00 0. -1.
         11    1    3    3    0    0  0.17647413796E+02 -0.46842695575E+01  0.59071736874E-01  0.18258616724E+02  0.51100000000E-03 0. -1.
        -11    1    3    3    0    0  0.18809135497E+02  0.33313813594E+01  0.46468247146E+01  0.19658958774E+02  0.51100000000E-03 0.  1.
        -12    1    3    3    0    0  0.50164146839E+01  0.28921919009E+01  0.79925525903E+01  0.98696548664E+01  0.00000000000E+00 0.  1.
</event>
<event>
 7    1  0.2237500E-009  0.4778727E+02  0.7816164E-02  0.1312668E+00
        -11   -1    0    0    0    0  0.00000000000E+00  0.00000000000E+00  0.45593999997E+02  0.45594000000E+02  0.51100000000E-03 0. -1.
         11   -1    0    0    0    0 -0.00000000000E+00 -0.00000000000E+00 -0.45593999997E+02  0.45594000000E+02  0.51100000000E-03 0.  1.
    9900012    2    1    2    0    0 -0.36551936704E+01 -0.71715363630E+01 -0.42647765184E+02  0.47787271322E+02  0.20000001265E+02 0.  0.
         12    1    1    2    0    0  0.36551936704E+01  0.71715363630E+01  0.42647765184E+02  0.43400728678E+02  0.00000000000E+00 0. -1.
         11    1    3    3    0    0  0.19485796404E+01 -0.11088689226E+01 -0.27244862782E+01  0.35283677024E+01  0.51100000000E-03 0. -1.
        -11    1    3    3    0    0 -0.11313813086E+02 -0.90512863809E+00 -0.22047791183E+02  0.24797716038E+02  0.51100000000E-03 0.  1.
        -12    1    3    3    0    0  0.57100397755E+01 -0.51575388024E+01 -0.17875487723E+02  0.19461187581E+02  0.00000000000E+00 0.  1.
</event>
<event>
 7    1  0.2237500E-009  0.4778727E+02  0.7816164E-02  0.1312668E+00
        -11   -1    0    0    0    0  0.00000000000E+00  0.00000000000E+00  0.45593999997E+02  0.45594000000E+02  0.51100000000E-03 0.  1.
         11   -1    0    0    0    0 -0.00000000000E+00 -0.00000000000E+00 -0.45593999997E+02  0.45594000000E+02  0.51100000000E-03 0. -1.
    9900012    2    1    2    0    0  0.24540654602E+02 -0.46908668855E+01  0.35487677949E+02  0.47787271358E+02  0.20000001432E+02 0.  0.
         12    1    1    2    0    0 -0.24540654602E+02  0.46908668855E+01 -0.35487677949E+02  0.43400728642E+02  0.00000000000E+00 0. -1.
         11    1    3    3    0    0  0.15780978429E+01 -0.22786790078E+01  0.24159047379E+01  0.36768691555E+01  0.51100000000E-03 0. -1.
        -11    1    3    3    0    0  0.13668452274E+02  0.34215309436E+01  0.29291496087E+02  0.32504233645E+02  0.51100000000E-03 0.  1.
        -12    1    3    3    0    0  0.92941044849E+01 -0.58337188213E+01  0.37802771236E+01  0.11606168558E+02  0.00000000000E+00 0.  1.
</event>
<event>
 7    1  0.2237500E-009  0.4778726E+02  0.7816164E-02  0.1312668E+00
        -11   -1    0    0    0    0  0.00000000000E+00  0.00000000000E+00  0.45593999997E+02  0.45594000000E+02  0.51100000000E-03 0. -1.
         11   -1    0    0    0    0 -0.00000000000E+00 -0.00000000000E+00 -0.45593999997E+02  0.45594000000E+02  0.51100000000E-03 0.  1.
    9900012    2    1    2    0    0 -0.39051607487E+02  0.33332088440E+01 -0.18640976226E+02  0.47787258956E+02  0.19999944882E+02 0.  0.
         12    1    1    2    0    0  0.39051607487E+02 -0.33332088440E+01  0.18640976226E+02  0.43400741044E+02  0.00000000000E+00 0. -1.
         11    1    3    3    0    0 -0.62396978343E+01  0.14557221972E+01 -0.93979533449E+01  0.11374290462E+02  0.51100000000E-03 0. -1.
        -11    1    3    3    0    0  0.24993615466E+00  0.13625086064E+01 -0.22087120766E+01  0.26071645676E+01  0.51100000000E-03 0.  1.
         12    1    3    3    0    0 -0.33061845808E+02  0.51497804040E+00 -0.70343108045E+01  0.33805803926E+02  0.00000000000E+00 0. -1.
</event>
<event>
 7    1  0.2237500E-009  0.4778727E+02  0.7816164E-02  0.1312668E+00
        -11   -1    0    0    0    0  0.00000000000E+00  0.00000000000E+00  0.45593999997E+02  0.45594000000E+02  0.51100000000E-03 0.  1.
         11   -1    0    0    0    0 -0.00000000000E+00 -0.00000000000E+00 -0.45593999997E+02  0.45594000000E+02  0.51100000000E-03 0. -1.
    9900012    2    1    2    0    0 -0.37295006674E+02 -0.22136232848E+02  0.16410378641E+01  0.47787270365E+02  0.19999996904E+02 0.  0.
         12    1    1    2    0    0  0.37295006674E+02  0.22136232848E+02 -0.16410378641E+01  0.43400729635E+02  0.00000000000E+00 0. -1.
         11    1    3    3    0    0 -0.11910212368E+01  0.31874587808E+01  0.99074560226E+00  0.35440093363E+01  0.51100000000E-03 0. -1.
        -11    1    3    3    0    0 -0.64470078892E+01 -0.61224408303E+01  0.62769660145E+00  0.89130351581E+01  0.51100000000E-03 0.  1.
         12    1    3    3    0    0 -0.29656977548E+02 -0.19201250799E+02  0.22595660390E-01  0.35330225871E+02  0.00000000000E+00 0. -1.
</event>
<event>
 7    1  0.2237500E-009  0.4778728E+02  0.7816164E-02  0.1312668E+00
        -11   -1    0    0    0    0  0.00000000000E+00  0.00000000000E+00  0.45593999997E+02  0.45594000000E+02  0.51100000000E-03 0.  1.
         11   -1    0    0    0    0 -0.00000000000E+00 -0.00000000000E+00 -0.45593999997E+02  0.45594000000E+02  0.51100000000E-03 0. -1.
    9900012    2    1    2    0    0 -0.20048748845E+02 -0.89019071456E+00  0.38482177028E+02  0.47787277441E+02  0.20000029166E+02 0.  0.
         12    1    1    2    0    0  0.20048748845E+02  0.89019071456E+00 -0.38482177028E+02  0.43400722559E+02  0.00000000000E+00 0. -1.
         11    1    3    3    0    0 -0.60302884197E+01 -0.16483889527E+01  0.39757012957E+01  0.74086277824E+01  0.51100000000E-03 0. -1.
        -11    1    3    3    0    0 -0.91815830564E+01  0.22576561284E+01  0.55102464299E+01  0.10943550365E+02  0.51100000000E-03 0.  1.
         12    1    3    3    0    0 -0.48368773693E+01 -0.14994578903E+01  0.28996229303E+02  0.29435099294E+02  0.00000000000E+00 0. -1.
</event>
<event>
 7    1  0.2237500E-009  0.4778727E+02  0.7816164E-02  0.1312668E+00
        -11   -1    0    0    0    0  0.00000000000E+00  0.00000000000E+00  0.45593999997E+02  0.45594000000E+02  0.51100000000E-03 0.  1.
         11   -1    0    0    0    0 -0.00000000000E+00 -0.00000000000E+00 -0.45593999997E+02  0.45594000000E+02  0.51100000000E-03 0. -1.
    9900012    2    1    2    0    0 -0.17234184081E+02 -0.27892413858E+02  0.28436233825E+02  0.47787271366E+02  0.20000001467E+02 0.  0.
         12    1    1    2    0    0  0.17234184081E+02  0.27892413858E+02 -0.28436233825E+02  0.43400728634E+02  0.00000000000E+00 0. -1.
         11    1    3    3    0    0 -0.51635622675E+01  0.53205054260E+00  0.57510879471E+01  0.77472876484E+01  0.51100000000E-03 0. -1.
        -11    1    3    3    0    0 -0.11077495786E+02 -0.19576959660E+02  0.10181955448E+02  0.24690898716E+02  0.51100000000E-03 0.  1.
         12    1    3    3    0    0 -0.99312602694E+00 -0.88475047409E+01  0.12503190430E+02  0.15349085001E+02  0.00000000000E+00 0. -1.
</event>
<event>
 7    1  0.2237500E-009  0.4778727E+02  0.7816164E-02  0.1312668E+00
        -11   -1    0    0    0    0  0.00000000000E+00  0.00000000000E+00  0.45593999997E+02  0.45594000000E+02  0.51100000000E-03 0.  1.
         11   -1    0    0    0    0 -0.00000000000E+00 -0.00000000000E+00 -0.45593999997E+02  0.45594000000E+02  0.51100000000E-03 0. -1.
    9900012    2    1    2    0    0 -0.70855038577E+00 -0.28143378697E+02  0.33031368486E+02  0.47787272907E+02  0.20000008493E+02 0.  0.
         12    1    1    2    0    0  0.70855038577E+00  0.28143378697E+02 -0.33031368486E+02  0.43400727093E+02  0.00000000000E+00 0. -1.
         11    1    3    3    0    0  0.56746636073E+01 -0.10774700669E+02  0.80204737956E+01  0.14581631655E+02  0.51100000000E-03 0. -1.
        -11    1    3    3    0    0 -0.17081229369E+01 -0.14450583645E+02  0.11283888012E+02  0.18413668308E+02  0.51100000000E-03 0.  1.
         12    1    3    3    0    0 -0.46750910561E+01 -0.29180943833E+01  0.13727006679E+02  0.14791972944E+02  0.00000000000E+00 0. -1.
</event>
<event>
 7    1  0.2237500E-009  0.4778727E+02  0.7816164E-02  0.1312668E+00
        -11   -1    0    0    0    0  0.00000000000E+00  0.00000000000E+00  0.45593999997E+02  0.45594000000E+02  0.51100000000E-03 0.  1.
         11   -1    0    0    0    0 -0.00000000000E+00 -0.00000000000E+00 -0.45593999997E+02  0.45594000000E+02  0.51100000000E-03 0. -1.
    9900012    2    1    2    0    0 -0.37529618777E+02  0.14265420516E+01  0.21751228084E+02  0.47787271539E+02  0.20000002256E+02 0.  0.
         12    1    1    2    0    0  0.37529618777E+02 -0.14265420516E+01 -0.21751228084E+02  0.43400728461E+02  0.00000000000E+00 0. -1.
         11    1    3    3    0    0 -0.13440377324E+01 -0.58079814611E-01  0.28375939622E+01  0.31403424091E+01  0.51100000000E-03 0. -1.
        -11    1    3    3    0    0 -0.34803155933E+02  0.63557534246E+01  0.16465325060E+02  0.39022585692E+02  0.51100000000E-03 0.  1.
         12    1    3    3    0    0 -0.13824251111E+01 -0.48711315584E+01  0.24483090623E+01  0.56243434383E+01  0.00000000000E+00 0. -1.
</event>
<event>
 7    1  0.2237500E-009  0.4778727E+02  0.7816164E-02  0.1312668E+00
        -11   -1    0    0    0    0  0.00000000000E+00  0.00000000000E+00  0.45593999997E+02  0.45594000000E+02  0.51100000000E-03 0. -1.
         11   -1    0    0    0    0 -0.00000000000E+00 -0.00000000000E+00 -0.45593999997E+02  0.45594000000E+02  0.51100000000E-03 0.  1.
    9900012    2    1    2    0    0  0.16713562356E+02  0.35747184359E+02 -0.18067078967E+02  0.47787266151E+02  0.19999977690E+02 0.  0.
         12    1    1    2    0    0 -0.16713562356E+02 -0.35747184359E+02  0.18067078967E+02  0.43400733849E+02  0.00000000000E+00 0. -1.
         11    1    3    3    0    0  0.62229621466E+01  0.12655001576E+02 -0.97110966148E+01  0.17122491655E+02  0.51100000000E-03 0. -1.
        -11    1    3    3    0    0  0.68122102472E+01  0.24592941066E+02 -0.75336665553E+01  0.26607801314E+02  0.51100000000E-03 0.  1.
         12    1    3    3    0    0  0.36783899618E+01 -0.15007582825E+01 -0.82231579688E+00  0.40569731825E+01  0.00000000000E+00 0. -1.
</event>
<event>
 7    1  0.2237500E-009  0.4778728E+02  0.7816164E-02  0.1312668E+00
        -11   -1    0    0    0    0  0.00000000000E+00  0.00000000000E+00  0.45593999997E+02  0.45594000000E+02  0.51100000000E-03 0. -1.
         11   -1    0    0    0    0 -0.00000000000E+00 -0.00000000000E+00 -0.45593999997E+02  0.45594000000E+02  0.51100000000E-03 0.  1.
    9900012    2    1    2    0    0  0.30883822290E+02  0.15408945610E+02 -0.26313050532E+02  0.47787277514E+02  0.20000029497E+02 0.  0.
         12    1    1    2    0    0 -0.30883822290E+02 -0.15408945610E+02  0.26313050532E+02  0.43400722486E+02  0.00000000000E+00 0. -1.
         11    1    3    3    0    0  0.19954114134E+01 -0.56969711175E-01 -0.71950551143E+01  0.74668420778E+01  0.51100000000E-03 0. -1.
        -11    1    3    3    0    0  0.21818686899E+02  0.12760106941E+02 -0.20599517140E+02  0.32606985966E+02  0.51100000000E-03 0.  1.
        -12    1    3    3    0    0  0.70697239771E+01  0.27058083804E+01  0.14815217227E+01  0.77134494695E+01  0.00000000000E+00 0.  1.
</event>
<event>
 7    1  0.2237500E-009  0.4778725E+02  0.7816164E-02  0.1312668E+00
        -11   -1    0    0    0    0  0.00000000000E+00  0.00000000000E+00  0.45593999997E+02  0.45594000000E+02  0.51100000000E-03 0.  1.
         11   -1    0    0    0    0 -0.00000000000E+00 -0.00000000000E+00 -0.45593999997E+02  0.45594000000E+02  0.51100000000E-03 0. -1.
    9900012    2    1    2    0    0  0.22570722994E+02  0.21464125621E+02  0.30223813777E+02  0.47787249495E+02  0.19999901749E+02 0.  0.
         12    1    1    2    0    0 -0.22570722994E+02 -0.21464125621E+02 -0.30223813777E+02  0.43400750505E+02  0.00000000000E+00 0. -1.
         11    1    3    3    0    0  0.11731480438E+02  0.60005711951E+01  0.11731733280E+02  0.17642790424E+02  0.51100000000E-03 0. -1.
        -11    1    3    3    0    0  0.13767426587E+02  0.83247739764E+01  0.12656464552E+02  0.20470222075E+02  0.51100000000E-03 0.  1.
         12    1    3    3    0    0 -0.29281840298E+01  0.71387804492E+01  0.58356159447E+01  0.96742369967E+01  0.00000000000E+00 0. -1.
</event>
<event>
 7    1  0.2237500E-009  0.4778727E+02  0.7816164E-02  0.1312668E+00
        -11   -1    0    0    0    0  0.00000000000E+00  0.00000000000E+00  0.45593999997E+02  0.45594000000E+02  0.51100000000E-03 0.  1.
         11   -1    0    0    0    0 -0.00000000000E+00 -0.00000000000E+00 -0.45593999997E+02  0.45594000000E+02  0.51100000000E-03 0. -1.
    9900012    2    1    2    0    0  0.90993880707E+01 -0.35211793175E+02  0.23684467068E+02  0.47787271641E+02  0.20000002719E+02 0.  0.
         12    1    1    2    0    0 -0.90993880707E+01  0.35211793175E+02 -0.23684467068E+02  0.43400728359E+02  0.00000000000E+00 0. -1.
         11    1    3    3    0    0 -0.12893950879E+00 -0.15333976649E+02  0.32503976367E+01  0.15675220902E+02  0.51100000000E-03 0. -1.
        -11    1    3    3    0    0  0.76782983193E+01 -0.20908329568E+02  0.20468805804E+02  0.30250397051E+02  0.51100000000E-03 0.  1.
         12    1    3    3    0    0  0.15500292602E+01  0.10305130426E+01 -0.34736373407E-01  0.18616536881E+01  0.00000000000E+00 0. -1.
</event>
<event>
 7    1  0.2237500E-009  0.4778724E+02  0.7816164E-02  0.1312668E+00
        -11   -1    0    0    0    0  0.00000000000E+00  0.00000000000E+00  0.45593999997E+02  0.45594000000E+02  0.51100000000E-03 0. -1.
         11   -1    0    0    0    0 -0.00000000000E+00 -0.00000000000E+00 -0.45593999997E+02  0.45594000000E+02  0.51100000000E-03 0.  1.
    9900012    2    1    2    0    0  0.39061130466E+02  0.98530103563E+01 -0.16148450754E+02  0.47787237471E+02  0.19999846924E+02 0.  0.
         12    1    1    2    0    0 -0.39061130466E+02 -0.98530103563E+01  0.16148450754E+02  0.43400762529E+02  0.00000000000E+00 0. -1.
         11    1    3    3    0    0  0.92284094014E+01  0.88687075469E+00  0.19016202067E+01  0.94639441824E+01  0.51100000000E-03 0. -1.
        -11    1    3    3    0    0  0.75369626546E+01  0.39117161720E+01  0.10194667705E+01  0.85525810270E+01  0.51100000000E-03 0.  1.
        -12    1    3    3    0    0  0.22295758410E+02  0.50544234295E+01 -0.19069537731E+02  0.29770712261E+02  0.00000000000E+00 0.  1.
</event>
<event>
 7    1  0.2237500E-009  0.4778727E+02  0.7816164E-02  0.1312668E+00
        -11   -1    0    0    0    0  0.00000000000E+00  0.00000000000E+00  0.45593999997E+02  0.45594000000E+02  0.51100000000E-03 0. -1.
         11   -1    0    0    0    0 -0.00000000000E+00 -0.00000000000E+00 -0.45593999997E+02  0.45594000000E+02  0.51100000000E-03 0.  1.
    9900012    2    1    2    0    0 -0.37536576700E+02 -0.17441285283E+02 -0.13054899833E+02  0.47787269219E+02  0.19999991677E+02 0.  0.
         12    1    1    2    0    0  0.37536576700E+02  0.17441285283E+02  0.13054899833E+02  0.43400730781E+02  0.00000000000E+00 0. -1.
         11    1    3    3    0    0 -0.48125077385E+01  0.39192828499E+01 -0.37810981824E+01  0.72675795501E+01  0.51100000000E-03 0. -1.
        -11    1    3    3    0    0 -0.32075663377E+01 -0.35026108833E+01  0.16908353224E+00  0.47524051082E+01  0.51100000000E-03 0.  1.
        -12    1    3    3    0    0 -0.29516502624E+02 -0.17857957249E+02 -0.94428851831E+01  0.35767284561E+02  0.00000000000E+00 0.  1.
</event>
<event>
 7    1  0.2237500E-009  0.4778726E+02  0.7816164E-02  0.1312668E+00
        -11   -1    0    0    0    0  0.00000000000E+00  0.00000000000E+00  0.45593999997E+02  0.45594000000E+02  0.51100000000E-03 0. -1.
         11   -1    0    0    0    0 -0.00000000000E+00 -0.00000000000E+00 -0.45593999997E+02  0.45594000000E+02  0.51100000000E-03 0.  1.
    9900012    2    1    2    0    0  0.36438333988E+02  0.54526201196E+01 -0.22937758680E+02  0.47787262411E+02  0.19999960636E+02 0.  0.
         12    1    1    2    0    0 -0.36438333988E+02 -0.54526201196E+01  0.22937758680E+02  0.43400737589E+02  0.00000000000E+00 0. -1.
         11    1    3    3    0    0  0.21570514445E+02  0.14110731973E+01 -0.11065824555E+02  0.24284371401E+02  0.51100000000E-03 0. -1.
        -11    1    3    3    0    0  0.17221465486E+02  0.45233443263E+01 -0.11087972476E+02  0.20975763425E+02  0.51100000000E-03 0.  1.
         12    1    3    3    0    0 -0.23536459429E+01 -0.48179740398E+00 -0.78396164970E+00  0.25271275850E+01  0.00000000000E+00 0. -1.
</event>
<event>
 7    1  0.2237500E-009  0.4778727E+02  0.7816164E-02  0.1312668E+00
        -11   -1    0    0    0    0  0.00000000000E+00  0.00000000000E+00  0.45593999997E+02  0.45594000000E+02  0.51100000000E-03 0. -1.
         11   -1    0    0    0    0 -0.00000000000E+00 -0.00000000000E+00 -0.45593999997E+02  0.45594000000E+02  0.51100000000E-03 0.  1.
    9900012    2    1    2    0    0 -0.41369693547E+02 -0.12595007717E+02 -0.36793576138E+01  0.47787269177E+02  0.19999991484E+02 0.  0.
         12    1    1    2    0    0  0.41369693547E+02  0.12595007717E+02  0.36793576138E+01  0.43400730823E+02  0.00000000000E+00 0. -1.
         11    1    3    3    0    0 -0.11365420590E+02 -0.37339030751E+01  0.48376115030E+01  0.12904158349E+02  0.51100000000E-03 0. -1.
        -11    1    3    3    0    0 -0.80801059081E+01 -0.78987696727E+01  0.11798948080E+00  0.11300114849E+02  0.51100000000E-03 0.  1.
        -12    1    3    3    0    0 -0.21924167048E+02 -0.96233496903E+00 -0.86349585977E+01  0.23582995979E+02  0.00000000000E+00 0.  1.
</event>
<event>
 7    1  0.2237500E-009  0.4778727E+02  0.7816164E-02  0.1312668E+00
        -11   -1    0    0    0    0  0.00000000000E+00  0.00000000000E+00  0.45593999997E+02  0.45594000000E+02  0.51100000000E-03 0. -1.
         11   -1    0    0    0    0 -0.00000000000E+00 -0.00000000000E+00 -0.45593999997E+02  0.45594000000E+02  0.51100000000E-03 0.  1.
    9900012    2    1    2    0    0 -0.33812694303E+02  0.14024640266E+02 -0.23315973395E+02  0.47787269062E+02  0.19999990959E+02 0.  0.
         12    1    1    2    0    0  0.33812694303E+02 -0.14024640266E+02  0.23315973395E+02  0.43400730938E+02  0.00000000000E+00 0. -1.
         11    1    3    3    0    0 -0.21478367311E+02  0.45684531260E+01 -0.13378764221E+02  0.25713466485E+02  0.51100000000E-03 0. -1.
        -11    1    3    3    0    0 -0.10538537205E+02  0.75958542233E+01 -0.12785386791E+02  0.18227009723E+02  0.51100000000E-03 0.  1.
        -12    1    3    3    0    0 -0.17957897869E+01  0.18603329168E+01  0.28481776168E+01  0.38467928534E+01  0.00000000000E+00 0.  1.
</event>
<event>
 7    1  0.2237500E-009  0.4778728E+02  0.7816164E-02  0.1312668E+00
        -11   -1    0    0    0    0  0.00000000000E+00  0.00000000000E+00  0.45593999997E+02  0.45594000000E+02  0.51100000000E-03 0. -1.
         11   -1    0    0    0    0 -0.00000000000E+00 -0.00000000000E+00 -0.45593999997E+02  0.45594000000E+02  0.51100000000E-03 0.  1.
    9900012    2    1    2    0    0  0.61118230214E+01 -0.41708284083E+02 -0.10328963003E+02  0.47787276290E+02  0.20000023918E+02 0.  0.
         12    1    1    2    0    0 -0.61118230214E+01  0.41708284083E+02  0.10328963003E+02  0.43400723710E+02  0.00000000000E+00 0. -1.
         11    1    3    3    0    0  0.21020613455E+01 -0.27871168616E+01  0.16539631790E+01  0.38629362872E+01  0.51100000000E-03 0. -1.
        -11    1    3    3    0    0  0.78151964510E+01 -0.20269364682E+02 -0.57438145822E+00  0.21731414002E+02  0.51100000000E-03 0.  1.
        -12    1    3    3    0    0 -0.38054347751E+01 -0.18651802539E+02 -0.11408544723E+02  0.22192926001E+02  0.00000000000E+00 0.  1.
</event>
<event>
 7    1  0.2237500E-009  0.4778727E+02  0.7816164E-02  0.1312668E+00
        -11   -1    0    0    0    0  0.00000000000E+00  0.00000000000E+00  0.45593999997E+02  0.45594000000E+02  0.51100000000E-03 0.  1.
         11   -1    0    0    0    0 -0.00000000000E+00 -0.00000000000E+00 -0.45593999997E+02  0.45594000000E+02  0.51100000000E-03 0. -1.
    9900012    2    1    2    0    0  0.29452209769E+02 -0.30639429191E+02 -0.87986378294E+01  0.47787270638E+02  0.19999998149E+02 0.  0.
         12    1    1    2    0    0 -0.29452209769E+02  0.30639429191E+02  0.87986378294E+01  0.43400729362E+02  0.00000000000E+00 0. -1.
         11    1    3    3    0    0  0.11012384694E+02 -0.11466478670E+02 -0.10320485393E+02  0.18954291565E+02  0.51100000000E-03 0.  1.
        -11    1    3    3    0    0 -0.36269043710E+00 -0.54535684019E+01 -0.38624358114E+00  0.54792460278E+01  0.51100000000E-03 0. -1.
        -12    1    3    3    0    0  0.18802515513E+02 -0.13719382119E+02  0.19080911446E+01  0.23353733045E+02  0.00000000000E+00 0.  1.
</event>
<event>
 7    1  0.2237500E-009  0.4778727E+02  0.7816164E-02  0.1312668E+00
        -11   -1    0    0    0    0  0.00000000000E+00  0.00000000000E+00  0.45593999997E+02  0.45594000000E+02  0.51100000000E-03 0.  1.
         11   -1    0    0    0    0 -0.00000000000E+00 -0.00000000000E+00 -0.45593999997E+02  0.45594000000E+02  0.51100000000E-03 0. -1.
    9900012    2    1    2    0    0  0.25667430568E+02  0.27421682539E+02  0.21745286769E+02  0.47787272335E+02  0.20000005883E+02 0.  0.
         12    1    1    2    0    0 -0.25667430568E+02 -0.27421682539E+02 -0.21745286769E+02  0.43400727665E+02  0.00000000000E+00 0. -1.
         11    1    3    3    0    0  0.22887717184E+01  0.57125468423E+01  0.55216827617E+00  0.61787181090E+01  0.51100000000E-03 0. -1.
        -11    1    3    3    0    0  0.25774979756E+02  0.20537516493E+02  0.20634025571E+02  0.38883186298E+02  0.51100000000E-03 0.  1.
        -12    1    3    3    0    0 -0.23963209069E+01  0.11716192041E+01  0.55909292126E+00  0.27253679280E+01  0.00000000000E+00 0.  1.
</event>
<event>
 7    1  0.3137677E-009  0.4778727E+02  0.7816164E-02  0.1312668E+00
        -11   -1    0    0    0    0  0.00000000000E+00  0.00000000000E+00  0.45593999997E+02  0.45594000000E+02  0.51100000000E-03 0. -1.
         11   -1    0    0    0    0 -0.00000000000E+00 -0.00000000000E+00 -0.45593999997E+02  0.45594000000E+02  0.51100000000E-03 0.  1.
    9900012    2    1    2    0    0  0.15679567878E+02 -0.11369115279E+01 -0.40453452264E+02  0.47787271703E+02  0.20000003002E+02 0.  0.
         12    1    1    2    0    0 -0.15679567878E+02  0.11369115279E+01  0.40453452264E+02  0.43400728297E+02  0.00000000000E+00 0. -1.
         11    1    3    3    0    0  0.11079520640E+02  0.59236181321E+01 -0.14758729226E+02  0.19382082396E+02  0.51100000000E-03 0. -1.
        -11    1    3    3    0    0  0.17422202499E+01  0.57514029616E+00 -0.14169431325E+02  0.14287718576E+02  0.51100000000E-03 0.  1.
         12    1    3    3    0    0  0.28578269876E+01 -0.76356699561E+01 -0.11525291712E+02  0.14117470731E+02  0.00000000000E+00 0. -1.
</event>
<event>
 7    1  0.2237500E-009  0.4778727E+02  0.7816164E-02  0.1312668E+00
        -11   -1    0    0    0    0  0.00000000000E+00  0.00000000000E+00  0.45593999997E+02  0.45594000000E+02  0.51100000000E-03 0. -1.
         11   -1    0    0    0    0 -0.00000000000E+00 -0.00000000000E+00 -0.45593999997E+02  0.45594000000E+02  0.51100000000E-03 0.  1.
    9900012    2    1    2    0    0 -0.26602042334E+02 -0.31509450679E+02 -0.13531795989E+02  0.47787266814E+02  0.19999980711E+02 0.  0.
         12    1    1    2    0    0  0.26602042334E+02  0.31509450679E+02  0.13531795989E+02  0.43400733186E+02  0.00000000000E+00 0. -1.
         11    1    3    3    0    0 -0.11923587907E+01 -0.45798847225E+01  0.48595152434E+00  0.47574376194E+01  0.51100000000E-03 0. -1.
        -11    1    3    3    0    0  0.15900248332E+01 -0.66155046350E+01 -0.12975521151E+01  0.69265231031E+01  0.51100000000E-03 0.  1.
        -12    1    3    3    0    0 -0.26999708376E+02 -0.20314061322E+02 -0.12720195398E+02  0.36103306091E+02  0.00000000000E+00 0.  1.
</event>
<event>
 7    1  0.2237500E-009  0.4778727E+02  0.7816164E-02  0.1312668E+00
        -11   -1    0    0    0    0  0.00000000000E+00  0.00000000000E+00  0.45593999997E+02  0.45594000000E+02  0.51100000000E-03 0.  1.
         11   -1    0    0    0    0 -0.00000000000E+00 -0.00000000000E+00 -0.45593999997E+02  0.45594000000E+02  0.51100000000E-03 0. -1.
    9900012    2    1    2    0    0 -0.13469710990E+02  0.32205435184E+01  0.41131716812E+02  0.47787272557E+02  0.20000006895E+02 0.  0.
         12    1    1    2    0    0  0.13469710990E+02 -0.32205435184E+01 -0.41131716812E+02  0.43400727443E+02  0.00000000000E+00 0. -1.
         11    1    3    3    0    0 -0.38357819668E+01  0.65386840498E+01  0.24476325900E+02  0.25623390529E+02  0.51100000000E-03 0. -1.
        -11    1    3    3    0    0 -0.46943438198E+01  0.37305129291E+01  0.62749812135E+01  0.86792269300E+01  0.51100000000E-03 0.  1.
        -12    1    3    3    0    0 -0.49395852034E+01 -0.70486534605E+01  0.10380409699E+02  0.13484655098E+02  0.00000000000E+00 0.  1.
</event>
<event>
 7    1  0.2237500E-009  0.4778723E+02  0.7816164E-02  0.1312668E+00
        -11   -1    0    0    0    0  0.00000000000E+00  0.00000000000E+00  0.45593999997E+02  0.45594000000E+02  0.51100000000E-03 0. -1.
         11   -1    0    0    0    0 -0.00000000000E+00 -0.00000000000E+00 -0.45593999997E+02  0.45594000000E+02  0.51100000000E-03 0.  1.
    9900012    2    1    2    0    0  0.32010222882E+02  0.85043011312E+01 -0.28047263066E+02  0.47787234198E+02  0.19999832002E+02 0.  0.
         12    1    1    2    0    0 -0.32010222882E+02 -0.85043011312E+01  0.28047263066E+02  0.43400765802E+02  0.00000000000E+00 0. -1.
         11    1    3    3    0    0  0.40299674111E+01  0.20717452310E+01 -0.40930263851E+00  0.45497576362E+01  0.51100000000E-03 0. -1.
        -11    1    3    3    0    0  0.10135030183E+02 -0.14606473246E+01 -0.19639915982E+02  0.22149009627E+02  0.51100000000E-03 0.  1.
        -12    1    3    3    0    0  0.17845225287E+02  0.78932032248E+01 -0.79980444458E+01  0.21088466935E+02  0.00000000000E+00 0.  1.
</event>
<event>
 7    1  0.2237500E-009  0.4778727E+02  0.7816164E-02  0.1312668E+00
        -11   -1    0    0    0    0  0.00000000000E+00  0.00000000000E+00  0.45593999997E+02  0.45594000000E+02  0.51100000000E-03 0. -1.
         11   -1    0    0    0    0 -0.00000000000E+00 -0.00000000000E+00 -0.45593999997E+02  0.45594000000E+02  0.51100000000E-03 0.  1.
    9900012    2    1    2    0    0 -0.12808598150E+02 -0.11108731686E+01 -0.41452731748E+02  0.47787271952E+02  0.20000004136E+02 0.  0.
         12    1    1    2    0    0  0.12808598150E+02  0.11108731686E+01  0.41452731748E+02  0.43400728048E+02  0.00000000000E+00 0. -1.
         11    1    3    3    0    0 -0.53573538071E+01 -0.55270176646E+01 -0.12766721096E+02  0.14907660175E+02  0.51100000000E-03 0. -1.
        -11    1    3    3    0    0 -0.52184505298E+01 -0.61023116692E+00 -0.26409585530E+02  0.26927139026E+02  0.51100000000E-03 0.  1.
         12    1    3    3    0    0 -0.22327938127E+01  0.50263756629E+01 -0.22764251224E+01  0.59524727511E+01  0.00000000000E+00 0. -1.
</event>
<event>
 7    1  0.2237500E-009  0.4778727E+02  0.7816164E-02  0.1312668E+00
        -11   -1    0    0    0    0  0.00000000000E+00  0.00000000000E+00  0.45593999997E+02  0.45594000000E+02  0.51100000000E-03 0.  1.
         11   -1    0    0    0    0 -0.00000000000E+00 -0.00000000000E+00 -0.45593999997E+02  0.45594000000E+02  0.51100000000E-03 0. -1.
    9900012    2    1    2    0    0  0.14724484561E+02  0.24380839718E+01  0.40753754647E+02  0.47787271701E+02  0.20000002993E+02 0.  0.
         12    1    1    2    0    0 -0.14724484561E+02 -0.24380839718E+01 -0.40753754647E+02  0.43400728299E+02  0.00000000000E+00 0. -1.
         11    1    3    3    0    0  0.11096925870E+02 -0.59016846892E+00  0.27412408695E+02  0.29579219282E+02  0.51100000000E-03 0.  1.
        -11    1    3    3    0    0 -0.31775959538E+00 -0.19501848826E+01  0.11394014803E+02  0.11564072199E+02  0.51100000000E-03 0. -1.
         12    1    3    3    0    0  0.39453182864E+01  0.49784373233E+01  0.19473311495E+01  0.66439802204E+01  0.00000000000E+00 0. -1.
</event>
<event>
 7    1  0.2237500E-009  0.4778727E+02  0.7816164E-02  0.1312668E+00
        -11   -1    0    0    0    0  0.00000000000E+00  0.00000000000E+00  0.45593999997E+02  0.45594000000E+02  0.51100000000E-03 0. -1.
         11   -1    0    0    0    0 -0.00000000000E+00 -0.00000000000E+00 -0.45593999997E+02  0.45594000000E+02  0.51100000000E-03 0.  1.
    9900012    2    1    2    0    0  0.36661190237E+02  0.19539190963E+02 -0.12561855432E+02  0.47787273451E+02  0.20000010974E+02 0.  0.
         12    1    1    2    0    0 -0.36661190237E+02 -0.19539190963E+02  0.12561855432E+02  0.43400726549E+02  0.00000000000E+00 0. -1.
         11    1    3    3    0    0  0.89573178176E+01  0.69013037504E+01  0.17737319691E+01  0.11445857823E+02  0.51100000000E-03 0. -1.
        -11    1    3    3    0    0  0.14415090052E+02  0.13798616240E+02 -0.72047438610E+01  0.21215677357E+02  0.51100000000E-03 0.  1.
        -12    1    3    3    0    0  0.13288782367E+02 -0.11607290274E+01 -0.71308435402E+01  0.15125738272E+02  0.00000000000E+00 0.  1.
</event>
<event>
 7    1  0.2237500E-009  0.4778727E+02  0.7816164E-02  0.1312668E+00
        -11   -1    0    0    0    0  0.00000000000E+00  0.00000000000E+00  0.45593999997E+02  0.45594000000E+02  0.51100000000E-03 0.  1.
         11   -1    0    0    0    0 -0.00000000000E+00 -0.00000000000E+00 -0.45593999997E+02  0.45594000000E+02  0.51100000000E-03 0. -1.
    9900012    2    1    2    0    0 -0.26424703525E+02 -0.25509942215E+02  0.23121437061E+02  0.47787274661E+02  0.20000016487E+02 0.  0.
         12    1    1    2    0    0  0.26424703525E+02  0.25509942215E+02 -0.23121437061E+02  0.43400725339E+02  0.00000000000E+00 0. -1.
         11    1    3    3    0    0 -0.93926011114E+01 -0.50507828991E+00  0.38953047289E-01  0.94062520335E+01  0.51100000000E-03 0. -1.
        -11    1    3    3    0    0 -0.56208636226E+01 -0.10082353605E+02  0.11596021444E+02  0.16362019303E+02  0.51100000000E-03 0.  1.
         12    1    3    3    0    0 -0.11411238791E+02 -0.14922510320E+02  0.11486462570E+02  0.22019003324E+02  0.00000000000E+00 0. -1.
</event>
<event>
 7    1  0.2237500E-009  0.4778729E+02  0.7816164E-02  0.1312668E+00
        -11   -1    0    0    0    0  0.00000000000E+00  0.00000000000E+00  0.45593999997E+02  0.45594000000E+02  0.51100000000E-03 0.  1.
         11   -1    0    0    0    0 -0.00000000000E+00 -0.00000000000E+00 -0.45593999997E+02  0.45594000000E+02  0.51100000000E-03 0. -1.
    9900012    2    1    2    0    0  0.38361174040E+02  0.10661427623E+02  0.17273564080E+02  0.47787288845E+02  0.20000081160E+02 0.  0.
         12    1    1    2    0    0 -0.38361174040E+02 -0.10661427623E+02 -0.17273564080E+02  0.43400711155E+02  0.00000000000E+00 0. -1.
         11    1    3    3    0    0  0.13765932216E+02  0.90921686164E+00 -0.10453808537E+01  0.13835475650E+02  0.51100000000E-03 0. -1.
        -11    1    3    3    0    0  0.12729872355E+02  0.88663091523E+01  0.54936841384E+01  0.16457267508E+02  0.51100000000E-03 0.  1.
        -12    1    3    3    0    0  0.11865369469E+02  0.88590160931E+00  0.12825260796E+02  0.17494545687E+02  0.00000000000E+00 0.  1.
</event>
<event>
 7    1  0.2237500E-009  0.4778727E+02  0.7816164E-02  0.1312668E+00
        -11   -1    0    0    0    0  0.00000000000E+00  0.00000000000E+00  0.45593999997E+02  0.45594000000E+02  0.51100000000E-03 0.  1.
         11   -1    0    0    0    0 -0.00000000000E+00 -0.00000000000E+00 -0.45593999997E+02  0.45594000000E+02  0.51100000000E-03 0. -1.
    9900012    2    1    2    0    0  0.41534426690E+02 -0.35981381828E+01 -0.12065160259E+02  0.47787270848E+02  0.19999999106E+02 0.  0.
         12    1    1    2    0    0 -0.41534426690E+02  0.35981381828E+01  0.12065160259E+02  0.43400729152E+02  0.00000000000E+00 0. -1.
         11    1    3    3    0    0  0.31903345663E+01  0.27496010452E+00  0.38894504784E+01  0.50380217337E+01  0.51100000000E-03 0. -1.
        -11    1    3    3    0    0 -0.15157633996E+00 -0.30545903824E+00 -0.13979660371E+01  0.14389544513E+01  0.51100000000E-03 0.  1.
        -12    1    3    3    0    0  0.38495668463E+02 -0.35676392490E+01 -0.14556644701E+02  0.41310294663E+02  0.00000000000E+00 0.  1.
</event>
<event>
 7    1  0.2237500E-009  0.4778727E+02  0.7816164E-02  0.1312668E+00
        -11   -1    0    0    0    0  0.00000000000E+00  0.00000000000E+00  0.45593999997E+02  0.45594000000E+02  0.51100000000E-03 0.  1.
         11   -1    0    0    0    0 -0.00000000000E+00 -0.00000000000E+00 -0.45593999997E+02  0.45594000000E+02  0.51100000000E-03 0. -1.
    9900012    2    1    2    0    0 -0.18492308894E+02  0.14105667031E+02  0.36642705143E+02  0.47787272232E+02  0.20000005412E+02 0.  0.
         12    1    1    2    0    0  0.18492308894E+02 -0.14105667031E+02 -0.36642705143E+02  0.43400727768E+02  0.00000000000E+00 0. -1.
         11    1    3    3    0    0 -0.82248039055E+01  0.59398153552E+01  0.67342865210E+01  0.12177003775E+02  0.51100000000E-03 0. -1.
        -11    1    3    3    0    0 -0.11948676825E+02  0.10302257660E+01  0.18202167666E+02  0.21797962084E+02  0.51100000000E-03 0.  1.
         12    1    3    3    0    0  0.16811718370E+01  0.71356259099E+01  0.11706250956E+02  0.13812306372E+02  0.00000000000E+00 0. -1.
</event>
<event>
 7    1  0.2237500E-009  0.4778728E+02  0.7816164E-02  0.1312668E+00
        -11   -1    0    0    0    0  0.00000000000E+00  0.00000000000E+00  0.45593999997E+02  0.45594000000E+02  0.51100000000E-03 0.  1.
         11   -1    0    0    0    0 -0.00000000000E+00 -0.00000000000E+00 -0.45593999997E+02  0.45594000000E+02  0.51100000000E-03 0. -1.
    9900012    2    1    2    0    0 -0.17663979614E+02  0.90700745406E+01  0.38591974516E+02  0.47787275063E+02  0.20000018323E+02 0.  0.
         12    1    1    2    0    0  0.17663979614E+02 -0.90700745406E+01 -0.38591974516E+02  0.43400724937E+02  0.00000000000E+00 0. -1.
         11    1    3    3    0    0 -0.86789380218E+01  0.33566874756E+01  0.22824326840E+02  0.24648351101E+02  0.51100000000E-03 0. -1.
        -11    1    3    3    0    0 -0.10593816771E+02  0.25964993246E+01  0.16277913793E+02  0.19594418599E+02  0.51100000000E-03 0.  1.
         12    1    3    3    0    0  0.16087751792E+01  0.31168877404E+01 -0.51026611683E+00  0.35445053637E+01  0.00000000000E+00 0. -1.
</event>
<event>
 7    1  0.2237500E-009  0.4778727E+02  0.7816164E-02  0.1312668E+00
        -11   -1    0    0    0    0  0.00000000000E+00  0.00000000000E+00  0.45593999997E+02  0.45594000000E+02  0.51100000000E-03 0.  1.
         11   -1    0    0    0    0 -0.00000000000E+00 -0.00000000000E+00 -0.45593999997E+02  0.45594000000E+02  0.51100000000E-03 0. -1.
    9900012    2    1    2    0    0 -0.15701232906E+02  0.84245251686E+00  0.40452257080E+02  0.47787267934E+02  0.19999985819E+02 0.  0.
         12    1    1    2    0    0  0.15701232906E+02 -0.84245251686E+00 -0.40452257080E+02  0.43400732066E+02  0.00000000000E+00 0. -1.
         11    1    3    3    0    0 -0.13123287628E+02  0.35389409615E+01  0.20691765838E+02  0.24756695156E+02  0.51100000000E-03 0. -1.
        -11    1    3    3    0    0 -0.53344948601E+01 -0.50580077060E+01  0.87011547827E+01  0.11390802087E+02  0.51100000000E-03 0.  1.
         12    1    3    3    0    0  0.27565495826E+01  0.23615192614E+01  0.11059336459E+02  0.11639770691E+02  0.00000000000E+00 0. -1.
</event>
<event>
 7    1  0.2237500E-009  0.4778727E+02  0.7816164E-02  0.1312668E+00
        -11   -1    0    0    0    0  0.00000000000E+00  0.00000000000E+00  0.45593999997E+02  0.45594000000E+02  0.51100000000E-03 0.  1.
         11   -1    0    0    0    0 -0.00000000000E+00 -0.00000000000E+00 -0.45593999997E+02  0.45594000000E+02  0.51100000000E-03 0. -1.
    9900012    2    1    2    0    0 -0.41915195076E+02 -0.10491120246E+02 -0.40836165176E+01  0.47787272977E+02  0.20000008810E+02 0.  0.
         12    1    1    2    0    0  0.41915195076E+02  0.10491120246E+02  0.40836165176E+01  0.43400727023E+02  0.00000000000E+00 0. -1.
         11    1    3    3    0    0 -0.84923238538E+01 -0.44107704646E+01 -0.43391163556E+01  0.10507254234E+02  0.51100000000E-03 0. -1.
        -11    1    3    3    0    0 -0.66100632636E+01  0.36327252316E+01 -0.38496927534E+01  0.84681617553E+01  0.51100000000E-03 0.  1.
        -12    1    3    3    0    0 -0.26812807959E+02 -0.97130750129E+01  0.41051925914E+01  0.28811856987E+02  0.00000000000E+00 0.  1.
</event>
<event>
 7    1  0.2237500E-009  0.4778728E+02  0.7816164E-02  0.1312668E+00
        -11   -1    0    0    0    0  0.00000000000E+00  0.00000000000E+00  0.45593999997E+02  0.45594000000E+02  0.51100000000E-03 0.  1.
         11   -1    0    0    0    0 -0.00000000000E+00 -0.00000000000E+00 -0.45593999997E+02  0.45594000000E+02  0.51100000000E-03 0. -1.
    9900012    2    1    2    0    0 -0.18623830280E+02 -0.30518198261E+01  0.39082759872E+02  0.47787276760E+02  0.20000026062E+02 0.  0.
         12    1    1    2    0    0  0.18623830280E+02  0.30518198261E+01 -0.39082759872E+02  0.43400723240E+02  0.00000000000E+00 0. -1.
         11    1    3    3    0    0 -0.43300347005E+01 -0.41689003318E+01  0.12995259532E+02  0.14318020151E+02  0.51100000000E-03 0. -1.
        -11    1    3    3    0    0 -0.10537063215E+01 -0.21090272428E+01  0.16831007111E+02  0.16995325638E+02  0.51100000000E-03 0.  1.
        -12    1    3    3    0    0 -0.13240089258E+02  0.32261077484E+01  0.92564932293E+01  0.16473930972E+02  0.00000000000E+00 0.  1.
</event>
<event>
 7    1  0.2237500E-009  0.4778727E+02  0.7816164E-02  0.1312668E+00
        -11   -1    0    0    0    0  0.00000000000E+00  0.00000000000E+00  0.45593999997E+02  0.45594000000E+02  0.51100000000E-03 0.  1.
         11   -1    0    0    0    0 -0.00000000000E+00 -0.00000000000E+00 -0.45593999997E+02  0.45594000000E+02  0.51100000000E-03 0. -1.
    9900012    2    1    2    0    0  0.40753147727E+02  0.97279800205E+01  0.11321246692E+02  0.47787271071E+02  0.20000000120E+02 0.  0.
         12    1    1    2    0    0 -0.40753147727E+02 -0.97279800205E+01 -0.11321246692E+02  0.43400728929E+02  0.00000000000E+00 0. -1.
         11    1    3    3    0    0  0.42975001985E+00  0.39264893150E+01  0.49009976835E+00  0.39802263082E+01  0.51100000000E-03 0. -1.
        -11    1    3    3    0    0  0.18684809824E+01  0.23403490355E+01 -0.13997960970E+01  0.33057350413E+01  0.51100000000E-03 0.  1.
        -12    1    3    3    0    0  0.38454916725E+02  0.34611416701E+01  0.12230943020E+02  0.40501309721E+02  0.00000000000E+00 0.  1.
</event>
<event>
 7    1  0.2237500E-009  0.4778727E+02  0.7816164E-02  0.1312668E+00
        -11   -1    0    0    0    0  0.00000000000E+00  0.00000000000E+00  0.45593999997E+02  0.45594000000E+02  0.51100000000E-03 0.  1.
         11   -1    0    0    0    0 -0.00000000000E+00 -0.00000000000E+00 -0.45593999997E+02  0.45594000000E+02  0.51100000000E-03 0. -1.
    9900012    2    1    2    0    0 -0.18304802179E+02 -0.36897408181E+02  0.13679865936E+02  0.47787271374E+02  0.20000001501E+02 0.  0.
         12    1    1    2    0    0  0.18304802179E+02  0.36897408181E+02 -0.13679865936E+02  0.43400728626E+02  0.00000000000E+00 0. -1.
         11    1    3    3    0    0 -0.14353417038E+02 -0.18631903188E+02  0.49433903168E+01  0.24033424748E+02  0.51100000000E-03 0. -1.
        -11    1    3    3    0    0 -0.61776184569E+01 -0.17110905817E+02  0.43558039883E+01  0.18706124567E+02  0.51100000000E-03 0.  1.
        -12    1    3    3    0    0  0.22262333161E+01 -0.11545991765E+01  0.43806716313E+01  0.50477220582E+01  0.00000000000E+00 0.  1.
</event>
<event>
 7    1  0.2237500E-009  0.4778727E+02  0.7816164E-02  0.1312668E+00
        -11   -1    0    0    0    0  0.00000000000E+00  0.00000000000E+00  0.45593999997E+02  0.45594000000E+02  0.51100000000E-03 0.  1.
         11   -1    0    0    0    0 -0.00000000000E+00 -0.00000000000E+00 -0.45593999997E+02  0.45594000000E+02  0.51100000000E-03 0. -1.
    9900012    2    1    2    0    0 -0.13748952218E+02  0.14808960803E+02  0.38409429829E+02  0.47787270664E+02  0.19999998264E+02 0.  0.
         12    1    1    2    0    0  0.13748952218E+02 -0.14808960803E+02 -0.38409429829E+02  0.43400729336E+02  0.00000000000E+00 0. -1.
         11    1    3    3    0    0  0.78684138704E+00  0.13831972416E+01  0.26909908279E+01  0.31263054673E+01  0.51100000000E-03 0. -1.
        -11    1    3    3    0    0 -0.18006751019E+02  0.96540707602E+01  0.33117997200E+02  0.38913312675E+02  0.51100000000E-03 0.  1.
        -12    1    3    3    0    0  0.34709574137E+01  0.37716928011E+01  0.26004418007E+01  0.57476525219E+01  0.00000000000E+00 0.  1.
</event>
<event>
 7    1  0.2237500E-009  0.4778727E+02  0.7816164E-02  0.1312668E+00
        -11   -1    0    0    0    0  0.00000000000E+00  0.00000000000E+00  0.45593999997E+02  0.45594000000E+02  0.51100000000E-03 0.  1.
         11   -1    0    0    0    0 -0.00000000000E+00 -0.00000000000E+00 -0.45593999997E+02  0.45594000000E+02  0.51100000000E-03 0. -1.
    9900012    2    1    2    0    0  0.29861525149E+02  0.12408010425E+02  0.28947432058E+02  0.47787271553E+02  0.20000002321E+02 0.  0.
         12    1    1    2    0    0 -0.29861525149E+02 -0.12408010425E+02 -0.28947432058E+02  0.43400728447E+02  0.00000000000E+00 0. -1.
         11    1    3    3    0    0 -0.79830533392E+00  0.70320264963E+00 -0.98708071020E+00  0.14512456588E+01  0.51100000000E-03 0. -1.
        -11    1    3    3    0    0  0.17387032185E+02  0.13222499866E+02  0.16364867633E+02  0.27293814021E+02  0.51100000000E-03 0.  1.
        -12    1    3    3    0    0  0.13272798298E+02 -0.15176920904E+01  0.13569645136E+02  0.19042211874E+02  0.00000000000E+00 0.  1.
</event>
<event>
 7    1  0.2237500E-009  0.4778727E+02  0.7816164E-02  0.1312668E+00
        -11   -1    0    0    0    0  0.00000000000E+00  0.00000000000E+00  0.45593999997E+02  0.45594000000E+02  0.51100000000E-03 0.  1.
         11   -1    0    0    0    0 -0.00000000000E+00 -0.00000000000E+00 -0.45593999997E+02  0.45594000000E+02  0.51100000000E-03 0. -1.
    9900012    2    1    2    0    0  0.21387616135E+02 -0.28780224951E+02  0.24451827954E+02  0.47787270024E+02  0.19999995348E+02 0.  0.
         12    1    1    2    0    0 -0.21387616135E+02  0.28780224951E+02 -0.24451827954E+02  0.43400729976E+02  0.00000000000E+00 0. -1.
         11    1    3    3    0    0  0.66811553033E+01 -0.12089709961E+02  0.13113008083E+02  0.19045994444E+02  0.51100000000E-03 0. -1.
        -11    1    3    3    0    0  0.15322070876E+02 -0.12673055963E+02  0.13600172278E+02  0.24090182432E+02  0.51100000000E-03 0.  1.
         12    1    3    3    0    0 -0.61561004404E+00 -0.40174590273E+01 -0.22613524071E+01  0.46510931480E+01  0.00000000000E+00 0. -1.
</event>
<event>
 7    1  0.2237500E-009  0.4778727E+02  0.7816164E-02  0.1312668E+00
        -11   -1    0    0    0    0  0.00000000000E+00  0.00000000000E+00  0.45593999997E+02  0.45594000000E+02  0.51100000000E-03 0. -1.
         11   -1    0    0    0    0 -0.00000000000E+00 -0.00000000000E+00 -0.45593999997E+02  0.45594000000E+02  0.51100000000E-03 0.  1.
    9900012    2    1    2    0    0  0.25560736276E+01 -0.16339060668E+02 -0.40126367162E+02  0.47787265473E+02  0.19999974596E+02 0.  0.
         12    1    1    2    0    0 -0.25560736276E+01  0.16339060668E+02  0.40126367162E+02  0.43400734527E+02  0.00000000000E+00 0. -1.
         11    1    3    3    0    0  0.35970761895E+00  0.11855479555E+01 -0.22185135312E+01  0.25410069018E+01  0.51100000000E-03 0. -1.
        -11    1    3    3    0    0 -0.64914907813E+01 -0.13764795152E+02 -0.24189368045E+02  0.28578568278E+02  0.51100000000E-03 0.  1.
        -12    1    3    3    0    0  0.86878567899E+01 -0.37598134717E+01 -0.13718485585E+02  0.16667690293E+02  0.00000000000E+00 0.  1.
</event>
<event>
 7    1  0.2237500E-009  0.4778727E+02  0.7816164E-02  0.1312668E+00
        -11   -1    0    0    0    0  0.00000000000E+00  0.00000000000E+00  0.45593999997E+02  0.45594000000E+02  0.51100000000E-03 0.  1.
         11   -1    0    0    0    0 -0.00000000000E+00 -0.00000000000E+00 -0.45593999997E+02  0.45594000000E+02  0.51100000000E-03 0. -1.
    9900012    2    1    2    0    0 -0.27161305720E+02  0.26393871791E+02  0.21195526659E+02  0.47787270203E+02  0.19999996164E+02 0.  0.
         12    1    1    2    0    0  0.27161305720E+02 -0.26393871791E+02 -0.21195526659E+02  0.43400729797E+02  0.00000000000E+00 0. -1.
         11    1    3    3    0    0 -0.99633277343E+01  0.12405076940E+02  0.11611460148E+02  0.19697203874E+02  0.51100000000E-03 0. -1.
        -11    1    3    3    0    0 -0.93745623361E+01  0.15610287363E+02  0.50179545854E+01  0.18887650966E+02  0.51100000000E-03 0.  1.
        -12    1    3    3    0    0 -0.78234156495E+01 -0.16214925113E+01  0.45661119257E+01  0.92024153627E+01  0.00000000000E+00 0.  1.
</event>
<event>
 7    1  0.2237500E-009  0.4778726E+02  0.7816164E-02  0.1312668E+00
        -11   -1    0    0    0    0  0.00000000000E+00  0.00000000000E+00  0.45593999997E+02  0.45594000000E+02  0.51100000000E-03 0.  1.
         11   -1    0    0    0    0 -0.00000000000E+00 -0.00000000000E+00 -0.45593999997E+02  0.45594000000E+02  0.51100000000E-03 0. -1.
    9900012    2    1    2    0    0 -0.26495584872E+02 -0.20749803396E+02  0.27405356071E+02  0.47787263830E+02  0.19999967107E+02 0.  0.
         12    1    1    2    0    0  0.26495584872E+02  0.20749803396E+02 -0.27405356071E+02  0.43400736170E+02  0.00000000000E+00 0. -1.
         11    1    3    3    0    0 -0.10649446079E+02 -0.41566462235E+01  0.16499958025E+01  0.11550363458E+02  0.51100000000E-03 0. -1.
        -11    1    3    3    0    0 -0.11776136133E+02 -0.13074723816E+02  0.11553498562E+02  0.21050157110E+02  0.51100000000E-03 0.  1.
         12    1    3    3    0    0 -0.40700026600E+01 -0.35184333569E+01  0.14201861707E+02  0.15186743261E+02  0.00000000000E+00 0. -1.
</event>
<event>
 7    1  0.2237500E-009  0.4778727E+02  0.7816164E-02  0.1312668E+00
        -11   -1    0    0    0    0  0.00000000000E+00  0.00000000000E+00  0.45593999997E+02  0.45594000000E+02  0.51100000000E-03 0. -1.
         11   -1    0    0    0    0 -0.00000000000E+00 -0.00000000000E+00 -0.45593999997E+02  0.45594000000E+02  0.51100000000E-03 0.  1.
    9900012    2    1    2    0    0  0.30665238633E+02  0.37191804470E+01 -0.30486622453E+02  0.47787270602E+02  0.19999997985E+02 0.  0.
         12    1    1    2    0    0 -0.30665238633E+02 -0.37191804470E+01  0.30486622453E+02  0.43400729398E+02  0.00000000000E+00 0. -1.
         11    1    3    3    0    0  0.65559600128E+01  0.33818660554E+00 -0.13308186155E+02  0.14839231815E+02  0.51100000000E-03 0. -1.
        -11    1    3    3    0    0  0.12742780429E+02  0.69531749642E+01 -0.14928783353E+02  0.20822912088E+02  0.51100000000E-03 0.  1.
         12    1    3    3    0    0  0.11366498192E+02 -0.35721811228E+01 -0.22496529453E+01  0.12125126700E+02  0.00000000000E+00 0. -1.
</event>
<event>
 7    1  0.2237500E-009  0.4778726E+02  0.7816164E-02  0.1312668E+00
        -11   -1    0    0    0    0  0.00000000000E+00  0.00000000000E+00  0.45593999997E+02  0.45594000000E+02  0.51100000000E-03 0.  1.
         11   -1    0    0    0    0 -0.00000000000E+00 -0.00000000000E+00 -0.45593999997E+02  0.45594000000E+02  0.51100000000E-03 0. -1.
    9900012    2    1    2    0    0  0.40154864028E+02 -0.10347360109E+02  0.12811825305E+02  0.47787264592E+02  0.19999970579E+02 0.  0.
         12    1    1    2    0    0 -0.40154864028E+02  0.10347360109E+02 -0.12811825305E+02  0.43400735408E+02  0.00000000000E+00 0. -1.
         11    1    3    3    0    0  0.19223993664E+01 -0.37929084236E+01  0.51884685665E+01  0.67083515084E+01  0.51100000000E-03 0. -1.
        -11    1    3    3    0    0  0.25603388595E+02 -0.96186368183E+01  0.45726098128E+01  0.27730135999E+02  0.51100000000E-03 0.  1.
         12    1    3    3    0    0  0.12629076067E+02  0.30641851331E+01  0.30507469258E+01  0.13348777084E+02  0.00000000000E+00 0. -1.
</event>
<event>
 7    1  0.2237500E-009  0.4778727E+02  0.7816164E-02  0.1312668E+00
        -11   -1    0    0    0    0  0.00000000000E+00  0.00000000000E+00  0.45593999997E+02  0.45594000000E+02  0.51100000000E-03 0.  1.
         11   -1    0    0    0    0 -0.00000000000E+00 -0.00000000000E+00 -0.45593999997E+02  0.45594000000E+02  0.51100000000E-03 0. -1.
    9900012    2    1    2    0    0  0.18435157949E+02  0.31788570732E+02  0.23092320385E+02  0.47787267996E+02  0.19999986099E+02 0.  0.
         12    1    1    2    0    0 -0.18435157949E+02 -0.31788570732E+02 -0.23092320385E+02  0.43400732004E+02  0.00000000000E+00 0. -1.
         11    1    3    3    0    0 -0.24544201206E+01  0.63571133451E+01  0.60518381255E+01  0.91138253861E+01  0.51100000000E-03 0. -1.
        -11    1    3    3    0    0  0.33174782068E+01  0.93232831950E+01  0.93793637836E+01  0.13634578704E+02  0.51100000000E-03 0.  1.
        -12    1    3    3    0    0  0.17572099863E+02  0.16108174191E+02  0.76611184758E+01  0.25038863905E+02  0.00000000000E+00 0.  1.
</event>
<event>
 7    1  0.2237500E-009  0.4778727E+02  0.7816164E-02  0.1312668E+00
        -11   -1    0    0    0    0  0.00000000000E+00  0.00000000000E+00  0.45593999997E+02  0.45594000000E+02  0.51100000000E-03 0.  1.
         11   -1    0    0    0    0 -0.00000000000E+00 -0.00000000000E+00 -0.45593999997E+02  0.45594000000E+02  0.51100000000E-03 0. -1.
    9900012    2    1    2    0    0 -0.36715967562E+02  0.15256781270E+02  0.17400906887E+02  0.47787271789E+02  0.20000003395E+02 0.  0.
         12    1    1    2    0    0  0.36715967562E+02 -0.15256781270E+02 -0.17400906887E+02  0.43400728211E+02  0.00000000000E+00 0. -1.
         11    1    3    3    0    0 -0.31254112590E+01  0.34377549020E+01 -0.33604012670E+00  0.46582483330E+01  0.51100000000E-03 0. -1.
        -11    1    3    3    0    0 -0.49725417683E+01 -0.31135980645E+01  0.69489160277E+01  0.90943993075E+01  0.51100000000E-03 0.  1.
        -12    1    3    3    0    0 -0.28618014535E+02  0.14932624433E+02  0.10788030986E+02  0.34034624148E+02  0.00000000000E+00 0.  1.
</event>
<event>
 7    1  0.2237500E-009  0.4778727E+02  0.7816164E-02  0.1312668E+00
        -11   -1    0    0    0    0  0.00000000000E+00  0.00000000000E+00  0.45593999997E+02  0.45594000000E+02  0.51100000000E-03 0.  1.
         11   -1    0    0    0    0 -0.00000000000E+00 -0.00000000000E+00 -0.45593999997E+02  0.45594000000E+02  0.51100000000E-03 0. -1.
    9900012    2    1    2    0    0 -0.29333521427E+02 -0.25221205594E+02  0.19673795979E+02  0.47787274901E+02  0.20000017582E+02 0.  0.
         12    1    1    2    0    0  0.29333521427E+02  0.25221205594E+02 -0.19673795979E+02  0.43400725099E+02  0.00000000000E+00 0. -1.
         11    1    3    3    0    0 -0.77080890440E+00 -0.32966232340E+01 -0.70965174471E+00  0.34591150565E+01  0.51100000000E-03 0. -1.
        -11    1    3    3    0    0 -0.64266870676E+01 -0.14757468730E+02  0.82669222603E+01  0.18094949403E+02  0.51100000000E-03 0.  1.
         12    1    3    3    0    0 -0.22136025455E+02 -0.71671136299E+01  0.12116525463E+02  0.26233210441E+02  0.00000000000E+00 0. -1.
</event>
<event>
 7    1  0.3712180E-009  0.4778727E+02  0.7816164E-02  0.1312668E+00
        -11   -1    0    0    0    0  0.00000000000E+00  0.00000000000E+00  0.45593999997E+02  0.45594000000E+02  0.51100000000E-03 0. -1.
         11   -1    0    0    0    0 -0.00000000000E+00 -0.00000000000E+00 -0.45593999997E+02  0.45594000000E+02  0.51100000000E-03 0.  1.
    9900012    2    1    2    0    0 -0.36606864074E+02  0.82727295280E+01 -0.21797308227E+02  0.47787271929E+02  0.20000004031E+02 0.  0.
         12    1    1    2    0    0  0.36606864074E+02 -0.82727295280E+01  0.21797308227E+02  0.43400728071E+02  0.00000000000E+00 0. -1.
         11    1    3    3    0    0 -0.10789579808E+00  0.11282201580E+01 -0.56476279891E+01  0.57602278074E+01  0.51100000000E-03 0. -1.
        -11    1    3    3    0    0 -0.12376943335E+02 -0.10286415862E+01 -0.96873673904E+01  0.15750933847E+02  0.51100000000E-03 0.  1.
        -12    1    3    3    0    0 -0.24122024941E+02  0.81731509562E+01 -0.64623128479E+01  0.26276110274E+02  0.00000000000E+00 0.  1.
</event>
<event>
 7    1  0.2237500E-009  0.4778727E+02  0.7816164E-02  0.1312668E+00
        -11   -1    0    0    0    0  0.00000000000E+00  0.00000000000E+00  0.45593999997E+02  0.45594000000E+02  0.51100000000E-03 0.  1.
         11   -1    0    0    0    0 -0.00000000000E+00 -0.00000000000E+00 -0.45593999997E+02  0.45594000000E+02  0.51100000000E-03 0. -1.
    9900012    2    1    2    0    0 -0.30503145809E+02 -0.13659318729E+02  0.27687615576E+02  0.47787274791E+02  0.20000017082E+02 0.  0.
         12    1    1    2    0    0  0.30503145809E+02  0.13659318729E+02 -0.27687615576E+02  0.43400725209E+02  0.00000000000E+00 0. -1.
         11    1    3    3    0    0 -0.68622481631E+01 -0.54028143715E-01  0.12901655078E+00  0.68636735371E+01  0.51100000000E-03 0. -1.
        -11    1    3    3    0    0  0.26879476079E+00 -0.13497445699E+01 -0.10090146525E+01  0.17065086749E+01  0.51100000000E-03 0.  1.
        -12    1    3    3    0    0 -0.23909692407E+02 -0.12255546015E+02  0.28567613678E+02  0.39217092579E+02  0.00000000000E+00 0.  1.
</event>
<event>
 7    1 -0.5229108E-009  0.4778727E+02  0.7816164E-02  0.1312668E+00
        -11   -1    0    0    0    0  0.00000000000E+00  0.00000000000E+00  0.45593999997E+02  0.45594000000E+02  0.51100000000E-03 0.  1.
         11   -1    0    0    0    0 -0.00000000000E+00 -0.00000000000E+00 -0.45593999997E+02  0.45594000000E+02  0.51100000000E-03 0. -1.
    9900012    2    1    2    0    0 -0.80718331246E+01  0.13466068943E+02  0.40461514118E+02  0.47787266971E+02  0.19999981427E+02 0.  0.
         12    1    1    2    0    0  0.80718331246E+01 -0.13466068943E+02 -0.40461514118E+02  0.43400733029E+02  0.00000000000E+00 0. -1.
         11    1    3    3    0    0 -0.25737987007E+01  0.63040546113E+01  0.62388470122E+01  0.92351912052E+01  0.51100000000E-03 0. -1.
        -11    1    3    3    0    0 -0.80978025065E+01 -0.13451832305E+01  0.11324559793E+02  0.13986764391E+02  0.51100000000E-03 0.  1.
        -12    1    3    3    0    0  0.25997680825E+01  0.85071975619E+01  0.22898107313E+02  0.24565311375E+02  0.00000000000E+00 0.  1.
</event>
<event>
 7    1  0.2237500E-009  0.4778727E+02  0.7816164E-02  0.1312668E+00
        -11   -1    0    0    0    0  0.00000000000E+00  0.00000000000E+00  0.45593999997E+02  0.45594000000E+02  0.51100000000E-03 0. -1.
         11   -1    0    0    0    0 -0.00000000000E+00 -0.00000000000E+00 -0.45593999997E+02  0.45594000000E+02  0.51100000000E-03 0.  1.
    9900012    2    1    2    0    0 -0.38986855089E+02  0.11468724222E+02 -0.15235371811E+02  0.47787273517E+02  0.20000011275E+02 0.  0.
         12    1    1    2    0    0  0.38986855089E+02 -0.11468724222E+02  0.15235371811E+02  0.43400726483E+02  0.00000000000E+00 0. -1.
         11    1    3    3    0    0 -0.16015019102E+02  0.55458258414E+01 -0.31595361973E+01  0.17240060624E+02  0.51100000000E-03 0. -1.
        -11    1    3    3    0    0 -0.24906724746E+02  0.57828140523E+01 -0.12645523215E+02  0.28525341954E+02  0.51100000000E-03 0.  1.
         12    1    3    3    0    0  0.19348887593E+01  0.14008432870E+00  0.56968760139E+00  0.20218709388E+01  0.00000000000E+00 0. -1.
</event>
<event>
 7    1  0.2237500E-009  0.4778727E+02  0.7816164E-02  0.1312668E+00
        -11   -1    0    0    0    0  0.00000000000E+00  0.00000000000E+00  0.45593999997E+02  0.45594000000E+02  0.51100000000E-03 0.  1.
         11   -1    0    0    0    0 -0.00000000000E+00 -0.00000000000E+00 -0.45593999997E+02  0.45594000000E+02  0.51100000000E-03 0. -1.
    9900012    2    1    2    0    0  0.31393821615E+02  0.26856052270E+02 -0.13296758050E+02  0.47787270125E+02  0.19999995806E+02 0.  0.
         12    1    1    2    0    0 -0.31393821615E+02 -0.26856052270E+02  0.13296758050E+02  0.43400729875E+02  0.00000000000E+00 0. -1.
         11    1    3    3    0    0  0.37784890600E+01 -0.11381685798E+01 -0.12113893806E+01  0.41279379580E+01  0.51100000000E-03 0. -1.
        -11    1    3    3    0    0  0.15838823278E+02  0.69472296863E+01 -0.16273227615E+01  0.17371830727E+02  0.51100000000E-03 0.  1.
         12    1    3    3    0    0  0.11776509276E+02  0.21046991163E+02 -0.10458045907E+02  0.26287501440E+02  0.00000000000E+00 0. -1.
</event>
<event>
 7    1  0.2237500E-009  0.4778729E+02  0.7816164E-02  0.1312668E+00
        -11   -1    0    0    0    0  0.00000000000E+00  0.00000000000E+00  0.45593999997E+02  0.45594000000E+02  0.51100000000E-03 0. -1.
         11   -1    0    0    0    0 -0.00000000000E+00 -0.00000000000E+00 -0.45593999997E+02  0.45594000000E+02  0.51100000000E-03 0.  1.
    9900012    2    1    2    0    0 -0.27733784736E+01 -0.40916797708E+02 -0.14203724421E+02  0.47787288597E+02  0.20000080030E+02 0.  0.
         12    1    1    2    0    0  0.27733784736E+01  0.40916797708E+02  0.14203724421E+02  0.43400711403E+02  0.00000000000E+00 0. -1.
         11    1    3    3    0    0 -0.41541974808E+01 -0.55865904413E+01  0.14389802811E+01  0.71090093528E+01  0.51100000000E-03 0.  1.
        -11    1    3    3    0    0 -0.24387751753E+01 -0.73019680666E+00 -0.78379086993E-01  0.25469501908E+01  0.51100000000E-03 0. -1.
        -12    1    3    3    0    0  0.38195941825E+01 -0.34600010460E+02 -0.15564325615E+02  0.38131329054E+02  0.00000000000E+00 0.  1.
</event>
<event>
 7    1  0.2237500E-009  0.4778725E+02  0.7816164E-02  0.1312668E+00
        -11   -1    0    0    0    0  0.00000000000E+00  0.00000000000E+00  0.45593999997E+02  0.45594000000E+02  0.51100000000E-03 0. -1.
         11   -1    0    0    0    0 -0.00000000000E+00 -0.00000000000E+00 -0.45593999997E+02  0.45594000000E+02  0.51100000000E-03 0.  1.
    9900012    2    1    2    0    0  0.20087597101E+02 -0.38469234017E+02  0.48080303754E+00  0.47787254676E+02  0.19999925368E+02 0.  0.
         12    1    1    2    0    0 -0.20087597101E+02  0.38469234017E+02 -0.48080303754E+00  0.43400745324E+02  0.00000000000E+00 0. -1.
         11    1    3    3    0    0  0.10321583517E+02 -0.10671903129E+02 -0.33676948459E+01  0.15223861912E+02  0.51100000000E-03 0. -1.
        -11    1    3    3    0    0  0.11097896024E+02 -0.20985556215E+02 -0.15211115181E+01  0.23788035781E+02  0.51100000000E-03 0.  1.
         12    1    3    3    0    0 -0.13318824406E+01 -0.68117746736E+01  0.53696094016E+01  0.87753569822E+01  0.00000000000E+00 0. -1.
</event>
<event>
 7    1  0.2237500E-009  0.4778730E+02  0.7816164E-02  0.1312668E+00
        -11   -1    0    0    0    0  0.00000000000E+00  0.00000000000E+00  0.45593999997E+02  0.45594000000E+02  0.51100000000E-03 0.  1.
         11   -1    0    0    0    0 -0.00000000000E+00 -0.00000000000E+00 -0.45593999997E+02  0.45594000000E+02  0.51100000000E-03 0. -1.
    9900012    2    1    2    0    0  0.12787531884E+02 -0.41081589528E+02  0.56923417955E+01  0.47787300409E+02  0.20000133884E+02 0.  0.
         12    1    1    2    0    0 -0.12787531884E+02  0.41081589528E+02 -0.56923417955E+01  0.43400699591E+02  0.00000000000E+00 0. -1.
         11    1    3    3    0    0  0.54991906043E+01 -0.10353236038E+02 -0.24212445295E+01  0.11970506217E+02  0.51100000000E-03 0. -1.
        -11    1    3    3    0    0  0.31079216862E+01 -0.28176386768E+02  0.26371151812E+01  0.28469673782E+02  0.51100000000E-03 0.  1.
         12    1    3    3    0    0  0.41804195936E+01 -0.25519667227E+01  0.54764711438E+01  0.73471204101E+01  0.00000000000E+00 0. -1.
</event>
<event>
 7    1  0.2237500E-009  0.4778724E+02  0.7816164E-02  0.1312668E+00
        -11   -1    0    0    0    0  0.00000000000E+00  0.00000000000E+00  0.45593999997E+02  0.45594000000E+02  0.51100000000E-03 0.  1.
         11   -1    0    0    0    0 -0.00000000000E+00 -0.00000000000E+00 -0.45593999997E+02  0.45594000000E+02  0.51100000000E-03 0. -1.
    9900012    2    1    2    0    0 -0.82934970704E+01  0.13418703624E+01  0.42579845523E+02  0.47787240162E+02  0.19999859194E+02 0.  0.
         12    1    1    2    0    0  0.82934970704E+01 -0.13418703624E+01 -0.42579845523E+02  0.43400759838E+02  0.00000000000E+00 0. -1.
         11    1    3    3    0    0 -0.74045957975E+01 -0.19498791054E+01  0.72067658204E+01  0.10515110142E+02  0.51100000000E-03 0. -1.
        -11    1    3    3    0    0 -0.25170836921E+01 -0.26738167381E+01  0.46106150859E+01  0.58943004669E+01  0.51100000000E-03 0.  1.
        -12    1    3    3    0    0  0.16281824193E+01  0.59655662058E+01  0.30762464617E+02  0.31377829553E+02  0.00000000000E+00 0.  1.
</event>
<event>
 7    1  0.2237500E-009  0.4778727E+02  0.7816164E-02  0.1312668E+00
        -11   -1    0    0    0    0  0.00000000000E+00  0.00000000000E+00  0.45593999997E+02  0.45594000000E+02  0.51100000000E-03 0.  1.
         11   -1    0    0    0    0 -0.00000000000E+00 -0.00000000000E+00 -0.45593999997E+02  0.45594000000E+02  0.51100000000E-03 0. -1.
    9900012    2    1    2    0    0 -0.38293675519E+01  0.43157981691E+02 -0.25194916001E+01  0.47787271004E+02  0.19999999814E+02 0.  0.
         12    1    1    2    0    0  0.38293675519E+01 -0.43157981691E+02  0.25194916001E+01  0.43400728996E+02  0.00000000000E+00 0. -1.
         11    1    3    3    0    0 -0.64114183150E+01  0.26776354701E+02  0.51157363774E+01  0.28004467765E+02  0.51100000000E-03 0. -1.
        -11    1    3    3    0    0 -0.11112634904E+01  0.20932541989E+01  0.11220590461E+01  0.26221434839E+01  0.51100000000E-03 0.  1.
        -12    1    3    3    0    0  0.36933142535E+01  0.14288372791E+02 -0.87572870236E+01  0.17160659754E+02  0.00000000000E+00 0.  1.
</event>
<event>
 7    1  0.2237500E-009  0.4778726E+02  0.7816164E-02  0.1312668E+00
        -11   -1    0    0    0    0  0.00000000000E+00  0.00000000000E+00  0.45593999997E+02  0.45594000000E+02  0.51100000000E-03 0.  1.
         11   -1    0    0    0    0 -0.00000000000E+00 -0.00000000000E+00 -0.45593999997E+02  0.45594000000E+02  0.51100000000E-03 0. -1.
    9900012    2    1    2    0    0  0.38646741971E+02  0.10481464766E+02  0.16738963016E+02  0.47787255174E+02  0.19999927639E+02 0.  0.
         12    1    1    2    0    0 -0.38646741971E+02 -0.10481464766E+02 -0.16738963016E+02  0.43400744826E+02  0.00000000000E+00 0. -1.
         11    1    3    3    0    0  0.21575484617E+02  0.14951972756E+02  0.73086921404E+01  0.27248486322E+02  0.51100000000E-03 0. -1.
        -11    1    3    3    0    0  0.32727737214E+01  0.49708316823E+00  0.44615563313E+00  0.33402387067E+01  0.51100000000E-03 0.  1.
        -12    1    3    3    0    0  0.13798483633E+02 -0.49675911581E+01  0.89841152423E+01  0.17198530145E+02  0.00000000000E+00 0.  1.
</event>
<event>
 7    1  0.2237500E-009  0.4778727E+02  0.7816164E-02  0.1312668E+00
        -11   -1    0    0    0    0  0.00000000000E+00  0.00000000000E+00  0.45593999997E+02  0.45594000000E+02  0.51100000000E-03 0.  1.
         11   -1    0    0    0    0 -0.00000000000E+00 -0.00000000000E+00 -0.45593999997E+02  0.45594000000E+02  0.51100000000E-03 0. -1.
    9900012    2    1    2    0    0  0.11687731258E+02  0.91361760822E+01  0.40786646057E+02  0.47787271066E+02  0.20000000100E+02 0.  0.
         12    1    1    2    0    0 -0.11687731258E+02 -0.91361760822E+01 -0.40786646057E+02  0.43400728934E+02  0.00000000000E+00 0. -1.
         11    1    3    3    0    0 -0.19616260070E+01  0.18802744418E+01  0.18123876144E+02  0.18326437060E+02  0.51100000000E-03 0.  1.
        -11    1    3    3    0    0  0.86650456011E+01  0.16481573263E+01  0.19337777065E+02  0.21254389192E+02  0.51100000000E-03 0. -1.
         12    1    3    3    0    0  0.49843116637E+01  0.56077443140E+01  0.33249928481E+01  0.82064448144E+01  0.00000000000E+00 0. -1.
</event>
<event>
 7    1  0.2237500E-009  0.4778727E+02  0.7816164E-02  0.1312668E+00
        -11   -1    0    0    0    0  0.00000000000E+00  0.00000000000E+00  0.45593999997E+02  0.45594000000E+02  0.51100000000E-03 0. -1.
         11   -1    0    0    0    0 -0.00000000000E+00 -0.00000000000E+00 -0.45593999997E+02  0.45594000000E+02  0.51100000000E-03 0.  1.
    9900012    2    1    2    0    0 -0.23614101499E+02 -0.20152741807E+02 -0.30329263918E+02  0.47787273719E+02  0.20000012195E+02 0.  0.
         12    1    1    2    0    0  0.23614101499E+02  0.20152741807E+02  0.30329263918E+02  0.43400726281E+02  0.00000000000E+00 0. -1.
         11    1    3    3    0    0 -0.49965987016E+01 -0.38772507557E+00 -0.10174912342E+01  0.51138652692E+01  0.51100000000E-03 0. -1.
        -11    1    3    3    0    0 -0.16691936667E+02 -0.69968722051E+01 -0.16872127399E+02  0.24743598235E+02  0.51100000000E-03 0.  1.
        -12    1    3    3    0    0 -0.19255661295E+01 -0.12768144526E+02 -0.12439645284E+02  0.17929810215E+02  0.00000000000E+00 0.  1.
</event>
<event>
 7    1  0.2237500E-009  0.4778727E+02  0.7816164E-02  0.1312668E+00
        -11   -1    0    0    0    0  0.00000000000E+00  0.00000000000E+00  0.45593999997E+02  0.45594000000E+02  0.51100000000E-03 0. -1.
         11   -1    0    0    0    0 -0.00000000000E+00 -0.00000000000E+00 -0.45593999997E+02  0.45594000000E+02  0.51100000000E-03 0.  1.
    9900012    2    1    2    0    0  0.37390017773E+02 -0.17309313619E+02 -0.13638105086E+02  0.47787266396E+02  0.19999978804E+02 0.  0.
         12    1    1    2    0    0 -0.37390017773E+02  0.17309313619E+02  0.13638105086E+02  0.43400733604E+02  0.00000000000E+00 0. -1.
         11    1    3    3    0    0  0.24983350862E+02 -0.50037050528E+01 -0.22836466772E+01  0.25581632610E+02  0.51100000000E-03 0. -1.
        -11    1    3    3    0    0  0.36365493786E+01  0.24313566370E+00 -0.12110964533E+01  0.38406198997E+01  0.51100000000E-03 0.  1.
        -12    1    3    3    0    0  0.87701175323E+01 -0.12548744230E+02 -0.10143361956E+02  0.18365013886E+02  0.00000000000E+00 0.  1.
</event>
<event>
 7    1  0.2237500E-009  0.4778727E+02  0.7816164E-02  0.1312668E+00
        -11   -1    0    0    0    0  0.00000000000E+00  0.00000000000E+00  0.45593999997E+02  0.45594000000E+02  0.51100000000E-03 0.  1.
         11   -1    0    0    0    0 -0.00000000000E+00 -0.00000000000E+00 -0.45593999997E+02  0.45594000000E+02  0.51100000000E-03 0. -1.
    9900012    2    1    2    0    0 -0.13729488692E+02  0.40983911612E+02  0.39298179918E+01  0.47787270280E+02  0.19999996516E+02 0.  0.
         12    1    1    2    0    0  0.13729488692E+02 -0.40983911612E+02 -0.39298179918E+01  0.43400729720E+02  0.00000000000E+00 0. -1.
         11    1    3    3    0    0  0.13675073726E+01  0.84058653486E+01  0.35537753188E+01  0.92281074957E+01  0.51100000000E-03 0. -1.
        -11    1    3    3    0    0 -0.48894398522E+01  0.25904104652E+02  0.21762090726E+00  0.26362409204E+02  0.51100000000E-03 0.  1.
         12    1    3    3    0    0 -0.10207556213E+02  0.66739416111E+01  0.15842176567E+00  0.12196753581E+02  0.00000000000E+00 0. -1.
</event>
<event>
 7    1  0.2237500E-009  0.4778727E+02  0.7816164E-02  0.1312668E+00
        -11   -1    0    0    0    0  0.00000000000E+00  0.00000000000E+00  0.45593999997E+02  0.45594000000E+02  0.51100000000E-03 0.  1.
         11   -1    0    0    0    0 -0.00000000000E+00 -0.00000000000E+00 -0.45593999997E+02  0.45594000000E+02  0.51100000000E-03 0. -1.
    9900012    2    1    2    0    0  0.37451274562E+02  0.16449877068E+02  0.14506102324E+02  0.47787269286E+02  0.19999991982E+02 0.  0.
         12    1    1    2    0    0 -0.37451274562E+02 -0.16449877068E+02 -0.14506102324E+02  0.43400730714E+02  0.00000000000E+00 0. -1.
         11    1    3    3    0    0  0.69073956947E+01  0.71285871079E+01  0.10944487232E+01  0.99863250351E+01  0.51100000000E-03 0.  1.
        -11    1    3    3    0    0  0.30294236676E+02  0.53154515677E+01  0.13910536007E+02  0.33756448472E+02  0.51100000000E-03 0. -1.
         12    1    3    3    0    0  0.24964219137E+00  0.40058383928E+01 -0.49888240642E+00  0.40444957792E+01  0.00000000000E+00 0. -1.
</event>
<event>
 7    1  0.2237500E-009  0.4778728E+02  0.7816164E-02  0.1312668E+00
        -11   -1    0    0    0    0  0.00000000000E+00  0.00000000000E+00  0.45593999997E+02  0.45594000000E+02  0.51100000000E-03 0. -1.
         11   -1    0    0    0    0 -0.00000000000E+00 -0.00000000000E+00 -0.45593999997E+02  0.45594000000E+02  0.51100000000E-03 0.  1.
    9900012    2    1    2    0    0  0.18087240041E+02  0.35334144858E+02 -0.17549136139E+02  0.47787283135E+02  0.20000055127E+02 0.  0.
         12    1    1    2    0    0 -0.18087240041E+02 -0.35334144858E+02  0.17549136139E+02  0.43400716865E+02  0.00000000000E+00 0. -1.
         11    1    3    3    0    0 -0.72477402705E+00  0.16429398459E+01 -0.13543651809E+01  0.22491896389E+01  0.51100000000E-03 0. -1.
        -11    1    3    3    0    0  0.12982642778E+02  0.29528684268E+02 -0.19453493791E+02  0.37668695611E+02  0.51100000000E-03 0.  1.
         12    1    3    3    0    0  0.58293712899E+01  0.41625207444E+01  0.32587228327E+01  0.78693978857E+01  0.00000000000E+00 0. -1.
</event>
<event>
 7    1  0.2237500E-009  0.4778730E+02  0.7816164E-02  0.1312668E+00
        -11   -1    0    0    0    0  0.00000000000E+00  0.00000000000E+00  0.45593999997E+02  0.45594000000E+02  0.51100000000E-03 0. -1.
         11   -1    0    0    0    0 -0.00000000000E+00 -0.00000000000E+00 -0.45593999997E+02  0.45594000000E+02  0.51100000000E-03 0.  1.
    9900012    2    1    2    0    0 -0.31878342840E+02  0.26438860168E+02 -0.12976095395E+02  0.47787295848E+02  0.20000113087E+02 0.  0.
         12    1    1    2    0    0  0.31878342840E+02 -0.26438860168E+02  0.12976095395E+02  0.43400704152E+02  0.00000000000E+00 0. -1.
         11    1    3    3    0    0 -0.20559986168E+01  0.22265470723E+01 -0.42559693229E+01  0.52247408851E+01  0.51100000000E-03 0. -1.
        -11    1    3    3    0    0  0.40074564295E+00  0.66976542696E+01 -0.18770588801E+01  0.69672462340E+01  0.51100000000E-03 0.  1.
        -12    1    3    3    0    0 -0.30223089867E+02  0.17514658826E+02 -0.68430671923E+01  0.35595308728E+02  0.00000000000E+00 0.  1.
</event>
<event>
 7    1  0.2237500E-009  0.4778727E+02  0.7816164E-02  0.1312668E+00
        -11   -1    0    0    0    0  0.00000000000E+00  0.00000000000E+00  0.45593999997E+02  0.45594000000E+02  0.51100000000E-03 0.  1.
         11   -1    0    0    0    0 -0.00000000000E+00 -0.00000000000E+00 -0.45593999997E+02  0.45594000000E+02  0.51100000000E-03 0. -1.
    9900012    2    1    2    0    0 -0.39115047106E+02 -0.13829340842E+02  0.12743066877E+02  0.47787270379E+02  0.19999996966E+02 0.  0.
         12    1    1    2    0    0  0.39115047106E+02  0.13829340842E+02 -0.12743066877E+02  0.43400729621E+02  0.00000000000E+00 0. -1.
         11    1    3    3    0    0 -0.69569310251E+01  0.40424765889E+01  0.13660991021E+01  0.81612948285E+01  0.51100000000E-03 0. -1.
        -11    1    3    3    0    0 -0.17064546872E+02 -0.57451215066E+01  0.20099929414E+01  0.18117539925E+02  0.51100000000E-03 0.  1.
         12    1    3    3    0    0 -0.15093569209E+02 -0.12126695924E+02  0.93669748339E+01  0.21508435625E+02  0.00000000000E+00 0. -1.
</event>
<event>
 7    1  0.2237500E-009  0.4778728E+02  0.7816164E-02  0.1312668E+00
        -11   -1    0    0    0    0  0.00000000000E+00  0.00000000000E+00  0.45593999997E+02  0.45594000000E+02  0.51100000000E-03 0.  1.
         11   -1    0    0    0    0 -0.00000000000E+00 -0.00000000000E+00 -0.45593999997E+02  0.45594000000E+02  0.51100000000E-03 0. -1.
    9900012    2    1    2    0    0 -0.27201616568E+02 -0.43184405025E+01  0.33541703764E+02  0.47787276922E+02  0.20000026799E+02 0.  0.
         12    1    1    2    0    0  0.27201616568E+02  0.43184405025E+01 -0.33541703764E+02  0.43400723078E+02  0.00000000000E+00 0. -1.
         11    1    3    3    0    0 -0.82000862710E+01 -0.26236423339E+01  0.71994342047E+01  0.11223046248E+02  0.51100000000E-03 0. -1.
        -11    1    3    3    0    0 -0.27869664047E+01 -0.67522244543E+01  0.13207781041E+02  0.15093216924E+02  0.51100000000E-03 0.  1.
         12    1    3    3    0    0 -0.16214563892E+02  0.50574262857E+01  0.13134488519E+02  0.21471013751E+02  0.00000000000E+00 0. -1.
</event>
<event>
 7    1  0.2237500E-009  0.4778728E+02  0.7816164E-02  0.1312668E+00
        -11   -1    0    0    0    0  0.00000000000E+00  0.00000000000E+00  0.45593999997E+02  0.45594000000E+02  0.51100000000E-03 0.  1.
         11   -1    0    0    0    0 -0.00000000000E+00 -0.00000000000E+00 -0.45593999997E+02  0.45594000000E+02  0.51100000000E-03 0. -1.
    9900012    2    1    2    0    0  0.40051379700E+02 -0.63649849767E+01  0.15459523261E+02  0.47787275247E+02  0.20000019161E+02 0.  0.
         12    1    1    2    0    0 -0.40051379700E+02  0.63649849767E+01 -0.15459523261E+02  0.43400724753E+02  0.00000000000E+00 0. -1.
         11    1    3    3    0    0  0.20015886160E+02 -0.50702396200E+01  0.12282866592E+01  0.20684576789E+02  0.51100000000E-03 0. -1.
        -11    1    3    3    0    0  0.18871229704E+02 -0.36834410232E+01  0.14943495796E+02  0.24351573156E+02  0.51100000000E-03 0.  1.
         12    1    3    3    0    0  0.11642638361E+01  0.23886956665E+01 -0.71225919373E+00  0.27511253018E+01  0.00000000000E+00 0. -1.
</event>
<event>
 7    1  0.2237500E-009  0.4778727E+02  0.7816164E-02  0.1312668E+00
        -11   -1    0    0    0    0  0.00000000000E+00  0.00000000000E+00  0.45593999997E+02  0.45594000000E+02  0.51100000000E-03 0.  1.
         11   -1    0    0    0    0 -0.00000000000E+00 -0.00000000000E+00 -0.45593999997E+02  0.45594000000E+02  0.51100000000E-03 0. -1.
    9900012    2    1    2    0    0 -0.30813282262E+02 -0.90917219176E+00  0.30550587055E+02  0.47787270430E+02  0.19999997198E+02 0.  0.
         12    1    1    2    0    0  0.30813282262E+02  0.90917219176E+00 -0.30550587055E+02  0.43400729570E+02  0.00000000000E+00 0. -1.
         11    1    3    3    0    0 -0.14295233705E+00  0.20435313864E+01 -0.11184553009E+01  0.23339662421E+01  0.51100000000E-03 0. -1.
        -11    1    3    3    0    0 -0.70282783023E+01 -0.70089945479E+00  0.17915631149E+01  0.72868137479E+01  0.51100000000E-03 0.  1.
        -12    1    3    3    0    0 -0.23642051623E+02 -0.22518041234E+01  0.29877479241E+02  0.38166490440E+02  0.00000000000E+00 0.  1.
</event>
<event>
 7    1  0.2237500E-009  0.4778728E+02  0.7816164E-02  0.1312668E+00
        -11   -1    0    0    0    0  0.00000000000E+00  0.00000000000E+00  0.45593999997E+02  0.45594000000E+02  0.51100000000E-03 0.  1.
         11   -1    0    0    0    0 -0.00000000000E+00 -0.00000000000E+00 -0.45593999997E+02  0.45594000000E+02  0.51100000000E-03 0. -1.
    9900012    2    1    2    0    0  0.22804355569E+02  0.15783164260E+02  0.33383768378E+02  0.47787275374E+02  0.20000019739E+02 0.  0.
         12    1    1    2    0    0 -0.22804355569E+02 -0.15783164260E+02 -0.33383768378E+02  0.43400724626E+02  0.00000000000E+00 0. -1.
         11    1    3    3    0    0  0.21120564232E+01  0.15594855021E+01  0.10334739631E+02  0.10663002432E+02  0.51100000000E-03 0. -1.
        -11    1    3    3    0    0  0.70680387836E+01  0.13462356621E+02  0.97030074718E+01  0.18037199680E+02  0.51100000000E-03 0.  1.
        -12    1    3    3    0    0  0.13624260362E+02  0.76132213698E+00  0.13346021275E+02  0.19087073261E+02  0.00000000000E+00 0.  1.
</event>
<event>
 7    1  0.2237500E-009  0.4778727E+02  0.7816164E-02  0.1312668E+00
        -11   -1    0    0    0    0  0.00000000000E+00  0.00000000000E+00  0.45593999997E+02  0.45594000000E+02  0.51100000000E-03 0.  1.
         11   -1    0    0    0    0 -0.00000000000E+00 -0.00000000000E+00 -0.45593999997E+02  0.45594000000E+02  0.51100000000E-03 0. -1.
    9900012    2    1    2    0    0 -0.20038826359E+02 -0.35687904906E+01  0.38331873837E+02  0.47787269830E+02  0.19999994465E+02 0.  0.
         12    1    1    2    0    0  0.20038826359E+02  0.35687904906E+01 -0.38331873837E+02  0.43400730170E+02  0.00000000000E+00 0. -1.
         11    1    3    3    0    0 -0.12138512328E+01  0.20088924068E+01 -0.36382370388E-01  0.23474257082E+01  0.51100000000E-03 0. -1.
        -11    1    3    3    0    0 -0.34312184216E+01  0.16876457977E+01  0.20138780133E+02  0.20498582236E+02  0.51100000000E-03 0.  1.
         12    1    3    3    0    0 -0.15393756705E+02 -0.72653286951E+01  0.18229476075E+02  0.24941261886E+02  0.00000000000E+00 0. -1.
</event>
<event>
 7    1  0.2237500E-009  0.4778727E+02  0.7816164E-02  0.1312668E+00
        -11   -1    0    0    0    0  0.00000000000E+00  0.00000000000E+00  0.45593999997E+02  0.45594000000E+02  0.51100000000E-03 0.  1.
         11   -1    0    0    0    0 -0.00000000000E+00 -0.00000000000E+00 -0.45593999997E+02  0.45594000000E+02  0.51100000000E-03 0. -1.
    9900012    2    1    2    0    0  0.16278194052E+02  0.21591300298E+02  0.33947895672E+02  0.47787268777E+02  0.19999989660E+02 0.  0.
         12    1    1    2    0    0 -0.16278194052E+02 -0.21591300298E+02 -0.33947895672E+02  0.43400731223E+02  0.00000000000E+00 0. -1.
         11    1    3    3    0    0 -0.48361370455E-01 -0.33163361230E+01  0.16713376593E+01  0.37139997220E+01  0.51100000000E-03 0. -1.
        -11    1    3    3    0    0  0.53002509058E+01  0.53839322166E+01  0.90636786000E+01  0.11799561678E+02  0.51100000000E-03 0.  1.
         12    1    3    3    0    0  0.11026304516E+02  0.19523704204E+02  0.23212879413E+02  0.32273707376E+02  0.00000000000E+00 0. -1.
</event>
<event>
 7    1  0.2237500E-009  0.4778728E+02  0.7816164E-02  0.1312668E+00
        -11   -1    0    0    0    0  0.00000000000E+00  0.00000000000E+00  0.45593999997E+02  0.45594000000E+02  0.51100000000E-03 0. -1.
         11   -1    0    0    0    0 -0.00000000000E+00 -0.00000000000E+00 -0.45593999997E+02  0.45594000000E+02  0.51100000000E-03 0.  1.
    9900012    2    1    2    0    0 -0.99552267262E+01 -0.34881871664E+02 -0.23827949996E+02  0.47787277530E+02  0.20000029570E+02 0.  0.
         12    1    1    2    0    0  0.99552267262E+01  0.34881871664E+02  0.23827949996E+02  0.43400722470E+02  0.00000000000E+00 0. -1.
         11    1    3    3    0    0 -0.10583562569E+01 -0.19441190013E+02 -0.91100833436E+01  0.21495897420E+02  0.51100000000E-03 0. -1.
        -11    1    3    3    0    0  0.15435696090E+00 -0.12041245849E+02 -0.92414309706E+01  0.15179574247E+02  0.51100000000E-03 0.  1.
        -12    1    3    3    0    0 -0.90512274303E+01 -0.33994358009E+01 -0.54764356817E+01  0.11111805863E+02  0.00000000000E+00 0.  1.
</event>
<event>
 7    1  0.2237500E-009  0.4778727E+02  0.7816164E-02  0.1312668E+00
        -11   -1    0    0    0    0  0.00000000000E+00  0.00000000000E+00  0.45593999997E+02  0.45594000000E+02  0.51100000000E-03 0.  1.
         11   -1    0    0    0    0 -0.00000000000E+00 -0.00000000000E+00 -0.45593999997E+02  0.45594000000E+02  0.51100000000E-03 0. -1.
    9900012    2    1    2    0    0  0.34094220563E+02 -0.26937257436E+01  0.26719860181E+02  0.47787274634E+02  0.20000016365E+02 0.  0.
         12    1    1    2    0    0 -0.34094220563E+02  0.26937257436E+01 -0.26719860181E+02  0.43400725366E+02  0.00000000000E+00 0. -1.
         11    1    3    3    0    0  0.20464989120E+02 -0.57923014803E+01  0.72052240702E+01  0.22456219412E+02  0.51100000000E-03 0. -1.
        -11    1    3    3    0    0  0.53232236274E+01 -0.26881734621E+01  0.83432046892E+01  0.10255342564E+02  0.51100000000E-03 0.  1.
        -12    1    3    3    0    0  0.83060078165E+01  0.57867491989E+01  0.11171431422E+02  0.15075712658E+02  0.00000000000E+00 0.  1.
</event>
<event>
 7    1  0.2237500E-009  0.4778727E+02  0.7816164E-02  0.1312668E+00
        -11   -1    0    0    0    0  0.00000000000E+00  0.00000000000E+00  0.45593999997E+02  0.45594000000E+02  0.51100000000E-03 0.  1.
         11   -1    0    0    0    0 -0.00000000000E+00 -0.00000000000E+00 -0.45593999997E+02  0.45594000000E+02  0.51100000000E-03 0. -1.
    9900012    2    1    2    0    0 -0.24892271985E+02  0.17304604621E+02  0.31057182428E+02  0.47787272748E+02  0.20000007765E+02 0.  0.
         12    1    1    2    0    0  0.24892271985E+02 -0.17304604621E+02 -0.31057182428E+02  0.43400727252E+02  0.00000000000E+00 0. -1.
         11    1    3    3    0    0 -0.52405568774E+01  0.71108898201E+01  0.11755761581E+02  0.14704629238E+02  0.51100000000E-03 0. -1.
        -11    1    3    3    0    0 -0.13561331529E+02  0.30729901341E+01  0.19207094178E+02  0.23712137150E+02  0.51100000000E-03 0.  1.
         12    1    3    3    0    0 -0.60903835791E+01  0.71207246664E+01  0.94326669300E-01  0.93705063596E+01  0.00000000000E+00 0. -1.
</event>
<event>
 7    1  0.2237500E-009  0.4778727E+02  0.7816164E-02  0.1312668E+00
        -11   -1    0    0    0    0  0.00000000000E+00  0.00000000000E+00  0.45593999997E+02  0.45594000000E+02  0.51100000000E-03 0.  1.
         11   -1    0    0    0    0 -0.00000000000E+00 -0.00000000000E+00 -0.45593999997E+02  0.45594000000E+02  0.51100000000E-03 0. -1.
    9900012    2    1    2    0    0  0.42595137960E+02 -0.28776486579E+01 -0.78100345199E+01  0.47787270987E+02  0.19999999739E+02 0.  0.
         12    1    1    2    0    0 -0.42595137960E+02  0.28776486579E+01  0.78100345199E+01  0.43400729013E+02  0.00000000000E+00 0. -1.
         11    1    3    3    0    0  0.28500292125E+02 -0.20491920522E+01 -0.74562323064E+01  0.29530683022E+02  0.51100000000E-03 0. -1.
        -11    1    3    3    0    0  0.15754248376E+02 -0.20624798919E+01 -0.13790902757E+01  0.15948418588E+02  0.51100000000E-03 0.  1.
         12    1    3    3    0    0 -0.16594025411E+01  0.12340232863E+01  0.10252880621E+01  0.23081693774E+01  0.00000000000E+00 0. -1.
</event>
<event>
 7    1  0.2237500E-009  0.4778727E+02  0.7816164E-02  0.1312668E+00
        -11   -1    0    0    0    0  0.00000000000E+00  0.00000000000E+00  0.45593999997E+02  0.45594000000E+02  0.51100000000E-03 0.  1.
         11   -1    0    0    0    0 -0.00000000000E+00 -0.00000000000E+00 -0.45593999997E+02  0.45594000000E+02  0.51100000000E-03 0. -1.
    9900012    2    1    2    0    0 -0.37251509721E+02  0.20346173411E+02 -0.90543742048E+01  0.47787269116E+02  0.19999991209E+02 0.  0.
         12    1    1    2    0    0  0.37251509721E+02 -0.20346173411E+02  0.90543742048E+01  0.43400730884E+02  0.00000000000E+00 0. -1.
         11    1    3    3    0    0 -0.39994310891E+01  0.56856984379E+01  0.28451607608E+01  0.75111620791E+01  0.51100000000E-03 0. -1.
        -11    1    3    3    0    0 -0.14542985087E+02  0.13147221919E+02 -0.46053424448E+01  0.20138446781E+02  0.51100000000E-03 0.  1.
         12    1    3    3    0    0 -0.18709093545E+02  0.15132530540E+01 -0.72941925209E+01  0.20137660257E+02  0.00000000000E+00 0. -1.
</event>
<event>
 7    1  0.2237500E-009  0.4778728E+02  0.7816164E-02  0.1312668E+00
        -11   -1    0    0    0    0  0.00000000000E+00  0.00000000000E+00  0.45593999997E+02  0.45594000000E+02  0.51100000000E-03 0.  1.
         11   -1    0    0    0    0 -0.00000000000E+00 -0.00000000000E+00 -0.45593999997E+02  0.45594000000E+02  0.51100000000E-03 0. -1.
    9900012    2    1    2    0    0 -0.33864572549E+02 -0.70572612606E+01  0.26210844053E+02  0.47787279310E+02  0.20000037686E+02 0.  0.
         12    1    1    2    0    0  0.33864572549E+02  0.70572612606E+01 -0.26210844053E+02  0.43400720690E+02  0.00000000000E+00 0. -1.
         11    1    3    3    0    0 -0.29395438233E+02 -0.36476524242E+01  0.13062343849E+02  0.32373167658E+02  0.51100000000E-03 0.  1.
        -11    1    3    3    0    0 -0.12384944982E+01 -0.42215531329E+01  0.53006589268E+01  0.68885676883E+01  0.51100000000E-03 0. -1.
        -12    1    3    3    0    0 -0.32306398183E+01  0.81194429659E+00  0.78478412764E+01  0.85255439636E+01  0.00000000000E+00 0.  1.
</event>
<event>
 7    1  0.2237500E-009  0.4778726E+02  0.7816164E-02  0.1312668E+00
        -11   -1    0    0    0    0  0.00000000000E+00  0.00000000000E+00  0.45593999997E+02  0.45594000000E+02  0.51100000000E-03 0.  1.
         11   -1    0    0    0    0 -0.00000000000E+00 -0.00000000000E+00 -0.45593999997E+02  0.45594000000E+02  0.51100000000E-03 0. -1.
    9900012    2    1    2    0    0  0.45204497775E+01 -0.31298758181E+02  0.29725035256E+02  0.47787257485E+02  0.19999938177E+02 0.  0.
         12    1    1    2    0    0 -0.45204497775E+01  0.31298758181E+02 -0.29725035256E+02  0.43400742515E+02  0.00000000000E+00 0. -1.
         11    1    3    3    0    0 -0.22661412826E+01 -0.13831088479E+02  0.14980685900E+02  0.20514759446E+02  0.51100000000E-03 0. -1.
        -11    1    3    3    0    0  0.57304647822E+01 -0.19354875883E+02  0.14922718196E+02  0.25102529070E+02  0.51100000000E-03 0.  1.
         12    1    3    3    0    0  0.10561262779E+01  0.18872061812E+01 -0.17836884008E+00  0.21699689695E+01  0.00000000000E+00 0. -1.
</event>
<event>
 7    1  0.2237500E-009  0.4778727E+02  0.7816164E-02  0.1312668E+00
        -11   -1    0    0    0    0  0.00000000000E+00  0.00000000000E+00  0.45593999997E+02  0.45594000000E+02  0.51100000000E-03 0.  1.
         11   -1    0    0    0    0 -0.00000000000E+00 -0.00000000000E+00 -0.45593999997E+02  0.45594000000E+02  0.51100000000E-03 0. -1.
    9900012    2    1    2    0    0  0.14342746785E+02 -0.23230532925E+02  0.33737981445E+02  0.47787269162E+02  0.19999991416E+02 0.  0.
         12    1    1    2    0    0 -0.14342746785E+02  0.23230532925E+02 -0.33737981445E+02  0.43400730838E+02  0.00000000000E+00 0. -1.
         11    1    3    3    0    0 -0.28724003950E+01 -0.66101418490E+01  0.12880105571E+01  0.73214500442E+01  0.51100000000E-03 0. -1.
        -11    1    3    3    0    0  0.12388600575E+01 -0.19991902485E+01  0.19285647063E+01  0.30415288885E+01  0.51100000000E-03 0.  1.
         12    1    3    3    0    0  0.15976287122E+02 -0.14621200827E+02  0.30521406182E+02  0.37424290229E+02  0.00000000000E+00 0. -1.
</event>
<event>
 7    1  0.2237500E-009  0.4778727E+02  0.7816164E-02  0.1312668E+00
        -11   -1    0    0    0    0  0.00000000000E+00  0.00000000000E+00  0.45593999997E+02  0.45594000000E+02  0.51100000000E-03 0. -1.
         11   -1    0    0    0    0 -0.00000000000E+00 -0.00000000000E+00 -0.45593999997E+02  0.45594000000E+02  0.51100000000E-03 0.  1.
    9900012    2    1    2    0    0  0.37192903488E+02 -0.66094788064E+01  0.21368808312E+02  0.47787271335E+02  0.20000001325E+02 0.  0.
         12    1    1    2    0    0 -0.37192903488E+02  0.66094788064E+01 -0.21368808312E+02  0.43400728665E+02  0.00000000000E+00 0. -1.
         11    1    3    3    0    0  0.89782885624E+01 -0.75310874369E+01  0.83455626148E+01  0.14386638214E+02  0.51100000000E-03 0. -1.
        -11    1    3    3    0    0  0.10452937461E+01  0.10475313182E+01 -0.18953369650E+01  0.24046337247E+01  0.51100000000E-03 0.  1.
        -12    1    3    3    0    0  0.27169321180E+02 -0.12592268764E+00  0.14918582662E+02  0.30995999396E+02  0.00000000000E+00 0.  1.
</event>
<event>
 7    1  0.3488584E-009  0.4778727E+02  0.7816164E-02  0.1312668E+00
        -11   -1    0    0    0    0  0.00000000000E+00  0.00000000000E+00  0.45593999997E+02  0.45594000000E+02  0.51100000000E-03 0. -1.
         11   -1    0    0    0    0 -0.00000000000E+00 -0.00000000000E+00 -0.45593999997E+02  0.45594000000E+02  0.51100000000E-03 0.  1.
    9900012    2    1    2    0    0  0.22743436780E+01  0.23391366825E+02 -0.36486906791E+02  0.47787273643E+02  0.20000011847E+02 0.  0.
         12    1    1    2    0    0 -0.22743436780E+01 -0.23391366825E+02  0.36486906791E+02  0.43400726357E+02  0.00000000000E+00 0. -1.
         11    1    3    3    0    0  0.23823499182E+00  0.12229452974E+01  0.14455813354E+01  0.19084173469E+01  0.51100000000E-03 0. -1.
        -11    1    3    3    0    0 -0.20735654219E+01  0.22645051874E+01 -0.14673852673E+02  0.14991651337E+02  0.51100000000E-03 0.  1.
        -12    1    3    3    0    0  0.41096741081E+01  0.19903916341E+02 -0.23258635454E+02  0.30887204959E+02  0.00000000000E+00 0.  1.
</event>
<event>
 7    1  0.2237500E-009  0.4778727E+02  0.7816164E-02  0.1312668E+00
        -11   -1    0    0    0    0  0.00000000000E+00  0.00000000000E+00  0.45593999997E+02  0.45594000000E+02  0.51100000000E-03 0.  1.
         11   -1    0    0    0    0 -0.00000000000E+00 -0.00000000000E+00 -0.45593999997E+02  0.45594000000E+02  0.51100000000E-03 0. -1.
    9900012    2    1    2    0    0 -0.30598046974E+02 -0.27593363727E+02  0.13637778376E+02  0.47787271902E+02  0.20000003909E+02 0.  0.
         12    1    1    2    0    0  0.30598046974E+02  0.27593363727E+02 -0.13637778376E+02  0.43400728098E+02  0.00000000000E+00 0. -1.
         11    1    3    3    0    0 -0.16163391568E+02 -0.19018571694E+02  0.61683191528E+01  0.25710104195E+02  0.51100000000E-03 0. -1.
        -11    1    3    3    0    0 -0.37788274697E+01 -0.93557555622E+01  0.37186403247E+01  0.10753510372E+02  0.51100000000E-03 0.  1.
        -12    1    3    3    0    0 -0.10655827936E+02  0.78096352905E+00  0.37508188987E+01  0.11323657335E+02  0.00000000000E+00 0.  1.
</event>
<event>
 7    1  0.2237500E-009  0.4778727E+02  0.7816164E-02  0.1312668E+00
        -11   -1    0    0    0    0  0.00000000000E+00  0.00000000000E+00  0.45593999997E+02  0.45594000000E+02  0.51100000000E-03 0.  1.
         11   -1    0    0    0    0 -0.00000000000E+00 -0.00000000000E+00 -0.45593999997E+02  0.45594000000E+02  0.51100000000E-03 0. -1.
    9900012    2    1    2    0    0 -0.19505875890E+02  0.38175016201E+02 -0.67684687114E+01  0.47787271608E+02  0.20000002572E+02 0.  0.
         12    1    1    2    0    0  0.19505875890E+02 -0.38175016201E+02  0.67684687114E+01  0.43400728392E+02  0.00000000000E+00 0. -1.
         11    1    3    3    0    0 -0.82868699863E+01  0.33380898978E+01 -0.34777610543E+01  0.95869640944E+01  0.51100000000E-03 0. -1.
        -11    1    3    3    0    0 -0.41865839681E+01  0.10447330578E+02 -0.58569337296E+01  0.12687705644E+02  0.51100000000E-03 0.  1.
        -12    1    3    3    0    0 -0.70324219356E+01  0.24389595725E+02  0.25662260725E+01  0.25512601870E+02  0.00000000000E+00 0.  1.
</event>
<event>
 7    1  0.2237500E-009  0.4778728E+02  0.7816164E-02  0.1312668E+00
        -11   -1    0    0    0    0  0.00000000000E+00  0.00000000000E+00  0.45593999997E+02  0.45594000000E+02  0.51100000000E-03 0.  1.
         11   -1    0    0    0    0 -0.00000000000E+00 -0.00000000000E+00 -0.45593999997E+02  0.45594000000E+02  0.51100000000E-03 0. -1.
    9900012    2    1    2    0    0  0.15806987416E+02 -0.12588539704E+02  0.38409511289E+02  0.47787277190E+02  0.20000028018E+02 0.  0.
         12    1    1    2    0    0 -0.15806987416E+02  0.12588539704E+02 -0.38409511289E+02  0.43400722810E+02  0.00000000000E+00 0. -1.
         11    1    3    3    0    0 -0.41327914744E+01 -0.55810540994E+00  0.61907234625E+01  0.74643488845E+01  0.51100000000E-03 0. -1.
        -11    1    3    3    0    0  0.21058179004E+01 -0.74943712755E+00  0.74783051787E+01  0.78052017043E+01  0.51100000000E-03 0.  1.
        -12    1    3    3    0    0  0.17833960990E+02 -0.11280997166E+02  0.24740482647E+02  0.32517726601E+02  0.00000000000E+00 0.  1.
</event>
<event>
 7    1  0.2237500E-009  0.4778727E+02  0.7816164E-02  0.1312668E+00
        -11   -1    0    0    0    0  0.00000000000E+00  0.00000000000E+00  0.45593999997E+02  0.45594000000E+02  0.51100000000E-03 0.  1.
         11   -1    0    0    0    0 -0.00000000000E+00 -0.00000000000E+00 -0.45593999997E+02  0.45594000000E+02  0.51100000000E-03 0. -1.
    9900012    2    1    2    0    0 -0.42686722398E+02  0.17710678577E+01  0.76374253229E+01  0.47787271711E+02  0.20000003041E+02 0.  0.
         12    1    1    2    0    0  0.42686722398E+02 -0.17710678577E+01 -0.76374253229E+01  0.43400728289E+02  0.00000000000E+00 0. -1.
         11    1    3    3    0    0 -0.21803921448E+02  0.40422993027E+01  0.41260705276E+01  0.22556055338E+02  0.51100000000E-03 0. -1.
        -11    1    3    3    0    0 -0.19037779566E+02 -0.47189675649E+01  0.67776375539E+01  0.20751917424E+02  0.51100000000E-03 0.  1.
         12    1    3    3    0    0 -0.18450213835E+01  0.24477361199E+01 -0.32662827586E+01  0.44792989493E+01  0.00000000000E+00 0. -1.
</event>
<event>
 7    1  0.2237500E-009  0.4778727E+02  0.7816164E-02  0.1312668E+00
        -11   -1    0    0    0    0  0.00000000000E+00  0.00000000000E+00  0.45593999997E+02  0.45594000000E+02  0.51100000000E-03 0. -1.
         11   -1    0    0    0    0 -0.00000000000E+00 -0.00000000000E+00 -0.45593999997E+02  0.45594000000E+02  0.51100000000E-03 0.  1.
    9900012    2    1    2    0    0 -0.43363904881E+02 -0.12433136728E+01 -0.12841005854E+01  0.47787274318E+02  0.20000014923E+02 0.  0.
         12    1    1    2    0    0  0.43363904881E+02  0.12433136728E+01  0.12841005854E+01  0.43400725682E+02  0.00000000000E+00 0. -1.
         11    1    3    3    0    0  0.58073152975E+00 -0.11711809929E+01  0.93617110363E+00  0.16078963350E+01  0.51100000000E-03 0. -1.
        -11    1    3    3    0    0 -0.18112263867E+00 -0.22636894561E+01  0.28898567353E+00  0.22892375028E+01  0.51100000000E-03 0.  1.
        -12    1    3    3    0    0 -0.43763513772E+02  0.21915567762E+01 -0.25092573626E+01  0.43890140480E+02  0.00000000000E+00 0.  1.
</event>
<event>
 7    1  0.2237500E-009  0.4778727E+02  0.7816164E-02  0.1312668E+00
        -11   -1    0    0    0    0  0.00000000000E+00  0.00000000000E+00  0.45593999997E+02  0.45594000000E+02  0.51100000000E-03 0.  1.
         11   -1    0    0    0    0 -0.00000000000E+00 -0.00000000000E+00 -0.45593999997E+02  0.45594000000E+02  0.51100000000E-03 0. -1.
    9900012    2    1    2    0    0 -0.21018219856E+02 -0.25528919726E+02  0.28109284429E+02  0.47787272133E+02  0.20000004962E+02 0.  0.
         12    1    1    2    0    0  0.21018219856E+02  0.25528919726E+02 -0.28109284429E+02  0.43400727867E+02  0.00000000000E+00 0. -1.
         11    1    3    3    0    0 -0.11923911942E+02 -0.13899331096E+02  0.61949052296E+01  0.19332561444E+02  0.51100000000E-03 0. -1.
        -11    1    3    3    0    0 -0.10069837131E+02 -0.80947341689E+01  0.11092749996E+02  0.17028665357E+02  0.51100000000E-03 0.  1.
         12    1    3    3    0    0  0.97552921677E+00 -0.35348544619E+01  0.10821629203E+02  0.11426045332E+02  0.00000000000E+00 0. -1.
</event>
<event>
 7    1  0.2237500E-009  0.4778727E+02  0.7816164E-02  0.1312668E+00
        -11   -1    0    0    0    0  0.00000000000E+00  0.00000000000E+00  0.45593999997E+02  0.45594000000E+02  0.51100000000E-03 0.  1.
         11   -1    0    0    0    0 -0.00000000000E+00 -0.00000000000E+00 -0.45593999997E+02  0.45594000000E+02  0.51100000000E-03 0. -1.
    9900012    2    1    2    0    0 -0.34734818910E+02 -0.96248254448E+01  0.24175993252E+02  0.47787267757E+02  0.19999985009E+02 0.  0.
         12    1    1    2    0    0  0.34734818910E+02  0.96248254448E+01 -0.24175993252E+02  0.43400732243E+02  0.00000000000E+00 0. -1.
         11    1    3    3    0    0  0.33496487443E+00 -0.24798355788E+01 -0.11402865891E+01  0.27499163135E+01  0.51100000000E-03 0. -1.
        -11    1    3    3    0    0 -0.55383923514E+01  0.26065798075E+01  0.48186928344E+01  0.77902406269E+01  0.51100000000E-03 0.  1.
        -12    1    3    3    0    0 -0.29531391433E+02 -0.97515696736E+01  0.20497587007E+02  0.37247110816E+02  0.00000000000E+00 0.  1.
</event>
<event>
 7    1  0.2237500E-009  0.4778728E+02  0.7816164E-02  0.1312668E+00
        -11   -1    0    0    0    0  0.00000000000E+00  0.00000000000E+00  0.45593999997E+02  0.45594000000E+02  0.51100000000E-03 0.  1.
         11   -1    0    0    0    0 -0.00000000000E+00 -0.00000000000E+00 -0.45593999997E+02  0.45594000000E+02  0.51100000000E-03 0. -1.
    9900012    2    1    2    0    0 -0.35249569926E+02 -0.18101030818E+02  0.17704323671E+02  0.47787279115E+02  0.20000036798E+02 0.  0.
         12    1    1    2    0    0  0.35249569926E+02  0.18101030818E+02 -0.17704323671E+02  0.43400720885E+02  0.00000000000E+00 0. -1.
         11    1    3    3    0    0 -0.76782366215E+01 -0.19651376480E+00 -0.58260655123E+00  0.77028154548E+01  0.51100000000E-03 0. -1.
        -11    1    3    3    0    0 -0.10280792966E+02 -0.52207291935E-01  0.86243016297E+01  0.13419240235E+02  0.51100000000E-03 0.  1.
         12    1    3    3    0    0 -0.17290540339E+02 -0.17852309762E+02  0.96626285924E+01  0.26665223426E+02  0.00000000000E+00 0. -1.
</event>
<event>
 7    1  0.2237500E-009  0.4778727E+02  0.7816164E-02  0.1312668E+00
        -11   -1    0    0    0    0  0.00000000000E+00  0.00000000000E+00  0.45593999997E+02  0.45594000000E+02  0.51100000000E-03 0. -1.
         11   -1    0    0    0    0 -0.00000000000E+00 -0.00000000000E+00 -0.45593999997E+02  0.45594000000E+02  0.51100000000E-03 0.  1.
    9900012    2    1    2    0    0 -0.11633804939E+02  0.41397105749E+02 -0.58785573047E+01  0.47787271691E+02  0.20000002950E+02 0.  0.
         12    1    1    2    0    0  0.11633804939E+02 -0.41397105749E+02  0.58785573047E+01  0.43400728309E+02  0.00000000000E+00 0. -1.
         11    1    3    3    0    0 -0.17905834013E+01  0.89446606947E+01  0.53532467995E+01  0.10576880231E+02  0.51100000000E-03 0. -1.
        -11    1    3    3    0    0 -0.32339313303E+01  0.15532585171E+01  0.23663248562E+00  0.35954024899E+01  0.51100000000E-03 0.  1.
        -12    1    3    3    0    0 -0.66092902071E+01  0.30899186537E+02 -0.11468436590E+02  0.33614988971E+02  0.00000000000E+00 0.  1.
</event>
<event>
 7    1  0.2237500E-009  0.4778727E+02  0.7816164E-02  0.1312668E+00
        -11   -1    0    0    0    0  0.00000000000E+00  0.00000000000E+00  0.45593999997E+02  0.45594000000E+02  0.51100000000E-03 0.  1.
         11   -1    0    0    0    0 -0.00000000000E+00 -0.00000000000E+00 -0.45593999997E+02  0.45594000000E+02  0.51100000000E-03 0. -1.
    9900012    2    1    2    0    0 -0.15208240263E+02  0.27613664393E+02  0.29829821169E+02  0.47787271157E+02  0.20000000515E+02 0.  0.
         12    1    1    2    0    0  0.15208240263E+02 -0.27613664393E+02 -0.29829821169E+02  0.43400728843E+02  0.00000000000E+00 0. -1.
         11    1    3    3    0    0  0.82092428300E+00  0.43272824767E+01 -0.14821543443E+01  0.46471574186E+01  0.51100000000E-03 0. -1.
        -11    1    3    3    0    0 -0.33704288650E+01  0.38952107621E+00  0.24517055259E+01  0.41859739189E+01  0.51100000000E-03 0.  1.
        -12    1    3    3    0    0 -0.12658735681E+02  0.22896860840E+02  0.28860269988E+02  0.38954139820E+02  0.00000000000E+00 0.  1.
</event>
<event>
 7    1  0.2237500E-009  0.4778727E+02  0.7816164E-02  0.1312668E+00
        -11   -1    0    0    0    0  0.00000000000E+00  0.00000000000E+00  0.45593999997E+02  0.45594000000E+02  0.51100000000E-03 0. -1.
         11   -1    0    0    0    0 -0.00000000000E+00 -0.00000000000E+00 -0.45593999997E+02  0.45594000000E+02  0.51100000000E-03 0.  1.
    9900012    2    1    2    0    0  0.13276483035E+02 -0.12629754013E+02 -0.39342695991E+02  0.47787269406E+02  0.19999992532E+02 0.  0.
         12    1    1    2    0    0 -0.13276483035E+02  0.12629754013E+02  0.39342695991E+02  0.43400730594E+02  0.00000000000E+00 0. -1.
         11    1    3    3    0    0 -0.99201887079E+00 -0.25636029013E+01 -0.84727361032E+01  0.89074922740E+01  0.51100000000E-03 0. -1.
        -11    1    3    3    0    0  0.34382566606E+01 -0.71435026662E+01 -0.24984032347E+02  0.26211697995E+02  0.51100000000E-03 0.  1.
         12    1    3    3    0    0  0.10830245245E+02 -0.29226484457E+01 -0.58859275403E+01  0.12668079137E+02  0.00000000000E+00 0. -1.
</event>
<event>
 7    1  0.2237500E-009  0.4778727E+02  0.7816164E-02  0.1312668E+00
        -11   -1    0    0    0    0  0.00000000000E+00  0.00000000000E+00  0.45593999997E+02  0.45594000000E+02  0.51100000000E-03 0.  1.
         11   -1    0    0    0    0 -0.00000000000E+00 -0.00000000000E+00 -0.45593999997E+02  0.45594000000E+02  0.51100000000E-03 0. -1.
    9900012    2    1    2    0    0  0.42170827986E+02 -0.10222935096E+02  0.85784530792E+00  0.47787273813E+02  0.20000012622E+02 0.  0.
         12    1    1    2    0    0 -0.42170827986E+02  0.10222935096E+02 -0.85784530792E+00  0.43400726187E+02  0.00000000000E+00 0. -1.
         11    1    3    3    0    0  0.13229569755E+02 -0.41282299850E+01 -0.33892125005E+01  0.14267114647E+02  0.51100000000E-03 0. -1.
        -11    1    3    3    0    0  0.51178600418E+01 -0.74841848937E+01  0.32629484405E+01  0.96359923058E+01  0.51100000000E-03 0.  1.
        -12    1    3    3    0    0  0.23823398189E+02  0.13894797823E+01  0.98410936795E+00  0.23884166860E+02  0.00000000000E+00 0.  1.
</event>
<event>
 7    1  0.2237500E-009  0.4778727E+02  0.7816164E-02  0.1312668E+00
        -11   -1    0    0    0    0  0.00000000000E+00  0.00000000000E+00  0.45593999997E+02  0.45594000000E+02  0.51100000000E-03 0. -1.
         11   -1    0    0    0    0 -0.00000000000E+00 -0.00000000000E+00 -0.45593999997E+02  0.45594000000E+02  0.51100000000E-03 0.  1.
    9900012    2    1    2    0    0 -0.87534442536E+01  0.42454862052E+02 -0.21413626813E+01  0.47787268068E+02  0.19999986428E+02 0.  0.
         12    1    1    2    0    0  0.87534442536E+01 -0.42454862052E+02  0.21413626813E+01  0.43400731932E+02  0.00000000000E+00 0. -1.
         11    1    3    3    0    0  0.14779695864E+01  0.60042577499E+00  0.36802863996E+00  0.16371776172E+01  0.51100000000E-03 0. -1.
        -11    1    3    3    0    0  0.13111992795E+01  0.13803813114E+02  0.52734546434E+01  0.14834885378E+02  0.51100000000E-03 0.  1.
         12    1    3    3    0    0 -0.11542613120E+02  0.28050623163E+02 -0.77828459646E+01  0.31315205073E+02  0.00000000000E+00 0. -1.
</event>
<event>
 7    1  0.2563394E-009  0.4778727E+02  0.7816164E-02  0.1312668E+00
        -11   -1    0    0    0    0  0.00000000000E+00  0.00000000000E+00  0.45593999997E+02  0.45594000000E+02  0.51100000000E-03 0. -1.
         11   -1    0    0    0    0 -0.00000000000E+00 -0.00000000000E+00 -0.45593999997E+02  0.45594000000E+02  0.51100000000E-03 0.  1.
    9900012    2    1    2    0    0  0.56502539508E+01 -0.17564499601E+01 -0.42995497025E+02  0.47787271313E+02  0.20000001225E+02 0.  0.
         12    1    1    2    0    0 -0.56502539508E+01  0.17564499601E+01  0.42995497025E+02  0.43400728687E+02  0.00000000000E+00 0. -1.
         11    1    3    3    0    0 -0.44509893257E+01  0.35108471508E+00 -0.46261490210E+01  0.64292940110E+01  0.51100000000E-03 0. -1.
        -11    1    3    3    0    0  0.71915981835E+00 -0.54297613248E+01 -0.13069306291E+02  0.14170612763E+02  0.51100000000E-03 0.  1.
        -12    1    3    3    0    0  0.93820834581E+01  0.33222266496E+01 -0.25300041712E+02  0.27187364539E+02  0.00000000000E+00 0.  1.
</event>
<event>
 7    1  0.2237500E-009  0.4778724E+02  0.7816164E-02  0.1312668E+00
        -11   -1    0    0    0    0  0.00000000000E+00  0.00000000000E+00  0.45593999997E+02  0.45594000000E+02  0.51100000000E-03 0.  1.
         11   -1    0    0    0    0 -0.00000000000E+00 -0.00000000000E+00 -0.45593999997E+02  0.45594000000E+02  0.51100000000E-03 0. -1.
    9900012    2    1    2    0    0  0.19896084136E+02 -0.30911911695E+02 -0.23070010045E+02  0.47787241803E+02  0.19999866675E+02 0.  0.
         12    1    1    2    0    0 -0.19896084136E+02  0.30911911695E+02  0.23070010045E+02  0.43400758197E+02  0.00000000000E+00 0. -1.
         11    1    3    3    0    0  0.70244976994E+01 -0.18342751806E+02 -0.12104243220E+02  0.23071905338E+02  0.51100000000E-03 0. -1.
        -11    1    3    3    0    0  0.13647422309E+02 -0.14118461477E+02 -0.11672994634E+02  0.22843859003E+02  0.51100000000E-03 0.  1.
        -12    1    3    3    0    0 -0.77583587229E+00  0.15493015882E+01  0.70722780961E+00  0.18714774609E+01  0.00000000000E+00 0.  1.
</event>
<event>
 7    1  0.2237500E-009  0.4778727E+02  0.7816164E-02  0.1312668E+00
        -11   -1    0    0    0    0  0.00000000000E+00  0.00000000000E+00  0.45593999997E+02  0.45594000000E+02  0.51100000000E-03 0.  1.
         11   -1    0    0    0    0 -0.00000000000E+00 -0.00000000000E+00 -0.45593999997E+02  0.45594000000E+02  0.51100000000E-03 0. -1.
    9900012    2    1    2    0    0  0.78839058215E+01 -0.41020155781E+02  0.11781931124E+02  0.47787273597E+02  0.20000011637E+02 0.  0.
         12    1    1    2    0    0 -0.78839058215E+01  0.41020155781E+02 -0.11781931124E+02  0.43400726403E+02  0.00000000000E+00 0. -1.
         11    1    3    3    0    0  0.47054530543E+01 -0.22135587321E+02  0.45211324924E+01  0.23077394866E+02  0.51100000000E-03 0. -1.
        -11    1    3    3    0    0  0.17582624282E+01 -0.14841554313E+02 -0.14364959524E+01  0.15014217997E+02  0.51100000000E-03 0.  1.
         12    1    3    3    0    0  0.14201903390E+01 -0.40430141475E+01  0.86972945836E+01  0.96956607341E+01  0.00000000000E+00 0. -1.
</event>
<event>
 7    1  0.2237500E-009  0.4778727E+02  0.7816164E-02  0.1312668E+00
        -11   -1    0    0    0    0  0.00000000000E+00  0.00000000000E+00  0.45593999997E+02  0.45594000000E+02  0.51100000000E-03 0.  1.
         11   -1    0    0    0    0 -0.00000000000E+00 -0.00000000000E+00 -0.45593999997E+02  0.45594000000E+02  0.51100000000E-03 0. -1.
    9900012    2    1    2    0    0  0.11842353474E+02 -0.90788953818E+01  0.40754825203E+02  0.47787268964E+02  0.19999990513E+02 0.  0.
         12    1    1    2    0    0 -0.11842353474E+02  0.90788953818E+01 -0.40754825203E+02  0.43400731036E+02  0.00000000000E+00 0. -1.
         11    1    3    3    0    0 -0.12692324250E+01 -0.35049064006E+00 -0.51968374251E+00  0.14155797720E+01  0.51100000000E-03 0. -1.
        -11    1    3    3    0    0  0.90234001614E+01  0.18506915047E+01  0.13231215027E+02  0.16121782187E+02  0.51100000000E-03 0.  1.
         12    1    3    3    0    0  0.40881857376E+01 -0.10579096246E+02  0.28043293918E+02  0.30249907005E+02  0.00000000000E+00 0. -1.
</event>
<event>
 7    1  0.2237500E-009  0.4778727E+02  0.7816164E-02  0.1312668E+00
        -11   -1    0    0    0    0  0.00000000000E+00  0.00000000000E+00  0.45593999997E+02  0.45594000000E+02  0.51100000000E-03 0.  1.
         11   -1    0    0    0    0 -0.00000000000E+00 -0.00000000000E+00 -0.45593999997E+02  0.45594000000E+02  0.51100000000E-03 0. -1.
    9900012    2    1    2    0    0 -0.10719426344E+01  0.24171572447E+02  0.36030672848E+02  0.47787270035E+02  0.19999995400E+02 0.  0.
         12    1    1    2    0    0  0.10719426344E+01 -0.24171572447E+02 -0.36030672848E+02  0.43400729965E+02  0.00000000000E+00 0. -1.
         11    1    3    3    0    0  0.40395373605E+01  0.48764933884E+01  0.10052365473E+01  0.64115950146E+01  0.51100000000E-03 0. -1.
        -11    1    3    3    0    0  0.12495451833E+01  0.12994380598E+01  0.41308057433E+00  0.18494697235E+01  0.51100000000E-03 0.  1.
        -12    1    3    3    0    0 -0.63610251782E+01  0.17995640999E+02  0.34612355726E+02  0.39526205297E+02  0.00000000000E+00 0.  1.
</event>
<event>
 7    1  0.2237500E-009  0.4778727E+02  0.7816164E-02  0.1312668E+00
        -11   -1    0    0    0    0  0.00000000000E+00  0.00000000000E+00  0.45593999997E+02  0.45594000000E+02  0.51100000000E-03 0.  1.
         11   -1    0    0    0    0 -0.00000000000E+00 -0.00000000000E+00 -0.45593999997E+02  0.45594000000E+02  0.51100000000E-03 0. -1.
    9900012    2    1    2    0    0  0.38565205313E+02  0.11265304692E+02  0.16414656698E+02  0.47787272988E+02  0.20000008861E+02 0.  0.
         12    1    1    2    0    0 -0.38565205313E+02 -0.11265304692E+02 -0.16414656698E+02  0.43400727012E+02  0.00000000000E+00 0. -1.
         11    1    3    3    0    0  0.13102581251E+01 -0.16703893941E+01  0.47649037657E+01  0.52164437350E+01  0.51100000000E-03 0. -1.
        -11    1    3    3    0    0  0.61978996517E+01  0.37869093859E+01  0.65784484897E+01  0.97995218038E+01  0.51100000000E-03 0.  1.
         12    1    3    3    0    0  0.31057047537E+02  0.91487847004E+01  0.50713044421E+01  0.32771307449E+02  0.00000000000E+00 0. -1.
</event>
<event>
 7    1  0.2237500E-009  0.4778727E+02  0.7816164E-02  0.1312668E+00
        -11   -1    0    0    0    0  0.00000000000E+00  0.00000000000E+00  0.45593999997E+02  0.45594000000E+02  0.51100000000E-03 0.  1.
         11   -1    0    0    0    0 -0.00000000000E+00 -0.00000000000E+00 -0.45593999997E+02  0.45594000000E+02  0.51100000000E-03 0. -1.
    9900012    2    1    2    0    0  0.56415767174E+01  0.12229984753E+02  0.41258005754E+02  0.47787274733E+02  0.20000016819E+02 0.  0.
         12    1    1    2    0    0 -0.56415767174E+01 -0.12229984753E+02 -0.41258005754E+02  0.43400725267E+02  0.00000000000E+00 0. -1.
         11    1    3    3    0    0  0.22199102061E+01 -0.75096383197E+00  0.14099628675E+02  0.14293056952E+02  0.51100000000E-03 0. -1.
        -11    1    3    3    0    0  0.32028164890E+01  0.12182851981E+02  0.28921943556E+02  0.31546136613E+02  0.51100000000E-03 0.  1.
         12    1    3    3    0    0  0.21885002232E+00  0.79809660355E+00 -0.17635664772E+01  0.19480811689E+01  0.00000000000E+00 0. -1.
</event>
<event>
 7    1  0.2237500E-009  0.4778727E+02  0.7816164E-02  0.1312668E+00
        -11   -1    0    0    0    0  0.00000000000E+00  0.00000000000E+00  0.45593999997E+02  0.45594000000E+02  0.51100000000E-03 0.  1.
         11   -1    0    0    0    0 -0.00000000000E+00 -0.00000000000E+00 -0.45593999997E+02  0.45594000000E+02  0.51100000000E-03 0. -1.
    9900012    2    1    2    0    0  0.23728411844E+02  0.14724626523E+02  0.33223050197E+02  0.47787271673E+02  0.20000002868E+02 0.  0.
         12    1    1    2    0    0 -0.23728411844E+02 -0.14724626523E+02 -0.33223050197E+02  0.43400728327E+02  0.00000000000E+00 0. -1.
         11    1    3    3    0    0  0.55388046560E+01 -0.24635876073E+01  0.77503553743E+01  0.98394933612E+01  0.51100000000E-03 0. -1.
        -11    1    3    3    0    0  0.91139101019E+01  0.54246890468E+01  0.18961117833E+02  0.21725896951E+02  0.51100000000E-03 0.  1.
         12    1    3    3    0    0  0.90756970865E+01  0.11763525084E+02  0.65115769897E+01  0.16221881361E+02  0.00000000000E+00 0. -1.
</event>
<event>
 7    1  0.2237500E-009  0.4778727E+02  0.7816164E-02  0.1312668E+00
        -11   -1    0    0    0    0  0.00000000000E+00  0.00000000000E+00  0.45593999997E+02  0.45594000000E+02  0.51100000000E-03 0. -1.
         11   -1    0    0    0    0 -0.00000000000E+00 -0.00000000000E+00 -0.45593999997E+02  0.45594000000E+02  0.51100000000E-03 0.  1.
    9900012    2    1    2    0    0  0.23757301127E+02 -0.16001044912E+02 -0.32606450056E+02  0.47787269818E+02  0.19999994407E+02 0.  0.
         12    1    1    2    0    0 -0.23757301127E+02  0.16001044912E+02  0.32606450056E+02  0.43400730182E+02  0.00000000000E+00 0. -1.
         11    1    3    3    0    0 -0.48572821998E+00 -0.34066318979E+01 -0.16099466748E+01  0.37990790132E+01  0.51100000000E-03 0. -1.
        -11    1    3    3    0    0  0.39139732845E+00  0.17889685150E+01 -0.69627907481E+01  0.71995871742E+01  0.51100000000E-03 0.  1.
        -12    1    3    3    0    0  0.23851632018E+02 -0.14383381529E+02 -0.24033712633E+02  0.36788603630E+02  0.00000000000E+00 0.  1.
</event>
<event>
 7    1  0.2237500E-009  0.4778727E+02  0.7816164E-02  0.1312668E+00
        -11   -1    0    0    0    0  0.00000000000E+00  0.00000000000E+00  0.45593999997E+02  0.45594000000E+02  0.51100000000E-03 0.  1.
         11   -1    0    0    0    0 -0.00000000000E+00 -0.00000000000E+00 -0.45593999997E+02  0.45594000000E+02  0.51100000000E-03 0. -1.
    9900012    2    1    2    0    0  0.10202394038E+02 -0.27837460956E+01  0.42092578420E+02  0.47787271383E+02  0.20000001545E+02 0.  0.
         12    1    1    2    0    0 -0.10202394038E+02  0.27837460956E+01 -0.42092578420E+02  0.43400728617E+02  0.00000000000E+00 0. -1.
         11    1    3    3    0    0 -0.18336450287E+01  0.14237266276E+01  0.15742965414E+01  0.28049351976E+01  0.51100000000E-03 0. -1.
        -11    1    3    3    0    0  0.12631279277E+01  0.49680071020E+01  0.14267077791E+02  0.15160016349E+02  0.51100000000E-03 0.  1.
        -12    1    3    3    0    0  0.10772911139E+02 -0.91754798253E+01  0.26251204087E+02  0.29822319837E+02  0.00000000000E+00 0.  1.
</event>
<event>
 7    1  0.2237500E-009  0.4778722E+02  0.7816164E-02  0.1312668E+00
        -11   -1    0    0    0    0  0.00000000000E+00  0.00000000000E+00  0.45593999997E+02  0.45594000000E+02  0.51100000000E-03 0.  1.
         11   -1    0    0    0    0 -0.00000000000E+00 -0.00000000000E+00 -0.45593999997E+02  0.45594000000E+02  0.51100000000E-03 0. -1.
    9900012    2    1    2    0    0 -0.22948704320E+01 -0.10599851410E+02  0.42023851843E+02  0.47787223464E+02  0.19999783060E+02 0.  0.
         12    1    1    2    0    0  0.22948704320E+01  0.10599851410E+02 -0.42023851843E+02  0.43400776536E+02  0.00000000000E+00 0. -1.
         11    1    3    3    0    0  0.98143467198E+00 -0.10082375689E+02  0.74085418676E+01  0.12550060016E+02  0.51100000000E-03 0. -1.
        -11    1    3    3    0    0  0.10146136242E+01  0.11907785332E+01  0.43767365141E+01  0.46479261071E+01  0.51100000000E-03 0.  1.
         12    1    3    3    0    0 -0.42909187282E+01 -0.17082542550E+01  0.30238573461E+02  0.30589237341E+02  0.00000000000E+00 0. -1.
</event>
<event>
 7    1  0.2237500E-009  0.4778726E+02  0.7816164E-02  0.1312668E+00
        -11   -1    0    0    0    0  0.00000000000E+00  0.00000000000E+00  0.45593999997E+02  0.45594000000E+02  0.51100000000E-03 0. -1.
         11   -1    0    0    0    0 -0.00000000000E+00 -0.00000000000E+00 -0.45593999997E+02  0.45594000000E+02  0.51100000000E-03 0.  1.
    9900012    2    1    2    0    0  0.41075105006E+02  0.13760085300E+02 -0.26682718097E+01  0.47787264140E+02  0.19999968521E+02 0.  0.
         12    1    1    2    0    0 -0.41075105006E+02 -0.13760085300E+02  0.26682718097E+01  0.43400735860E+02  0.00000000000E+00 0. -1.
         11    1    3    3    0    0  0.13726954415E+01  0.20633293102E+01 -0.24648143614E+01  0.34952726238E+01  0.51100000000E-03 0. -1.
        -11    1    3    3    0    0  0.20171580449E+02  0.12414024353E+02 -0.49105748327E+01  0.24189138139E+02  0.51100000000E-03 0.  1.
         12    1    3    3    0    0  0.19530829115E+02 -0.71726836398E+00  0.47071173844E+01  0.20102853377E+02  0.00000000000E+00 0. -1.
</event>
<event>
 7    1  0.2237500E-009  0.4778727E+02  0.7816164E-02  0.1312668E+00
        -11   -1    0    0    0    0  0.00000000000E+00  0.00000000000E+00  0.45593999997E+02  0.45594000000E+02  0.51100000000E-03 0.  1.
         11   -1    0    0    0    0 -0.00000000000E+00 -0.00000000000E+00 -0.45593999997E+02  0.45594000000E+02  0.51100000000E-03 0. -1.
    9900012    2    1    2    0    0 -0.20225341022E+02  0.35143664235E+02  0.15475193242E+02  0.47787272342E+02  0.20000005918E+02 0.  0.
         12    1    1    2    0    0  0.20225341022E+02 -0.35143664235E+02 -0.15475193242E+02  0.43400727658E+02  0.00000000000E+00 0. -1.
         11    1    3    3    0    0 -0.43438620470E+01 -0.13591288728E+00  0.13633958688E+01  0.45548280267E+01  0.51100000000E-03 0. -1.
        -11    1    3    3    0    0 -0.61946758891E+01  0.10314468703E+02 -0.16736118915E+01  0.12147561526E+02  0.51100000000E-03 0.  1.
         12    1    3    3    0    0 -0.96868030862E+01  0.24965108419E+02  0.15785409265E+02  0.31084882790E+02  0.00000000000E+00 0. -1.
</event>
<event>
 7    1  0.2237500E-009  0.4778727E+02  0.7816164E-02  0.1312668E+00
        -11   -1    0    0    0    0  0.00000000000E+00  0.00000000000E+00  0.45593999997E+02  0.45594000000E+02  0.51100000000E-03 0.  1.
         11   -1    0    0    0    0 -0.00000000000E+00 -0.00000000000E+00 -0.45593999997E+02  0.45594000000E+02  0.51100000000E-03 0. -1.
    9900012    2    1    2    0    0  0.30629046870E+02  0.35018750127E+01  0.30548679331E+02  0.47787269019E+02  0.19999990767E+02 0.  0.
         12    1    1    2    0    0 -0.30629046870E+02 -0.35018750127E+01 -0.30548679331E+02  0.43400730981E+02  0.00000000000E+00 0. -1.
         11    1    3    3    0    0  0.73837702211E+01  0.29958414769E+01  0.12913463191E+02  0.15174078578E+02  0.51100000000E-03 0. -1.
        -11    1    3    3    0    0  0.16816293139E+02  0.69553808989E+01  0.13219652624E+02  0.22492760038E+02  0.51100000000E-03 0.  1.
         12    1    3    3    0    0  0.64289835103E+01 -0.64493473631E+01  0.44155635163E+01  0.10120430404E+02  0.00000000000E+00 0. -1.
</event>
<event>
 7    1  0.2237500E-009  0.4778727E+02  0.7816164E-02  0.1312668E+00
        -11   -1    0    0    0    0  0.00000000000E+00  0.00000000000E+00  0.45593999997E+02  0.45594000000E+02  0.51100000000E-03 0.  1.
         11   -1    0    0    0    0 -0.00000000000E+00 -0.00000000000E+00 -0.45593999997E+02  0.45594000000E+02  0.51100000000E-03 0. -1.
    9900012    2    1    2    0    0  0.50550268768E+01 -0.31467485422E+02  0.29459596964E+02  0.47787265113E+02  0.19999972954E+02 0.  0.
         12    1    1    2    0    0 -0.50550268768E+01  0.31467485422E+02 -0.29459596964E+02  0.43400734887E+02  0.00000000000E+00 0. -1.
         11    1    3    3    0    0 -0.26345646965E+01 -0.40676737100E+01  0.72788004986E+00  0.49006846643E+01  0.51100000000E-03 0. -1.
        -11    1    3    3    0    0  0.59858492618E+01 -0.71156378893E+01  0.23980757455E+01  0.96027840494E+01  0.51100000000E-03 0.  1.
        -12    1    3    3    0    0  0.17037423114E+01 -0.20284173822E+02  0.26333641169E+02  0.33283796399E+02  0.00000000000E+00 0.  1.
</event>
<event>
 7    1  0.2237500E-009  0.4778727E+02  0.7816164E-02  0.1312668E+00
        -11   -1    0    0    0    0  0.00000000000E+00  0.00000000000E+00  0.45593999997E+02  0.45594000000E+02  0.51100000000E-03 0.  1.
         11   -1    0    0    0    0 -0.00000000000E+00 -0.00000000000E+00 -0.45593999997E+02  0.45594000000E+02  0.51100000000E-03 0. -1.
    9900012    2    1    2    0    0  0.23657267720E+02 -0.21872759333E+01  0.36320417758E+02  0.47787271456E+02  0.20000001878E+02 0.  0.
         12    1    1    2    0    0 -0.23657267720E+02  0.21872759333E+01 -0.36320417758E+02  0.43400728544E+02  0.00000000000E+00 0. -1.
         11    1    3    3    0    0 -0.27413536297E+00 -0.11053323598E+01  0.34504975526E+01  0.36335717200E+01  0.51100000000E-03 0. -1.
        -11    1    3    3    0    0  0.25647743715E+02  0.21677624189E+00  0.33223978026E+02  0.41972448888E+02  0.51100000000E-03 0.  1.
        -12    1    3    3    0    0 -0.17163406312E+01 -0.12987198154E+01 -0.35405781997E+00  0.21812508478E+01  0.00000000000E+00 0.  1.
</event>
<event>
 7    1  0.2237500E-009  0.4778727E+02  0.7816164E-02  0.1312668E+00
        -11   -1    0    0    0    0  0.00000000000E+00  0.00000000000E+00  0.45593999997E+02  0.45594000000E+02  0.51100000000E-03 0.  1.
         11   -1    0    0    0    0 -0.00000000000E+00 -0.00000000000E+00 -0.45593999997E+02  0.45594000000E+02  0.51100000000E-03 0. -1.
    9900012    2    1    2    0    0 -0.43025198928E+02 -0.33246897933E+01  0.46262412345E+01  0.47787269442E+02  0.19999992693E+02 0.  0.
         12    1    1    2    0    0  0.43025198928E+02  0.33246897933E+01 -0.46262412345E+01  0.43400730558E+02  0.00000000000E+00 0. -1.
         11    1    3    3    0    0 -0.88309835278E+01 -0.42338704768E+01 -0.26566175580E+01  0.10147391113E+02  0.51100000000E-03 0. -1.
        -11    1    3    3    0    0 -0.20264405851E+02 -0.63227174476E+01  0.45075924128E+01  0.21701181766E+02  0.51100000000E-03 0.  1.
         12    1    3    3    0    0 -0.13929809550E+02  0.72318981311E+01  0.27752663797E+01  0.15938696564E+02  0.00000000000E+00 0. -1.
</event>
<event>
 7    1  0.2237500E-009  0.4778724E+02  0.7816164E-02  0.1312668E+00
        -11   -1    0    0    0    0  0.00000000000E+00  0.00000000000E+00  0.45593999997E+02  0.45594000000E+02  0.51100000000E-03 0. -1.
         11   -1    0    0    0    0 -0.00000000000E+00 -0.00000000000E+00 -0.45593999997E+02  0.45594000000E+02  0.51100000000E-03 0.  1.
    9900012    2    1    2    0    0 -0.73617312564E+01 -0.16336348108E+02 -0.39529160395E+02  0.47787241042E+02  0.19999863208E+02 0.  0.
         12    1    1    2    0    0  0.73617312564E+01  0.16336348108E+02  0.39529160395E+02  0.43400758958E+02  0.00000000000E+00 0. -1.
         11    1    3    3    0    0 -0.53647296496E+00  0.13634400021E+00  0.62264356059E+00  0.83311355360E+00  0.51100000000E-03 0. -1.
        -11    1    3    3    0    0 -0.81501994675E+01 -0.96063781483E+01 -0.10236926671E+02  0.16232773035E+02  0.51100000000E-03 0.  1.
         12    1    3    3    0    0  0.13249411761E+01 -0.68663139600E+01 -0.29914877284E+02  0.30721354454E+02  0.00000000000E+00 0. -1.
</event>
<event>
 7    1  0.3075609E-009  0.4778727E+02  0.7816164E-02  0.1312668E+00
        -11   -1    0    0    0    0  0.00000000000E+00  0.00000000000E+00  0.45593999997E+02  0.45594000000E+02  0.51100000000E-03 0. -1.
         11   -1    0    0    0    0 -0.00000000000E+00 -0.00000000000E+00 -0.45593999997E+02  0.45594000000E+02  0.51100000000E-03 0.  1.
    9900012    2    1    2    0    0  0.68763084554E+01 -0.22545195327E+02 -0.36442473258E+02  0.47787270657E+02  0.19999998234E+02 0.  0.
         12    1    1    2    0    0 -0.68763084554E+01  0.22545195327E+02  0.36442473258E+02  0.43400729343E+02  0.00000000000E+00 0. -1.
         11    1    3    3    0    0  0.12403693171E+01 -0.17024917178E+01 -0.23303117102E+00  0.21192682415E+01  0.51100000000E-03 0. -1.
        -11    1    3    3    0    0  0.38764682227E+01 -0.72377715909E+01 -0.29061838633E+02  0.30199384240E+02  0.51100000000E-03 0.  1.
        -12    1    3    3    0    0  0.17594709156E+01 -0.13604932018E+02 -0.71476034542E+01  0.15468618176E+02  0.00000000000E+00 0.  1.
</event>
<event>
 7    1  0.2237500E-009  0.4778727E+02  0.7816164E-02  0.1312668E+00
        -11   -1    0    0    0    0  0.00000000000E+00  0.00000000000E+00  0.45593999997E+02  0.45594000000E+02  0.51100000000E-03 0.  1.
         11   -1    0    0    0    0 -0.00000000000E+00 -0.00000000000E+00 -0.45593999997E+02  0.45594000000E+02  0.51100000000E-03 0. -1.
    9900012    2    1    2    0    0  0.19525683963E+02 -0.37478915374E+02  0.98844173464E+01  0.47787272608E+02  0.20000007130E+02 0.  0.
         12    1    1    2    0    0 -0.19525683963E+02  0.37478915374E+02 -0.98844173464E+01  0.43400727392E+02  0.00000000000E+00 0. -1.
         11    1    3    3    0    0  0.80291442480E+01 -0.14093851614E+02  0.68290187674E+01  0.17599412157E+02  0.51100000000E-03 0. -1.
        -11    1    3    3    0    0  0.84302394009E+01 -0.89147381692E+01  0.79353577091E+01  0.14612029127E+02  0.51100000000E-03 0.  1.
         12    1    3    3    0    0  0.30663003141E+01 -0.14470325591E+02 -0.48799591300E+01  0.15575831324E+02  0.00000000000E+00 0. -1.
</event>
<event>
 7    1  0.2237500E-009  0.4778727E+02  0.7816164E-02  0.1312668E+00
        -11   -1    0    0    0    0  0.00000000000E+00  0.00000000000E+00  0.45593999997E+02  0.45594000000E+02  0.51100000000E-03 0.  1.
         11   -1    0    0    0    0 -0.00000000000E+00 -0.00000000000E+00 -0.45593999997E+02  0.45594000000E+02  0.51100000000E-03 0. -1.
    9900012    2    1    2    0    0  0.95907419694E+01 -0.29022508995E+02  0.30811280833E+02  0.47787269748E+02  0.19999994087E+02 0.  0.
         12    1    1    2    0    0 -0.95907419694E+01  0.29022508995E+02 -0.30811280833E+02  0.43400730252E+02  0.00000000000E+00 0. -1.
         11    1    3    3    0    0  0.41024729421E+01 -0.22826499268E+02  0.10128175453E+02  0.25307297195E+02  0.51100000000E-03 0. -1.
        -11    1    3    3    0    0  0.20856498337E+01 -0.30485268057E+01  0.56647127506E+01  0.67625750807E+01  0.51100000000E-03 0.  1.
         12    1    3    3    0    0  0.34026191936E+01 -0.31474829217E+01  0.15018392629E+02  0.15717397471E+02  0.00000000000E+00 0. -1.
</event>
<event>
 7    1  0.2237500E-009  0.4778727E+02  0.7816164E-02  0.1312668E+00
        -11   -1    0    0    0    0  0.00000000000E+00  0.00000000000E+00  0.45593999997E+02  0.45594000000E+02  0.51100000000E-03 0.  1.
         11   -1    0    0    0    0 -0.00000000000E+00 -0.00000000000E+00 -0.45593999997E+02  0.45594000000E+02  0.51100000000E-03 0. -1.
    9900012    2    1    2    0    0 -0.16818439432E+02  0.88870774655E+01  0.39010036003E+02  0.47787274663E+02  0.20000016500E+02 0.  0.
         12    1    1    2    0    0  0.16818439432E+02 -0.88870774655E+01 -0.39010036003E+02  0.43400725337E+02  0.00000000000E+00 0. -1.
         11    1    3    3    0    0 -0.84527667372E+00  0.16067460257E+01 -0.83429880262E+00  0.19980440935E+01  0.51100000000E-03 0. -1.
        -11    1    3    3    0    0 -0.32382451716E+01 -0.40252874336E+01  0.61177019509E+01  0.80072122574E+01  0.51100000000E-03 0.  1.
        -12    1    3    3    0    0 -0.12734917587E+02  0.11305618873E+02  0.33726632855E+02  0.37782018312E+02  0.00000000000E+00 0.  1.
</event>
<event>
 7    1  0.2237500E-009  0.4778727E+02  0.7816164E-02  0.1312668E+00
        -11   -1    0    0    0    0  0.00000000000E+00  0.00000000000E+00  0.45593999997E+02  0.45594000000E+02  0.51100000000E-03 0.  1.
         11   -1    0    0    0    0 -0.00000000000E+00 -0.00000000000E+00 -0.45593999997E+02  0.45594000000E+02  0.51100000000E-03 0. -1.
    9900012    2    1    2    0    0  0.24022586714E+02  0.22809374799E+01  0.36074035088E+02  0.47787270101E+02  0.19999995699E+02 0.  0.
         12    1    1    2    0    0 -0.24022586714E+02 -0.22809374799E+01 -0.36074035088E+02  0.43400729899E+02  0.00000000000E+00 0. -1.
         11    1    3    3    0    0 -0.27462869869E+00 -0.46544824935E+00 -0.96397657361E+00  0.11051308025E+01  0.51100000000E-03 0. -1.
        -11    1    3    3    0    0  0.11835842593E+02 -0.26167066244E+01  0.77033303302E+01  0.14362298628E+02  0.51100000000E-03 0.  1.
        -12    1    3    3    0    0  0.12461372820E+02  0.53630923537E+01  0.29334681332E+02  0.32319840671E+02  0.00000000000E+00 0.  1.
</event>
<event>
 7    1  0.2237500E-009  0.4778727E+02  0.7816164E-02  0.1312668E+00
        -11   -1    0    0    0    0  0.00000000000E+00  0.00000000000E+00  0.45593999997E+02  0.45594000000E+02  0.51100000000E-03 0.  1.
         11   -1    0    0    0    0 -0.00000000000E+00 -0.00000000000E+00 -0.45593999997E+02  0.45594000000E+02  0.51100000000E-03 0. -1.
    9900012    2    1    2    0    0 -0.25121291891E+02  0.60194862590E+01  0.34875634913E+02  0.47787269226E+02  0.19999991711E+02 0.  0.
         12    1    1    2    0    0  0.25121291891E+02 -0.60194862590E+01 -0.34875634913E+02  0.43400730774E+02  0.00000000000E+00 0. -1.
         11    1    3    3    0    0  0.25881458569E+01  0.18285430545E+01  0.52826184361E+00  0.32126514774E+01  0.51100000000E-03 0. -1.
        -11    1    3    3    0    0 -0.73668977042E+01  0.31616456292E+01  0.10559284168E+02  0.13257664473E+02  0.51100000000E-03 0.  1.
         12    1    3    3    0    0 -0.20342540043E+02  0.10292975754E+01  0.23788088902E+02  0.31316953276E+02  0.00000000000E+00 0. -1.
</event>
<event>
 7    1  0.2237500E-009  0.4778727E+02  0.7816164E-02  0.1312668E+00
        -11   -1    0    0    0    0  0.00000000000E+00  0.00000000000E+00  0.45593999997E+02  0.45594000000E+02  0.51100000000E-03 0.  1.
         11   -1    0    0    0    0 -0.00000000000E+00 -0.00000000000E+00 -0.45593999997E+02  0.45594000000E+02  0.51100000000E-03 0. -1.
    9900012    2    1    2    0    0  0.41834322940E+02  0.34776500828E+01  0.11019018431E+02  0.47787269671E+02  0.19999993738E+02 0.  0.
         12    1    1    2    0    0 -0.41834322940E+02 -0.34776500828E+01 -0.11019018431E+02  0.43400730329E+02  0.00000000000E+00 0. -1.
         11    1    3    3    0    0  0.29060568654E+02  0.10203503743E+02  0.11870575024E+02  0.33008160972E+02  0.51100000000E-03 0. -1.
        -11    1    3    3    0    0  0.63533669056E+01 -0.20539120668E+01  0.61181850393E+00  0.67050837398E+01  0.51100000000E-03 0.  1.
        -12    1    3    3    0    0  0.64203873798E+01 -0.46719415935E+01 -0.14633750969E+01  0.80740249587E+01  0.00000000000E+00 0.  1.
</event>
<event>
 7    1  0.2237500E-009  0.4778727E+02  0.7816164E-02  0.1312668E+00
        -11   -1    0    0    0    0  0.00000000000E+00  0.00000000000E+00  0.45593999997E+02  0.45594000000E+02  0.51100000000E-03 0. -1.
         11   -1    0    0    0    0 -0.00000000000E+00 -0.00000000000E+00 -0.45593999997E+02  0.45594000000E+02  0.51100000000E-03 0.  1.
    9900012    2    1    2    0    0  0.20061379901E+02 -0.28888832718E+02  0.25428322937E+02  0.47787271588E+02  0.20000002477E+02 0.  0.
         12    1    1    2    0    0 -0.20061379901E+02  0.28888832718E+02 -0.25428322937E+02  0.43400728412E+02  0.00000000000E+00 0. -1.
         11    1    3    3    0    0  0.10253350006E+01 -0.50639488713E+01  0.93289894573E+01  0.10664189355E+02  0.51100000000E-03 0. -1.
        -11    1    3    3    0    0 -0.10183686120E+01 -0.11811924690E+00 -0.11997123686E+01  0.15780801041E+01  0.51100000000E-03 0.  1.
        -12    1    3    3    0    0  0.20054413512E+02 -0.23706764600E+02  0.17299045848E+02  0.35545002129E+02  0.00000000000E+00 0.  1.
</event>
<event>
 7    1  0.2237500E-009  0.4778727E+02  0.7816164E-02  0.1312668E+00
        -11   -1    0    0    0    0  0.00000000000E+00  0.00000000000E+00  0.45593999997E+02  0.45594000000E+02  0.51100000000E-03 0.  1.
         11   -1    0    0    0    0 -0.00000000000E+00 -0.00000000000E+00 -0.45593999997E+02  0.45594000000E+02  0.51100000000E-03 0. -1.
    9900012    2    1    2    0    0  0.25317698275E+02 -0.31988540118E+02  0.14811167962E+02  0.47787271421E+02  0.20000001715E+02 0.  0.
         12    1    1    2    0    0 -0.25317698275E+02  0.31988540118E+02 -0.14811167962E+02  0.43400728579E+02  0.00000000000E+00 0. -1.
         11    1    3    3    0    0  0.12230111696E+02 -0.13727990966E+02  0.16126880385E+02  0.24456280160E+02  0.51100000000E-03 0. -1.
        -11    1    3    3    0    0 -0.27489748845E+00 -0.14921231652E+01 -0.11247783422E+01  0.18886838670E+01  0.51100000000E-03 0.  1.
        -12    1    3    3    0    0  0.13362484067E+02 -0.16768425987E+02 -0.19093408062E+00  0.21442307394E+02  0.00000000000E+00 0.  1.
</event>
<event>
 7    1  0.2237500E-009  0.4778726E+02  0.7816164E-02  0.1312668E+00
        -11   -1    0    0    0    0  0.00000000000E+00  0.00000000000E+00  0.45593999997E+02  0.45594000000E+02  0.51100000000E-03 0.  1.
         11   -1    0    0    0    0 -0.00000000000E+00 -0.00000000000E+00 -0.45593999997E+02  0.45594000000E+02  0.51100000000E-03 0. -1.
    9900012    2    1    2    0    0  0.34032501041E+02 -0.23589454556E+02  0.12998089733E+02  0.47787264637E+02  0.19999970785E+02 0.  0.
         12    1    1    2    0    0 -0.34032501041E+02  0.23589454556E+02 -0.12998089733E+02  0.43400735363E+02  0.00000000000E+00 0. -1.
         11    1    3    3    0    0  0.12421869026E+02  0.12014499022E+01  0.68511279561E+01  0.14236722463E+02  0.51100000000E-03 0. -1.
        -11    1    3    3    0    0  0.95393826009E+01 -0.10413315690E+02  0.14337646697E+01  0.14194810511E+02  0.51100000000E-03 0.  1.
         12    1    3    3    0    0  0.12071249414E+02 -0.14377588768E+02  0.47131971075E+01  0.19355731662E+02  0.00000000000E+00 0. -1.
</event>
<event>
 7    1  0.2237500E-009  0.4778727E+02  0.7816164E-02  0.1312668E+00
        -11   -1    0    0    0    0  0.00000000000E+00  0.00000000000E+00  0.45593999997E+02  0.45594000000E+02  0.51100000000E-03 0. -1.
         11   -1    0    0    0    0 -0.00000000000E+00 -0.00000000000E+00 -0.45593999997E+02  0.45594000000E+02  0.51100000000E-03 0.  1.
    9900012    2    1    2    0    0 -0.15126920704E+02 -0.32219362214E+02 -0.24833690496E+02  0.47787271721E+02  0.20000003086E+02 0.  0.
         12    1    1    2    0    0  0.15126920704E+02  0.32219362214E+02  0.24833690496E+02  0.43400728279E+02  0.00000000000E+00 0. -1.
         11    1    3    3    0    0 -0.33361310826E+01 -0.98666258584E+01 -0.55450642357E+01  0.11799483636E+02  0.51100000000E-03 0. -1.
        -11    1    3    3    0    0 -0.91080309434E+01 -0.22253245945E+02 -0.95268084261E+01  0.25863550835E+02  0.51100000000E-03 0.  1.
         12    1    3    3    0    0 -0.26827586784E+01 -0.99490410140E-01 -0.97618178343E+01  0.10124237250E+02  0.00000000000E+00 0. -1.
</event>
<event>
 7    1  0.2237500E-009  0.4778726E+02  0.7816164E-02  0.1312668E+00
        -11   -1    0    0    0    0  0.00000000000E+00  0.00000000000E+00  0.45593999997E+02  0.45594000000E+02  0.51100000000E-03 0.  1.
         11   -1    0    0    0    0 -0.00000000000E+00 -0.00000000000E+00 -0.45593999997E+02  0.45594000000E+02  0.51100000000E-03 0. -1.
    9900012    2    1    2    0    0  0.36768166839E+02  0.30311770606E+01  0.22859093092E+02  0.47787259637E+02  0.19999947990E+02 0.  0.
         12    1    1    2    0    0 -0.36768166839E+02 -0.30311770606E+01 -0.22859093092E+02  0.43400740363E+02  0.00000000000E+00 0. -1.
         11    1    3    3    0    0  0.13249100650E+02 -0.20156428570E+01  0.43247429632E+01  0.14082076769E+02  0.51100000000E-03 0. -1.
        -11    1    3    3    0    0  0.20519661153E+02  0.60690604407E+00  0.82804134144E+01  0.22135719445E+02  0.51100000000E-03 0.  1.
        -12    1    3    3    0    0  0.29994050360E+01  0.44399138735E+01  0.10253936714E+02  0.11569463424E+02  0.00000000000E+00 0.  1.
</event>
<event>
 7    1  0.2237500E-009  0.4778727E+02  0.7816164E-02  0.1312668E+00
        -11   -1    0    0    0    0  0.00000000000E+00  0.00000000000E+00  0.45593999997E+02  0.45594000000E+02  0.51100000000E-03 0. -1.
         11   -1    0    0    0    0 -0.00000000000E+00 -0.00000000000E+00 -0.45593999997E+02  0.45594000000E+02  0.51100000000E-03 0.  1.
    9900012    2    1    2    0    0 -0.29764128895E+02 -0.22888033561E+02  0.21768268751E+02  0.47787274504E+02  0.20000015772E+02 0.  0.
         12    1    1    2    0    0  0.29764128895E+02  0.22888033561E+02 -0.21768268751E+02  0.43400725496E+02  0.00000000000E+00 0. -1.
         11    1    3    3    0    0 -0.13365542464E+01 -0.88915514219E+01  0.35244232732E+01  0.96575164308E+01  0.51100000000E-03 0.  1.
        -11    1    3    3    0    0 -0.16178659545E+01  0.14745525378E+01  0.27507759273E+01  0.35154749177E+01  0.51100000000E-03 0. -1.
        -12    1    3    3    0    0 -0.26809708694E+02 -0.15471034677E+02  0.15493069550E+02  0.34614283155E+02  0.00000000000E+00 0.  1.
</event>
<event>
 7    1  0.2237500E-009  0.4778727E+02  0.7816164E-02  0.1312668E+00
        -11   -1    0    0    0    0  0.00000000000E+00  0.00000000000E+00  0.45593999997E+02  0.45594000000E+02  0.51100000000E-03 0. -1.
         11   -1    0    0    0    0 -0.00000000000E+00 -0.00000000000E+00 -0.45593999997E+02  0.45594000000E+02  0.51100000000E-03 0.  1.
    9900012    2    1    2    0    0  0.15862364678E+02  0.22078609579E+02  0.33831102448E+02  0.47787272968E+02  0.20000008769E+02 0.  0.
         12    1    1    2    0    0 -0.15862364678E+02 -0.22078609579E+02 -0.33831102448E+02  0.43400727032E+02  0.00000000000E+00 0. -1.
         11    1    3    3    0    0  0.71374174596E+01  0.66501843704E+01  0.11976914191E+02  0.15447140640E+02  0.51100000000E-03 0. -1.
        -11    1    3    3    0    0  0.11870380220E+02  0.65760150274E+01  0.85001515455E+01  0.16012572459E+02  0.51100000000E-03 0.  1.
         12    1    3    3    0    0 -0.31454330012E+01  0.88524101807E+01  0.13354036711E+02  0.16327559868E+02  0.00000000000E+00 0. -1.
</event>
<event>
 7    1  0.2237500E-009  0.4778727E+02  0.7816164E-02  0.1312668E+00
        -11   -1    0    0    0    0  0.00000000000E+00  0.00000000000E+00  0.45593999997E+02  0.45594000000E+02  0.51100000000E-03 0.  1.
         11   -1    0    0    0    0 -0.00000000000E+00 -0.00000000000E+00 -0.45593999997E+02  0.45594000000E+02  0.51100000000E-03 0. -1.
    9900012    2    1    2    0    0  0.30285083335E+02 -0.77060543726E+01  0.30117329778E+02  0.47787273053E+02  0.20000009156E+02 0.  0.
         12    1    1    2    0    0 -0.30285083335E+02  0.77060543726E+01 -0.30117329778E+02  0.43400726947E+02  0.00000000000E+00 0. -1.
         11    1    3    3    0    0  0.51821583130E+01  0.33882675121E+01  0.42600669451E+01  0.75155367176E+01  0.51100000000E-03 0. -1.
        -11    1    3    3    0    0  0.14444910282E+02 -0.53304009506E+00  0.66839645478E+01  0.15925292686E+02  0.51100000000E-03 0.  1.
        -12    1    3    3    0    0  0.10658014740E+02 -0.10561281790E+02  0.19173298285E+02  0.24346443649E+02  0.00000000000E+00 0.  1.
</event>
<event>
 7    1  0.2237500E-009  0.4778727E+02  0.7816164E-02  0.1312668E+00
        -11   -1    0    0    0    0  0.00000000000E+00  0.00000000000E+00  0.45593999997E+02  0.45594000000E+02  0.51100000000E-03 0.  1.
         11   -1    0    0    0    0 -0.00000000000E+00 -0.00000000000E+00 -0.45593999997E+02  0.45594000000E+02  0.51100000000E-03 0. -1.
    9900012    2    1    2    0    0 -0.15716238432E+02 -0.79808055074E+01  0.39660176253E+02  0.47787274345E+02  0.20000015047E+02 0.  0.
         12    1    1    2    0    0  0.15716238432E+02  0.79808055074E+01 -0.39660176253E+02  0.43400725655E+02  0.00000000000E+00 0. -1.
         11    1    3    3    0    0 -0.79687244152E+01  0.33638748841E+01  0.14164706660E+02  0.16596841207E+02  0.51100000000E-03 0. -1.
        -11    1    3    3    0    0 -0.80077294455E+01 -0.68613594151E+01  0.24380340554E+02  0.26563188621E+02  0.51100000000E-03 0.  1.
         12    1    3    3    0    0  0.26021542874E+00 -0.44833209763E+01  0.11151290391E+01  0.46272445170E+01  0.00000000000E+00 0. -1.
</event>
<event>
 7    1  0.2237500E-009  0.4778727E+02  0.7816164E-02  0.1312668E+00
        -11   -1    0    0    0    0  0.00000000000E+00  0.00000000000E+00  0.45593999997E+02  0.45594000000E+02  0.51100000000E-03 0.  1.
         11   -1    0    0    0    0 -0.00000000000E+00 -0.00000000000E+00 -0.45593999997E+02  0.45594000000E+02  0.51100000000E-03 0. -1.
    9900012    2    1    2    0    0  0.71030160490E+01  0.42772117308E+02  0.19278423455E+01  0.47787269222E+02  0.19999991689E+02 0.  0.
         12    1    1    2    0    0 -0.71030160490E+01 -0.42772117308E+02 -0.19278423455E+01  0.43400730778E+02  0.00000000000E+00 0. -1.
         11    1    3    3    0    0  0.85906754444E+00 -0.31515013412E+00 -0.43146531354E+00  0.10116715034E+01  0.51100000000E-03 0. -1.
        -11    1    3    3    0    0  0.96341789247E+01  0.39264409434E+02 -0.13660061089E+01  0.40452159704E+02  0.51100000000E-03 0.  1.
        -12    1    3    3    0    0 -0.33902304202E+01  0.38228580076E+01  0.37253137679E+01  0.63234380140E+01  0.00000000000E+00 0.  1.
</event>
<event>
 7    1  0.2237500E-009  0.4778727E+02  0.7816164E-02  0.1312668E+00
        -11   -1    0    0    0    0  0.00000000000E+00  0.00000000000E+00  0.45593999997E+02  0.45594000000E+02  0.51100000000E-03 0.  1.
         11   -1    0    0    0    0 -0.00000000000E+00 -0.00000000000E+00 -0.45593999997E+02  0.45594000000E+02  0.51100000000E-03 0. -1.
    9900012    2    1    2    0    0  0.21333864475E+02 -0.16036725359E+02  0.34224450739E+02  0.47787270028E+02  0.19999995366E+02 0.  0.
         12    1    1    2    0    0 -0.21333864475E+02  0.16036725359E+02 -0.34224450739E+02  0.43400729972E+02  0.00000000000E+00 0. -1.
         11    1    3    3    0    0  0.98041096862E+01 -0.84077537477E+01  0.10621713151E+02  0.16722191254E+02  0.51100000000E-03 0. -1.
        -11    1    3    3    0    0  0.10401911885E+02 -0.85344544732E+01  0.25408703246E+02  0.28751328403E+02  0.51100000000E-03 0.  1.
         12    1    3    3    0    0  0.11278429035E+01  0.90548286149E+00 -0.18059656571E+01  0.23137503716E+01  0.00000000000E+00 0. -1.
</event>
<event>
 7    1  0.2237500E-009  0.4778727E+02  0.7816164E-02  0.1312668E+00
        -11   -1    0    0    0    0  0.00000000000E+00  0.00000000000E+00  0.45593999997E+02  0.45594000000E+02  0.51100000000E-03 0. -1.
         11   -1    0    0    0    0 -0.00000000000E+00 -0.00000000000E+00 -0.45593999997E+02  0.45594000000E+02  0.51100000000E-03 0.  1.
    9900012    2    1    2    0    0  0.63276436800E+01 -0.24263367573E+02 -0.35424193817E+02  0.47787267424E+02  0.19999983493E+02 0.  0.
         12    1    1    2    0    0 -0.63276436800E+01  0.24263367573E+02  0.35424193817E+02  0.43400732576E+02  0.00000000000E+00 0. -1.
         11    1    3    3    0    0  0.23573334627E+01 -0.46675393090E+00  0.42997927819E+00  0.24412625273E+01  0.51100000000E-03 0. -1.
        -11    1    3    3    0    0 -0.16685381923E+01  0.93622324176E+00 -0.52937857952E+01  0.56289165888E+01  0.51100000000E-03 0.  1.
         12    1    3    3    0    0  0.56388484096E+01 -0.24732836884E+02 -0.30560387300E+02  0.39717088308E+02  0.00000000000E+00 0. -1.
</event>
<event>
 7    1  0.2237500E-009  0.4778727E+02  0.7816164E-02  0.1312668E+00
        -11   -1    0    0    0    0  0.00000000000E+00  0.00000000000E+00  0.45593999997E+02  0.45594000000E+02  0.51100000000E-03 0.  1.
         11   -1    0    0    0    0 -0.00000000000E+00 -0.00000000000E+00 -0.45593999997E+02  0.45594000000E+02  0.51100000000E-03 0. -1.
    9900012    2    1    2    0    0  0.15991833447E+02  0.65130955939E+01  0.39817886246E+02  0.47787271708E+02  0.20000003024E+02 0.  0.
         12    1    1    2    0    0 -0.15991833447E+02 -0.65130955939E+01 -0.39817886246E+02  0.43400728292E+02  0.00000000000E+00 0. -1.
         11    1    3    3    0    0  0.85459577259E+00 -0.17689039665E+01 -0.98712243564E+00  0.21985827574E+01  0.51100000000E-03 0.  1.
        -11    1    3    3    0    0  0.26816921809E+01  0.20240063847E+01  0.11436162244E+01  0.35490749680E+01  0.51100000000E-03 0. -1.
        -12    1    3    3    0    0  0.12455545494E+02  0.62579931757E+01  0.39661392457E+02  0.42039613982E+02  0.00000000000E+00 0.  1.
</event>
<event>
 7    1  0.2237500E-009  0.4778727E+02  0.7816164E-02  0.1312668E+00
        -11   -1    0    0    0    0  0.00000000000E+00  0.00000000000E+00  0.45593999997E+02  0.45594000000E+02  0.51100000000E-03 0. -1.
         11   -1    0    0    0    0 -0.00000000000E+00 -0.00000000000E+00 -0.45593999997E+02  0.45594000000E+02  0.51100000000E-03 0.  1.
    9900012    2    1    2    0    0  0.35544677323E+02 -0.75338001477E+01 -0.23736913301E+02  0.47787270931E+02  0.19999999484E+02 0.  0.
         12    1    1    2    0    0 -0.35544677323E+02  0.75338001477E+01  0.23736913301E+02  0.43400729069E+02  0.00000000000E+00 0. -1.
         11    1    3    3    0    0  0.14053467598E+01  0.12004859047E+01  0.13671717259E+01  0.22989834084E+01  0.51100000000E-03 0. -1.
        -11    1    3    3    0    0  0.12047668443E+02  0.31877187813E+01 -0.11390301270E+02  0.16883329921E+02  0.51100000000E-03 0.  1.
         12    1    3    3    0    0  0.22091662120E+02 -0.11922004834E+02 -0.13713783757E+02  0.28604957602E+02  0.00000000000E+00 0. -1.
</event>
<event>
 7    1  0.2237500E-009  0.4778727E+02  0.7816164E-02  0.1312668E+00
        -11   -1    0    0    0    0  0.00000000000E+00  0.00000000000E+00  0.45593999997E+02  0.45594000000E+02  0.51100000000E-03 0.  1.
         11   -1    0    0    0    0 -0.00000000000E+00 -0.00000000000E+00 -0.45593999997E+02  0.45594000000E+02  0.51100000000E-03 0. -1.
    9900012    2    1    2    0    0 -0.17772500340E+02 -0.70145890075E+01  0.38968668900E+02  0.47787269786E+02  0.19999994262E+02 0.  0.
         12    1    1    2    0    0  0.17772500340E+02  0.70145890075E+01 -0.38968668900E+02  0.43400730214E+02  0.00000000000E+00 0. -1.
         11    1    3    3    0    0 -0.33962148651E+01  0.85993747469E+00  0.39905184143E+01  0.53101794081E+01  0.51100000000E-03 0. -1.
        -11    1    3    3    0    0 -0.10744569457E-02 -0.26450268789E+01  0.22723204191E+02  0.22876629500E+02  0.51100000000E-03 0.  1.
         12    1    3    3    0    0 -0.14375211018E+02 -0.52294996032E+01  0.12254946295E+02  0.19600460877E+02  0.00000000000E+00 0. -1.
</event>
<event>
 7    1  0.2237500E-009  0.4778727E+02  0.7816164E-02  0.1312668E+00
        -11   -1    0    0    0    0  0.00000000000E+00  0.00000000000E+00  0.45593999997E+02  0.45594000000E+02  0.51100000000E-03 0.  1.
         11   -1    0    0    0    0 -0.00000000000E+00 -0.00000000000E+00 -0.45593999997E+02  0.45594000000E+02  0.51100000000E-03 0. -1.
    9900012    2    1    2    0    0 -0.17923156613E+02  0.31714428244E+02  0.23591920817E+02  0.47787271554E+02  0.20000002323E+02 0.  0.
         12    1    1    2    0    0  0.17923156613E+02 -0.31714428244E+02 -0.23591920817E+02  0.43400728446E+02  0.00000000000E+00 0. -1.
         11    1    3    3    0    0 -0.97447496705E+01  0.21431369456E+02  0.20446140164E+02  0.31181859963E+02  0.51100000000E-03 0. -1.
        -11    1    3    3    0    0 -0.93076586051E+01  0.10303597714E+02  0.47222059039E+01  0.14666146849E+02  0.51100000000E-03 0.  1.
         12    1    3    3    0    0  0.11292516630E+01 -0.20538924751E-01 -0.15764252510E+01  0.19392647416E+01  0.00000000000E+00 0. -1.
</event>
<event>
 7    1  0.2237500E-009  0.4778727E+02  0.7816164E-02  0.1312668E+00
        -11   -1    0    0    0    0  0.00000000000E+00  0.00000000000E+00  0.45593999997E+02  0.45594000000E+02  0.51100000000E-03 0.  1.
         11   -1    0    0    0    0 -0.00000000000E+00 -0.00000000000E+00 -0.45593999997E+02  0.45594000000E+02  0.51100000000E-03 0. -1.
    9900012    2    1    2    0    0 -0.73166411781E+01  0.34943659774E+02  0.24678549880E+02  0.47787269353E+02  0.19999992287E+02 0.  0.
         12    1    1    2    0    0  0.73166411781E+01 -0.34943659774E+02 -0.24678549880E+02  0.43400730647E+02  0.00000000000E+00 0. -1.
         11    1    3    3    0    0 -0.12836824926E+01 -0.58513023332E+00 -0.96961005784E+00  0.17118300316E+01  0.51100000000E-03 0. -1.
        -11    1    3    3    0    0 -0.26846224615E+01  0.90175291688E+01  0.14132322764E+02  0.16977796590E+02  0.51100000000E-03 0.  1.
        -12    1    3    3    0    0 -0.33483362240E+01  0.26511260839E+02  0.11515837174E+02  0.29097642732E+02  0.00000000000E+00 0.  1.
</event>
<event>
 7    1  0.2237500E-009  0.4778727E+02  0.7816164E-02  0.1312668E+00
        -11   -1    0    0    0    0  0.00000000000E+00  0.00000000000E+00  0.45593999997E+02  0.45594000000E+02  0.51100000000E-03 0.  1.
         11   -1    0    0    0    0 -0.00000000000E+00 -0.00000000000E+00 -0.45593999997E+02  0.45594000000E+02  0.51100000000E-03 0. -1.
    9900012    2    1    2    0    0 -0.49762538652E+01  0.26647308994E+02  0.33893672391E+02  0.47787271812E+02  0.20000003497E+02 0.  0.
         12    1    1    2    0    0  0.49762538652E+01 -0.26647308994E+02 -0.33893672391E+02  0.43400728188E+02  0.00000000000E+00 0. -1.
         11    1    3    3    0    0 -0.51425169808E+01  0.20375715657E+02  0.22811297108E+02  0.31015650008E+02  0.51100000000E-03 0. -1.
        -11    1    3    3    0    0 -0.52611936590E+01  0.28541714502E+01  0.39080975440E+01  0.71484040218E+01  0.51100000000E-03 0.  1.
         12    1    3    3    0    0  0.54274567746E+01  0.34174218869E+01  0.71742777389E+01  0.96232177814E+01  0.00000000000E+00 0. -1.
</event>
<event>
 7    1  0.2237500E-009  0.4778728E+02  0.7816164E-02  0.1312668E+00
        -11   -1    0    0    0    0  0.00000000000E+00  0.00000000000E+00  0.45593999997E+02  0.45594000000E+02  0.51100000000E-03 0.  1.
         11   -1    0    0    0    0 -0.00000000000E+00 -0.00000000000E+00 -0.45593999997E+02  0.45594000000E+02  0.51100000000E-03 0. -1.
    9900012    2    1    2    0    0  0.40955641581E+02  0.11537990467E+02  0.85517798978E+01  0.47787277186E+02  0.20000028001E+02 0.  0.
         12    1    1    2    0    0 -0.40955641581E+02 -0.11537990467E+02 -0.85517798978E+01  0.43400722814E+02  0.00000000000E+00 0. -1.
         11    1    3    3    0    0  0.20661123247E+02  0.61810578873E+01  0.10833869222E+02  0.24134212501E+02  0.51100000000E-03 0. -1.
        -11    1    3    3    0    0  0.53297176485E+01  0.46741551125E+01  0.30973523391E+01  0.77360977245E+01  0.51100000000E-03 0.  1.
         12    1    3    3    0    0  0.14964800685E+02  0.68277746749E+00 -0.53794416631E+01  0.15916966961E+02  0.00000000000E+00 0. -1.
</event>
<event>
 7    1  0.2237500E-009  0.4778727E+02  0.7816164E-02  0.1312668E+00
        -11   -1    0    0    0    0  0.00000000000E+00  0.00000000000E+00  0.45593999997E+02  0.45594000000E+02  0.51100000000E-03 0.  1.
         11   -1    0    0    0    0 -0.00000000000E+00 -0.00000000000E+00 -0.45593999997E+02  0.45594000000E+02  0.51100000000E-03 0. -1.
    9900012    2    1    2    0    0  0.25786488334E+00  0.41375008916E+02 -0.13102123306E+02  0.47787268529E+02  0.19999988529E+02 0.  0.
         12    1    1    2    0    0 -0.25786488334E+00 -0.41375008916E+02  0.13102123306E+02  0.43400731471E+02  0.00000000000E+00 0. -1.
         11    1    3    3    0    0 -0.77593648683E+01  0.20209916910E+02 -0.10798361807E+02  0.24192004933E+02  0.51100000000E-03 0. -1.
        -11    1    3    3    0    0  0.20212548598E+01  0.38932930287E+01 -0.29743666563E+01  0.53000055739E+01  0.51100000000E-03 0.  1.
        -12    1    3    3    0    0  0.59959748918E+01  0.17271798977E+02  0.67060515712E+00  0.18295258022E+02  0.00000000000E+00 0.  1.
</event>
<event>
 7    1  0.2237500E-009  0.4778727E+02  0.7816164E-02  0.1312668E+00
        -11   -1    0    0    0    0  0.00000000000E+00  0.00000000000E+00  0.45593999997E+02  0.45594000000E+02  0.51100000000E-03 0. -1.
         11   -1    0    0    0    0 -0.00000000000E+00 -0.00000000000E+00 -0.45593999997E+02  0.45594000000E+02  0.51100000000E-03 0.  1.
    9900012    2    1    2    0    0  0.29294142687E+02 -0.12236898419E+02 -0.29592818970E+02  0.47787269438E+02  0.19999992677E+02 0.  0.
         12    1    1    2    0    0 -0.29294142687E+02  0.12236898419E+02  0.29592818970E+02  0.43400730562E+02  0.00000000000E+00 0. -1.
         11    1    3    3    0    0  0.32333383749E+00 -0.62491623387E+01 -0.47825832267E+01  0.78758921582E+01  0.51100000000E-03 0. -1.
        -11    1    3    3    0    0  0.47306364604E+01 -0.42258525829E+01 -0.86438749224E+01  0.10721628855E+02  0.51100000000E-03 0.  1.
         12    1    3    3    0    0  0.24240172389E+02 -0.17618834974E+01 -0.16166360821E+02  0.29189748425E+02  0.00000000000E+00 0. -1.
</event>
<event>
 7    1  0.2237500E-009  0.4778728E+02  0.7816164E-02  0.1312668E+00
        -11   -1    0    0    0    0  0.00000000000E+00  0.00000000000E+00  0.45593999997E+02  0.45594000000E+02  0.51100000000E-03 0.  1.
         11   -1    0    0    0    0 -0.00000000000E+00 -0.00000000000E+00 -0.45593999997E+02  0.45594000000E+02  0.51100000000E-03 0. -1.
    9900012    2    1    2    0    0  0.12160112300E+02 -0.33639075268E+02  0.24579803740E+02  0.47787280330E+02  0.20000042335E+02 0.  0.
         12    1    1    2    0    0 -0.12160112300E+02  0.33639075268E+02 -0.24579803740E+02  0.43400719670E+02  0.00000000000E+00 0. -1.
         11    1    3    3    0    0 -0.18037390520E+01 -0.38695099191E+01  0.90047313177E+01  0.99655289847E+01  0.51100000000E-03 0. -1.
        -11    1    3    3    0    0  0.17581618919E+01 -0.87357001524E+01  0.89210853606E+01  0.12609098091E+02  0.51100000000E-03 0.  1.
         12    1    3    3    0    0  0.12205689460E+02 -0.21033865196E+02  0.66539870617E+01  0.25212653254E+02  0.00000000000E+00 0. -1.
</event>
<event>
 7    1  0.2237500E-009  0.4778731E+02  0.7816164E-02  0.1312668E+00
        -11   -1    0    0    0    0  0.00000000000E+00  0.00000000000E+00  0.45593999997E+02  0.45594000000E+02  0.51100000000E-03 0.  1.
         11   -1    0    0    0    0 -0.00000000000E+00 -0.00000000000E+00 -0.45593999997E+02  0.45594000000E+02  0.51100000000E-03 0. -1.
    9900012    2    1    2    0    0 -0.24227855205E+02 -0.29718018992E+02  0.20333973179E+02  0.47787307772E+02  0.20000167454E+02 0.  0.
         12    1    1    2    0    0  0.24227855205E+02  0.29718018992E+02 -0.20333973179E+02  0.43400692228E+02  0.00000000000E+00 0. -1.
         11    1    3    3    0    0  0.39495717276E+00 -0.83608622819E+01  0.14230497049E+01  0.84902932805E+01  0.51100000000E-03 0. -1.
        -11    1    3    3    0    0 -0.50867588354E+01 -0.99945241008E+01  0.99259293237E+01  0.14976304639E+02  0.51100000000E-03 0.  1.
         12    1    3    3    0    0 -0.19536053542E+02 -0.11362632609E+02  0.89849941503E+01  0.24320709852E+02  0.00000000000E+00 0. -1.
</event>
<event>
 7    1  0.2237500E-009  0.4778727E+02  0.7816164E-02  0.1312668E+00
        -11   -1    0    0    0    0  0.00000000000E+00  0.00000000000E+00  0.45593999997E+02  0.45594000000E+02  0.51100000000E-03 0.  1.
         11   -1    0    0    0    0 -0.00000000000E+00 -0.00000000000E+00 -0.45593999997E+02  0.45594000000E+02  0.51100000000E-03 0. -1.
    9900012    2    1    2    0    0 -0.28090569865E+01  0.21503509448E+02  0.37594299607E+02  0.47787273247E+02  0.20000010042E+02 0.  0.
         12    1    1    2    0    0  0.28090569865E+01 -0.21503509448E+02 -0.37594299607E+02  0.43400726753E+02  0.00000000000E+00 0. -1.
         11    1    3    3    0    0 -0.30725750013E+01  0.36882624803E+01  0.48233733416E+01  0.68050663418E+01  0.51100000000E-03 0. -1.
        -11    1    3    3    0    0  0.60827654901E+01  0.13701896122E+02  0.12579141128E+02  0.19569792669E+02  0.51100000000E-03 0.  1.
        -12    1    3    3    0    0 -0.58192474752E+01  0.41133508461E+01  0.20191785138E+02  0.21412414236E+02  0.00000000000E+00 0.  1.
</event>
<event>
 7    1  0.2237500E-009  0.4778727E+02  0.7816164E-02  0.1312668E+00
        -11   -1    0    0    0    0  0.00000000000E+00  0.00000000000E+00  0.45593999997E+02  0.45594000000E+02  0.51100000000E-03 0. -1.
         11   -1    0    0    0    0 -0.00000000000E+00 -0.00000000000E+00 -0.45593999997E+02  0.45594000000E+02  0.51100000000E-03 0.  1.
    9900012    2    1    2    0    0  0.19854714216E+02  0.35743376868E+02 -0.14554199664E+02  0.47787269656E+02  0.19999993669E+02 0.  0.
         12    1    1    2    0    0 -0.19854714216E+02 -0.35743376868E+02  0.14554199664E+02  0.43400730344E+02  0.00000000000E+00 0. -1.
         11    1    3    3    0    0  0.70230539680E+01  0.83273764578E+01 -0.74640250029E+01  0.13205307842E+02  0.51100000000E-03 0. -1.
        -11    1    3    3    0    0  0.93196433143E+01  0.69491435074E+01  0.22016976406E+01  0.11831898400E+02  0.51100000000E-03 0.  1.
        -12    1    3    3    0    0  0.35120169337E+01  0.20466856903E+02 -0.92918723014E+01  0.22750063413E+02  0.00000000000E+00 0.  1.
</event>
<event>
 7    1  0.2237500E-009  0.4778726E+02  0.7816164E-02  0.1312668E+00
        -11   -1    0    0    0    0  0.00000000000E+00  0.00000000000E+00  0.45593999997E+02  0.45594000000E+02  0.51100000000E-03 0. -1.
         11   -1    0    0    0    0 -0.00000000000E+00 -0.00000000000E+00 -0.45593999997E+02  0.45594000000E+02  0.51100000000E-03 0.  1.
    9900012    2    1    2    0    0  0.37707445266E+02  0.21136699540E+02  0.38745762142E+01  0.47787264560E+02  0.19999970434E+02 0.  0.
         12    1    1    2    0    0 -0.37707445266E+02 -0.21136699540E+02 -0.38745762142E+01  0.43400735440E+02  0.00000000000E+00 0. -1.
         11    1    3    3    0    0  0.54519196141E+01  0.68700980146E+01 -0.17220600817E+01  0.89379620381E+01  0.51100000000E-03 0. -1.
        -11    1    3    3    0    0  0.18705662189E+02  0.73524704143E+01 -0.44937257064E+01  0.20595004009E+02  0.51100000000E-03 0.  1.
        -12    1    3    3    0    0  0.13549863463E+02  0.69141311108E+01  0.10090362002E+02  0.18254298513E+02  0.00000000000E+00 0.  1.
</event>
<event>
 7    1  0.2237500E-009  0.4778727E+02  0.7816164E-02  0.1312668E+00
        -11   -1    0    0    0    0  0.00000000000E+00  0.00000000000E+00  0.45593999997E+02  0.45594000000E+02  0.51100000000E-03 0. -1.
         11   -1    0    0    0    0 -0.00000000000E+00 -0.00000000000E+00 -0.45593999997E+02  0.45594000000E+02  0.51100000000E-03 0.  1.
    9900012    2    1    2    0    0 -0.74406807293E+00 -0.34843634837E+02 -0.25864864635E+02  0.47787265576E+02  0.19999975069E+02 0.  0.
         12    1    1    2    0    0  0.74406807293E+00  0.34843634837E+02  0.25864864635E+02  0.43400734424E+02  0.00000000000E+00 0. -1.
         11    1    3    3    0    0  0.22016509108E+01 -0.30901627608E+02 -0.12353971726E+02  0.33352338347E+02  0.51100000000E-03 0. -1.
        -11    1    3    3    0    0 -0.24802633928E+01 -0.23310877906E+01 -0.91877008955E+01  0.97979347207E+01  0.51100000000E-03 0.  1.
         12    1    3    3    0    0 -0.46545559094E+00 -0.16109194384E+01 -0.43231920131E+01  0.46369925088E+01  0.00000000000E+00 0. -1.
</event>
<event>
 7    1  0.2237500E-009  0.4778729E+02  0.7816164E-02  0.1312668E+00
        -11   -1    0    0    0    0  0.00000000000E+00  0.00000000000E+00  0.45593999997E+02  0.45594000000E+02  0.51100000000E-03 0.  1.
         11   -1    0    0    0    0 -0.00000000000E+00 -0.00000000000E+00 -0.45593999997E+02  0.45594000000E+02  0.51100000000E-03 0. -1.
    9900012    2    1    2    0    0  0.85327364577E+01  0.42022856945E+02  0.67002524254E+01  0.47787291713E+02  0.20000094234E+02 0.  0.
         12    1    1    2    0    0 -0.85327364577E+01 -0.42022856945E+02 -0.67002524254E+01  0.43400708287E+02  0.00000000000E+00 0. -1.
         11    1    3    3    0    0 -0.83692422998E+00  0.38432391765E+01 -0.29524052021E+01  0.49180917309E+01  0.51100000000E-03 0. -1.
        -11    1    3    3    0    0 -0.17213794378E+01  0.67520664941E+01 -0.24889263715E+01  0.73992096776E+01  0.51100000000E-03 0.  1.
        -12    1    3    3    0    0  0.11091040125E+02  0.31427551274E+02  0.12141583999E+02  0.35469990304E+02  0.00000000000E+00 0.  1.
</event>
<event>
 7    1  0.2237500E-009  0.4778727E+02  0.7816164E-02  0.1312668E+00
        -11   -1    0    0    0    0  0.00000000000E+00  0.00000000000E+00  0.45593999997E+02  0.45594000000E+02  0.51100000000E-03 0. -1.
         11   -1    0    0    0    0 -0.00000000000E+00 -0.00000000000E+00 -0.45593999997E+02  0.45594000000E+02  0.51100000000E-03 0.  1.
    9900012    2    1    2    0    0 -0.29745918056E+02  0.29015302989E+01  0.31470381886E+02  0.47787268956E+02  0.19999990479E+02 0.  0.
         12    1    1    2    0    0  0.29745918056E+02 -0.29015302989E+01 -0.31470381886E+02  0.43400731044E+02  0.00000000000E+00 0. -1.
         11    1    3    3    0    0 -0.51114257597E+00 -0.29099767635E+01  0.81463918271E+01  0.86656177829E+01  0.51100000000E-03 0. -1.
        -11    1    3    3    0    0 -0.85733187939E+01  0.48374839999E+01  0.12065487533E+02  0.15571738382E+02  0.51100000000E-03 0.  1.
        -12    1    3    3    0    0 -0.20661456686E+02  0.97402306244E+00  0.11258502526E+02  0.23549912791E+02  0.00000000000E+00 0.  1.
</event>
<event>
 7    1  0.2237500E-009  0.4778727E+02  0.7816164E-02  0.1312668E+00
        -11   -1    0    0    0    0  0.00000000000E+00  0.00000000000E+00  0.45593999997E+02  0.45594000000E+02  0.51100000000E-03 0. -1.
         11   -1    0    0    0    0 -0.00000000000E+00 -0.00000000000E+00 -0.45593999997E+02  0.45594000000E+02  0.51100000000E-03 0.  1.
    9900012    2    1    2    0    0 -0.29997283352E+02 -0.30158637668E+02  0.86164296317E+01  0.47787270812E+02  0.19999998939E+02 0.  0.
         12    1    1    2    0    0  0.29997283352E+02  0.30158637668E+02 -0.86164296317E+01  0.43400729188E+02  0.00000000000E+00 0. -1.
         11    1    3    3    0    0 -0.39000371339E+01  0.30901300879E+00  0.33919760194E+01  0.51779610140E+01  0.51100000000E-03 0. -1.
        -11    1    3    3    0    0  0.99244986014E-01 -0.53672035634E+01 -0.17861693778E+01  0.56574839783E+01  0.51100000000E-03 0.  1.
        -12    1    3    3    0    0 -0.26196491204E+02 -0.25100447113E+02  0.70106229901E+01  0.36951825819E+02  0.00000000000E+00 0.  1.
</event>
<event>
 7    1  0.2237500E-009  0.4778726E+02  0.7816164E-02  0.1312668E+00
        -11   -1    0    0    0    0  0.00000000000E+00  0.00000000000E+00  0.45593999997E+02  0.45594000000E+02  0.51100000000E-03 0. -1.
         11   -1    0    0    0    0 -0.00000000000E+00 -0.00000000000E+00 -0.45593999997E+02  0.45594000000E+02  0.51100000000E-03 0.  1.
    9900012    2    1    2    0    0  0.20168806672E+02  0.38267721123E+02  0.35248507789E+01  0.47787264805E+02  0.19999971551E+02 0.  0.
         12    1    1    2    0    0 -0.20168806672E+02 -0.38267721123E+02 -0.35248507789E+01  0.43400735195E+02  0.00000000000E+00 0. -1.
         11    1    3    3    0    0 -0.12041640273E+01  0.90601915999E+01  0.13259661893E+01  0.92355438079E+01  0.51100000000E-03 0. -1.
        -11    1    3    3    0    0  0.16590797923E+01 -0.88074818734E+00  0.17653020386E+01  0.25777033722E+01  0.51100000000E-03 0.  1.
        -12    1    3    3    0    0  0.19713890907E+02  0.30088277710E+02  0.43358255098E+00  0.35974017625E+02  0.00000000000E+00 0.  1.
</event>
<event>
 7    1  0.2237500E-009  0.4778727E+02  0.7816164E-02  0.1312668E+00
        -11   -1    0    0    0    0  0.00000000000E+00  0.00000000000E+00  0.45593999997E+02  0.45594000000E+02  0.51100000000E-03 0. -1.
         11   -1    0    0    0    0 -0.00000000000E+00 -0.00000000000E+00 -0.45593999997E+02  0.45594000000E+02  0.51100000000E-03 0.  1.
    9900012    2    1    2    0    0 -0.39512733624E+02 -0.56924387410E+01 -0.17028300981E+02  0.47787274067E+02  0.20000013780E+02 0.  0.
         12    1    1    2    0    0  0.39512733624E+02  0.56924387410E+01  0.17028300981E+02  0.43400725933E+02  0.00000000000E+00 0. -1.
         11    1    3    3    0    0 -0.38752237747E+01 -0.37914244116E+01  0.90228247809E+00  0.54960324148E+01  0.51100000000E-03 0. -1.
        -11    1    3    3    0    0 -0.16991567986E+02 -0.64795406904E+01 -0.41356047484E+01  0.18649425114E+02  0.51100000000E-03 0.  1.
        -12    1    3    3    0    0 -0.18645941863E+02  0.45785263610E+01 -0.13794978710E+02  0.23641816538E+02  0.00000000000E+00 0.  1.
</event>
<event>
 7    1  0.2237500E-009  0.4778728E+02  0.7816164E-02  0.1312668E+00
        -11   -1    0    0    0    0  0.00000000000E+00  0.00000000000E+00  0.45593999997E+02  0.45594000000E+02  0.51100000000E-03 0.  1.
         11   -1    0    0    0    0 -0.00000000000E+00 -0.00000000000E+00 -0.45593999997E+02  0.45594000000E+02  0.51100000000E-03 0. -1.
    9900012    2    1    2    0    0 -0.18650427506E+01 -0.31162843407E+02  0.30149982376E+02  0.47787278452E+02  0.20000033772E+02 0.  0.
         12    1    1    2    0    0  0.18650427506E+01  0.31162843407E+02 -0.30149982376E+02  0.43400721548E+02  0.00000000000E+00 0. -1.
         11    1    3    3    0    0 -0.40457987622E+00  0.11550976346E+01  0.49059471172E+01  0.50563082184E+01  0.51100000000E-03 0. -1.
        -11    1    3    3    0    0 -0.47526561350E+01 -0.88362799306E+01  0.11742183214E+02  0.15444949020E+02  0.51100000000E-03 0.  1.
        -12    1    3    3    0    0  0.32921932606E+01 -0.23481661111E+02  0.13501852045E+02  0.27286021213E+02  0.00000000000E+00 0.  1.
</event>
<event>
 7    1  0.2237500E-009  0.4778728E+02  0.7816164E-02  0.1312668E+00
        -11   -1    0    0    0    0  0.00000000000E+00  0.00000000000E+00  0.45593999997E+02  0.45594000000E+02  0.51100000000E-03 0.  1.
         11   -1    0    0    0    0 -0.00000000000E+00 -0.00000000000E+00 -0.45593999997E+02  0.45594000000E+02  0.51100000000E-03 0. -1.
    9900012    2    1    2    0    0  0.81137985413E+01  0.31945773099E+02  0.28235726223E+02  0.47787281331E+02  0.20000046899E+02 0.  0.
         12    1    1    2    0    0 -0.81137985413E+01 -0.31945773099E+02 -0.28235726223E+02  0.43400718669E+02  0.00000000000E+00 0. -1.
         11    1    3    3    0    0  0.62644290000E+01  0.10026340319E+02  0.16691045676E+02  0.20453889041E+02  0.51100000000E-03 0. -1.
        -11    1    3    3    0    0  0.13054883010E+01  0.89705984568E+01  0.11146080843E+02  0.14367012730E+02  0.51100000000E-03 0.  1.
        -12    1    3    3    0    0  0.54388124024E+00  0.12948834324E+02  0.39859970420E+00  0.12966379559E+02  0.00000000000E+00 0.  1.
</event>
<event>
 7    1  0.2237500E-009  0.4778728E+02  0.7816164E-02  0.1312668E+00
        -11   -1    0    0    0    0  0.00000000000E+00  0.00000000000E+00  0.45593999997E+02  0.45594000000E+02  0.51100000000E-03 0.  1.
         11   -1    0    0    0    0 -0.00000000000E+00 -0.00000000000E+00 -0.45593999997E+02  0.45594000000E+02  0.51100000000E-03 0. -1.
    9900012    2    1    2    0    0 -0.27561096856E+02 -0.12087727682E+02  0.31271323012E+02  0.47787275774E+02  0.20000021563E+02 0.  0.
         12    1    1    2    0    0  0.27561096856E+02  0.12087727682E+02 -0.31271323012E+02  0.43400724226E+02  0.00000000000E+00 0. -1.
         11    1    3    3    0    0 -0.68173352927E+01 -0.34193775318E+01  0.81042425401E+00  0.76697451672E+01  0.51100000000E-03 0. -1.
        -11    1    3    3    0    0 -0.49856071092E+01 -0.58305379126E+01  0.28188570430E+01  0.81729679975E+01  0.51100000000E-03 0.  1.
        -12    1    3    3    0    0 -0.15758154454E+02 -0.28378122379E+01  0.27642041715E+02  0.31944562609E+02  0.00000000000E+00 0.  1.
</event>
<event>
 7    1  0.2237500E-009  0.4778726E+02  0.7816164E-02  0.1312668E+00
        -11   -1    0    0    0    0  0.00000000000E+00  0.00000000000E+00  0.45593999997E+02  0.45594000000E+02  0.51100000000E-03 0. -1.
         11   -1    0    0    0    0 -0.00000000000E+00 -0.00000000000E+00 -0.45593999997E+02  0.45594000000E+02  0.51100000000E-03 0.  1.
    9900012    2    1    2    0    0 -0.32305834575E+01 -0.33500591838E+02 -0.27402520972E+02  0.47787257165E+02  0.19999936720E+02 0.  0.
         12    1    1    2    0    0  0.32305834575E+01  0.33500591838E+02  0.27402520972E+02  0.43400742835E+02  0.00000000000E+00 0. -1.
         11    1    3    3    0    0  0.65618788978E-01 -0.25403207049E+01  0.12313998148E+01  0.28238060971E+01  0.51100000000E-03 0. -1.
        -11    1    3    3    0    0  0.24944328984E+01 -0.26237104229E+02 -0.17803342313E+02  0.31805138447E+02  0.51100000000E-03 0.  1.
         12    1    3    3    0    0 -0.57906351449E+01 -0.47231669041E+01 -0.10830578473E+02  0.13158312622E+02  0.00000000000E+00 0. -1.
</event>
<event>
 7    1  0.2237500E-009  0.4778727E+02  0.7816164E-02  0.1312668E+00
        -11   -1    0    0    0    0  0.00000000000E+00  0.00000000000E+00  0.45593999997E+02  0.45594000000E+02  0.51100000000E-03 0.  1.
         11   -1    0    0    0    0 -0.00000000000E+00 -0.00000000000E+00 -0.45593999997E+02  0.45594000000E+02  0.51100000000E-03 0. -1.
    9900012    2    1    2    0    0 -0.87344453690E+01  0.12271197589E+02  0.40703204504E+02  0.47787266330E+02  0.19999978506E+02 0.  0.
         12    1    1    2    0    0  0.87344453690E+01 -0.12271197589E+02 -0.40703204504E+02  0.43400733670E+02  0.00000000000E+00 0. -1.
         11    1    3    3    0    0  0.52650715092E+00  0.17355304869E+01  0.90609314369E+01  0.92406576940E+01  0.51100000000E-03 0. -1.
        -11    1    3    3    0    0 -0.39904230894E+01  0.12160626256E+01 -0.91779743317E+00  0.42713741502E+01  0.51100000000E-03 0.  1.
        -12    1    3    3    0    0 -0.52705294306E+01  0.93196044761E+01  0.32560070501E+02  0.34275234486E+02  0.00000000000E+00 0.  1.
</event>
<event>
 7    1  0.2237500E-009  0.4778726E+02  0.7816164E-02  0.1312668E+00
        -11   -1    0    0    0    0  0.00000000000E+00  0.00000000000E+00  0.45593999997E+02  0.45594000000E+02  0.51100000000E-03 0.  1.
         11   -1    0    0    0    0 -0.00000000000E+00 -0.00000000000E+00 -0.45593999997E+02  0.45594000000E+02  0.51100000000E-03 0. -1.
    9900012    2    1    2    0    0  0.16818890089E+02  0.23543713957E+02  0.32348763067E+02  0.47787262649E+02  0.19999961720E+02 0.  0.
         12    1    1    2    0    0 -0.16818890089E+02 -0.23543713957E+02 -0.32348763067E+02  0.43400737351E+02  0.00000000000E+00 0. -1.
         11    1    3    3    0    0  0.72922124033E+00  0.89990392634E+01  0.76863402677E+01  0.11857246656E+02  0.51100000000E-03 0. -1.
        -11    1    3    3    0    0  0.63760507653E+01  0.11997154881E+02  0.21442357802E+02  0.25384256085E+02  0.51100000000E-03 0.  1.
         12    1    3    3    0    0  0.97136180830E+01  0.25475198124E+01  0.32200649973E+01  0.10545759908E+02  0.00000000000E+00 0. -1.
</event>
<event>
 7    1  0.2237500E-009  0.4778727E+02  0.7816164E-02  0.1312668E+00
        -11   -1    0    0    0    0  0.00000000000E+00  0.00000000000E+00  0.45593999997E+02  0.45594000000E+02  0.51100000000E-03 0.  1.
         11   -1    0    0    0    0 -0.00000000000E+00 -0.00000000000E+00 -0.45593999997E+02  0.45594000000E+02  0.51100000000E-03 0. -1.
    9900012    2    1    2    0    0 -0.36408827439E+02 -0.22953357002E+02  0.55824671318E+01  0.47787271291E+02  0.20000001126E+02 0.  0.
         12    1    1    2    0    0  0.36408827439E+02  0.22953357002E+02 -0.55824671318E+01  0.43400728709E+02  0.00000000000E+00 0. -1.
         11    1    3    3    0    0  0.65310674120E+00 -0.24833440801E+01 -0.21706741978E+01  0.33623463488E+01  0.51100000000E-03 0. -1.
        -11    1    3    3    0    0 -0.17305952456E+02 -0.51703409073E+01  0.71632135069E+01  0.19430389690E+02  0.51100000000E-03 0.  1.
        -12    1    3    3    0    0 -0.19755981725E+02 -0.15299672014E+02  0.58992782261E+00  0.24994535252E+02  0.00000000000E+00 0.  1.
</event>
<event>
 7    1  0.2237500E-009  0.4778727E+02  0.7816164E-02  0.1312668E+00
        -11   -1    0    0    0    0  0.00000000000E+00  0.00000000000E+00  0.45593999997E+02  0.45594000000E+02  0.51100000000E-03 0.  1.
         11   -1    0    0    0    0 -0.00000000000E+00 -0.00000000000E+00 -0.45593999997E+02  0.45594000000E+02  0.51100000000E-03 0. -1.
    9900012    2    1    2    0    0 -0.28735602683E+02 -0.32384646124E+02 -0.30204093959E+01  0.47787273750E+02  0.20000012335E+02 0.  0.
         12    1    1    2    0    0  0.28735602683E+02  0.32384646124E+02  0.30204093959E+01  0.43400726250E+02  0.00000000000E+00 0. -1.
         11    1    3    3    0    0 -0.12108035564E+01 -0.26560538968E+00 -0.16298553278E+01  0.20476865302E+01  0.51100000000E-03 0. -1.
        -11    1    3    3    0    0 -0.23516319454E+02 -0.31553856688E+02  0.33623010805E+01  0.39496433021E+02  0.51100000000E-03 0.  1.
        -12    1    3    3    0    0 -0.40084796722E+01 -0.56518404652E+00 -0.47528551486E+01  0.62431541990E+01  0.00000000000E+00 0.  1.
</event>
<event>
 7    1  0.2237500E-009  0.4778727E+02  0.7816164E-02  0.1312668E+00
        -11   -1    0    0    0    0  0.00000000000E+00  0.00000000000E+00  0.45593999997E+02  0.45594000000E+02  0.51100000000E-03 0.  1.
         11   -1    0    0    0    0 -0.00000000000E+00 -0.00000000000E+00 -0.45593999997E+02  0.45594000000E+02  0.51100000000E-03 0. -1.
    9900012    2    1    2    0    0  0.21220543461E+02 -0.37817119107E+02 -0.17825326017E+01  0.47787269767E+02  0.19999994174E+02 0.  0.
         12    1    1    2    0    0 -0.21220543461E+02  0.37817119107E+02  0.17825326017E+01  0.43400730233E+02  0.00000000000E+00 0. -1.
         11    1    3    3    0    0  0.10608107261E+02 -0.17224928886E+02 -0.25640146462E+01  0.20391279659E+02  0.51100000000E-03 0.  1.
        -11    1    3    3    0    0  0.13052520737E+02 -0.17014550926E+02 -0.29919009346E+01  0.21652129509E+02  0.51100000000E-03 0. -1.
        -12    1    3    3    0    0 -0.24400845367E+01 -0.35776392946E+01  0.37733829790E+01  0.57438605985E+01  0.00000000000E+00 0.  1.
</event>
<event>
 7    1  0.2237500E-009  0.4778727E+02  0.7816164E-02  0.1312668E+00
        -11   -1    0    0    0    0  0.00000000000E+00  0.00000000000E+00  0.45593999997E+02  0.45594000000E+02  0.51100000000E-03 0.  1.
         11   -1    0    0    0    0 -0.00000000000E+00 -0.00000000000E+00 -0.45593999997E+02  0.45594000000E+02  0.51100000000E-03 0. -1.
    9900012    2    1    2    0    0 -0.18467249662E+02  0.12369057372E+02  0.37277216308E+02  0.47787265605E+02  0.19999975201E+02 0.  0.
         12    1    1    2    0    0  0.18467249662E+02 -0.12369057372E+02 -0.37277216308E+02  0.43400734395E+02  0.00000000000E+00 0. -1.
         11    1    3    3    0    0 -0.64297915044E+01  0.36815869965E+01  0.14550459434E+02  0.16328262970E+02  0.51100000000E-03 0. -1.
        -11    1    3    3    0    0 -0.38040678651E+01  0.41702060762E+00  0.18740077283E+02  0.19126822406E+02  0.51100000000E-03 0.  1.
         12    1    3    3    0    0 -0.82333902919E+01  0.82704497678E+01  0.39866795911E+01  0.12332180230E+02  0.00000000000E+00 0. -1.
</event>
<event>
 7    1  0.2237500E-009  0.4778727E+02  0.7816164E-02  0.1312668E+00
        -11   -1    0    0    0    0  0.00000000000E+00  0.00000000000E+00  0.45593999997E+02  0.45594000000E+02  0.51100000000E-03 0. -1.
         11   -1    0    0    0    0 -0.00000000000E+00 -0.00000000000E+00 -0.45593999997E+02  0.45594000000E+02  0.51100000000E-03 0.  1.
    9900012    2    1    2    0    0  0.10688021939E+01  0.31165792933E+01 -0.43275486493E+02  0.47787272635E+02  0.20000007252E+02 0.  0.
         12    1    1    2    0    0 -0.10688021939E+01 -0.31165792933E+01  0.43275486493E+02  0.43400727365E+02  0.00000000000E+00 0. -1.
         11    1    3    3    0    0 -0.29814102110E+00 -0.99692289803E+00 -0.76446729032E+01  0.77151647676E+01  0.51100000000E-03 0. -1.
        -11    1    3    3    0    0 -0.67698011561E+01  0.24154202932E+01 -0.27576697118E+02  0.28498047075E+02  0.51100000000E-03 0.  1.
         12    1    3    3    0    0  0.81367443711E+01  0.16980818982E+01 -0.80541164714E+01  0.11574060792E+02  0.00000000000E+00 0. -1.
</event>
<event>
 7    1  0.2237500E-009  0.4778727E+02  0.7816164E-02  0.1312668E+00
        -11   -1    0    0    0    0  0.00000000000E+00  0.00000000000E+00  0.45593999997E+02  0.45594000000E+02  0.51100000000E-03 0.  1.
         11   -1    0    0    0    0 -0.00000000000E+00 -0.00000000000E+00 -0.45593999997E+02  0.45594000000E+02  0.51100000000E-03 0. -1.
    9900012    2    1    2    0    0 -0.15816378636E+02  0.40113674668E+02  0.49354581231E+01  0.47787268723E+02  0.19999989414E+02 0.  0.
         12    1    1    2    0    0  0.15816378636E+02 -0.40113674668E+02 -0.49354581231E+01  0.43400731277E+02  0.00000000000E+00 0. -1.
         11    1    3    3    0    0 -0.12824503411E+02  0.25222243956E+02  0.43840085015E+01  0.28633005583E+02  0.51100000000E-03 0.  1.
        -11    1    3    3    0    0 -0.72327192812E+01  0.66369718521E+01 -0.40657559669E+00  0.98248118324E+01  0.51100000000E-03 0. -1.
         12    1    3    3    0    0  0.42408440558E+01  0.82544588602E+01  0.95802521831E+00  0.93294513075E+01  0.00000000000E+00 0. -1.
</event>
<event>
 7    1  0.2237500E-009  0.4778729E+02  0.7816164E-02  0.1312668E+00
        -11   -1    0    0    0    0  0.00000000000E+00  0.00000000000E+00  0.45593999997E+02  0.45594000000E+02  0.51100000000E-03 0.  1.
         11   -1    0    0    0    0 -0.00000000000E+00 -0.00000000000E+00 -0.45593999997E+02  0.45594000000E+02  0.51100000000E-03 0. -1.
    9900012    2    1    2    0    0  0.68211361006E+01 -0.42838649983E+02 -0.13943002724E+01  0.47787286834E+02  0.20000071992E+02 0.  0.
         12    1    1    2    0    0 -0.68211361006E+01  0.42838649983E+02  0.13943002724E+01  0.43400713166E+02  0.00000000000E+00 0. -1.
         11    1    3    3    0    0  0.69256030133E+01 -0.72689544285E+01 -0.11417048989E+01  0.10104710086E+02  0.51100000000E-03 0.  1.
        -11    1    3    3    0    0  0.50916058874E+01 -0.77111401224E+01 -0.12583402486E+01  0.93257467767E+01  0.51100000000E-03 0. -1.
        -12    1    3    3    0    0 -0.51960728001E+01 -0.27858555432E+02  0.10057448752E+01  0.28356829972E+02  0.00000000000E+00 0.  1.
</event>
<event>
 7    1  0.2237500E-009  0.4778727E+02  0.7816164E-02  0.1312668E+00
        -11   -1    0    0    0    0  0.00000000000E+00  0.00000000000E+00  0.45593999997E+02  0.45594000000E+02  0.51100000000E-03 0. -1.
         11   -1    0    0    0    0 -0.00000000000E+00 -0.00000000000E+00 -0.45593999997E+02  0.45594000000E+02  0.51100000000E-03 0.  1.
    9900012    2    1    2    0    0  0.34189924097E+01  0.42776097549E+02 -0.64914782758E+01  0.47787270503E+02  0.19999997532E+02 0.  0.
         12    1    1    2    0    0 -0.34189924097E+01 -0.42776097549E+02  0.64914782758E+01  0.43400729497E+02  0.00000000000E+00 0. -1.
         11    1    3    3    0    0  0.50019665718E+01  0.10025689594E+02 -0.84814726840E+01  0.14052384160E+02  0.51100000000E-03 0. -1.
        -11    1    3    3    0    0 -0.15763897704E+01  0.13302345021E+02 -0.28463502552E+01  0.13694491513E+02  0.51100000000E-03 0.  1.
         12    1    3    3    0    0 -0.65843918151E-02  0.19448062934E+02  0.48363446633E+01  0.20040394830E+02  0.00000000000E+00 0. -1.
</event>
<event>
 7    1  0.2237500E-009  0.4778727E+02  0.7816164E-02  0.1312668E+00
        -11   -1    0    0    0    0  0.00000000000E+00  0.00000000000E+00  0.45593999997E+02  0.45594000000E+02  0.51100000000E-03 0.  1.
         11   -1    0    0    0    0 -0.00000000000E+00 -0.00000000000E+00 -0.45593999997E+02  0.45594000000E+02  0.51100000000E-03 0. -1.
    9900012    2    1    2    0    0  0.25656513784E+02 -0.41553820054E+01  0.34757722697E+02  0.47787272054E+02  0.20000004604E+02 0.  0.
         12    1    1    2    0    0 -0.25656513784E+02  0.41553820054E+01 -0.34757722697E+02  0.43400727946E+02  0.00000000000E+00 0. -1.
         11    1    3    3    0    0  0.19145496909E+02  0.29923370827E+01  0.15654862169E+02  0.24911419929E+02  0.51100000000E-03 0. -1.
        -11    1    3    3    0    0  0.44291658973E+01 -0.30110555271E-01  0.36640997043E+01  0.57483949147E+01  0.51100000000E-03 0.  1.
        -12    1    3    3    0    0  0.20818509781E+01 -0.71176085329E+01  0.15438760823E+02  0.17127457210E+02  0.00000000000E+00 0.  1.
</event>
<event>
 7    1  0.2237500E-009  0.4778727E+02  0.7816164E-02  0.1312668E+00
        -11   -1    0    0    0    0  0.00000000000E+00  0.00000000000E+00  0.45593999997E+02  0.45594000000E+02  0.51100000000E-03 0.  1.
         11   -1    0    0    0    0 -0.00000000000E+00 -0.00000000000E+00 -0.45593999997E+02  0.45594000000E+02  0.51100000000E-03 0. -1.
    9900012    2    1    2    0    0 -0.42348958525E+02 -0.67290531433E+01 -0.67013917542E+01  0.47787273095E+02  0.20000009352E+02 0.  0.
         12    1    1    2    0    0  0.42348958525E+02  0.67290531433E+01  0.67013917542E+01  0.43400726905E+02  0.00000000000E+00 0. -1.
         11    1    3    3    0    0 -0.23029930809E+02 -0.34913096549E+01 -0.10046890384E+01  0.23314724028E+02  0.51100000000E-03 0. -1.
        -11    1    3    3    0    0 -0.15361956786E+02 -0.28575044937E+01  0.20559204327E+01  0.15760135067E+02  0.51100000000E-03 0.  1.
         12    1    3    3    0    0 -0.39570709302E+01 -0.38023899473E+00 -0.77526231485E+01  0.87124140008E+01  0.00000000000E+00 0. -1.
</event>
<event>
 7    1  0.2237500E-009  0.4778727E+02  0.7816164E-02  0.1312668E+00
        -11   -1    0    0    0    0  0.00000000000E+00  0.00000000000E+00  0.45593999997E+02  0.45594000000E+02  0.51100000000E-03 0.  1.
         11   -1    0    0    0    0 -0.00000000000E+00 -0.00000000000E+00 -0.45593999997E+02  0.45594000000E+02  0.51100000000E-03 0. -1.
    9900012    2    1    2    0    0 -0.24544129601E+02 -0.91463226605E+01  0.34605689439E+02  0.47787271232E+02  0.20000000853E+02 0.  0.
         12    1    1    2    0    0  0.24544129601E+02  0.91463226605E+01 -0.34605689439E+02  0.43400728768E+02  0.00000000000E+00 0. -1.
         11    1    3    3    0    0 -0.46456833926E+01 -0.37975749668E+01  0.47658794237E+01  0.76627382022E+01  0.51100000000E-03 0. -1.
        -11    1    3    3    0    0 -0.20396822060E+02 -0.68442311740E+01  0.17635336354E+02  0.27818679679E+02  0.51100000000E-03 0.  1.
        -12    1    3    3    0    0  0.49837585162E+00  0.14954834803E+01  0.12204473661E+02  0.12305853350E+02  0.00000000000E+00 0.  1.
</event>
<event>
 7    1  0.2237500E-009  0.4778728E+02  0.7816164E-02  0.1312668E+00
        -11   -1    0    0    0    0  0.00000000000E+00  0.00000000000E+00  0.45593999997E+02  0.45594000000E+02  0.51100000000E-03 0. -1.
         11   -1    0    0    0    0 -0.00000000000E+00 -0.00000000000E+00 -0.45593999997E+02  0.45594000000E+02  0.51100000000E-03 0.  1.
    9900012    2    1    2    0    0 -0.23794466414E+02 -0.30254359996E+02 -0.20052919136E+02  0.47787279999E+02  0.20000040829E+02 0.  0.
         12    1    1    2    0    0  0.23794466414E+02  0.30254359996E+02  0.20052919136E+02  0.43400720001E+02  0.00000000000E+00 0. -1.
         11    1    3    3    0    0 -0.65954488478E+01 -0.90217235497E+01 -0.64125323507E+01  0.12884564902E+02  0.51100000000E-03 0. -1.
        -11    1    3    3    0    0 -0.77851928241E+01 -0.21294899514E+02 -0.88433512942E+01  0.24336943830E+02  0.51100000000E-03 0.  1.
         12    1    3    3    0    0 -0.94138247424E+01  0.62263067416E-01 -0.47970354905E+01  0.10565771267E+02  0.00000000000E+00 0. -1.
</event>
<event>
 7    1  0.2237500E-009  0.4778727E+02  0.7816164E-02  0.1312668E+00
        -11   -1    0    0    0    0  0.00000000000E+00  0.00000000000E+00  0.45593999997E+02  0.45594000000E+02  0.51100000000E-03 0. -1.
         11   -1    0    0    0    0 -0.00000000000E+00 -0.00000000000E+00 -0.45593999997E+02  0.45594000000E+02  0.51100000000E-03 0.  1.
    9900012    2    1    2    0    0 -0.11858731360E+01 -0.34332883445E+02  0.26523012581E+02  0.47787269855E+02  0.19999994577E+02 0.  0.
         12    1    1    2    0    0  0.11858731360E+01  0.34332883445E+02 -0.26523012581E+02  0.43400730145E+02  0.00000000000E+00 0. -1.
         11    1    3    3    0    0  0.36720166652E+01 -0.16929242511E+01  0.16609323925E+00  0.40468859800E+01  0.51100000000E-03 0. -1.
        -11    1    3    3    0    0 -0.35430008829E+01 -0.17296710971E+01  0.24535599359E+01  0.46437672186E+01  0.51100000000E-03 0.  1.
         12    1    3    3    0    0 -0.13148889184E+01 -0.30910288097E+02  0.23903359406E+02  0.39096616656E+02  0.00000000000E+00 0. -1.
</event>
<event>
 7    1  0.2237500E-009  0.4778728E+02  0.7816164E-02  0.1312668E+00
        -11   -1    0    0    0    0  0.00000000000E+00  0.00000000000E+00  0.45593999997E+02  0.45594000000E+02  0.51100000000E-03 0.  1.
         11   -1    0    0    0    0 -0.00000000000E+00 -0.00000000000E+00 -0.45593999997E+02  0.45594000000E+02  0.51100000000E-03 0. -1.
    9900012    2    1    2    0    0 -0.25243800929E+02  0.14474135865E+02  0.32200506269E+02  0.47787277674E+02  0.20000030228E+02 0.  0.
         12    1    1    2    0    0  0.25243800929E+02 -0.14474135865E+02 -0.32200506269E+02  0.43400722326E+02  0.00000000000E+00 0. -1.
         11    1    3    3    0    0 -0.14679955596E+01  0.15379191864E+01 -0.11797897490E+01  0.24314831893E+01  0.51100000000E-03 0. -1.
        -11    1    3    3    0    0 -0.74918376080E+01  0.29721306333E+01  0.15023982398E+01  0.81986823318E+01  0.51100000000E-03 0.  1.
        -12    1    3    3    0    0 -0.16283967762E+02  0.99640860458E+01  0.31877897778E+02  0.37157112153E+02  0.00000000000E+00 0.  1.
</event>
<event>
 7    1  0.2237500E-009  0.4778727E+02  0.7816164E-02  0.1312668E+00
        -11   -1    0    0    0    0  0.00000000000E+00  0.00000000000E+00  0.45593999997E+02  0.45594000000E+02  0.51100000000E-03 0.  1.
         11   -1    0    0    0    0 -0.00000000000E+00 -0.00000000000E+00 -0.45593999997E+02  0.45594000000E+02  0.51100000000E-03 0. -1.
    9900012    2    1    2    0    0 -0.10718493648E+02  0.41327646820E+02  0.77950345049E+01  0.47787273500E+02  0.20000011196E+02 0.  0.
         12    1    1    2    0    0  0.10718493648E+02 -0.41327646820E+02 -0.77950345049E+01  0.43400726500E+02  0.00000000000E+00 0. -1.
         11    1    3    3    0    0  0.62446706175E+00  0.67761533026E+01 -0.29306891807E+01  0.74091262660E+01  0.51100000000E-03 0. -1.
        -11    1    3    3    0    0  0.25537866402E+01  0.35360888534E+01 -0.90874761723E+00  0.44555104170E+01  0.51100000000E-03 0.  1.
        -12    1    3    3    0    0 -0.13896747350E+02  0.31015404664E+02  0.11634471303E+02  0.35922636817E+02  0.00000000000E+00 0.  1.
</event>
<event>
 7    1  0.2237500E-009  0.4778727E+02  0.7816164E-02  0.1312668E+00
        -11   -1    0    0    0    0  0.00000000000E+00  0.00000000000E+00  0.45593999997E+02  0.45594000000E+02  0.51100000000E-03 0. -1.
         11   -1    0    0    0    0 -0.00000000000E+00 -0.00000000000E+00 -0.45593999997E+02  0.45594000000E+02  0.51100000000E-03 0.  1.
    9900012    2    1    2    0    0  0.51989026566E+01 -0.21659699282E+02 -0.37248521028E+02  0.47787268663E+02  0.19999989142E+02 0.  0.
         12    1    1    2    0    0 -0.51989026566E+01  0.21659699282E+02  0.37248521028E+02  0.43400731337E+02  0.00000000000E+00 0. -1.
         11    1    3    3    0    0  0.14944233319E+01 -0.19186515629E+02 -0.15614334013E+02  0.24782314460E+02  0.51100000000E-03 0.  1.
        -11    1    3    3    0    0 -0.13316449560E+01 -0.23725946429E+01 -0.90484767187E+01  0.94486726485E+01  0.51100000000E-03 0. -1.
        -12    1    3    3    0    0  0.50361242806E+01 -0.10058901006E+00 -0.12585710296E+02  0.13556281554E+02  0.00000000000E+00 0.  1.
</event>
<event>
 7    1  0.2237500E-009  0.4778727E+02  0.7816164E-02  0.1312668E+00
        -11   -1    0    0    0    0  0.00000000000E+00  0.00000000000E+00  0.45593999997E+02  0.45594000000E+02  0.51100000000E-03 0. -1.
         11   -1    0    0    0    0 -0.00000000000E+00 -0.00000000000E+00 -0.45593999997E+02  0.45594000000E+02  0.51100000000E-03 0.  1.
    9900012    2    1    2    0    0 -0.77413569870E+01 -0.24630596076E+02 -0.34885935409E+02  0.47787270047E+02  0.19999995452E+02 0.  0.
         12    1    1    2    0    0  0.77413569870E+01  0.24630596076E+02  0.34885935409E+02  0.43400729953E+02  0.00000000000E+00 0. -1.
         11    1    3    3    0    0  0.28109846422E+01 -0.45949152142E+01 -0.10186430321E+02  0.11522944218E+02  0.51100000000E-03 0. -1.
        -11    1    3    3    0    0 -0.48150615087E+01  0.75330876350E+00 -0.33208944861E+01  0.58975106506E+01  0.51100000000E-03 0.  1.
        -12    1    3    3    0    0 -0.57372801205E+01 -0.20788989626E+02 -0.21378610602E+02  0.30366815179E+02  0.00000000000E+00 0.  1.
</event>
<event>
 7    1  0.2237500E-009  0.4778727E+02  0.7816164E-02  0.1312668E+00
        -11   -1    0    0    0    0  0.00000000000E+00  0.00000000000E+00  0.45593999997E+02  0.45594000000E+02  0.51100000000E-03 0.  1.
         11   -1    0    0    0    0 -0.00000000000E+00 -0.00000000000E+00 -0.45593999997E+02  0.45594000000E+02  0.51100000000E-03 0. -1.
    9900012    2    1    2    0    0 -0.39052992929E+02 -0.31631790758E+01  0.18667657431E+02  0.47787269677E+02  0.19999993767E+02 0.  0.
         12    1    1    2    0    0  0.39052992929E+02  0.31631790758E+01 -0.18667657431E+02  0.43400730323E+02  0.00000000000E+00 0. -1.
         11    1    3    3    0    0 -0.33264021060E+02 -0.27869206637E+01  0.14070309344E+02  0.36224793018E+02  0.51100000000E-03 0. -1.
        -11    1    3    3    0    0 -0.50797254057E+01 -0.42554554791E+01  0.33573675894E+01  0.74286222762E+01  0.51100000000E-03 0.  1.
         12    1    3    3    0    0 -0.70924646336E+00  0.38791970670E+01  0.12399804975E+01  0.41338543836E+01  0.00000000000E+00 0. -1.
</event>
<event>
 7    1  0.2438935E-009  0.4778727E+02  0.7816164E-02  0.1312668E+00
        -11   -1    0    0    0    0  0.00000000000E+00  0.00000000000E+00  0.45593999997E+02  0.45594000000E+02  0.51100000000E-03 0. -1.
         11   -1    0    0    0    0 -0.00000000000E+00 -0.00000000000E+00 -0.45593999997E+02  0.45594000000E+02  0.51100000000E-03 0.  1.
    9900012    2    1    2    0    0  0.42430979379E+02 -0.57543035031E+01  0.70797916346E+01  0.47787268791E+02  0.19999989728E+02 0.  0.
         12    1    1    2    0    0 -0.42430979379E+02  0.57543035031E+01 -0.70797916346E+01  0.43400731209E+02  0.00000000000E+00 0. -1.
         11    1    3    3    0    0 -0.43113480766E+00 -0.23776540278E+01  0.99163019911E+00  0.26119813574E+01  0.51100000000E-03 0. -1.
        -11    1    3    3    0    0  0.18846632391E+02 -0.75107786448E+01  0.12177100829E+01  0.20324619712E+02  0.51100000000E-03 0.  1.
        -12    1    3    3    0    0  0.24015481796E+02  0.41341291695E+01  0.48704513526E+01  0.24850667722E+02  0.00000000000E+00 0.  1.
</event>
<event>
 7    1  0.2237500E-009  0.4778727E+02  0.7816164E-02  0.1312668E+00
        -11   -1    0    0    0    0  0.00000000000E+00  0.00000000000E+00  0.45593999997E+02  0.45594000000E+02  0.51100000000E-03 0.  1.
         11   -1    0    0    0    0 -0.00000000000E+00 -0.00000000000E+00 -0.45593999997E+02  0.45594000000E+02  0.51100000000E-03 0. -1.
    9900012    2    1    2    0    0  0.18543234844E+02 -0.32609002026E+02  0.21827153565E+02  0.47787271845E+02  0.20000003652E+02 0.  0.
         12    1    1    2    0    0 -0.18543234844E+02  0.32609002026E+02 -0.21827153565E+02  0.43400728155E+02  0.00000000000E+00 0. -1.
         11    1    3    3    0    0  0.10566652233E+02 -0.13370191138E+02  0.54477674695E+01  0.17891179982E+02  0.51100000000E-03 0. -1.
        -11    1    3    3    0    0  0.81215727741E+01 -0.10636329771E+02  0.25719071510E+01  0.13627404815E+02  0.51100000000E-03 0.  1.
        -12    1    3    3    0    0 -0.14499016316E+00 -0.86024811174E+01  0.13807478944E+02  0.16268687049E+02  0.00000000000E+00 0.  1.
</event>
<event>
 7    1  0.2237500E-009  0.4778727E+02  0.7816164E-02  0.1312668E+00
        -11   -1    0    0    0    0  0.00000000000E+00  0.00000000000E+00  0.45593999997E+02  0.45594000000E+02  0.51100000000E-03 0.  1.
         11   -1    0    0    0    0 -0.00000000000E+00 -0.00000000000E+00 -0.45593999997E+02  0.45594000000E+02  0.51100000000E-03 0. -1.
    9900012    2    1    2    0    0  0.41338784760E+02  0.10506167326E+02  0.80217520095E+01  0.47787272096E+02  0.20000004792E+02 0.  0.
         12    1    1    2    0    0 -0.41338784760E+02 -0.10506167326E+02 -0.80217520095E+01  0.43400727904E+02  0.00000000000E+00 0. -1.
         11    1    3    3    0    0  0.11341521913E+02  0.69949725254E+01 -0.37296436883E+01  0.13837268598E+02  0.51100000000E-03 0. -1.
        -11    1    3    3    0    0  0.16434757019E+02 -0.25954112259E+01  0.37314161935E+01  0.17051711491E+02  0.51100000000E-03 0.  1.
         12    1    3    3    0    0  0.13562505828E+02  0.61066060269E+01  0.80199795042E+01  0.16898292007E+02  0.00000000000E+00 0. -1.
</event>
<event>
 7    1  0.2237500E-009  0.4778727E+02  0.7816164E-02  0.1312668E+00
        -11   -1    0    0    0    0  0.00000000000E+00  0.00000000000E+00  0.45593999997E+02  0.45594000000E+02  0.51100000000E-03 0.  1.
         11   -1    0    0    0    0 -0.00000000000E+00 -0.00000000000E+00 -0.45593999997E+02  0.45594000000E+02  0.51100000000E-03 0. -1.
    9900012    2    1    2    0    0  0.40423717782E+02 -0.15324173367E+02 -0.38361357155E+01  0.47787272057E+02  0.20000004617E+02 0.  0.
         12    1    1    2    0    0 -0.40423717782E+02  0.15324173367E+02  0.38361357155E+01  0.43400727943E+02  0.00000000000E+00 0. -1.
         11    1    3    3    0    0  0.12463050148E+02 -0.42800701808E+01 -0.60535770656E+00  0.13191401668E+02  0.51100000000E-03 0. -1.
        -11    1    3    3    0    0  0.25939789750E+02 -0.12584649654E+02 -0.73522271821E+01  0.29754013914E+02  0.51100000000E-03 0.  1.
         12    1    3    3    0    0  0.20208778837E+01  0.15405464671E+01  0.41214491732E+01  0.48418564750E+01  0.00000000000E+00 0. -1.
</event>
<event>
 7    1  0.2237500E-009  0.4778727E+02  0.7816164E-02  0.1312668E+00
        -11   -1    0    0    0    0  0.00000000000E+00  0.00000000000E+00  0.45593999997E+02  0.45594000000E+02  0.51100000000E-03 0.  1.
         11   -1    0    0    0    0 -0.00000000000E+00 -0.00000000000E+00 -0.45593999997E+02  0.45594000000E+02  0.51100000000E-03 0. -1.
    9900012    2    1    2    0    0  0.15907743188E+02 -0.38579662031E+02 -0.11923797706E+02  0.47787267661E+02  0.19999984575E+02 0.  0.
         12    1    1    2    0    0 -0.15907743188E+02  0.38579662031E+02  0.11923797706E+02  0.43400732339E+02  0.00000000000E+00 0. -1.
         11    1    3    3    0    0 -0.99137748173E+00 -0.69321109015E+01 -0.67439450090E+01  0.97220257872E+01  0.51100000000E-03 0. -1.
        -11    1    3    3    0    0  0.39528364996E+01 -0.17746085322E+02 -0.57253710255E+01  0.19061173476E+02  0.51100000000E-03 0.  1.
        -12    1    3    3    0    0  0.12946284170E+02 -0.13901465808E+02  0.54551832817E+00  0.19004068398E+02  0.00000000000E+00 0.  1.
</event>
<event>
 7    1  0.2237500E-009  0.4778727E+02  0.7816164E-02  0.1312668E+00
        -11   -1    0    0    0    0  0.00000000000E+00  0.00000000000E+00  0.45593999997E+02  0.45594000000E+02  0.51100000000E-03 0.  1.
         11   -1    0    0    0    0 -0.00000000000E+00 -0.00000000000E+00 -0.45593999997E+02  0.45594000000E+02  0.51100000000E-03 0. -1.
    9900012    2    1    2    0    0 -0.26703826536E+02  0.17870121130E+02  0.29175120449E+02  0.47787271503E+02  0.20000002091E+02 0.  0.
         12    1    1    2    0    0  0.26703826536E+02 -0.17870121130E+02 -0.29175120449E+02  0.43400728497E+02  0.00000000000E+00 0. -1.
         11    1    3    3    0    0 -0.11458478718E+02 -0.28200210824E+01  0.68686484691E+01  0.13653848742E+02  0.51100000000E-03 0. -1.
        -11    1    3    3    0    0 -0.10105640917E+01  0.21061750638E+01  0.29158923016E+01  0.37362603440E+01  0.51100000000E-03 0.  1.
         12    1    3    3    0    0 -0.14234783727E+02  0.18583967149E+02  0.19390579678E+02  0.30397162417E+02  0.00000000000E+00 0. -1.
</event>
<event>
 7    1  0.2237500E-009  0.4778727E+02  0.7816164E-02  0.1312668E+00
        -11   -1    0    0    0    0  0.00000000000E+00  0.00000000000E+00  0.45593999997E+02  0.45594000000E+02  0.51100000000E-03 0.  1.
         11   -1    0    0    0    0 -0.00000000000E+00 -0.00000000000E+00 -0.45593999997E+02  0.45594000000E+02  0.51100000000E-03 0. -1.
    9900012    2    1    2    0    0 -0.73564491914E+01  0.21953698396E+02  0.36708870014E+02  0.47787270102E+02  0.19999995704E+02 0.  0.
         12    1    1    2    0    0  0.73564491914E+01 -0.21953698396E+02 -0.36708870014E+02  0.43400729898E+02  0.00000000000E+00 0. -1.
         11    1    3    3    0    0  0.33934837726E+00  0.13312072309E+02  0.10022962526E+02  0.16666919468E+02  0.51100000000E-03 0. -1.
        -11    1    3    3    0    0 -0.18416404431E+00  0.84894640026E+01  0.14580993476E+02  0.16873360260E+02  0.51100000000E-03 0.  1.
         12    1    3    3    0    0 -0.75116335244E+01  0.15216208396E+00  0.12104914011E+02  0.14246990374E+02  0.00000000000E+00 0. -1.
</event>
<event>
 7    1  0.2237500E-009  0.4778727E+02  0.7816164E-02  0.1312668E+00
        -11   -1    0    0    0    0  0.00000000000E+00  0.00000000000E+00  0.45593999997E+02  0.45594000000E+02  0.51100000000E-03 0. -1.
         11   -1    0    0    0    0 -0.00000000000E+00 -0.00000000000E+00 -0.45593999997E+02  0.45594000000E+02  0.51100000000E-03 0.  1.
    9900012    2    1    2    0    0 -0.49199641119E+01  0.22526998705E+02 -0.36768893894E+02  0.47787271023E+02  0.19999999902E+02 0.  0.
         12    1    1    2    0    0  0.49199641119E+01 -0.22526998705E+02  0.36768893894E+02  0.43400728977E+02  0.00000000000E+00 0. -1.
         11    1    3    3    0    0 -0.94139692671E+01  0.16849120096E+02 -0.26503333592E+02  0.32786313564E+02  0.51100000000E-03 0. -1.
        -11    1    3    3    0    0  0.22524622973E+01  0.75451553390E+01 -0.63360693307E+01  0.10106865504E+02  0.51100000000E-03 0.  1.
         12    1    3    3    0    0  0.22415428579E+01 -0.18672767295E+01 -0.39294909713E+01  0.48940919547E+01  0.00000000000E+00 0. -1.
</event>
<event>
 7    1  0.2237500E-009  0.4778727E+02  0.7816164E-02  0.1312668E+00
        -11   -1    0    0    0    0  0.00000000000E+00  0.00000000000E+00  0.45593999997E+02  0.45594000000E+02  0.51100000000E-03 0.  1.
         11   -1    0    0    0    0 -0.00000000000E+00 -0.00000000000E+00 -0.45593999997E+02  0.45594000000E+02  0.51100000000E-03 0. -1.
    9900012    2    1    2    0    0 -0.26075449361E+02 -0.23426444255E+02  0.25590933871E+02  0.47787271363E+02  0.20000001454E+02 0.  0.
         12    1    1    2    0    0  0.26075449361E+02  0.23426444255E+02 -0.25590933871E+02  0.43400728637E+02  0.00000000000E+00 0. -1.
         11    1    3    3    0    0  0.13252078997E+00 -0.39780731059E+01  0.19445909066E+01  0.44299053546E+01  0.51100000000E-03 0. -1.
        -11    1    3    3    0    0 -0.14544038233E+02 -0.14111924198E+02  0.22797643462E+02  0.30502590060E+02  0.51100000000E-03 0.  1.
         12    1    3    3    0    0 -0.11663931917E+02 -0.53364469514E+01  0.84869950190E+00  0.12854775948E+02  0.00000000000E+00 0. -1.
</event>
<event>
 7    1  0.2237500E-009  0.4778726E+02  0.7816164E-02  0.1312668E+00
        -11   -1    0    0    0    0  0.00000000000E+00  0.00000000000E+00  0.45593999997E+02  0.45594000000E+02  0.51100000000E-03 0.  1.
         11   -1    0    0    0    0 -0.00000000000E+00 -0.00000000000E+00 -0.45593999997E+02  0.45594000000E+02  0.51100000000E-03 0. -1.
    9900012    2    1    2    0    0  0.72088617490E+01 -0.30712663409E+02  0.29805849103E+02  0.47787262424E+02  0.19999960696E+02 0.  0.
         12    1    1    2    0    0 -0.72088617490E+01  0.30712663409E+02 -0.29805849103E+02  0.43400737576E+02  0.00000000000E+00 0. -1.
         11    1    3    3    0    0  0.40848426667E+01 -0.55638235654E+01 -0.10082891087E+00  0.69030601191E+01  0.51100000000E-03 0. -1.
        -11    1    3    3    0    0  0.53528880142E+01 -0.16925369339E+02  0.13169982004E+02  0.22103618789E+02  0.51100000000E-03 0.  1.
         12    1    3    3    0    0 -0.22288689318E+01 -0.82234705052E+01  0.16736696010E+02  0.18780583516E+02  0.00000000000E+00 0. -1.
</event>
<event>
 7    1  0.2237500E-009  0.4778727E+02  0.7816164E-02  0.1312668E+00
        -11   -1    0    0    0    0  0.00000000000E+00  0.00000000000E+00  0.45593999997E+02  0.45594000000E+02  0.51100000000E-03 0.  1.
         11   -1    0    0    0    0 -0.00000000000E+00 -0.00000000000E+00 -0.45593999997E+02  0.45594000000E+02  0.51100000000E-03 0. -1.
    9900012    2    1    2    0    0 -0.44603784212E+00  0.17805348510E+02  0.39577693981E+02  0.47787271364E+02  0.20000001456E+02 0.  0.
         12    1    1    2    0    0  0.44603784212E+00 -0.17805348510E+02 -0.39577693981E+02  0.43400728636E+02  0.00000000000E+00 0. -1.
         11    1    3    3    0    0 -0.42269055668E+01  0.10797612808E+02  0.26377442136E+02  0.28813618775E+02  0.51100000000E-03 0. -1.
        -11    1    3    3    0    0  0.12920831838E+01  0.97915985117E+01  0.91297776869E+01  0.13449822350E+02  0.51100000000E-03 0.  1.
         12    1    3    3    0    0  0.24887845409E+01 -0.27838628100E+01  0.40704741579E+01  0.55238302387E+01  0.00000000000E+00 0. -1.
</event>
<event>
 7    1  0.2237500E-009  0.4778726E+02  0.7816164E-02  0.1312668E+00
        -11   -1    0    0    0    0  0.00000000000E+00  0.00000000000E+00  0.45593999997E+02  0.45594000000E+02  0.51100000000E-03 0. -1.
         11   -1    0    0    0    0 -0.00000000000E+00 -0.00000000000E+00 -0.45593999997E+02  0.45594000000E+02  0.51100000000E-03 0.  1.
    9900012    2    1    2    0    0 -0.11150549869E+02 -0.22324457129E+02 -0.35509263882E+02  0.47787263025E+02  0.19999963438E+02 0.  0.
         12    1    1    2    0    0  0.11150549869E+02  0.22324457129E+02  0.35509263882E+02  0.43400736975E+02  0.00000000000E+00 0. -1.
         11    1    3    3    0    0  0.11939894923E+01 -0.97310701855E+01 -0.18509725461E+02  0.20945865338E+02  0.51100000000E-03 0. -1.
        -11    1    3    3    0    0 -0.42838804909E+01 -0.14265945954E+01 -0.10862967988E+02  0.11763965232E+02  0.51100000000E-03 0.  1.
        -12    1    3    3    0    0 -0.80606588708E+01 -0.11166792348E+02 -0.61365704327E+01  0.15077432455E+02  0.00000000000E+00 0.  1.
</event>
<event>
 7    1  0.2237500E-009  0.4778726E+02  0.7816164E-02  0.1312668E+00
        -11   -1    0    0    0    0  0.00000000000E+00  0.00000000000E+00  0.45593999997E+02  0.45594000000E+02  0.51100000000E-03 0.  1.
         11   -1    0    0    0    0 -0.00000000000E+00 -0.00000000000E+00 -0.45593999997E+02  0.45594000000E+02  0.51100000000E-03 0. -1.
    9900012    2    1    2    0    0 -0.47783300591E+01  0.10055116173E+02  0.41948620127E+02  0.47787256573E+02  0.19999934020E+02 0.  0.
         12    1    1    2    0    0  0.47783300591E+01 -0.10055116173E+02 -0.41948620127E+02  0.43400743427E+02  0.00000000000E+00 0. -1.
         11    1    3    3    0    0  0.37743552611E+01  0.59835167633E+01  0.63292451363E+01  0.94925009745E+01  0.51100000000E-03 0. -1.
        -11    1    3    3    0    0 -0.12033874849E+01  0.37676801553E+01  0.33064516336E+01  0.51552088084E+01  0.51100000000E-03 0.  1.
        -12    1    3    3    0    0 -0.73492978353E+01  0.30391925482E+00  0.32312923357E+02  0.33139546790E+02  0.00000000000E+00 0.  1.
</event>
<event>
 7    1  0.2237500E-009  0.4778727E+02  0.7816164E-02  0.1312668E+00
        -11   -1    0    0    0    0  0.00000000000E+00  0.00000000000E+00  0.45593999997E+02  0.45594000000E+02  0.51100000000E-03 0.  1.
         11   -1    0    0    0    0 -0.00000000000E+00 -0.00000000000E+00 -0.45593999997E+02  0.45594000000E+02  0.51100000000E-03 0. -1.
    9900012    2    1    2    0    0  0.11003272046E+02  0.17407379951E+02  0.38203851890E+02  0.47787272221E+02  0.20000005366E+02 0.  0.
         12    1    1    2    0    0 -0.11003272046E+02 -0.17407379951E+02 -0.38203851890E+02  0.43400727779E+02  0.00000000000E+00 0. -1.
         11    1    3    3    0    0  0.18187081438E+01 -0.34867035123E+01  0.88959332858E+01  0.97263780505E+01  0.51100000000E-03 0. -1.
        -11    1    3    3    0    0 -0.27186226087E+00  0.91014344394E+01  0.97207037606E+01  0.13319237959E+02  0.51100000000E-03 0.  1.
        -12    1    3    3    0    0  0.94564261634E+01  0.11792649024E+02  0.19587214844E+02  0.24741656212E+02  0.00000000000E+00 0.  1.
</event>
<event>
 7    1  0.2237500E-009  0.4778728E+02  0.7816164E-02  0.1312668E+00
        -11   -1    0    0    0    0  0.00000000000E+00  0.00000000000E+00  0.45593999997E+02  0.45594000000E+02  0.51100000000E-03 0.  1.
         11   -1    0    0    0    0 -0.00000000000E+00 -0.00000000000E+00 -0.45593999997E+02  0.45594000000E+02  0.51100000000E-03 0. -1.
    9900012    2    1    2    0    0 -0.14547424707E+02  0.12231107992E+02  0.39017884500E+02  0.47787275591E+02  0.20000020731E+02 0.  0.
         12    1    1    2    0    0  0.14547424707E+02 -0.12231107992E+02 -0.39017884500E+02  0.43400724409E+02  0.00000000000E+00 0. -1.
         11    1    3    3    0    0  0.18621581518E+01 -0.22218619418E+01  0.19738619375E+01  0.35071975536E+01  0.51100000000E-03 0. -1.
        -11    1    3    3    0    0 -0.11350589696E+01  0.69820451645E+01  0.13459059649E+02  0.15204722964E+02  0.51100000000E-03 0.  1.
         12    1    3    3    0    0 -0.15274523889E+02  0.74709247691E+01  0.23584962914E+02  0.29075355073E+02  0.00000000000E+00 0. -1.
</event>
<event>
 7    1  0.2237500E-009  0.4778727E+02  0.7816164E-02  0.1312668E+00
        -11   -1    0    0    0    0  0.00000000000E+00  0.00000000000E+00  0.45593999997E+02  0.45594000000E+02  0.51100000000E-03 0.  1.
         11   -1    0    0    0    0 -0.00000000000E+00 -0.00000000000E+00 -0.45593999997E+02  0.45594000000E+02  0.51100000000E-03 0. -1.
    9900012    2    1    2    0    0  0.37475119461E+02  0.37469231920E+01  0.21568482489E+02  0.47787269028E+02  0.19999990805E+02 0.  0.
         12    1    1    2    0    0 -0.37475119461E+02 -0.37469231920E+01 -0.21568482489E+02  0.43400730972E+02  0.00000000000E+00 0. -1.
         11    1    3    3    0    0  0.89105580414E+01 -0.46685944168E+01  0.51474073620E+01  0.11299983241E+02  0.51100000000E-03 0. -1.
        -11    1    3    3    0    0  0.16202556138E+02  0.50388330434E+00  0.27741817966E+01  0.16446057543E+02  0.51100000000E-03 0.  1.
         12    1    3    3    0    0  0.12362005281E+02  0.79116343045E+01  0.13646893331E+02  0.20041228244E+02  0.00000000000E+00 0. -1.
</event>
<event>
 7    1  0.2237500E-009  0.4778722E+02  0.7816164E-02  0.1312668E+00
        -11   -1    0    0    0    0  0.00000000000E+00  0.00000000000E+00  0.45593999997E+02  0.45594000000E+02  0.51100000000E-03 0. -1.
         11   -1    0    0    0    0 -0.00000000000E+00 -0.00000000000E+00 -0.45593999997E+02  0.45594000000E+02  0.51100000000E-03 0.  1.
    9900012    2    1    2    0    0 -0.27516770301E+02 -0.16484885006E+02  0.29235310143E+02  0.47787223041E+02  0.19999781132E+02 0.  0.
         12    1    1    2    0    0  0.27516770301E+02  0.16484885006E+02 -0.29235310143E+02  0.43400776959E+02  0.00000000000E+00 0. -1.
         11    1    3    3    0    0 -0.67382974059E+01 -0.44214941574E+00  0.53152543540E+00  0.67736746000E+01  0.51100000000E-03 0. -1.
        -11    1    3    3    0    0 -0.68111294120E+01 -0.39342183414E-01  0.24399295841E+01  0.72350734834E+01  0.51100000000E-03 0.  1.
        -12    1    3    3    0    0 -0.13967343483E+02 -0.16003393407E+02  0.26263855124E+02  0.33778474958E+02  0.00000000000E+00 0.  1.
</event>
<event>
 7    1  0.2237500E-009  0.4778727E+02  0.7816164E-02  0.1312668E+00
        -11   -1    0    0    0    0  0.00000000000E+00  0.00000000000E+00  0.45593999997E+02  0.45594000000E+02  0.51100000000E-03 0.  1.
         11   -1    0    0    0    0 -0.00000000000E+00 -0.00000000000E+00 -0.45593999997E+02  0.45594000000E+02  0.51100000000E-03 0. -1.
    9900012    2    1    2    0    0 -0.22928370299E+02  0.13280191493E+02  0.34373676676E+02  0.47787270756E+02  0.19999998687E+02 0.  0.
         12    1    1    2    0    0  0.22928370299E+02 -0.13280191493E+02 -0.34373676676E+02  0.43400729244E+02  0.00000000000E+00 0. -1.
         11    1    3    3    0    0  0.10349866673E+01  0.50330008685E+01  0.79354029342E+01  0.94537249342E+01  0.51100000000E-03 0. -1.
        -11    1    3    3    0    0 -0.10928334313E+02  0.88112007529E+01  0.94894925935E+01  0.16944504109E+02  0.51100000000E-03 0.  1.
        -12    1    3    3    0    0 -0.13035022653E+02 -0.56401012809E+00  0.16948781148E+02  0.21389041713E+02  0.00000000000E+00 0.  1.
</event>
<event>
 7    1  0.2237500E-009  0.4778727E+02  0.7816164E-02  0.1312668E+00
        -11   -1    0    0    0    0  0.00000000000E+00  0.00000000000E+00  0.45593999997E+02  0.45594000000E+02  0.51100000000E-03 0. -1.
         11   -1    0    0    0    0 -0.00000000000E+00 -0.00000000000E+00 -0.45593999997E+02  0.45594000000E+02  0.51100000000E-03 0.  1.
    9900012    2    1    2    0    0  0.37501361921E+02  0.17953469954E+02  0.12447653658E+02  0.47787270618E+02  0.19999998057E+02 0.  0.
         12    1    1    2    0    0 -0.37501361921E+02 -0.17953469954E+02 -0.12447653658E+02  0.43400729382E+02  0.00000000000E+00 0. -1.
         11    1    3    3    0    0  0.45426593886E+01 -0.99068466544E+00  0.60613187590E+01  0.76391619819E+01  0.51100000000E-03 0. -1.
        -11    1    3    3    0    0  0.34257727769E+01  0.54403318713E+01 -0.17648791226E+01  0.66669279708E+01  0.51100000000E-03 0.  1.
         12    1    3    3    0    0  0.29532929755E+02  0.13503822748E+02  0.81512140220E+01  0.33481180665E+02  0.00000000000E+00 0. -1.
</event>
<event>
 7    1  0.2237500E-009  0.4778728E+02  0.7816164E-02  0.1312668E+00
        -11   -1    0    0    0    0  0.00000000000E+00  0.00000000000E+00  0.45593999997E+02  0.45594000000E+02  0.51100000000E-03 0. -1.
         11   -1    0    0    0    0 -0.00000000000E+00 -0.00000000000E+00 -0.45593999997E+02  0.45594000000E+02  0.51100000000E-03 0.  1.
    9900012    2    1    2    0    0  0.21221876762E+02 -0.37654390095E+02  0.39244420133E+01  0.47787281206E+02  0.20000046330E+02 0.  0.
         12    1    1    2    0    0 -0.21221876762E+02  0.37654390095E+02 -0.39244420133E+01  0.43400718794E+02  0.00000000000E+00 0. -1.
         11    1    3    3    0    0 -0.44956023558E+00 -0.10434703132E+02  0.20503909300E+01  0.10643741686E+02  0.51100000000E-03 0. -1.
        -11    1    3    3    0    0  0.12764325754E+02 -0.23522799634E+02  0.45233565792E+01  0.27142418270E+02  0.51100000000E-03 0.  1.
         12    1    3    3    0    0  0.89071112432E+01 -0.36968873293E+01 -0.26493054959E+01  0.10001121249E+02  0.00000000000E+00 0. -1.
</event>
<event>
 7    1  0.2237500E-009  0.4778727E+02  0.7816164E-02  0.1312668E+00
        -11   -1    0    0    0    0  0.00000000000E+00  0.00000000000E+00  0.45593999997E+02  0.45594000000E+02  0.51100000000E-03 0.  1.
         11   -1    0    0    0    0 -0.00000000000E+00 -0.00000000000E+00 -0.45593999997E+02  0.45594000000E+02  0.51100000000E-03 0. -1.
    9900012    2    1    2    0    0  0.42874216995E+02  0.27878741457E+01  0.61361691284E+01  0.47787270781E+02  0.19999998797E+02 0.  0.
         12    1    1    2    0    0 -0.42874216995E+02 -0.27878741457E+01 -0.61361691284E+01  0.43400729219E+02  0.00000000000E+00 0. -1.
         11    1    3    3    0    0  0.19413637935E+02  0.57811465618E+01 -0.30776037072E-01  0.20256158098E+02  0.51100000000E-03 0. -1.
        -11    1    3    3    0    0  0.11645214578E+02  0.28452340407E+01 -0.18132962880E+01  0.12124125660E+02  0.51100000000E-03 0.  1.
         12    1    3    3    0    0  0.11815364482E+02 -0.58385064567E+01  0.79802414534E+01  0.15406987023E+02  0.00000000000E+00 0. -1.
</event>
<event>
 7    1  0.2237500E-009  0.4778727E+02  0.7816164E-02  0.1312668E+00
        -11   -1    0    0    0    0  0.00000000000E+00  0.00000000000E+00  0.45593999997E+02  0.45594000000E+02  0.51100000000E-03 0.  1.
         11   -1    0    0    0    0 -0.00000000000E+00 -0.00000000000E+00 -0.45593999997E+02  0.45594000000E+02  0.51100000000E-03 0. -1.
    9900012    2    1    2    0    0 -0.34642163964E+02 -0.11544230894E+02  0.23457925804E+02  0.47787273347E+02  0.20000010496E+02 0.  0.
         12    1    1    2    0    0  0.34642163964E+02  0.11544230894E+02 -0.23457925804E+02  0.43400726653E+02  0.00000000000E+00 0. -1.
         11    1    3    3    0    0 -0.67915319681E+01 -0.38944061294E+01  0.10068687009E+02  0.12754205734E+02  0.51100000000E-03 0. -1.
        -11    1    3    3    0    0 -0.14829046834E+02 -0.40542545286E+01  0.14938221081E+02  0.21435672584E+02  0.51100000000E-03 0.  1.
         12    1    3    3    0    0 -0.13021585161E+02 -0.35955702363E+01 -0.15489822857E+01  0.13597395028E+02  0.00000000000E+00 0. -1.
</event>
<event>
 7    1  0.2237500E-009  0.4778728E+02  0.7816164E-02  0.1312668E+00
        -11   -1    0    0    0    0  0.00000000000E+00  0.00000000000E+00  0.45593999997E+02  0.45594000000E+02  0.51100000000E-03 0. -1.
         11   -1    0    0    0    0 -0.00000000000E+00 -0.00000000000E+00 -0.45593999997E+02  0.45594000000E+02  0.51100000000E-03 0.  1.
    9900012    2    1    2    0    0  0.34056616633E+02  0.24507244614E+02 -0.11097936408E+02  0.47787281485E+02  0.20000047604E+02 0.  0.
         12    1    1    2    0    0 -0.34056616633E+02 -0.24507244614E+02  0.11097936408E+02  0.43400718515E+02  0.00000000000E+00 0. -1.
         11    1    3    3    0    0  0.13013825927E+02  0.14290396461E+02 -0.97510915066E+00  0.19352672539E+02  0.51100000000E-03 0. -1.
        -11    1    3    3    0    0  0.18431528081E+02  0.11037383825E+02 -0.41726560598E+01  0.21885066323E+02  0.51100000000E-03 0.  1.
         12    1    3    3    0    0  0.26112626253E+01 -0.82053567303E+00 -0.59501711980E+01  0.65495426233E+01  0.00000000000E+00 0. -1.
</event>
<event>
 7    1  0.2237500E-009  0.4778727E+02  0.7816164E-02  0.1312668E+00
        -11   -1    0    0    0    0  0.00000000000E+00  0.00000000000E+00  0.45593999997E+02  0.45594000000E+02  0.51100000000E-03 0.  1.
         11   -1    0    0    0    0 -0.00000000000E+00 -0.00000000000E+00 -0.45593999997E+02  0.45594000000E+02  0.51100000000E-03 0. -1.
    9900012    2    1    2    0    0 -0.13408152284E+02  0.44100043044E+01  0.41041403296E+02  0.47787268783E+02  0.19999989691E+02 0.  0.
         12    1    1    2    0    0  0.13408152284E+02 -0.44100043044E+01 -0.41041403296E+02  0.43400731217E+02  0.00000000000E+00 0. -1.
         11    1    3    3    0    0 -0.22612426477E+01  0.10269456700E+01 -0.37711005980E-01  0.24837991268E+01  0.51100000000E-03 0. -1.
        -11    1    3    3    0    0  0.16396469593E+01  0.48988523923E+01  0.19519250284E+02  0.20191293392E+02  0.51100000000E-03 0.  1.
        -12    1    3    3    0    0 -0.12786556596E+02 -0.15157937579E+01  0.21559864018E+02  0.25112176265E+02  0.00000000000E+00 0.  1.
</event>
<event>
 7    1  0.2237500E-009  0.4778727E+02  0.7816164E-02  0.1312668E+00
        -11   -1    0    0    0    0  0.00000000000E+00  0.00000000000E+00  0.45593999997E+02  0.45594000000E+02  0.51100000000E-03 0.  1.
         11   -1    0    0    0    0 -0.00000000000E+00 -0.00000000000E+00 -0.45593999997E+02  0.45594000000E+02  0.51100000000E-03 0. -1.
    9900012    2    1    2    0    0  0.16837591427E+02  0.67985128615E+01  0.39419528865E+02  0.47787268231E+02  0.19999987171E+02 0.  0.
         12    1    1    2    0    0 -0.16837591427E+02 -0.67985128615E+01 -0.39419528865E+02  0.43400731769E+02  0.00000000000E+00 0. -1.
         11    1    3    3    0    0 -0.41775218717E+00  0.36844648540E+01  0.25836607103E+01  0.45194137980E+01  0.51100000000E-03 0. -1.
        -11    1    3    3    0    0  0.46876363625E+01 -0.49638891553E+01  0.17833509673E+02  0.19095763868E+02  0.51100000000E-03 0.  1.
        -12    1    3    3    0    0  0.12567707252E+02  0.80779371629E+01  0.19002358482E+02  0.24172090564E+02  0.00000000000E+00 0.  1.
</event>
<event>
 7    1  0.2237500E-009  0.4778727E+02  0.7816164E-02  0.1312668E+00
        -11   -1    0    0    0    0  0.00000000000E+00  0.00000000000E+00  0.45593999997E+02  0.45594000000E+02  0.51100000000E-03 0.  1.
         11   -1    0    0    0    0 -0.00000000000E+00 -0.00000000000E+00 -0.45593999997E+02  0.45594000000E+02  0.51100000000E-03 0. -1.
    9900012    2    1    2    0    0  0.86500314024E+01 -0.42461698176E+02 -0.24092196454E+01  0.47787271958E+02  0.20000004165E+02 0.  0.
         12    1    1    2    0    0 -0.86500314024E+01  0.42461698176E+02  0.24092196454E+01  0.43400728042E+02  0.00000000000E+00 0. -1.
         11    1    3    3    0    0  0.13018215638E+01 -0.12007184523E+02 -0.69371055409E+01  0.13928052739E+02  0.51100000000E-03 0. -1.
        -11    1    3    3    0    0  0.72104859891E+01 -0.16235731322E+02 -0.25985678742E+01  0.17953903058E+02  0.51100000000E-03 0.  1.
        -12    1    3    3    0    0  0.13772384956E+00 -0.14218782331E+02  0.71264537697E+01  0.15905316161E+02  0.00000000000E+00 0.  1.
</event>
<event>
 7    1  0.2237500E-009  0.4778727E+02  0.7816164E-02  0.1312668E+00
        -11   -1    0    0    0    0  0.00000000000E+00  0.00000000000E+00  0.45593999997E+02  0.45594000000E+02  0.51100000000E-03 0.  1.
         11   -1    0    0    0    0 -0.00000000000E+00 -0.00000000000E+00 -0.45593999997E+02  0.45594000000E+02  0.51100000000E-03 0. -1.
    9900012    2    1    2    0    0  0.41478673037E+01  0.35725020508E+02  0.24292822722E+02  0.47787272710E+02  0.20000007596E+02 0.  0.
         12    1    1    2    0    0 -0.41478673037E+01 -0.35725020508E+02 -0.24292822722E+02  0.43400727290E+02  0.00000000000E+00 0. -1.
         11    1    3    3    0    0  0.71172089534E+00 -0.16908653973E+00  0.21678730219E+01  0.22879708458E+01  0.51100000000E-03 0. -1.
        -11    1    3    3    0    0  0.53199292199E+01  0.35865573474E+01  0.78229142882E+01  0.10117461576E+02  0.51100000000E-03 0.  1.
         12    1    3    3    0    0 -0.18837828115E+01  0.32307549700E+02  0.14302035412E+02  0.35381840289E+02  0.00000000000E+00 0. -1.
</event>
<event>
 7    1  0.2237500E-009  0.4778727E+02  0.7816164E-02  0.1312668E+00
        -11   -1    0    0    0    0  0.00000000000E+00  0.00000000000E+00  0.45593999997E+02  0.45594000000E+02  0.51100000000E-03 0. -1.
         11   -1    0    0    0    0 -0.00000000000E+00 -0.00000000000E+00 -0.45593999997E+02  0.45594000000E+02  0.51100000000E-03 0.  1.
    9900012    2    1    2    0    0  0.78882692712E+01  0.18806884465E+02 -0.38310571467E+02  0.47787267501E+02  0.19999983843E+02 0.  0.
         12    1    1    2    0    0 -0.78882692712E+01 -0.18806884465E+02  0.38310571467E+02  0.43400732499E+02  0.00000000000E+00 0. -1.
         11    1    3    3    0    0 -0.27018259651E+01  0.11271796790E+01 -0.77348032980E+01  0.82702829392E+01  0.51100000000E-03 0.  1.
        -11    1    3    3    0    0  0.69257692008E+01 -0.17685289878E-02 -0.96366850739E+01  0.11867265128E+02  0.51100000000E-03 0. -1.
         12    1    3    3    0    0  0.36643260355E+01  0.17681473315E+02 -0.20939083095E+02  0.27649719433E+02  0.00000000000E+00 0. -1.
</event>
<event>
 7    1  0.2237500E-009  0.4778727E+02  0.7816164E-02  0.1312668E+00
        -11   -1    0    0    0    0  0.00000000000E+00  0.00000000000E+00  0.45593999997E+02  0.45594000000E+02  0.51100000000E-03 0. -1.
         11   -1    0    0    0    0 -0.00000000000E+00 -0.00000000000E+00 -0.45593999997E+02  0.45594000000E+02  0.51100000000E-03 0.  1.
    9900012    2    1    2    0    0  0.20226580232E+02  0.28870129628E+02 -0.25318459742E+02  0.47787270325E+02  0.19999996719E+02 0.  0.
         12    1    1    2    0    0 -0.20226580232E+02 -0.28870129628E+02  0.25318459742E+02  0.43400729675E+02  0.00000000000E+00 0. -1.
         11    1    3    3    0    0  0.11187107261E+02  0.13021037635E+02 -0.11167450944E+02  0.20479520278E+02  0.51100000000E-03 0. -1.
        -11    1    3    3    0    0  0.55399773981E+01  0.44087198338E+01 -0.13598628926E+02  0.15331368793E+02  0.51100000000E-03 0.  1.
         12    1    3    3    0    0  0.34994955734E+01  0.11440372159E+02 -0.55237987142E+00  0.11976381254E+02  0.00000000000E+00 0. -1.
</event>
<event>
 7    1  0.2237500E-009  0.4778727E+02  0.7816164E-02  0.1312668E+00
        -11   -1    0    0    0    0  0.00000000000E+00  0.00000000000E+00  0.45593999997E+02  0.45594000000E+02  0.51100000000E-03 0. -1.
         11   -1    0    0    0    0 -0.00000000000E+00 -0.00000000000E+00 -0.45593999997E+02  0.45594000000E+02  0.51100000000E-03 0.  1.
    9900012    2    1    2    0    0  0.57342221288E+01 -0.62342395699E+01 -0.42566139009E+02  0.47787271474E+02  0.20000001957E+02 0.  0.
         12    1    1    2    0    0 -0.57342221288E+01  0.62342395699E+01  0.42566139009E+02  0.43400728526E+02  0.00000000000E+00 0. -1.
         11    1    3    3    0    0 -0.30179551818E+01  0.27521092288E+01 -0.65934125237E+01  0.77559814115E+01  0.51100000000E-03 0. -1.
        -11    1    3    3    0    0 -0.27970236263E+00 -0.50129205930E+01 -0.23985260559E+02  0.24505108256E+02  0.51100000000E-03 0.  1.
         12    1    3    3    0    0  0.90318796733E+01 -0.39734282057E+01 -0.11987465927E+02  0.15526181806E+02  0.00000000000E+00 0. -1.
</event>
<event>
 7    1  0.2237500E-009  0.4778727E+02  0.7816164E-02  0.1312668E+00
        -11   -1    0    0    0    0  0.00000000000E+00  0.00000000000E+00  0.45593999997E+02  0.45594000000E+02  0.51100000000E-03 0.  1.
         11   -1    0    0    0    0 -0.00000000000E+00 -0.00000000000E+00 -0.45593999997E+02  0.45594000000E+02  0.51100000000E-03 0. -1.
    9900012    2    1    2    0    0  0.62722669398E+01 -0.16680419319E+02  0.39573299370E+02  0.47787265625E+02  0.19999975291E+02 0.  0.
         12    1    1    2    0    0 -0.62722669398E+01  0.16680419319E+02 -0.39573299370E+02  0.43400734375E+02  0.00000000000E+00 0. -1.
         11    1    3    3    0    0 -0.86480553761E+00 -0.55120148616E+01  0.28762947500E+01  0.62772022592E+01  0.51100000000E-03 0. -1.
        -11    1    3    3    0    0  0.46272435253E+01 -0.77157498157E+01  0.67170826929E+01  0.11227794887E+02  0.51100000000E-03 0.  1.
        -12    1    3    3    0    0  0.25098289521E+01 -0.34526546415E+01  0.29979921928E+02  0.30282268479E+02  0.00000000000E+00 0.  1.
</event>
<event>
 7    1  0.2237500E-009  0.4778731E+02  0.7816164E-02  0.1312668E+00
        -11   -1    0    0    0    0  0.00000000000E+00  0.00000000000E+00  0.45593999997E+02  0.45594000000E+02  0.51100000000E-03 0.  1.
         11   -1    0    0    0    0 -0.00000000000E+00 -0.00000000000E+00 -0.45593999997E+02  0.45594000000E+02  0.51100000000E-03 0. -1.
    9900012    2    1    2    0    0 -0.14627385145E+02  0.42233335207E+01  0.40642623774E+02  0.47787310957E+02  0.20000181975E+02 0.  0.
         12    1    1    2    0    0  0.14627385145E+02 -0.42233335207E+01 -0.40642623774E+02  0.43400689043E+02  0.00000000000E+00 0. -1.
         11    1    3    3    0    0 -0.25848359890E+00  0.33001330381E+01  0.19493218669E+01  0.38415553935E+01  0.51100000000E-03 0. -1.
        -11    1    3    3    0    0 -0.51219017921E+01  0.76787546961E+01  0.14664527225E+02  0.17327593908E+02  0.51100000000E-03 0.  1.
        -12    1    3    3    0    0 -0.92469997542E+01 -0.67555542135E+01  0.24028774682E+02  0.26618161655E+02  0.00000000000E+00 0.  1.
</event>
<event>
 7    1  0.2237500E-009  0.4778729E+02  0.7816164E-02  0.1312668E+00
        -11   -1    0    0    0    0  0.00000000000E+00  0.00000000000E+00  0.45593999997E+02  0.45594000000E+02  0.51100000000E-03 0. -1.
         11   -1    0    0    0    0 -0.00000000000E+00 -0.00000000000E+00 -0.45593999997E+02  0.45594000000E+02  0.51100000000E-03 0.  1.
    9900012    2    1    2    0    0  0.37351774645E+02 -0.21703843791E+02 -0.41724610577E+01  0.47787293373E+02  0.20000101805E+02 0.  0.
         12    1    1    2    0    0 -0.37351774645E+02  0.21703843791E+02  0.41724610577E+01  0.43400706627E+02  0.00000000000E+00 0. -1.
         11    1    3    3    0    0  0.11050950422E+02 -0.12715419734E+01 -0.24624968995E+01  0.11393165295E+02  0.51100000000E-03 0. -1.
        -11    1    3    3    0    0 -0.87182552290E+00 -0.22819661309E+00 -0.23608414680E+01  0.25269994331E+01  0.51100000000E-03 0.  1.
         12    1    3    3    0    0  0.27172649746E+02 -0.20204105205E+02  0.65087730976E+00  0.33867128645E+02  0.00000000000E+00 0. -1.
</event>
<event>
 7    1  0.2237500E-009  0.4778727E+02  0.7816164E-02  0.1312668E+00
        -11   -1    0    0    0    0  0.00000000000E+00  0.00000000000E+00  0.45593999997E+02  0.45594000000E+02  0.51100000000E-03 0. -1.
         11   -1    0    0    0    0 -0.00000000000E+00 -0.00000000000E+00 -0.45593999997E+02  0.45594000000E+02  0.51100000000E-03 0.  1.
    9900012    2    1    2    0    0 -0.78515103632E+01  0.41327507657E+02 -0.10677726115E+02  0.47787274901E+02  0.20000017584E+02 0.  0.
         12    1    1    2    0    0  0.78515103632E+01 -0.41327507657E+02  0.10677726115E+02  0.43400725099E+02  0.00000000000E+00 0. -1.
         11    1    3    3    0    0 -0.51725350941E+01  0.37926162021E+01 -0.57285233367E+01  0.85997114391E+01  0.51100000000E-03 0. -1.
        -11    1    3    3    0    0  0.54975686422E+00  0.15578304436E+01 -0.24823198110E+01  0.29817746739E+01  0.51100000000E-03 0.  1.
        -12    1    3    3    0    0 -0.32287321333E+01  0.35977061011E+02 -0.24668829671E+01  0.36205788788E+02  0.00000000000E+00 0.  1.
</event>
<event>
 7    1  0.2237500E-009  0.4778727E+02  0.7816164E-02  0.1312668E+00
        -11   -1    0    0    0    0  0.00000000000E+00  0.00000000000E+00  0.45593999997E+02  0.45594000000E+02  0.51100000000E-03 0.  1.
         11   -1    0    0    0    0 -0.00000000000E+00 -0.00000000000E+00 -0.45593999997E+02  0.45594000000E+02  0.51100000000E-03 0. -1.
    9900012    2    1    2    0    0  0.42201333484E+02  0.61840092218E+01  0.80267435337E+01  0.47787272706E+02  0.20000007575E+02 0.  0.
         12    1    1    2    0    0 -0.42201333484E+02 -0.61840092218E+01 -0.80267435337E+01  0.43400727294E+02  0.00000000000E+00 0. -1.
         11    1    3    3    0    0 -0.13904576641E+00 -0.40449486184E+00  0.67978191954E-01  0.43309480961E+00  0.51100000000E-03 0. -1.
        -11    1    3    3    0    0  0.19833445548E+02 -0.24226444453E+01 -0.39118795606E+01  0.20360195735E+02  0.51100000000E-03 0.  1.
         12    1    3    3    0    0  0.22506933702E+02  0.90111485289E+01  0.11870644902E+02  0.26993982161E+02  0.00000000000E+00 0. -1.
</event>
<event>
 7    1  0.2237500E-009  0.4778727E+02  0.7816164E-02  0.1312668E+00
        -11   -1    0    0    0    0  0.00000000000E+00  0.00000000000E+00  0.45593999997E+02  0.45594000000E+02  0.51100000000E-03 0.  1.
         11   -1    0    0    0    0 -0.00000000000E+00 -0.00000000000E+00 -0.45593999997E+02  0.45594000000E+02  0.51100000000E-03 0. -1.
    9900012    2    1    2    0    0 -0.10607234297E+02  0.22252153481E+02  0.35720464874E+02  0.47787269997E+02  0.19999995224E+02 0.  0.
         12    1    1    2    0    0  0.10607234297E+02 -0.22252153481E+02 -0.35720464874E+02  0.43400730003E+02  0.00000000000E+00 0. -1.
         11    1    3    3    0    0 -0.90152778226E+01  0.62806834662E+01  0.79566979394E+01  0.13565812227E+02  0.51100000000E-03 0. -1.
        -11    1    3    3    0    0 -0.29931276723E+01  0.81095383591E+00  0.11637232232E+02  0.12043323199E+02  0.51100000000E-03 0.  1.
         12    1    3    3    0    0  0.14011711983E+01  0.15160516179E+02  0.16126534703E+02  0.22178134571E+02  0.00000000000E+00 0. -1.
</event>
<event>
 7    1  0.2237500E-009  0.4778727E+02  0.7816164E-02  0.1312668E+00
        -11   -1    0    0    0    0  0.00000000000E+00  0.00000000000E+00  0.45593999997E+02  0.45594000000E+02  0.51100000000E-03 0. -1.
         11   -1    0    0    0    0 -0.00000000000E+00 -0.00000000000E+00 -0.45593999997E+02  0.45594000000E+02  0.51100000000E-03 0.  1.
    9900012    2    1    2    0    0 -0.52525619911E+00 -0.38560991013E+02 -0.19909727210E+02  0.47787272361E+02  0.20000006004E+02 0.  0.
         12    1    1    2    0    0  0.52525619911E+00  0.38560991013E+02  0.19909727210E+02  0.43400727639E+02  0.00000000000E+00 0. -1.
         11    1    3    3    0    0 -0.77298211716E+01 -0.15802102656E+02 -0.98980699591E+01  0.20184855037E+02  0.51100000000E-03 0. -1.
        -11    1    3    3    0    0 -0.27678092813E+00 -0.12530915456E+02 -0.22272245862E+01  0.12730317336E+02  0.51100000000E-03 0.  1.
        -12    1    3    3    0    0  0.74813459006E+01 -0.10227972901E+02 -0.77844326642E+01  0.14872099988E+02  0.00000000000E+00 0.  1.
</event>
<event>
 7    1  0.2237500E-009  0.4778727E+02  0.7816164E-02  0.1312668E+00
        -11   -1    0    0    0    0  0.00000000000E+00  0.00000000000E+00  0.45593999997E+02  0.45594000000E+02  0.51100000000E-03 0. -1.
         11   -1    0    0    0    0 -0.00000000000E+00 -0.00000000000E+00 -0.45593999997E+02  0.45594000000E+02  0.51100000000E-03 0.  1.
    9900012    2    1    2    0    0  0.20424993165E+02  0.24554422242E+02 -0.29385769209E+02  0.47787269253E+02  0.19999991831E+02 0.  0.
         12    1    1    2    0    0 -0.20424993165E+02 -0.24554422242E+02  0.29385769209E+02  0.43400730747E+02  0.00000000000E+00 0. -1.
         11    1    3    3    0    0 -0.30547223334E+01  0.18595883053E+01 -0.34681452213E+01  0.49817094191E+01  0.51100000000E-03 0. -1.
        -11    1    3    3    0    0  0.23741843019E+01  0.23191845652E+01 -0.74096987778E+01  0.81190519389E+01  0.51100000000E-03 0.  1.
         12    1    3    3    0    0  0.21105531196E+02  0.20375649371E+02 -0.18507925209E+02  0.34686507895E+02  0.00000000000E+00 0. -1.
</event>
<event>
 7    1  0.2237500E-009  0.4778727E+02  0.7816164E-02  0.1312668E+00
        -11   -1    0    0    0    0  0.00000000000E+00  0.00000000000E+00  0.45593999997E+02  0.45594000000E+02  0.51100000000E-03 0. -1.
         11   -1    0    0    0    0 -0.00000000000E+00 -0.00000000000E+00 -0.45593999997E+02  0.45594000000E+02  0.51100000000E-03 0.  1.
    9900012    2    1    2    0    0 -0.13315191363E+02  0.35682549264E+02 -0.20810685553E+02  0.47787271018E+02  0.19999999878E+02 0.  0.
         12    1    1    2    0    0  0.13315191363E+02 -0.35682549264E+02  0.20810685553E+02  0.43400728982E+02  0.00000000000E+00 0. -1.
         11    1    3    3    0    0 -0.21453556032E+01  0.13116259180E+02 -0.27944797384E+01  0.13581160584E+02  0.51100000000E-03 0. -1.
        -11    1    3    3    0    0 -0.60724213563E+01  0.21642750801E+02 -0.18346604929E+02  0.29015183543E+02  0.51100000000E-03 0.  1.
         12    1    3    3    0    0 -0.50974144036E+01  0.92353928305E+00  0.33039911434E+00  0.51909268907E+01  0.00000000000E+00 0. -1.
</event>
<event>
 7    1  0.2278164E-009  0.4778727E+02  0.7816164E-02  0.1312668E+00
        -11   -1    0    0    0    0  0.00000000000E+00  0.00000000000E+00  0.45593999997E+02  0.45594000000E+02  0.51100000000E-03 0. -1.
         11   -1    0    0    0    0 -0.00000000000E+00 -0.00000000000E+00 -0.45593999997E+02  0.45594000000E+02  0.51100000000E-03 0.  1.
    9900012    2    1    2    0    0  0.14371068816E+02 -0.34743810607E+02 -0.21678642866E+02  0.47787267853E+02  0.19999985448E+02 0.  0.
         12    1    1    2    0    0 -0.14371068816E+02  0.34743810607E+02  0.21678642866E+02  0.43400732147E+02  0.00000000000E+00 0. -1.
         11    1    3    3    0    0  0.20923700995E+01 -0.11721298895E+01 -0.65934787860E+01  0.70161145853E+01  0.51100000000E-03 0. -1.
        -11    1    3    3    0    0  0.30561690120E+01 -0.46054379102E+01  0.20264291158E+01  0.58869892642E+01  0.51100000000E-03 0.  1.
        -12    1    3    3    0    0  0.92225297047E+01 -0.28966242807E+02 -0.17111593196E+02  0.34884164003E+02  0.00000000000E+00 0.  1.
</event>
<event>
 7    1  0.2237500E-009  0.4778727E+02  0.7816164E-02  0.1312668E+00
        -11   -1    0    0    0    0  0.00000000000E+00  0.00000000000E+00  0.45593999997E+02  0.45594000000E+02  0.51100000000E-03 0.  1.
         11   -1    0    0    0    0 -0.00000000000E+00 -0.00000000000E+00 -0.45593999997E+02  0.45594000000E+02  0.51100000000E-03 0. -1.
    9900012    2    1    2    0    0  0.36079567176E+02 -0.23369653664E+02  0.59789258957E+01  0.47787269190E+02  0.19999991545E+02 0.  0.
         12    1    1    2    0    0 -0.36079567176E+02  0.23369653664E+02 -0.59789258957E+01  0.43400730810E+02  0.00000000000E+00 0. -1.
         11    1    3    3    0    0 -0.15859731602E+01  0.24543348582E-01  0.32956760083E+00  0.16200396000E+01  0.51100000000E-03 0. -1.
        -11    1    3    3    0    0  0.13614895036E+02 -0.27702679976E+01 -0.45817905510E+00  0.13901427263E+02  0.51100000000E-03 0.  1.
        -12    1    3    3    0    0  0.24050645299E+02 -0.20623929015E+02  0.61075373500E+01  0.32265802327E+02  0.00000000000E+00 0.  1.
</event>
<event>
 7    1  0.2237500E-009  0.4778727E+02  0.7816164E-02  0.1312668E+00
        -11   -1    0    0    0    0  0.00000000000E+00  0.00000000000E+00  0.45593999997E+02  0.45594000000E+02  0.51100000000E-03 0.  1.
         11   -1    0    0    0    0 -0.00000000000E+00 -0.00000000000E+00 -0.45593999997E+02  0.45594000000E+02  0.51100000000E-03 0. -1.
    9900012    2    1    2    0    0 -0.16951106991E+02 -0.25111968362E+01  0.39874519444E+02  0.47787269146E+02  0.19999991346E+02 0.  0.
         12    1    1    2    0    0  0.16951106991E+02  0.25111968362E+01 -0.39874519444E+02  0.43400730854E+02  0.00000000000E+00 0. -1.
         11    1    3    3    0    0  0.36672896800E+01 -0.18363443127E+01  0.10271808116E+02  0.11060344310E+02  0.51100000000E-03 0. -1.
        -11    1    3    3    0    0 -0.11711766053E+02 -0.21858724175E+01  0.21554154819E+02  0.24627730154E+02  0.51100000000E-03 0.  1.
        -12    1    3    3    0    0 -0.89066306176E+01  0.15110198939E+01  0.80485565087E+01  0.12099194682E+02  0.00000000000E+00 0.  1.
</event>
<event>
 7    1  0.2237500E-009  0.4778727E+02  0.7816164E-02  0.1312668E+00
        -11   -1    0    0    0    0  0.00000000000E+00  0.00000000000E+00  0.45593999997E+02  0.45594000000E+02  0.51100000000E-03 0. -1.
         11   -1    0    0    0    0 -0.00000000000E+00 -0.00000000000E+00 -0.45593999997E+02  0.45594000000E+02  0.51100000000E-03 0.  1.
    9900012    2    1    2    0    0  0.19546038169E+02  0.10324713157E+02 -0.37349377500E+02  0.47787270633E+02  0.19999998126E+02 0.  0.
         12    1    1    2    0    0 -0.19546038169E+02 -0.10324713157E+02  0.37349377500E+02  0.43400729367E+02  0.00000000000E+00 0. -1.
         11    1    3    3    0    0  0.10620583467E+02  0.16176609755E+01 -0.25265955476E+02  0.27455092908E+02  0.51100000000E-03 0. -1.
        -11    1    3    3    0    0  0.57315980197E+01  0.85997535248E+01 -0.13360214435E+02  0.16890894191E+02  0.51100000000E-03 0.  1.
         12    1    3    3    0    0  0.31938566820E+01  0.10729865699E+00  0.12767924105E+01  0.34412835347E+01  0.00000000000E+00 0. -1.
</event>
<event>
 7    1  0.2237500E-009  0.4778728E+02  0.7816164E-02  0.1312668E+00
        -11   -1    0    0    0    0  0.00000000000E+00  0.00000000000E+00  0.45593999997E+02  0.45594000000E+02  0.51100000000E-03 0. -1.
         11   -1    0    0    0    0 -0.00000000000E+00 -0.00000000000E+00 -0.45593999997E+02  0.45594000000E+02  0.51100000000E-03 0.  1.
    9900012    2    1    2    0    0  0.36866904399E+02  0.21604881915E+02 -0.75949518691E+01  0.47787275854E+02  0.20000021927E+02 0.  0.
         12    1    1    2    0    0 -0.36866904399E+02 -0.21604881915E+02  0.75949518691E+01  0.43400724146E+02  0.00000000000E+00 0. -1.
         11    1    3    3    0    0  0.23541421465E+01  0.38388962968E+01 -0.63017875692E+01  0.77454268347E+01  0.51100000000E-03 0. -1.
        -11    1    3    3    0    0  0.11580401663E+02  0.59968333177E+01 -0.50673685975E+01  0.13990923389E+02  0.51100000000E-03 0.  1.
         12    1    3    3    0    0  0.22932360590E+02  0.11769152301E+02  0.37742042975E+01  0.26050925630E+02  0.00000000000E+00 0. -1.
</event>
<event>
 7    1  0.2237500E-009  0.4778727E+02  0.7816164E-02  0.1312668E+00
        -11   -1    0    0    0    0  0.00000000000E+00  0.00000000000E+00  0.45593999997E+02  0.45594000000E+02  0.51100000000E-03 0.  1.
         11   -1    0    0    0    0 -0.00000000000E+00 -0.00000000000E+00 -0.45593999997E+02  0.45594000000E+02  0.51100000000E-03 0. -1.
    9900012    2    1    2    0    0  0.13067852418E+02 -0.37759754305E+02  0.16942712909E+02  0.47787270366E+02  0.19999996908E+02 0.  0.
         12    1    1    2    0    0 -0.13067852418E+02  0.37759754305E+02 -0.16942712909E+02  0.43400729634E+02  0.00000000000E+00 0. -1.
         11    1    3    3    0    0  0.84874619687E+01 -0.20816891312E+02  0.48463177074E+01  0.22997103516E+02  0.51100000000E-03 0. -1.
        -11    1    3    3    0    0  0.56943174978E+01 -0.17657158365E+02  0.75071285593E+01  0.20013931966E+02  0.51100000000E-03 0.  1.
         12    1    3    3    0    0 -0.11139270487E+01  0.71429537116E+00  0.45892666426E+01  0.47762348837E+01  0.00000000000E+00 0. -1.
</event>
<event>
 7    1  0.2237500E-009  0.4778728E+02  0.7816164E-02  0.1312668E+00
        -11   -1    0    0    0    0  0.00000000000E+00  0.00000000000E+00  0.45593999997E+02  0.45594000000E+02  0.51100000000E-03 0.  1.
         11   -1    0    0    0    0 -0.00000000000E+00 -0.00000000000E+00 -0.45593999997E+02  0.45594000000E+02  0.51100000000E-03 0. -1.
    9900012    2    1    2    0    0  0.29635810586E+02  0.19348102087E+02  0.25119549949E+02  0.47787284417E+02  0.20000060972E+02 0.  0.
         12    1    1    2    0    0 -0.29635810586E+02 -0.19348102087E+02 -0.25119549949E+02  0.43400715583E+02  0.00000000000E+00 0. -1.
         11    1    3    3    0    0  0.73682710312E+01 -0.76393444362E+00  0.42234333842E+01  0.85271568319E+01  0.51100000000E-03 0. -1.
        -11    1    3    3    0    0  0.24126450235E+02  0.16932255678E+02  0.19388076038E+02  0.35280084694E+02  0.51100000000E-03 0.  1.
         12    1    3    3    0    0 -0.18589106804E+01  0.31797808528E+01  0.15080405273E+01  0.39800428919E+01  0.00000000000E+00 0. -1.
</event>
<event>
 7    1  0.2237500E-009  0.4778727E+02  0.7816164E-02  0.1312668E+00
        -11   -1    0    0    0    0  0.00000000000E+00  0.00000000000E+00  0.45593999997E+02  0.45594000000E+02  0.51100000000E-03 0. -1.
         11   -1    0    0    0    0 -0.00000000000E+00 -0.00000000000E+00 -0.45593999997E+02  0.45594000000E+02  0.51100000000E-03 0.  1.
    9900012    2    1    2    0    0 -0.41413886455E+02  0.45016630370E+01 -0.12175715179E+02  0.47787274182E+02  0.20000014303E+02 0.  0.
         12    1    1    2    0    0  0.41413886455E+02 -0.45016630370E+01  0.12175715179E+02  0.43400725818E+02  0.00000000000E+00 0. -1.
         11    1    3    3    0    0 -0.39135911854E+02  0.59488562692E+01 -0.47744706187E+01  0.39872347028E+02  0.51100000000E-03 0. -1.
        -11    1    3    3    0    0 -0.55947313852E+00 -0.22257564525E+00 -0.92630306480E+00  0.11048021269E+01  0.51100000000E-03 0.  1.
         12    1    3    3    0    0 -0.17185014632E+01 -0.12246175870E+01 -0.64749414956E+01  0.68101250271E+01  0.00000000000E+00 0. -1.
</event>
<event>
 7    1  0.2237500E-009  0.4778727E+02  0.7816164E-02  0.1312668E+00
        -11   -1    0    0    0    0  0.00000000000E+00  0.00000000000E+00  0.45593999997E+02  0.45594000000E+02  0.51100000000E-03 0. -1.
         11   -1    0    0    0    0 -0.00000000000E+00 -0.00000000000E+00 -0.45593999997E+02  0.45594000000E+02  0.51100000000E-03 0.  1.
    9900012    2    1    2    0    0 -0.36403195988E+02 -0.23576609504E+02  0.16044821692E+01  0.47787267784E+02  0.19999985132E+02 0.  0.
         12    1    1    2    0    0  0.36403195988E+02  0.23576609504E+02 -0.16044821692E+01  0.43400732216E+02  0.00000000000E+00 0. -1.
         11    1    3    3    0    0 -0.83155006411E+00 -0.97207448500E+00 -0.19215879162E+01  0.23084420492E+01  0.51100000000E-03 0. -1.
        -11    1    3    3    0    0 -0.84865934207E+01 -0.14920538146E+02  0.20351700967E+01  0.17285446018E+02  0.51100000000E-03 0.  1.
         12    1    3    3    0    0 -0.27085052504E+02 -0.76839968737E+01  0.14908999887E+01  0.28193379717E+02  0.00000000000E+00 0. -1.
</event>
<event>
 7    1  0.2237500E-009  0.4778726E+02  0.7816164E-02  0.1312668E+00
        -11   -1    0    0    0    0  0.00000000000E+00  0.00000000000E+00  0.45593999997E+02  0.45594000000E+02  0.51100000000E-03 0.  1.
         11   -1    0    0    0    0 -0.00000000000E+00 -0.00000000000E+00 -0.45593999997E+02  0.45594000000E+02  0.51100000000E-03 0. -1.
    9900012    2    1    2    0    0 -0.23221885641E+02 -0.26398288370E+02  0.25445993432E+02  0.47787260567E+02  0.19999952230E+02 0.  0.
         12    1    1    2    0    0  0.23221885641E+02  0.26398288370E+02 -0.25445993432E+02  0.43400739433E+02  0.00000000000E+00 0. -1.
         11    1    3    3    0    0 -0.64587573028E+01 -0.92327984004E+01  0.65563667642E+01  0.13036336050E+02  0.51100000000E-03 0. -1.
        -11    1    3    3    0    0 -0.14409267551E+02 -0.30725569675E+01  0.78446642446E+01  0.16691505475E+02  0.51100000000E-03 0.  1.
         12    1    3    3    0    0 -0.23538607881E+01 -0.14092933002E+02  0.11044962423E+02  0.18059419042E+02  0.00000000000E+00 0. -1.
</event>
<event>
 7    1  0.2237500E-009  0.4778727E+02  0.7816164E-02  0.1312668E+00
        -11   -1    0    0    0    0  0.00000000000E+00  0.00000000000E+00  0.45593999997E+02  0.45594000000E+02  0.51100000000E-03 0.  1.
         11   -1    0    0    0    0 -0.00000000000E+00 -0.00000000000E+00 -0.45593999997E+02  0.45594000000E+02  0.51100000000E-03 0. -1.
    9900012    2    1    2    0    0  0.19399515294E+02  0.33646716127E+00  0.38822269519E+02  0.47787274034E+02  0.20000013631E+02 0.  0.
         12    1    1    2    0    0 -0.19399515294E+02 -0.33646716127E+00 -0.38822269519E+02  0.43400725966E+02  0.00000000000E+00 0. -1.
         11    1    3    3    0    0  0.95111977587E+01 -0.17324352616E+01  0.84690122767E+01  0.12852563322E+02  0.51100000000E-03 0. -1.
        -11    1    3    3    0    0 -0.11600805472E+01  0.25885377218E+01  0.23103075403E+00  0.28459954117E+01  0.51100000000E-03 0.  1.
        -12    1    3    3    0    0  0.11048398082E+02 -0.51963529892E+00  0.30122226488E+02  0.32088715300E+02  0.00000000000E+00 0.  1.
</event>
<event>
 7    1  0.2237500E-009  0.4778727E+02  0.7816164E-02  0.1312668E+00
        -11   -1    0    0    0    0  0.00000000000E+00  0.00000000000E+00  0.45593999997E+02  0.45594000000E+02  0.51100000000E-03 0. -1.
         11   -1    0    0    0    0 -0.00000000000E+00 -0.00000000000E+00 -0.45593999997E+02  0.45594000000E+02  0.51100000000E-03 0.  1.
    9900012    2    1    2    0    0  0.55188745447E+00  0.42900584772E+02  0.65466461291E+01  0.47787270409E+02  0.19999997101E+02 0.  0.
         12    1    1    2    0    0 -0.55188745447E+00 -0.42900584772E+02 -0.65466461291E+01  0.43400729591E+02  0.00000000000E+00 0. -1.
         11    1    3    3    0    0 -0.26555986180E+01  0.17950589047E+02  0.19789699230E+01  0.18253552349E+02  0.51100000000E-03 0. -1.
        -11    1    3    3    0    0 -0.28020311234E+00  0.22297711941E+02 -0.11513161411E+01  0.22329173758E+02  0.51100000000E-03 0.  1.
         12    1    3    3    0    0  0.34876891848E+01  0.26522837832E+01  0.57189923473E+01  0.72045443010E+01  0.00000000000E+00 0. -1.
</event>
<event>
 7    1  0.2237500E-009  0.4778727E+02  0.7816164E-02  0.1312668E+00
        -11   -1    0    0    0    0  0.00000000000E+00  0.00000000000E+00  0.45593999997E+02  0.45594000000E+02  0.51100000000E-03 0.  1.
         11   -1    0    0    0    0 -0.00000000000E+00 -0.00000000000E+00 -0.45593999997E+02  0.45594000000E+02  0.51100000000E-03 0. -1.
    9900012    2    1    2    0    0  0.18899582840E+02 -0.35000324492E+02 -0.17361051900E+02  0.47787273403E+02  0.20000010754E+02 0.  0.
         12    1    1    2    0    0 -0.18899582840E+02  0.35000324492E+02  0.17361051900E+02  0.43400726597E+02  0.00000000000E+00 0. -1.
         11    1    3    3    0    0  0.17987769660E+00 -0.21414231037E+01  0.14981102434E+01  0.26196151353E+01  0.51100000000E-03 0. -1.
        -11    1    3    3    0    0  0.18572637957E+02 -0.27996286858E+02 -0.99875843874E+01  0.35049776044E+02  0.51100000000E-03 0.  1.
         12    1    3    3    0    0  0.14706718639E+00 -0.48626145295E+01 -0.88715777561E+01  0.10117882224E+02  0.00000000000E+00 0. -1.
</event>
<event>
 7    1  0.2237500E-009  0.4778727E+02  0.7816164E-02  0.1312668E+00
        -11   -1    0    0    0    0  0.00000000000E+00  0.00000000000E+00  0.45593999997E+02  0.45594000000E+02  0.51100000000E-03 0.  1.
         11   -1    0    0    0    0 -0.00000000000E+00 -0.00000000000E+00 -0.45593999997E+02  0.45594000000E+02  0.51100000000E-03 0. -1.
    9900012    2    1    2    0    0 -0.23078681433E+02  0.16827850725E+02  0.32677532098E+02  0.47787271887E+02  0.20000003843E+02 0.  0.
         12    1    1    2    0    0  0.23078681433E+02 -0.16827850725E+02 -0.32677532098E+02  0.43400728113E+02  0.00000000000E+00 0. -1.
         11    1    3    3    0    0 -0.82526044724E+00  0.10577391503E+02  0.73147602143E+01  0.12886736711E+02  0.51100000000E-03 0. -1.
        -11    1    3    3    0    0 -0.11254618181E+01  0.66143741096E+00 -0.14186483025E+00  0.13131220978E+01  0.51100000000E-03 0.  1.
        -12    1    3    3    0    0 -0.21127959167E+02  0.55890218112E+01  0.25504636714E+02  0.33587413078E+02  0.00000000000E+00 0.  1.
</event>
<event>
 7    1  0.2237500E-009  0.4778727E+02  0.7816164E-02  0.1312668E+00
        -11   -1    0    0    0    0  0.00000000000E+00  0.00000000000E+00  0.45593999997E+02  0.45594000000E+02  0.51100000000E-03 0.  1.
         11   -1    0    0    0    0 -0.00000000000E+00 -0.00000000000E+00 -0.45593999997E+02  0.45594000000E+02  0.51100000000E-03 0. -1.
    9900012    2    1    2    0    0 -0.15491004524E+02 -0.19428935613E+02  0.35583266766E+02  0.47787266896E+02  0.19999981086E+02 0.  0.
         12    1    1    2    0    0  0.15491004524E+02  0.19428935613E+02 -0.35583266766E+02  0.43400733104E+02  0.00000000000E+00 0. -1.
         11    1    3    3    0    0 -0.48632299849E+01  0.13979284828E+01  0.58088396314E+01  0.77037541532E+01  0.51100000000E-03 0. -1.
        -11    1    3    3    0    0 -0.18245786551E+00  0.17597821187E+01  0.96755156272E+00  0.20165019875E+01  0.51100000000E-03 0.  1.
        -12    1    3    3    0    0 -0.10445316674E+02 -0.22586646215E+02  0.28806875572E+02  0.38067010755E+02  0.00000000000E+00 0.  1.
</event>
<event>
 7    1  0.2237500E-009  0.4778727E+02  0.7816164E-02  0.1312668E+00
        -11   -1    0    0    0    0  0.00000000000E+00  0.00000000000E+00  0.45593999997E+02  0.45594000000E+02  0.51100000000E-03 0. -1.
         11   -1    0    0    0    0 -0.00000000000E+00 -0.00000000000E+00 -0.45593999997E+02  0.45594000000E+02  0.51100000000E-03 0.  1.
    9900012    2    1    2    0    0 -0.24685780854E+02 -0.23194404437E+02  0.27134019305E+02  0.47787272159E+02  0.20000005080E+02 0.  0.
         12    1    1    2    0    0  0.24685780854E+02  0.23194404437E+02 -0.27134019305E+02  0.43400727841E+02  0.00000000000E+00 0. -1.
         11    1    3    3    0    0 -0.78487258920E+01 -0.11204223085E+02  0.18138123812E+02  0.22718464929E+02  0.51100000000E-03 0. -1.
        -11    1    3    3    0    0 -0.11058417258E+02 -0.12088494814E+02  0.10012228422E+02  0.19200651482E+02  0.51100000000E-03 0.  1.
         12    1    3    3    0    0 -0.57786377038E+01  0.98313461897E-01 -0.10163329292E+01  0.58681557470E+01  0.00000000000E+00 0. -1.
</event>
<event>
 7    1  0.2237500E-009  0.4778727E+02  0.7816164E-02  0.1312668E+00
        -11   -1    0    0    0    0  0.00000000000E+00  0.00000000000E+00  0.45593999997E+02  0.45594000000E+02  0.51100000000E-03 0. -1.
         11   -1    0    0    0    0 -0.00000000000E+00 -0.00000000000E+00 -0.45593999997E+02  0.45594000000E+02  0.51100000000E-03 0.  1.
    9900012    2    1    2    0    0  0.20222231366E+02  0.34862976501E+02  0.16101488437E+02  0.47787266114E+02  0.19999977522E+02 0.  0.
         12    1    1    2    0    0 -0.20222231366E+02 -0.34862976501E+02 -0.16101488437E+02  0.43400733886E+02  0.00000000000E+00 0. -1.
         11    1    3    3    0    0  0.40934078714E+01  0.13286125930E+02  0.97896631218E+01  0.17003371270E+02  0.51100000000E-03 0. -1.
        -11    1    3    3    0    0  0.87023012314E+01  0.20610610005E+02  0.29190050185E+01  0.22562089488E+02  0.51100000000E-03 0.  1.
        -12    1    3    3    0    0  0.74265222629E+01  0.96624056522E+00  0.33928202969E+01  0.82218053564E+01  0.00000000000E+00 0.  1.
</event>
<event>
 7    1  0.2237500E-009  0.4778722E+02  0.7816164E-02  0.1312668E+00
        -11   -1    0    0    0    0  0.00000000000E+00  0.00000000000E+00  0.45593999997E+02  0.45594000000E+02  0.51100000000E-03 0.  1.
         11   -1    0    0    0    0 -0.00000000000E+00 -0.00000000000E+00 -0.45593999997E+02  0.45594000000E+02  0.51100000000E-03 0. -1.
    9900012    2    1    2    0    0 -0.11763378804E+02  0.35680249200E+02  0.21729486317E+02  0.47787218446E+02  0.19999760182E+02 0.  0.
         12    1    1    2    0    0  0.11763378804E+02 -0.35680249200E+02 -0.21729486317E+02  0.43400781554E+02  0.00000000000E+00 0. -1.
         11    1    3    3    0    0  0.11248410656E+01  0.66014715798E+01  0.71651107575E+01  0.98073190460E+01  0.51100000000E-03 0.  1.
        -11    1    3    3    0    0  0.25424451572E+01  0.53706514546E+00  0.66561653910E+00  0.26824451506E+01  0.51100000000E-03 0. -1.
        -12    1    3    3    0    0 -0.15430665027E+02  0.28541712475E+02  0.13898759021E+02  0.35297454249E+02  0.00000000000E+00 0.  1.
</event>
<event>
 7    1  0.2237500E-009  0.4778726E+02  0.7816164E-02  0.1312668E+00
        -11   -1    0    0    0    0  0.00000000000E+00  0.00000000000E+00  0.45593999997E+02  0.45594000000E+02  0.51100000000E-03 0.  1.
         11   -1    0    0    0    0 -0.00000000000E+00 -0.00000000000E+00 -0.45593999997E+02  0.45594000000E+02  0.51100000000E-03 0. -1.
    9900012    2    1    2    0    0  0.15086139957E+02  0.22817928980E+02  0.33695318970E+02  0.47787262423E+02  0.19999960693E+02 0.  0.
         12    1    1    2    0    0 -0.15086139957E+02 -0.22817928980E+02 -0.33695318970E+02  0.43400737577E+02  0.00000000000E+00 0. -1.
         11    1    3    3    0    0  0.92154962971E+01  0.93531854049E+01  0.47522021396E+01  0.13963913300E+02  0.51100000000E-03 0. -1.
        -11    1    3    3    0    0 -0.18790762518E+01  0.30898042660E+00  0.15218319999E+01  0.24376975532E+01  0.51100000000E-03 0.  1.
        -12    1    3    3    0    0  0.77497199115E+01  0.13155763148E+02  0.27421284830E+02  0.31385651570E+02  0.00000000000E+00 0.  1.
</event>
<event>
 7    1  0.2237500E-009  0.4778727E+02  0.7816164E-02  0.1312668E+00
        -11   -1    0    0    0    0  0.00000000000E+00  0.00000000000E+00  0.45593999997E+02  0.45594000000E+02  0.51100000000E-03 0.  1.
         11   -1    0    0    0    0 -0.00000000000E+00 -0.00000000000E+00 -0.45593999997E+02  0.45594000000E+02  0.51100000000E-03 0. -1.
    9900012    2    1    2    0    0 -0.20933974082E+02 -0.85759803557E+01  0.37038417363E+02  0.47787273385E+02  0.20000010673E+02 0.  0.
         12    1    1    2    0    0  0.20933974082E+02  0.85759803557E+01 -0.37038417363E+02  0.43400726615E+02  0.00000000000E+00 0. -1.
         11    1    3    3    0    0  0.21489493744E+01 -0.25890126575E+01  0.51348619662E+01  0.61390371906E+01  0.51100000000E-03 0. -1.
        -11    1    3    3    0    0 -0.25587243421E+00  0.17980849653E+01  0.21991226470E+00  0.18294649246E+01  0.51100000000E-03 0.  1.
        -12    1    3    3    0    0 -0.22827051022E+02 -0.77850526634E+01  0.31683643132E+02  0.39818771270E+02  0.00000000000E+00 0.  1.
</event>
<event>
 7    1  0.2237500E-009  0.4778727E+02  0.7816164E-02  0.1312668E+00
        -11   -1    0    0    0    0  0.00000000000E+00  0.00000000000E+00  0.45593999997E+02  0.45594000000E+02  0.51100000000E-03 0.  1.
         11   -1    0    0    0    0 -0.00000000000E+00 -0.00000000000E+00 -0.45593999997E+02  0.45594000000E+02  0.51100000000E-03 0. -1.
    9900012    2    1    2    0    0 -0.61225365587E+01 -0.18853962823E+02  0.38609144409E+02  0.47787269591E+02  0.19999993373E+02 0.  0.
         12    1    1    2    0    0  0.61225365587E+01  0.18853962823E+02 -0.38609144409E+02  0.43400730409E+02  0.00000000000E+00 0. -1.
         11    1    3    3    0    0 -0.38789702511E+01  0.16742539163E+01  0.57196078368E+01  0.71107981586E+01  0.51100000000E-03 0. -1.
        -11    1    3    3    0    0 -0.64852602012E+01 -0.62485620835E+01  0.11379003924E+02  0.14511542252E+02  0.51100000000E-03 0.  1.
        -12    1    3    3    0    0  0.42416938936E+01 -0.14279654655E+02  0.21510532649E+02  0.26164929180E+02  0.00000000000E+00 0.  1.
</event>
<event>
 7    1  0.2237500E-009  0.4778727E+02  0.7816164E-02  0.1312668E+00
        -11   -1    0    0    0    0  0.00000000000E+00  0.00000000000E+00  0.45593999997E+02  0.45594000000E+02  0.51100000000E-03 0.  1.
         11   -1    0    0    0    0 -0.00000000000E+00 -0.00000000000E+00 -0.45593999997E+02  0.45594000000E+02  0.51100000000E-03 0. -1.
    9900012    2    1    2    0    0 -0.19884900017E+02 -0.87274589408E+01  0.37577190921E+02  0.47787273442E+02  0.20000010930E+02 0.  0.
         12    1    1    2    0    0  0.19884900017E+02  0.87274589408E+01 -0.37577190921E+02  0.43400726558E+02  0.00000000000E+00 0. -1.
         11    1    3    3    0    0 -0.81598789361E+01 -0.58607740502E+01  0.40484642619E+01  0.10831544666E+02  0.51100000000E-03 0. -1.
        -11    1    3    3    0    0 -0.21172841651E+01 -0.51491045110E+01  0.10143329081E+02  0.11570794899E+02  0.51100000000E-03 0.  1.
        -12    1    3    3    0    0 -0.96077369157E+01  0.22824196205E+01  0.23385397579E+02  0.25384933876E+02  0.00000000000E+00 0.  1.
</event>
<event>
 7    1  0.2237500E-009  0.4778726E+02  0.7816164E-02  0.1312668E+00
        -11   -1    0    0    0    0  0.00000000000E+00  0.00000000000E+00  0.45593999997E+02  0.45594000000E+02  0.51100000000E-03 0.  1.
         11   -1    0    0    0    0 -0.00000000000E+00 -0.00000000000E+00 -0.45593999997E+02  0.45594000000E+02  0.51100000000E-03 0. -1.
    9900012    2    1    2    0    0  0.12120373687E+02 -0.82725666151E+01  0.40844649500E+02  0.47787260266E+02  0.19999950857E+02 0.  0.
         12    1    1    2    0    0 -0.12120373687E+02  0.82725666151E+01 -0.40844649500E+02  0.43400739734E+02  0.00000000000E+00 0. -1.
         11    1    3    3    0    0 -0.21885019613E+01 -0.37391392499E+01  0.19031473817E+02  0.19518393865E+02  0.51100000000E-03 0. -1.
        -11    1    3    3    0    0  0.41286533566E+01  0.15047812368E+01  0.12369520951E+02  0.13126888204E+02  0.51100000000E-03 0.  1.
         12    1    3    3    0    0  0.10180222291E+02 -0.60382086020E+01  0.94436547317E+01  0.15141978197E+02  0.00000000000E+00 0. -1.
</event>
<event>
 7    1  0.2237500E-009  0.4778727E+02  0.7816164E-02  0.1312668E+00
        -11   -1    0    0    0    0  0.00000000000E+00  0.00000000000E+00  0.45593999997E+02  0.45594000000E+02  0.51100000000E-03 0.  1.
         11   -1    0    0    0    0 -0.00000000000E+00 -0.00000000000E+00 -0.45593999997E+02  0.45594000000E+02  0.51100000000E-03 0. -1.
    9900012    2    1    2    0    0 -0.26846617505E+02 -0.13423703381E+02  0.31347832255E+02  0.47787271077E+02  0.20000000149E+02 0.  0.
         12    1    1    2    0    0  0.26846617505E+02  0.13423703381E+02 -0.31347832255E+02  0.43400728923E+02  0.00000000000E+00 0. -1.
         11    1    3    3    0    0 -0.77152550564E+01 -0.38915269857E+01  0.24302566664E+01  0.89763740225E+01  0.51100000000E-03 0. -1.
        -11    1    3    3    0    0 -0.20883988731E+02 -0.59521867088E+01  0.25973933711E+02  0.33855793368E+02  0.51100000000E-03 0.  1.
         12    1    3    3    0    0  0.17526262817E+01 -0.35799896865E+01  0.29436418777E+01  0.49551036864E+01  0.00000000000E+00 0. -1.
</event>
<event>
 7    1  0.2237500E-009  0.4778727E+02  0.7816164E-02  0.1312668E+00
        -11   -1    0    0    0    0  0.00000000000E+00  0.00000000000E+00  0.45593999997E+02  0.45594000000E+02  0.51100000000E-03 0.  1.
         11   -1    0    0    0    0 -0.00000000000E+00 -0.00000000000E+00 -0.45593999997E+02  0.45594000000E+02  0.51100000000E-03 0. -1.
    9900012    2    1    2    0    0 -0.31060419040E+02  0.18687937293E+02  0.23867028823E+02  0.47787266181E+02  0.19999977824E+02 0.  0.
         12    1    1    2    0    0  0.31060419040E+02 -0.18687937293E+02 -0.23867028823E+02  0.43400733819E+02  0.00000000000E+00 0. -1.
         11    1    3    3    0    0 -0.16015736362E+02  0.71538926191E+01  0.12511813163E+02  0.21545938357E+02  0.51100000000E-03 0. -1.
        -11    1    3    3    0    0 -0.88444685873E+01  0.93805349241E+01  0.14118873221E+02  0.19119666350E+02  0.51100000000E-03 0.  1.
         12    1    3    3    0    0 -0.62002140913E+01  0.21535097494E+01 -0.27636575609E+01  0.71216614727E+01  0.00000000000E+00 0. -1.
</event>
<event>
 7    1  0.2237500E-009  0.4778727E+02  0.7816164E-02  0.1312668E+00
        -11   -1    0    0    0    0  0.00000000000E+00  0.00000000000E+00  0.45593999997E+02  0.45594000000E+02  0.51100000000E-03 0.  1.
         11   -1    0    0    0    0 -0.00000000000E+00 -0.00000000000E+00 -0.45593999997E+02  0.45594000000E+02  0.51100000000E-03 0. -1.
    9900012    2    1    2    0    0  0.70034366104E+01 -0.15984430033E+02  0.39737554782E+02  0.47787269731E+02  0.19999994009E+02 0.  0.
         12    1    1    2    0    0 -0.70034366104E+01  0.15984430033E+02 -0.39737554782E+02  0.43400730269E+02  0.00000000000E+00 0. -1.
         11    1    3    3    0    0 -0.23837180013E+01 -0.60518409332E+00  0.13538435207E+02  0.13759999543E+02  0.51100000000E-03 0. -1.
        -11    1    3    3    0    0  0.45551858468E+01 -0.40494136894E+01  0.18556176757E+02  0.19531491634E+02  0.51100000000E-03 0.  1.
         12    1    3    3    0    0  0.48319687649E+01 -0.11329832250E+02  0.76429428177E+01  0.14495778554E+02  0.00000000000E+00 0. -1.
</event>
<event>
 7    1  0.2237500E-009  0.4778727E+02  0.7816164E-02  0.1312668E+00
        -11   -1    0    0    0    0  0.00000000000E+00  0.00000000000E+00  0.45593999997E+02  0.45594000000E+02  0.51100000000E-03 0.  1.
         11   -1    0    0    0    0 -0.00000000000E+00 -0.00000000000E+00 -0.45593999997E+02  0.45594000000E+02  0.51100000000E-03 0. -1.
    9900012    2    1    2    0    0  0.62906659910E+01 -0.13579496664E+02  0.40738775895E+02  0.47787273397E+02  0.20000010728E+02 0.  0.
         12    1    1    2    0    0 -0.62906659910E+01  0.13579496664E+02 -0.40738775895E+02  0.43400726603E+02  0.00000000000E+00 0. -1.
         11    1    3    3    0    0  0.71282151401E+01 -0.85152642862E+01  0.21182525742E+02  0.23916951604E+02  0.51100000000E-03 0. -1.
        -11    1    3    3    0    0  0.33894658910E+01  0.28933431282E+01  0.45654979220E+01  0.63799439669E+01  0.51100000000E-03 0.  1.
        -12    1    3    3    0    0 -0.42270150401E+01 -0.79575755056E+01  0.14990752230E+02  0.17490377826E+02  0.00000000000E+00 0.  1.
</event>
<event>
 7    1  0.2237500E-009  0.4778727E+02  0.7816164E-02  0.1312668E+00
        -11   -1    0    0    0    0  0.00000000000E+00  0.00000000000E+00  0.45593999997E+02  0.45594000000E+02  0.51100000000E-03 0.  1.
         11   -1    0    0    0    0 -0.00000000000E+00 -0.00000000000E+00 -0.45593999997E+02  0.45594000000E+02  0.51100000000E-03 0. -1.
    9900012    2    1    2    0    0 -0.13378485467E+02 -0.20109929095E+02  0.36058703803E+02  0.47787271417E+02  0.20000001699E+02 0.  0.
         12    1    1    2    0    0  0.13378485467E+02  0.20109929095E+02 -0.36058703803E+02  0.43400728583E+02  0.00000000000E+00 0. -1.
         11    1    3    3    0    0 -0.27839227575E+01 -0.29972974093E+01  0.14512039504E+02  0.15077576347E+02  0.51100000000E-03 0. -1.
        -11    1    3    3    0    0 -0.49681520592E+01  0.19100022856E+00  0.99778343506E+01  0.11147923329E+02  0.51100000000E-03 0.  1.
         12    1    3    3    0    0 -0.56264106503E+01 -0.17303631914E+02  0.11568829949E+02  0.21561771741E+02  0.00000000000E+00 0. -1.
</event>
<event>
 7    1  0.2237500E-009  0.4778727E+02  0.7816164E-02  0.1312668E+00
        -11   -1    0    0    0    0  0.00000000000E+00  0.00000000000E+00  0.45593999997E+02  0.45594000000E+02  0.51100000000E-03 0.  1.
         11   -1    0    0    0    0 -0.00000000000E+00 -0.00000000000E+00 -0.45593999997E+02  0.45594000000E+02  0.51100000000E-03 0. -1.
    9900012    2    1    2    0    0  0.97848650964E+01 -0.45612557380E+01  0.42036584942E+02  0.47787272904E+02  0.20000008479E+02 0.  0.
         12    1    1    2    0    0 -0.97848650964E+01  0.45612557380E+01 -0.42036584942E+02  0.43400727096E+02  0.00000000000E+00 0. -1.
         11    1    3    3    0    0  0.38946731889E+01 -0.51628642343E+01  0.29134060154E+02  0.29843208736E+02  0.51100000000E-03 0. -1.
        -11    1    3    3    0    0  0.73199183485E+01  0.23094357641E+01  0.13594556638E+02  0.15611747776E+02  0.51100000000E-03 0.  1.
         12    1    3    3    0    0 -0.14297264409E+01 -0.17078272678E+01 -0.69203184964E+00  0.23323163922E+01  0.00000000000E+00 0. -1.
</event>
<event>
 7    1  0.2237500E-009  0.4778727E+02  0.7816164E-02  0.1312668E+00
        -11   -1    0    0    0    0  0.00000000000E+00  0.00000000000E+00  0.45593999997E+02  0.45594000000E+02  0.51100000000E-03 0. -1.
         11   -1    0    0    0    0 -0.00000000000E+00 -0.00000000000E+00 -0.45593999997E+02  0.45594000000E+02  0.51100000000E-03 0.  1.
    9900012    2    1    2    0    0 -0.40553347099E+02  0.14865040707E+02  0.42520380475E+01  0.47787271623E+02  0.20000002636E+02 0.  0.
         12    1    1    2    0    0  0.40553347099E+02 -0.14865040707E+02 -0.42520380475E+01  0.43400728377E+02  0.00000000000E+00 0. -1.
         11    1    3    3    0    0 -0.93013416206E+01  0.43410778679E+01  0.47173872271E-01  0.10264606112E+02  0.51100000000E-03 0. -1.
        -11    1    3    3    0    0 -0.28672516476E+02  0.12428714318E+02 -0.11607555482E+01  0.31271928216E+02  0.51100000000E-03 0.  1.
         12    1    3    3    0    0 -0.25794890026E+01 -0.19047514789E+01  0.53656197235E+01  0.62507372947E+01  0.00000000000E+00 0. -1.
</event>
<event>
 7    1  0.2237500E-009  0.4778728E+02  0.7816164E-02  0.1312668E+00
        -11   -1    0    0    0    0  0.00000000000E+00  0.00000000000E+00  0.45593999997E+02  0.45594000000E+02  0.51100000000E-03 0. -1.
         11   -1    0    0    0    0 -0.00000000000E+00 -0.00000000000E+00 -0.45593999997E+02  0.45594000000E+02  0.51100000000E-03 0.  1.
    9900012    2    1    2    0    0  0.37861444434E+02  0.12551457725E+02 -0.17105399760E+02  0.47787276888E+02  0.20000026645E+02 0.  0.
         12    1    1    2    0    0 -0.37861444434E+02 -0.12551457725E+02  0.17105399760E+02  0.43400723112E+02  0.00000000000E+00 0. -1.
         11    1    3    3    0    0 -0.18710073766E+00  0.25874888060E+01 -0.11079288997E+00  0.25966093916E+01  0.51100000000E-03 0. -1.
        -11    1    3    3    0    0  0.20115294972E+02  0.50708579827E+01 -0.16647756286E+02  0.26598618049E+02  0.51100000000E-03 0.  1.
         12    1    3    3    0    0  0.17933250200E+02  0.48931109361E+01 -0.34685058474E+00  0.18592049448E+02  0.00000000000E+00 0. -1.
</event>
<event>
 7    1  0.2237500E-009  0.4778731E+02  0.7816164E-02  0.1312668E+00
        -11   -1    0    0    0    0  0.00000000000E+00  0.00000000000E+00  0.45593999997E+02  0.45594000000E+02  0.51100000000E-03 0.  1.
         11   -1    0    0    0    0 -0.00000000000E+00 -0.00000000000E+00 -0.45593999997E+02  0.45594000000E+02  0.51100000000E-03 0. -1.
    9900012    2    1    2    0    0 -0.96409901785E+00  0.90465529624E+01  0.42436426616E+02  0.47787309782E+02  0.20000176621E+02 0.  0.
         12    1    1    2    0    0  0.96409901785E+00 -0.90465529624E+01 -0.42436426616E+02  0.43400690218E+02  0.00000000000E+00 0. -1.
         11    1    3    3    0    0  0.51816762764E+01  0.56754201577E+01  0.24244590231E+02  0.25433448817E+02  0.51100000000E-03 0. -1.
        -11    1    3    3    0    0 -0.35864470837E+01  0.48730430492E+01  0.18409605032E+02  0.19378408318E+02  0.51100000000E-03 0.  1.
         12    1    3    3    0    0 -0.25593282105E+01 -0.15019102445E+01 -0.21776864696E+00  0.29754526471E+01  0.00000000000E+00 0. -1.
</event>
<event>
 7    1 -0.4894759E-009  0.4778727E+02  0.7816164E-02  0.1312668E+00
        -11   -1    0    0    0    0  0.00000000000E+00  0.00000000000E+00  0.45593999997E+02  0.45594000000E+02  0.51100000000E-03 0.  1.
         11   -1    0    0    0    0 -0.00000000000E+00 -0.00000000000E+00 -0.45593999997E+02  0.45594000000E+02  0.51100000000E-03 0. -1.
    9900012    2    1    2    0    0  0.33480981421E+01 -0.88348529349E+00  0.43262371130E+02  0.47787273471E+02  0.20000011064E+02 0.  0.
         12    1    1    2    0    0 -0.33480981421E+01  0.88348529349E+00 -0.43262371130E+02  0.43400726529E+02  0.00000000000E+00 0. -1.
         11    1    3    3    0    0 -0.31602037237E+01 -0.83363906603E+00  0.15460882694E+00  0.32719636028E+01  0.51100000000E-03 0. -1.
        -11    1    3    3    0    0  0.20347905128E+01  0.40764893624E+01  0.12406221843E+02  0.13216371614E+02  0.51100000000E-03 0.  1.
         12    1    3    3    0    0  0.44735113531E+01 -0.41263355899E+01  0.30701540460E+02  0.31298938254E+02  0.00000000000E+00 0. -1.
</event>
<event>
 7    1  0.2237500E-009  0.4778727E+02  0.7816164E-02  0.1312668E+00
        -11   -1    0    0    0    0  0.00000000000E+00  0.00000000000E+00  0.45593999997E+02  0.45594000000E+02  0.51100000000E-03 0. -1.
         11   -1    0    0    0    0 -0.00000000000E+00 -0.00000000000E+00 -0.45593999997E+02  0.45594000000E+02  0.51100000000E-03 0.  1.
    9900012    2    1    2    0    0  0.34449638786E+02  0.26271298197E+02  0.25815414581E+01  0.47787273305E+02  0.20000010305E+02 0.  0.
         12    1    1    2    0    0 -0.34449638786E+02 -0.26271298197E+02 -0.25815414581E+01  0.43400726695E+02  0.00000000000E+00 0. -1.
         11    1    3    3    0    0  0.12524160689E+02  0.12851457438E+02 -0.58226490620E+01  0.18865783886E+02  0.51100000000E-03 0. -1.
        -11    1    3    3    0    0  0.18171436387E+02  0.12796433500E+02  0.31696468803E+01  0.22449865752E+02  0.51100000000E-03 0.  1.
        -12    1    3    3    0    0  0.37540417094E+01  0.62340725789E+00  0.52345436398E+01  0.64716236666E+01  0.00000000000E+00 0.  1.
</event>
<event>
 7    1  0.2237500E-009  0.4778724E+02  0.7816164E-02  0.1312668E+00
        -11   -1    0    0    0    0  0.00000000000E+00  0.00000000000E+00  0.45593999997E+02  0.45594000000E+02  0.51100000000E-03 0. -1.
         11   -1    0    0    0    0 -0.00000000000E+00 -0.00000000000E+00 -0.45593999997E+02  0.45594000000E+02  0.51100000000E-03 0.  1.
    9900012    2    1    2    0    0  0.66401289274E+01 -0.14389995551E+01 -0.42865646432E+02  0.47787243371E+02  0.19999873826E+02 0.  0.
         12    1    1    2    0    0 -0.66401289274E+01  0.14389995551E+01  0.42865646432E+02  0.43400756629E+02  0.00000000000E+00 0. -1.
         11    1    3    3    0    0 -0.16082925129E+01  0.12349888929E+01  0.95096543244E+00  0.22396736118E+01  0.51100000000E-03 0. -1.
        -11    1    3    3    0    0  0.93153597743E-01 -0.24033815161E+01 -0.26445255052E+01  0.35746937930E+01  0.51100000000E-03 0.  1.
        -12    1    3    3    0    0  0.81552678425E+01 -0.27060693189E+00 -0.41172086360E+02  0.41972875966E+02  0.00000000000E+00 0.  1.
</event>
<event>
 7    1  0.2237500E-009  0.4778726E+02  0.7816164E-02  0.1312668E+00
        -11   -1    0    0    0    0  0.00000000000E+00  0.00000000000E+00  0.45593999997E+02  0.45594000000E+02  0.51100000000E-03 0. -1.
         11   -1    0    0    0    0 -0.00000000000E+00 -0.00000000000E+00 -0.45593999997E+02  0.45594000000E+02  0.51100000000E-03 0.  1.
    9900012    2    1    2    0    0  0.11588755721E+02  0.25705878517E+02 -0.32992920507E+02  0.47787259763E+02  0.19999948565E+02 0.  0.
         12    1    1    2    0    0 -0.11588755721E+02 -0.25705878517E+02  0.32992920507E+02  0.43400740237E+02  0.00000000000E+00 0. -1.
         11    1    3    3    0    0  0.48952727840E+01  0.31724764448E+01 -0.12885338219E+02  0.14144265400E+02  0.51100000000E-03 0. -1.
        -11    1    3    3    0    0  0.92030045069E+01  0.13963310257E+02 -0.17791973615E+02  0.24417691346E+02  0.51100000000E-03 0.  1.
         12    1    3    3    0    0 -0.25095215698E+01  0.85700918158E+01 -0.23156086729E+01  0.92253030176E+01  0.00000000000E+00 0. -1.
</event>
<event>
 7    1  0.2237500E-009  0.4778727E+02  0.7816164E-02  0.1312668E+00
        -11   -1    0    0    0    0  0.00000000000E+00  0.00000000000E+00  0.45593999997E+02  0.45594000000E+02  0.51100000000E-03 0.  1.
         11   -1    0    0    0    0 -0.00000000000E+00 -0.00000000000E+00 -0.45593999997E+02  0.45594000000E+02  0.51100000000E-03 0. -1.
    9900012    2    1    2    0    0 -0.40168649550E+02 -0.10234114012E+02  0.12859459995E+02  0.47787271807E+02  0.20000003477E+02 0.  0.
         12    1    1    2    0    0  0.40168649550E+02  0.10234114012E+02 -0.12859459995E+02  0.43400728193E+02  0.00000000000E+00 0. -1.
         11    1    3    3    0    0 -0.16025423479E+02 -0.60455317977E+01  0.68520069787E+00  0.17141532973E+02  0.51100000000E-03 0.  1.
        -11    1    3    3    0    0 -0.17555531578E+02 -0.70735127738E+01  0.32822892092E+01  0.19209494909E+02  0.51100000000E-03 0. -1.
         12    1    3    3    0    0 -0.65876944928E+01  0.28849305593E+01  0.88919700879E+01  0.11436243925E+02  0.00000000000E+00 0. -1.
</event>
<event>
 7    1  0.2237500E-009  0.4778727E+02  0.7816164E-02  0.1312668E+00
        -11   -1    0    0    0    0  0.00000000000E+00  0.00000000000E+00  0.45593999997E+02  0.45594000000E+02  0.51100000000E-03 0.  1.
         11   -1    0    0    0    0 -0.00000000000E+00 -0.00000000000E+00 -0.45593999997E+02  0.45594000000E+02  0.51100000000E-03 0. -1.
    9900012    2    1    2    0    0  0.18675905582E+02  0.39081003821E+02 -0.27402868283E+01  0.47787268660E+02  0.19999989127E+02 0.  0.
         12    1    1    2    0    0 -0.18675905582E+02 -0.39081003821E+02  0.27402868283E+01  0.43400731340E+02  0.00000000000E+00 0. -1.
         11    1    3    3    0    0 -0.75159198665E+00  0.14597456811E+02 -0.33611968698E+01  0.14998275918E+02  0.51100000000E-03 0. -1.
        -11    1    3    3    0    0 -0.86365300528E+00  0.34376693530E+01  0.22729736397E+00  0.35517786314E+01  0.51100000000E-03 0.  1.
        -12    1    3    3    0    0  0.20291150574E+02  0.21045877657E+02  0.39361267755E+00  0.29237214110E+02  0.00000000000E+00 0.  1.
</event>
<event>
 7    1  0.2237500E-009  0.4778727E+02  0.7816164E-02  0.1312668E+00
        -11   -1    0    0    0    0  0.00000000000E+00  0.00000000000E+00  0.45593999997E+02  0.45594000000E+02  0.51100000000E-03 0.  1.
         11   -1    0    0    0    0 -0.00000000000E+00 -0.00000000000E+00 -0.45593999997E+02  0.45594000000E+02  0.51100000000E-03 0. -1.
    9900012    2    1    2    0    0  0.14913496889E+02  0.32194888106E+02  0.24993998683E+02  0.47787272128E+02  0.20000004940E+02 0.  0.
         12    1    1    2    0    0 -0.14913496889E+02 -0.32194888106E+02 -0.24993998683E+02  0.43400727872E+02  0.00000000000E+00 0. -1.
         11    1    3    3    0    0  0.87089614894E+01  0.90341754642E+01  0.38684176627E+01  0.13131145876E+02  0.51100000000E-03 0. -1.
        -11    1    3    3    0    0  0.26336270965E+01  0.48762166651E+00  0.74999057651E+01  0.79638152490E+01  0.51100000000E-03 0.  1.
         12    1    3    3    0    0  0.35709083030E+01  0.22673090976E+02  0.13625675256E+02  0.26692311003E+02  0.00000000000E+00 0. -1.
</event>
<event>
 7    1  0.2287286E-009  0.4778727E+02  0.7816164E-02  0.1312668E+00
        -11   -1    0    0    0    0  0.00000000000E+00  0.00000000000E+00  0.45593999997E+02  0.45594000000E+02  0.51100000000E-03 0. -1.
         11   -1    0    0    0    0 -0.00000000000E+00 -0.00000000000E+00 -0.45593999997E+02  0.45594000000E+02  0.51100000000E-03 0.  1.
    9900012    2    1    2    0    0 -0.25091795562E+01  0.43526046631E+00 -0.43325949261E+02  0.47787270592E+02  0.19999997939E+02 0.  0.
         12    1    1    2    0    0  0.25091795562E+01 -0.43526046631E+00  0.43325949261E+02  0.43400729408E+02  0.00000000000E+00 0. -1.
         11    1    3    3    0    0  0.21572552590E+01  0.25549013356E+01 -0.47229106503E+01  0.57868088234E+01  0.51100000000E-03 0. -1.
        -11    1    3    3    0    0 -0.45342976059E+01  0.15793683833E+01 -0.37937004470E+02  0.38239646542E+02  0.51100000000E-03 0.  1.
        -12    1    3    3    0    0 -0.13213720937E+00 -0.36990092526E+01 -0.66603414116E+00  0.37608152268E+01  0.00000000000E+00 0.  1.
</event>
<event>
 7    1  0.2237500E-009  0.4778727E+02  0.7816164E-02  0.1312668E+00
        -11   -1    0    0    0    0  0.00000000000E+00  0.00000000000E+00  0.45593999997E+02  0.45594000000E+02  0.51100000000E-03 0. -1.
         11   -1    0    0    0    0 -0.00000000000E+00 -0.00000000000E+00 -0.45593999997E+02  0.45594000000E+02  0.51100000000E-03 0.  1.
    9900012    2    1    2    0    0  0.86869186156E+01 -0.41242357312E+02 -0.10355128343E+02  0.47787271035E+02  0.19999999956E+02 0.  0.
         12    1    1    2    0    0 -0.86869186156E+01  0.41242357312E+02  0.10355128343E+02  0.43400728965E+02  0.00000000000E+00 0. -1.
         11    1    3    3    0    0  0.12341957577E+01 -0.69888767272E+01  0.31133085395E+01  0.77498598309E+01  0.51100000000E-03 0. -1.
        -11    1    3    3    0    0 -0.34152312487E+01 -0.11744926500E+02 -0.14944250545E+01  0.12322354055E+02  0.51100000000E-03 0.  1.
        -12    1    3    3    0    0  0.10867954107E+02 -0.22508554086E+02 -0.11974011828E+02  0.27715057148E+02  0.00000000000E+00 0.  1.
</event>
<event>
 7    1  0.2237500E-009  0.4778728E+02  0.7816164E-02  0.1312668E+00
        -11   -1    0    0    0    0  0.00000000000E+00  0.00000000000E+00  0.45593999997E+02  0.45594000000E+02  0.51100000000E-03 0.  1.
         11   -1    0    0    0    0 -0.00000000000E+00 -0.00000000000E+00 -0.45593999997E+02  0.45594000000E+02  0.51100000000E-03 0. -1.
    9900012    2    1    2    0    0  0.19771433892E+02  0.21392715637E+02  0.32172424601E+02  0.47787276675E+02  0.20000025670E+02 0.  0.
         12    1    1    2    0    0 -0.19771433892E+02 -0.21392715637E+02 -0.32172424601E+02  0.43400723325E+02  0.00000000000E+00 0. -1.
         11    1    3    3    0    0  0.96178223131E+01  0.68214831000E+01  0.14902991840E+02  0.19003533981E+02  0.51100000000E-03 0. -1.
        -11    1    3    3    0    0  0.13763362806E+02  0.93376357442E+01  0.11742056384E+02  0.20359211316E+02  0.51100000000E-03 0.  1.
         12    1    3    3    0    0 -0.36097512275E+01  0.52335967929E+01  0.55273763767E+01  0.84245313771E+01  0.00000000000E+00 0. -1.
</event>
<event>
 7    1  0.2237500E-009  0.4778727E+02  0.7816164E-02  0.1312668E+00
        -11   -1    0    0    0    0  0.00000000000E+00  0.00000000000E+00  0.45593999997E+02  0.45594000000E+02  0.51100000000E-03 0. -1.
         11   -1    0    0    0    0 -0.00000000000E+00 -0.00000000000E+00 -0.45593999997E+02  0.45594000000E+02  0.51100000000E-03 0.  1.
    9900012    2    1    2    0    0 -0.16076180572E+02 -0.36314998771E+02 -0.17504303784E+02  0.47787269955E+02  0.19999995031E+02 0.  0.
         12    1    1    2    0    0  0.16076180572E+02  0.36314998771E+02  0.17504303784E+02  0.43400730045E+02  0.00000000000E+00 0. -1.
         11    1    3    3    0    0 -0.51628472518E+01 -0.69393768578E+01  0.12089705702E+00  0.86501190327E+01  0.51100000000E-03 0. -1.
        -11    1    3    3    0    0 -0.12887020298E+02 -0.12581326218E+02 -0.98114183181E+01  0.20509241606E+02  0.51100000000E-03 0.  1.
        -12    1    3    3    0    0  0.19736869778E+01 -0.16794295695E+02 -0.78137825227E+01  0.18627909316E+02  0.00000000000E+00 0.  1.
</event>
<event>
 7    1  0.2237500E-009  0.4778730E+02  0.7816164E-02  0.1312668E+00
        -11   -1    0    0    0    0  0.00000000000E+00  0.00000000000E+00  0.45593999997E+02  0.45594000000E+02  0.51100000000E-03 0.  1.
         11   -1    0    0    0    0 -0.00000000000E+00 -0.00000000000E+00 -0.45593999997E+02  0.45594000000E+02  0.51100000000E-03 0. -1.
    9900012    2    1    2    0    0 -0.10956347854E+01  0.43353945415E+02  0.16899731732E+01  0.47787297149E+02  0.20000119021E+02 0.  0.
         12    1    1    2    0    0  0.10956347854E+01 -0.43353945415E+02 -0.16899731732E+01  0.43400702851E+02  0.00000000000E+00 0. -1.
         11    1    3    3    0    0  0.27514316881E+01  0.35615507896E+01 -0.47973569465E+01  0.65779673376E+01  0.51100000000E-03 0. -1.
        -11    1    3    3    0    0 -0.26046815314E+01  0.57531225625E+01 -0.83204574511E+00  0.63698575716E+01  0.51100000000E-03 0.  1.
        -12    1    3    3    0    0 -0.12423849420E+01  0.34039272063E+02  0.73193758648E+01  0.34839472240E+02  0.00000000000E+00 0.  1.
</event>
<event>
 7    1  0.2237500E-009  0.4778727E+02  0.7816164E-02  0.1312668E+00
        -11   -1    0    0    0    0  0.00000000000E+00  0.00000000000E+00  0.45593999997E+02  0.45594000000E+02  0.51100000000E-03 0. -1.
         11   -1    0    0    0    0 -0.00000000000E+00 -0.00000000000E+00 -0.45593999997E+02  0.45594000000E+02  0.51100000000E-03 0.  1.
    9900012    2    1    2    0    0  0.21145514534E+02  0.37868790013E+02 -0.15637794260E+01  0.47787269038E+02  0.19999990851E+02 0.  0.
         12    1    1    2    0    0 -0.21145514534E+02 -0.37868790013E+02  0.15637794260E+01  0.43400730962E+02  0.00000000000E+00 0. -1.
         11    1    3    3    0    0  0.83877556597E+00  0.41359305146E+01  0.41171286641E+01  0.58957793692E+01  0.51100000000E-03 0. -1.
        -11    1    3    3    0    0  0.24045639948E+01  0.13701796151E+02  0.17419231979E+01  0.14019823197E+02  0.51100000000E-03 0.  1.
         12    1    3    3    0    0  0.17902174973E+02  0.20031063347E+02 -0.74228312880E+01  0.27871666472E+02  0.00000000000E+00 0. -1.
</event>
<event>
 7    1  0.2237500E-009  0.4778727E+02  0.7816164E-02  0.1312668E+00
        -11   -1    0    0    0    0  0.00000000000E+00  0.00000000000E+00  0.45593999997E+02  0.45594000000E+02  0.51100000000E-03 0.  1.
         11   -1    0    0    0    0 -0.00000000000E+00 -0.00000000000E+00 -0.45593999997E+02  0.45594000000E+02  0.51100000000E-03 0. -1.
    9900012    2    1    2    0    0 -0.85552741224E+01  0.40789301925E+02  0.12110474626E+02  0.47787268871E+02  0.19999990092E+02 0.  0.
         12    1    1    2    0    0  0.85552741224E+01 -0.40789301925E+02 -0.12110474626E+02  0.43400731129E+02  0.00000000000E+00 0. -1.
         11    1    3    3    0    0 -0.60546936921E+01  0.19522105753E+02  0.83929099089E+01  0.22095539498E+02  0.51100000000E-03 0. -1.
        -11    1    3    3    0    0  0.25736827691E+01  0.19804038692E+02  0.41353171034E+01  0.20394230540E+02  0.51100000000E-03 0.  1.
         12    1    3    3    0    0 -0.50742631994E+01  0.14631574804E+01 -0.41775238640E+00  0.52974988330E+01  0.00000000000E+00 0. -1.
</event>
<event>
 7    1  0.2237500E-009  0.4778728E+02  0.7816164E-02  0.1312668E+00
        -11   -1    0    0    0    0  0.00000000000E+00  0.00000000000E+00  0.45593999997E+02  0.45594000000E+02  0.51100000000E-03 0.  1.
         11   -1    0    0    0    0 -0.00000000000E+00 -0.00000000000E+00 -0.45593999997E+02  0.45594000000E+02  0.51100000000E-03 0. -1.
    9900012    2    1    2    0    0 -0.36519188409E+02 -0.67929803837E+01  0.22446091841E+02  0.47787277155E+02  0.20000027858E+02 0.  0.
         12    1    1    2    0    0  0.36519188409E+02  0.67929803837E+01 -0.22446091841E+02  0.43400722845E+02  0.00000000000E+00 0. -1.
         11    1    3    3    0    0 -0.52161436399E+01 -0.66705669373E+01  0.21433555547E+01  0.87349064696E+01  0.51100000000E-03 0. -1.
        -11    1    3    3    0    0 -0.16501175207E+02 -0.19049099528E+01  0.42531577298E+01  0.17146626959E+02  0.51100000000E-03 0.  1.
         12    1    3    3    0    0 -0.14801869562E+02  0.17824965064E+01  0.16049578557E+02  0.21905743726E+02  0.00000000000E+00 0. -1.
</event>
<event>
 7    1  0.2237500E-009  0.4778727E+02  0.7816164E-02  0.1312668E+00
        -11   -1    0    0    0    0  0.00000000000E+00  0.00000000000E+00  0.45593999997E+02  0.45594000000E+02  0.51100000000E-03 0. -1.
         11   -1    0    0    0    0 -0.00000000000E+00 -0.00000000000E+00 -0.45593999997E+02  0.45594000000E+02  0.51100000000E-03 0.  1.
    9900012    2    1    2    0    0  0.43175657484E+02 -0.94431013896E+00  0.43120863767E+01  0.47787271783E+02  0.20000003367E+02 0.  0.
         12    1    1    2    0    0 -0.43175657484E+02  0.94431013896E+00 -0.43120863767E+01  0.43400728217E+02  0.00000000000E+00 0. -1.
         11    1    3    3    0    0  0.14853340694E+02  0.43312160197E+01  0.22568895603E+01  0.15635687153E+02  0.51100000000E-03 0. -1.
        -11    1    3    3    0    0  0.28872484894E+02 -0.49970196555E+01  0.44865907820E+01  0.29643213161E+02  0.51100000000E-03 0.  1.
        -12    1    3    3    0    0 -0.55016810331E+00 -0.27850650325E+00 -0.24313939657E+01  0.25083714698E+01  0.00000000000E+00 0.  1.
</event>
<event>
 7    1  0.2237500E-009  0.4778727E+02  0.7816164E-02  0.1312668E+00
        -11   -1    0    0    0    0  0.00000000000E+00  0.00000000000E+00  0.45593999997E+02  0.45594000000E+02  0.51100000000E-03 0. -1.
         11   -1    0    0    0    0 -0.00000000000E+00 -0.00000000000E+00 -0.45593999997E+02  0.45594000000E+02  0.51100000000E-03 0.  1.
    9900012    2    1    2    0    0  0.93748446819E+01 -0.41330113330E+01 -0.42174086221E+02  0.47787273692E+02  0.20000012069E+02 0.  0.
         12    1    1    2    0    0 -0.93748446819E+01  0.41330113330E+01  0.42174086221E+02  0.43400726308E+02  0.00000000000E+00 0. -1.
         11    1    3    3    0    0  0.83753177982E+01 -0.26089200403E+01 -0.32004812818E+02  0.33185244549E+02  0.51100000000E-03 0. -1.
        -11    1    3    3    0    0 -0.21312973738E+01 -0.14880748466E+01 -0.11048283825E+02  0.11349950263E+02  0.51100000000E-03 0.  1.
         12    1    3    3    0    0  0.31308242575E+01 -0.36016446110E-01  0.87901042150E+00  0.32520788792E+01  0.00000000000E+00 0. -1.
</event>
<event>
 7    1  0.2237500E-009  0.4778727E+02  0.7816164E-02  0.1312668E+00
        -11   -1    0    0    0    0  0.00000000000E+00  0.00000000000E+00  0.45593999997E+02  0.45594000000E+02  0.51100000000E-03 0. -1.
         11   -1    0    0    0    0 -0.00000000000E+00 -0.00000000000E+00 -0.45593999997E+02  0.45594000000E+02  0.51100000000E-03 0.  1.
    9900012    2    1    2    0    0 -0.14283544504E+02  0.40821043538E+02  0.36394756632E+01  0.47787273943E+02  0.20000013215E+02 0.  0.
         12    1    1    2    0    0  0.14283544504E+02 -0.40821043538E+02 -0.36394756632E+01  0.43400726057E+02  0.00000000000E+00 0. -1.
         11    1    3    3    0    0 -0.36129448200E+01  0.49364319317E+01 -0.23976852497E+00  0.61220274171E+01  0.51100000000E-03 0.  1.
        -11    1    3    3    0    0 -0.67139060969E+01  0.33463387989E+02  0.84417689370E+01  0.35158758991E+02  0.51100000000E-03 0. -1.
         12    1    3    3    0    0 -0.39566935876E+01  0.24212236181E+01 -0.45625247488E+01  0.65064875346E+01  0.00000000000E+00 0. -1.
</event>
<event>
 7    1  0.2237500E-009  0.4778727E+02  0.7816164E-02  0.1312668E+00
        -11   -1    0    0    0    0  0.00000000000E+00  0.00000000000E+00  0.45593999997E+02  0.45594000000E+02  0.51100000000E-03 0.  1.
         11   -1    0    0    0    0 -0.00000000000E+00 -0.00000000000E+00 -0.45593999997E+02  0.45594000000E+02  0.51100000000E-03 0. -1.
    9900012    2    1    2    0    0  0.16329688976E+02  0.39755360349E+02  0.60395073347E+01  0.47787273423E+02  0.20000010847E+02 0.  0.
         12    1    1    2    0    0 -0.16329688976E+02 -0.39755360349E+02 -0.60395073347E+01  0.43400726577E+02  0.00000000000E+00 0. -1.
         11    1    3    3    0    0  0.24531759411E+01  0.17229481935E+02 -0.41606374039E+01  0.17893686702E+02  0.51100000000E-03 0. -1.
        -11    1    3    3    0    0 -0.43560668994E+00  0.96293448370E+00  0.27744122233E+01  0.29688986938E+01  0.51100000000E-03 0.  1.
        -12    1    3    3    0    0  0.14312119725E+02  0.21562943931E+02  0.74257325153E+01  0.26924688027E+02  0.00000000000E+00 0.  1.
</event>
<event>
 7    1  0.2237500E-009  0.4778727E+02  0.7816164E-02  0.1312668E+00
        -11   -1    0    0    0    0  0.00000000000E+00  0.00000000000E+00  0.45593999997E+02  0.45594000000E+02  0.51100000000E-03 0. -1.
         11   -1    0    0    0    0 -0.00000000000E+00 -0.00000000000E+00 -0.45593999997E+02  0.45594000000E+02  0.51100000000E-03 0.  1.
    9900012    2    1    2    0    0  0.27349077491E+02 -0.14484457593E+02 -0.30427816144E+02  0.47787267902E+02  0.19999985673E+02 0.  0.
         12    1    1    2    0    0 -0.27349077491E+02  0.14484457593E+02  0.30427816144E+02  0.43400732098E+02  0.00000000000E+00 0. -1.
         11    1    3    3    0    0  0.14699906134E+02 -0.15702261585E+02 -0.13480833134E+02  0.25384663115E+02  0.51100000000E-03 0. -1.
        -11    1    3    3    0    0  0.84274956207E-01  0.35566612134E+00  0.66022815553E+00  0.75465365340E+00  0.51100000000E-03 0.  1.
        -12    1    3    3    0    0  0.12564896401E+02  0.86213787025E+00 -0.17607211165E+02  0.21647951134E+02  0.00000000000E+00 0.  1.
</event>
<event>
 7    1  0.2237500E-009  0.4778727E+02  0.7816164E-02  0.1312668E+00
        -11   -1    0    0    0    0  0.00000000000E+00  0.00000000000E+00  0.45593999997E+02  0.45594000000E+02  0.51100000000E-03 0.  1.
         11   -1    0    0    0    0 -0.00000000000E+00 -0.00000000000E+00 -0.45593999997E+02  0.45594000000E+02  0.51100000000E-03 0. -1.
    9900012    2    1    2    0    0  0.20692958051E+00 -0.21145047936E+02  0.37900754440E+02  0.47787273518E+02  0.20000011279E+02 0.  0.
         12    1    1    2    0    0 -0.20692958051E+00  0.21145047936E+02 -0.37900754440E+02  0.43400726482E+02  0.00000000000E+00 0. -1.
         11    1    3    3    0    0  0.21588058609E+01 -0.76136289915E+01  0.74145067419E+01  0.10844477841E+02  0.51100000000E-03 0. -1.
        -11    1    3    3    0    0  0.10827327328E+01 -0.15469311634E+02  0.29302153207E+02  0.33152497574E+02  0.51100000000E-03 0.  1.
         12    1    3    3    0    0 -0.30346090133E+01  0.19378926902E+01  0.11840944912E+01  0.37902981025E+01  0.00000000000E+00 0. -1.
</event>
<event>
 7    1  0.2237500E-009  0.4778727E+02  0.7816164E-02  0.1312668E+00
        -11   -1    0    0    0    0  0.00000000000E+00  0.00000000000E+00  0.45593999997E+02  0.45594000000E+02  0.51100000000E-03 0.  1.
         11   -1    0    0    0    0 -0.00000000000E+00 -0.00000000000E+00 -0.45593999997E+02  0.45594000000E+02  0.51100000000E-03 0. -1.
    9900012    2    1    2    0    0  0.32955431614E+02 -0.26035181438E+01  0.28120893491E+02  0.47787269241E+02  0.19999991779E+02 0.  0.
         12    1    1    2    0    0 -0.32955431614E+02  0.26035181438E+01 -0.28120893491E+02  0.43400730759E+02  0.00000000000E+00 0. -1.
         11    1    3    3    0    0  0.53933835429E+00 -0.64820744103E+00 -0.49448075826E+00  0.97753272499E+00  0.51100000000E-03 0. -1.
        -11    1    3    3    0    0  0.29011274544E+02 -0.96566726536E+00  0.31052665644E+02  0.42507112438E+02  0.51100000000E-03 0.  1.
        -12    1    3    3    0    0  0.34048187163E+01 -0.98964343741E+00 -0.24372913942E+01  0.43026240789E+01  0.00000000000E+00 0.  1.
</event>
<event>
 7    1  0.2237500E-009  0.4778727E+02  0.7816164E-02  0.1312668E+00
        -11   -1    0    0    0    0  0.00000000000E+00  0.00000000000E+00  0.45593999997E+02  0.45594000000E+02  0.51100000000E-03 0.  1.
         11   -1    0    0    0    0 -0.00000000000E+00 -0.00000000000E+00 -0.45593999997E+02  0.45594000000E+02  0.51100000000E-03 0. -1.
    9900012    2    1    2    0    0  0.21979000273E+02  0.14767616161E+02  0.34386978314E+02  0.47787271692E+02  0.20000002953E+02 0.  0.
         12    1    1    2    0    0 -0.21979000273E+02 -0.14767616161E+02 -0.34386978314E+02  0.43400728308E+02  0.00000000000E+00 0. -1.
         11    1    3    3    0    0  0.97206704898E+00 -0.16764617581E+01 -0.63753571562E+00  0.20400711810E+01  0.51100000000E-03 0. -1.
        -11    1    3    3    0    0  0.82186732866E+01  0.14136122866E+02  0.17799716494E+02  0.24170363419E+02  0.51100000000E-03 0.  1.
         12    1    3    3    0    0  0.12788259938E+02  0.23079550534E+01  0.17224797536E+02  0.21576837092E+02  0.00000000000E+00 0. -1.
</event>
<event>
 7    1  0.2237500E-009  0.4778728E+02  0.7816164E-02  0.1312668E+00
        -11   -1    0    0    0    0  0.00000000000E+00  0.00000000000E+00  0.45593999997E+02  0.45594000000E+02  0.51100000000E-03 0.  1.
         11   -1    0    0    0    0 -0.00000000000E+00 -0.00000000000E+00 -0.45593999997E+02  0.45594000000E+02  0.51100000000E-03 0. -1.
    9900012    2    1    2    0    0  0.38428411942E+02  0.13425456146E+02  0.15054467657E+02  0.47787277499E+02  0.20000029431E+02 0.  0.
         12    1    1    2    0    0 -0.38428411942E+02 -0.13425456146E+02 -0.15054467657E+02  0.43400722501E+02  0.00000000000E+00 0. -1.
         11    1    3    3    0    0  0.11806466956E+02  0.16262317051E+01 -0.67698454746E+00  0.11937152084E+02  0.51100000000E-03 0. -1.
        -11    1    3    3    0    0  0.17575951048E+02  0.30248749669E+00  0.82214873788E+01  0.19406143586E+02  0.51100000000E-03 0.  1.
         12    1    3    3    0    0  0.90459939387E+01  0.11496736944E+02  0.75099648260E+01  0.16443981829E+02  0.00000000000E+00 0. -1.
</event>
<event>
 7    1  0.2237500E-009  0.4778727E+02  0.7816164E-02  0.1312668E+00
        -11   -1    0    0    0    0  0.00000000000E+00  0.00000000000E+00  0.45593999997E+02  0.45594000000E+02  0.51100000000E-03 0.  1.
         11   -1    0    0    0    0 -0.00000000000E+00 -0.00000000000E+00 -0.45593999997E+02  0.45594000000E+02  0.51100000000E-03 0. -1.
    9900012    2    1    2    0    0  0.18861733005E+02 -0.30547574871E+02  0.24386550010E+02  0.47787272773E+02  0.20000007880E+02 0.  0.
         12    1    1    2    0    0 -0.18861733005E+02  0.30547574871E+02 -0.24386550010E+02  0.43400727227E+02  0.00000000000E+00 0. -1.
         11    1    3    3    0    0  0.86686392639E+00 -0.45328032138E+01  0.81347891745E+00  0.46860971237E+01  0.51100000000E-03 0. -1.
        -11    1    3    3    0    0  0.21036957104E+02 -0.24458029037E+02  0.23038329721E+02  0.39642318110E+02  0.51100000000E-03 0.  1.
         12    1    3    3    0    0 -0.30420880253E+01 -0.15567426201E+01  0.53474137171E+00  0.34588575388E+01  0.00000000000E+00 0. -1.
</event>
<event>
 7    1  0.2237500E-009  0.4778727E+02  0.7816164E-02  0.1312668E+00
        -11   -1    0    0    0    0  0.00000000000E+00  0.00000000000E+00  0.45593999997E+02  0.45594000000E+02  0.51100000000E-03 0. -1.
         11   -1    0    0    0    0 -0.00000000000E+00 -0.00000000000E+00 -0.45593999997E+02  0.45594000000E+02  0.51100000000E-03 0.  1.
    9900012    2    1    2    0    0 -0.67223996410E+01  0.26882154881E+02 -0.33403335277E+02  0.47787265955E+02  0.19999976796E+02 0.  0.
         12    1    1    2    0    0  0.67223996410E+01 -0.26882154881E+02  0.33403335277E+02  0.43400734045E+02  0.00000000000E+00 0. -1.
         11    1    3    3    0    0 -0.41037429787E+00  0.14628842359E+01 -0.18756434636E+00  0.15308879767E+01  0.51100000000E-03 0.  1.
        -11    1    3    3    0    0 -0.32243540357E+01  0.21728458910E+02 -0.34832155013E+02  0.41180109381E+02  0.51100000000E-03 0. -1.
         12    1    3    3    0    0 -0.30876713074E+01  0.36908117354E+01  0.16163840821E+01  0.50762685971E+01  0.00000000000E+00 0. -1.
</event>
<event>
 7    1  0.2237500E-009  0.4778732E+02  0.7816164E-02  0.1312668E+00
        -11   -1    0    0    0    0  0.00000000000E+00  0.00000000000E+00  0.45593999997E+02  0.45594000000E+02  0.51100000000E-03 0.  1.
         11   -1    0    0    0    0 -0.00000000000E+00 -0.00000000000E+00 -0.45593999997E+02  0.45594000000E+02  0.51100000000E-03 0. -1.
    9900012    2    1    2    0    0 -0.15755617908E+02 -0.28312087211E+02  0.28875687291E+02  0.47787319194E+02  0.20000219532E+02 0.  0.
         12    1    1    2    0    0  0.15755617908E+02  0.28312087211E+02 -0.28875687291E+02  0.43400680806E+02  0.00000000000E+00 0. -1.
         11    1    3    3    0    0  0.15389602302E+01 -0.42598134724E+00  0.15402859924E+01  0.22186346923E+01  0.51100000000E-03 0. -1.
        -11    1    3    3    0    0  0.54213343456E+00 -0.99250206462E+01  0.13366132456E+02  0.16656933709E+02  0.51100000000E-03 0.  1.
         12    1    3    3    0    0 -0.17836711573E+02 -0.17961085218E+02  0.13969268842E+02  0.28911750793E+02  0.00000000000E+00 0. -1.
</event>
<event>
 7    1  0.2237500E-009  0.4778727E+02  0.7816164E-02  0.1312668E+00
        -11   -1    0    0    0    0  0.00000000000E+00  0.00000000000E+00  0.45593999997E+02  0.45594000000E+02  0.51100000000E-03 0.  1.
         11   -1    0    0    0    0 -0.00000000000E+00 -0.00000000000E+00 -0.45593999997E+02  0.45594000000E+02  0.51100000000E-03 0. -1.
    9900012    2    1    2    0    0  0.21026452064E+02 -0.12441669360E+02  0.35870828913E+02  0.47787272013E+02  0.20000004418E+02 0.  0.
         12    1    1    2    0    0 -0.21026452064E+02  0.12441669360E+02 -0.35870828913E+02  0.43400727987E+02  0.00000000000E+00 0. -1.
         11    1    3    3    0    0  0.11904311388E+01 -0.50073325528E+01  0.19255163450E+00  0.51504933729E+01  0.51100000000E-03 0. -1.
        -11    1    3    3    0    0  0.79807876837E+00 -0.47245551838E+00  0.94142676087E+01  0.94598403161E+01  0.51100000000E-03 0.  1.
        -12    1    3    3    0    0  0.19037942157E+02 -0.69618812885E+01  0.26264009670E+02  0.33176938324E+02  0.00000000000E+00 0.  1.
</event>
<event>
 7    1  0.2237500E-009  0.4778727E+02  0.7816164E-02  0.1312668E+00
        -11   -1    0    0    0    0  0.00000000000E+00  0.00000000000E+00  0.45593999997E+02  0.45594000000E+02  0.51100000000E-03 0. -1.
         11   -1    0    0    0    0 -0.00000000000E+00 -0.00000000000E+00 -0.45593999997E+02  0.45594000000E+02  0.51100000000E-03 0.  1.
    9900012    2    1    2    0    0  0.35179722410E+01 -0.26355909584E+02 -0.34301797283E+02  0.47787269643E+02  0.19999993612E+02 0.  0.
         12    1    1    2    0    0 -0.35179722410E+01  0.26355909584E+02  0.34301797283E+02  0.43400730357E+02  0.00000000000E+00 0. -1.
         11    1    3    3    0    0  0.57078521735E+01 -0.13050860395E+02 -0.15292278087E+02  0.20898763189E+02  0.51100000000E-03 0.  1.
        -11    1    3    3    0    0  0.61313340276E+00 -0.53985703647E+01 -0.17552607707E+02  0.18374289976E+02  0.51100000000E-03 0. -1.
         12    1    3    3    0    0 -0.28030133352E+01 -0.79064788241E+01 -0.14569114890E+01  0.85142164783E+01  0.00000000000E+00 0. -1.
</event>
<event>
 7    1  0.2237500E-009  0.4778727E+02  0.7816164E-02  0.1312668E+00
        -11   -1    0    0    0    0  0.00000000000E+00  0.00000000000E+00  0.45593999997E+02  0.45594000000E+02  0.51100000000E-03 0.  1.
         11   -1    0    0    0    0 -0.00000000000E+00 -0.00000000000E+00 -0.45593999997E+02  0.45594000000E+02  0.51100000000E-03 0. -1.
    9900012    2    1    2    0    0  0.29806926122E+02 -0.18638495532E+02  0.25451461378E+02  0.47787271356E+02  0.20000001422E+02 0.  0.
         12    1    1    2    0    0 -0.29806926122E+02  0.18638495532E+02 -0.25451461378E+02  0.43400728644E+02  0.00000000000E+00 0. -1.
         11    1    3    3    0    0  0.21125830486E+01 -0.17896043138E+01  0.79469443835E+01  0.84154391467E+01  0.51100000000E-03 0. -1.
        -11    1    3    3    0    0  0.70638360935E+01 -0.12231212261E+02  0.68540444134E+01  0.15699626072E+02  0.51100000000E-03 0.  1.
         12    1    3    3    0    0  0.20630506980E+02 -0.46176789572E+01  0.10650472581E+02  0.23672206137E+02  0.00000000000E+00 0. -1.
</event>
<event>
 7    1  0.2237500E-009  0.4778727E+02  0.7816164E-02  0.1312668E+00
        -11   -1    0    0    0    0  0.00000000000E+00  0.00000000000E+00  0.45593999997E+02  0.45594000000E+02  0.51100000000E-03 0.  1.
         11   -1    0    0    0    0 -0.00000000000E+00 -0.00000000000E+00 -0.45593999997E+02  0.45594000000E+02  0.51100000000E-03 0. -1.
    9900012    2    1    2    0    0  0.31408179139E+02  0.28559682953E+02  0.90274024013E+01  0.47787271880E+02  0.20000003809E+02 0.  0.
         12    1    1    2    0    0 -0.31408179139E+02 -0.28559682953E+02 -0.90274024013E+01  0.43400728120E+02  0.00000000000E+00 0. -1.
         11    1    3    3    0    0  0.23832218478E+02  0.18072075770E+02  0.65226639090E+01  0.30612410963E+02  0.51100000000E-03 0. -1.
        -11    1    3    3    0    0  0.55035073352E+01  0.96580803149E+01  0.62959860689E+01  0.12775231865E+02  0.51100000000E-03 0.  1.
         12    1    3    3    0    0  0.20724533258E+01  0.82952686900E+00 -0.37912475766E+01  0.43996290526E+01  0.00000000000E+00 0. -1.
</event>
<event>
 7    1  0.2237500E-009  0.4778722E+02  0.7816164E-02  0.1312668E+00
        -11   -1    0    0    0    0  0.00000000000E+00  0.00000000000E+00  0.45593999997E+02  0.45594000000E+02  0.51100000000E-03 0. -1.
         11   -1    0    0    0    0 -0.00000000000E+00 -0.00000000000E+00 -0.45593999997E+02  0.45594000000E+02  0.51100000000E-03 0.  1.
    9900012    2    1    2    0    0 -0.24027001370E+02 -0.33143861432E+02 -0.14415796494E+02  0.47787221965E+02  0.19999776228E+02 0.  0.
         12    1    1    2    0    0  0.24027001370E+02  0.33143861432E+02  0.14415796494E+02  0.43400778035E+02  0.00000000000E+00 0. -1.
         11    1    3    3    0    0 -0.42849402937E+01  0.11018585788E+01  0.25140914362E+00  0.44314797153E+01  0.51100000000E-03 0. -1.
        -11    1    3    3    0    0 -0.16057560668E+01 -0.57877007666E+01 -0.60539886681E+01  0.85279957648E+01  0.51100000000E-03 0.  1.
         12    1    3    3    0    0 -0.18136305010E+02 -0.28458019244E+02 -0.86132169696E+01  0.34827746485E+02  0.00000000000E+00 0. -1.
</event>
<event>
 7    1  0.2237500E-009  0.4778727E+02  0.7816164E-02  0.1312668E+00
        -11   -1    0    0    0    0  0.00000000000E+00  0.00000000000E+00  0.45593999997E+02  0.45594000000E+02  0.51100000000E-03 0. -1.
         11   -1    0    0    0    0 -0.00000000000E+00 -0.00000000000E+00 -0.45593999997E+02  0.45594000000E+02  0.51100000000E-03 0.  1.
    9900012    2    1    2    0    0 -0.17793112453E+02  0.38605408337E+02 -0.87550394559E+01  0.47787272823E+02  0.20000008110E+02 0.  0.
         12    1    1    2    0    0  0.17793112453E+02 -0.38605408337E+02  0.87550394559E+01  0.43400727177E+02  0.00000000000E+00 0. -1.
         11    1    3    3    0    0 -0.27471737104E+01  0.89140888023E+01  0.34115373297E+01  0.99320959411E+01  0.51100000000E-03 0. -1.
        -11    1    3    3    0    0 -0.14472817688E+02  0.22162629630E+02 -0.40638958762E+01  0.26779840438E+02  0.51100000000E-03 0.  1.
         12    1    3    3    0    0 -0.57312105415E+00  0.75286899046E+01 -0.81026809093E+01  0.11075336444E+02  0.00000000000E+00 0. -1.
</event>
<event>
 7    1  0.2237500E-009  0.4778727E+02  0.7816164E-02  0.1312668E+00
        -11   -1    0    0    0    0  0.00000000000E+00  0.00000000000E+00  0.45593999997E+02  0.45594000000E+02  0.51100000000E-03 0.  1.
         11   -1    0    0    0    0 -0.00000000000E+00 -0.00000000000E+00 -0.45593999997E+02  0.45594000000E+02  0.51100000000E-03 0. -1.
    9900012    2    1    2    0    0  0.38555728716E+02  0.14534311062E+02  0.13632049204E+02  0.47787272121E+02  0.20000004911E+02 0.  0.
         12    1    1    2    0    0 -0.38555728716E+02 -0.14534311062E+02 -0.13632049204E+02  0.43400727879E+02  0.00000000000E+00 0. -1.
         11    1    3    3    0    0  0.26793902313E+01 -0.24604066835E+01  0.92253301948E-01  0.36388520158E+01  0.51100000000E-03 0. -1.
        -11    1    3    3    0    0  0.14224787038E+02  0.75081347348E+00  0.85834119187E+01  0.16630792151E+02  0.51100000000E-03 0.  1.
        -12    1    3    3    0    0  0.21651551447E+02  0.16243904272E+02  0.49563839835E+01  0.27517627954E+02  0.00000000000E+00 0.  1.
</event>
<event>
 7    1  0.2237500E-009  0.4778727E+02  0.7816164E-02  0.1312668E+00
        -11   -1    0    0    0    0  0.00000000000E+00  0.00000000000E+00  0.45593999997E+02  0.45594000000E+02  0.51100000000E-03 0.  1.
         11   -1    0    0    0    0 -0.00000000000E+00 -0.00000000000E+00 -0.45593999997E+02  0.45594000000E+02  0.51100000000E-03 0. -1.
    9900012    2    1    2    0    0  0.25292990562E+02 -0.36724522227E+01  0.35077075278E+02  0.47787268590E+02  0.19999988808E+02 0.  0.
         12    1    1    2    0    0 -0.25292990562E+02  0.36724522227E+01 -0.35077075278E+02  0.43400731410E+02  0.00000000000E+00 0. -1.
         11    1    3    3    0    0  0.55041704628E+01 -0.29310469738E+01  0.14675201610E+02  0.15945170786E+02  0.51100000000E-03 0. -1.
        -11    1    3    3    0    0  0.40525757518E+00 -0.42964934862E+01  0.15937086386E+01  0.46004344866E+01  0.51100000000E-03 0.  1.
        -12    1    3    3    0    0  0.19383562524E+02  0.35550882373E+01  0.18808165029E+02  0.27241663317E+02  0.00000000000E+00 0.  1.
</event>
<event>
 7    1  0.2237500E-009  0.4778726E+02  0.7816164E-02  0.1312668E+00
        -11   -1    0    0    0    0  0.00000000000E+00  0.00000000000E+00  0.45593999997E+02  0.45594000000E+02  0.51100000000E-03 0.  1.
         11   -1    0    0    0    0 -0.00000000000E+00 -0.00000000000E+00 -0.45593999997E+02  0.45594000000E+02  0.51100000000E-03 0. -1.
    9900012    2    1    2    0    0 -0.73387895789E+01  0.17310927729E+02  0.39116465807E+02  0.47787263271E+02  0.19999964560E+02 0.  0.
         12    1    1    2    0    0  0.73387895789E+01 -0.17310927729E+02 -0.39116465807E+02  0.43400736729E+02  0.00000000000E+00 0. -1.
         11    1    3    3    0    0  0.40350224014E+01  0.89487725249E+01  0.70531687394E+01  0.12087560755E+02  0.51100000000E-03 0. -1.
        -11    1    3    3    0    0 -0.12037548115E+01  0.43022932838E+01  0.12583197886E+02  0.13352738387E+02  0.51100000000E-03 0.  1.
         12    1    3    3    0    0 -0.10170057169E+02  0.40598619204E+01  0.19480099182E+02  0.22346964129E+02  0.00000000000E+00 0. -1.
</event>
<event>
 7    1  0.2237500E-009  0.4778727E+02  0.7816164E-02  0.1312668E+00
        -11   -1    0    0    0    0  0.00000000000E+00  0.00000000000E+00  0.45593999997E+02  0.45594000000E+02  0.51100000000E-03 0.  1.
         11   -1    0    0    0    0 -0.00000000000E+00 -0.00000000000E+00 -0.45593999997E+02  0.45594000000E+02  0.51100000000E-03 0. -1.
    9900012    2    1    2    0    0 -0.30192220350E+01  0.18476578885E+01  0.43256139572E+02  0.47787272448E+02  0.20000006400E+02 0.  0.
         12    1    1    2    0    0  0.30192220350E+01 -0.18476578885E+01 -0.43256139572E+02  0.43400727552E+02  0.00000000000E+00 0. -1.
         11    1    3    3    0    0  0.72632718742E+00 -0.25728996608E+00  0.13576571414E+02  0.13598420530E+02  0.51100000000E-03 0. -1.
        -11    1    3    3    0    0 -0.39338765206E+01 -0.44584750026E+01  0.25981052445E+02  0.26652738513E+02  0.51100000000E-03 0.  1.
         12    1    3    3    0    0  0.18832729818E+00  0.65634228572E+01  0.36985157135E+01  0.75361134052E+01  0.00000000000E+00 0. -1.
</event>
<event>
 7    1  0.2237500E-009  0.4778728E+02  0.7816164E-02  0.1312668E+00
        -11   -1    0    0    0    0  0.00000000000E+00  0.00000000000E+00  0.45593999997E+02  0.45594000000E+02  0.51100000000E-03 0.  1.
         11   -1    0    0    0    0 -0.00000000000E+00 -0.00000000000E+00 -0.45593999997E+02  0.45594000000E+02  0.51100000000E-03 0. -1.
    9900012    2    1    2    0    0 -0.74408555074E+01 -0.36246471004E+02  0.22681486606E+02  0.47787276209E+02  0.20000023547E+02 0.  0.
         12    1    1    2    0    0  0.74408555074E+01  0.36246471004E+02 -0.22681486606E+02  0.43400723791E+02  0.00000000000E+00 0. -1.
         11    1    3    3    0    0 -0.48429685273E+01 -0.89236921572E+01 -0.38396871510E+00  0.10160416237E+02  0.51100000000E-03 0. -1.
        -11    1    3    3    0    0 -0.65997014621E+01 -0.15602074105E+02  0.10226597243E+02  0.19787977846E+02  0.51100000000E-03 0.  1.
         12    1    3    3    0    0  0.40018144820E+01 -0.11720704742E+02  0.12838858077E+02  0.17838882126E+02  0.00000000000E+00 0. -1.
</event>
<event>
 7    1  0.2237500E-009  0.4778727E+02  0.7816164E-02  0.1312668E+00
        -11   -1    0    0    0    0  0.00000000000E+00  0.00000000000E+00  0.45593999997E+02  0.45594000000E+02  0.51100000000E-03 0. -1.
         11   -1    0    0    0    0 -0.00000000000E+00 -0.00000000000E+00 -0.45593999997E+02  0.45594000000E+02  0.51100000000E-03 0.  1.
    9900012    2    1    2    0    0  0.55200605152E+01 -0.39561068884E+02 -0.16972741079E+02  0.47787272137E+02  0.20000004981E+02 0.  0.
         12    1    1    2    0    0 -0.55200605152E+01  0.39561068884E+02  0.16972741079E+02  0.43400727863E+02  0.00000000000E+00 0. -1.
         11    1    3    3    0    0  0.48810427417E+01 -0.16718464449E+01 -0.58483728728E+00  0.51924641256E+01  0.51100000000E-03 0. -1.
        -11    1    3    3    0    0  0.53857073960E+01 -0.15819547294E+02 -0.61431520262E+01  0.17804556659E+02  0.51100000000E-03 0.  1.
         12    1    3    3    0    0 -0.47466896226E+01 -0.22069675145E+02 -0.10244751766E+02  0.24790251352E+02  0.00000000000E+00 0. -1.
</event>
<event>
 7    1  0.2237500E-009  0.4778728E+02  0.7816164E-02  0.1312668E+00
        -11   -1    0    0    0    0  0.00000000000E+00  0.00000000000E+00  0.45593999997E+02  0.45594000000E+02  0.51100000000E-03 0. -1.
         11   -1    0    0    0    0 -0.00000000000E+00 -0.00000000000E+00 -0.45593999997E+02  0.45594000000E+02  0.51100000000E-03 0.  1.
    9900012    2    1    2    0    0  0.12539060238E+02  0.41220392425E+02 -0.52224092830E+01  0.47787281779E+02  0.20000048944E+02 0.  0.
         12    1    1    2    0    0 -0.12539060238E+02 -0.41220392425E+02  0.52224092830E+01  0.43400718221E+02  0.00000000000E+00 0. -1.
         11    1    3    3    0    0  0.25904541578E+01  0.17092729635E+01  0.11436769507E+01  0.33075767619E+01  0.51100000000E-03 0. -1.
        -11    1    3    3    0    0  0.85842258258E+01  0.31218294239E+02 -0.11812905290E+02  0.34464700200E+02  0.51100000000E-03 0.  1.
        -12    1    3    3    0    0  0.13643802546E+01  0.82928252230E+01  0.54468190563E+01  0.10015004817E+02  0.00000000000E+00 0.  1.
</event>
<event>
 7    1  0.2237500E-009  0.4778727E+02  0.7816164E-02  0.1312668E+00
        -11   -1    0    0    0    0  0.00000000000E+00  0.00000000000E+00  0.45593999997E+02  0.45594000000E+02  0.51100000000E-03 0.  1.
         11   -1    0    0    0    0 -0.00000000000E+00 -0.00000000000E+00 -0.45593999997E+02  0.45594000000E+02  0.51100000000E-03 0. -1.
    9900012    2    1    2    0    0  0.21979123766E+02 -0.33914162928E+02  0.15823113503E+02  0.47787271325E+02  0.20000001277E+02 0.  0.
         12    1    1    2    0    0 -0.21979123766E+02  0.33914162928E+02 -0.15823113503E+02  0.43400728675E+02  0.00000000000E+00 0. -1.
         11    1    3    3    0    0  0.59738855090E+01 -0.16632057818E+02  0.12139577749E+02  0.21440195977E+02  0.51100000000E-03 0. -1.
        -11    1    3    3    0    0  0.80783751211E+01 -0.13280556595E+02  0.67583205473E+01  0.16950168876E+02  0.51100000000E-03 0.  1.
        -12    1    3    3    0    0  0.79268631357E+01 -0.40015485155E+01 -0.30747847941E+01  0.93969064710E+01  0.00000000000E+00 0.  1.
</event>
<event>
 7    1  0.2237500E-009  0.4778727E+02  0.7816164E-02  0.1312668E+00
        -11   -1    0    0    0    0  0.00000000000E+00  0.00000000000E+00  0.45593999997E+02  0.45594000000E+02  0.51100000000E-03 0.  1.
         11   -1    0    0    0    0 -0.00000000000E+00 -0.00000000000E+00 -0.45593999997E+02  0.45594000000E+02  0.51100000000E-03 0. -1.
    9900012    2    1    2    0    0  0.92888801378E+01  0.95217551280E+01  0.41311938081E+02  0.47787270249E+02  0.19999996373E+02 0.  0.
         12    1    1    2    0    0 -0.92888801378E+01 -0.95217551280E+01 -0.41311938081E+02  0.43400729751E+02  0.00000000000E+00 0. -1.
         11    1    3    3    0    0  0.57106873460E+01  0.49089911720E+01  0.26630390617E+02  0.27674678841E+02  0.51100000000E-03 0.  1.
        -11    1    3    3    0    0  0.80454500582E+01  0.12900300463E+01  0.93774350377E+01  0.12422951835E+02  0.51100000000E-03 0. -1.
        -12    1    3    3    0    0 -0.44672572664E+01  0.33227339097E+01  0.53041124262E+01  0.76896395720E+01  0.00000000000E+00 0.  1.
</event>
<event>
 7    1  0.2237500E-009  0.4778727E+02  0.7816164E-02  0.1312668E+00
        -11   -1    0    0    0    0  0.00000000000E+00  0.00000000000E+00  0.45593999997E+02  0.45594000000E+02  0.51100000000E-03 0.  1.
         11   -1    0    0    0    0 -0.00000000000E+00 -0.00000000000E+00 -0.45593999997E+02  0.45594000000E+02  0.51100000000E-03 0. -1.
    9900012    2    1    2    0    0  0.95714358807E+01  0.38947505842E+00  0.42330359416E+02  0.47787269546E+02  0.19999993168E+02 0.  0.
         12    1    1    2    0    0 -0.95714358807E+01 -0.38947505842E+00 -0.42330359416E+02  0.43400730454E+02  0.00000000000E+00 0. -1.
         11    1    3    3    0    0  0.20202350622E+01 -0.11063110218E+01 -0.37697109970E+00  0.23339625650E+01  0.51100000000E-03 0. -1.
        -11    1    3    3    0    0  0.64756469808E+01  0.50004391889E+01  0.11974839705E+02  0.14502937017E+02  0.51100000000E-03 0.  1.
        -12    1    3    3    0    0  0.10755538377E+01 -0.35046531088E+01  0.30732490811E+02  0.30950369964E+02  0.00000000000E+00 0.  1.
</event>
<event>
 7    1  0.2237500E-009  0.4778728E+02  0.7816164E-02  0.1312668E+00
        -11   -1    0    0    0    0  0.00000000000E+00  0.00000000000E+00  0.45593999997E+02  0.45594000000E+02  0.51100000000E-03 0.  1.
         11   -1    0    0    0    0 -0.00000000000E+00 -0.00000000000E+00 -0.45593999997E+02  0.45594000000E+02  0.51100000000E-03 0. -1.
    9900012    2    1    2    0    0  0.11683527608E+02  0.25461186704E+02  0.33148845596E+02  0.47787276387E+02  0.20000024361E+02 0.  0.
         12    1    1    2    0    0 -0.11683527608E+02 -0.25461186704E+02 -0.33148845596E+02  0.43400723613E+02  0.00000000000E+00 0. -1.
         11    1    3    3    0    0  0.14600340278E+01  0.26040299056E+01 -0.95408580759E+00  0.31341587550E+01  0.51100000000E-03 0. -1.
        -11    1    3    3    0    0  0.11093343732E+02  0.81869805604E+01  0.13093173242E+02  0.19013682222E+02  0.51100000000E-03 0.  1.
         12    1    3    3    0    0 -0.86985015153E+00  0.14670176238E+02  0.21009758162E+02  0.25639435410E+02  0.00000000000E+00 0. -1.
</event>
<event>
 7    1  0.2237500E-009  0.4778728E+02  0.7816164E-02  0.1312668E+00
        -11   -1    0    0    0    0  0.00000000000E+00  0.00000000000E+00  0.45593999997E+02  0.45594000000E+02  0.51100000000E-03 0.  1.
         11   -1    0    0    0    0 -0.00000000000E+00 -0.00000000000E+00 -0.45593999997E+02  0.45594000000E+02  0.51100000000E-03 0. -1.
    9900012    2    1    2    0    0  0.11423830215E+02 -0.17581928139E+02  0.37999931598E+02  0.47787275405E+02  0.20000019882E+02 0.  0.
         12    1    1    2    0    0 -0.11423830215E+02  0.17581928139E+02 -0.37999931598E+02  0.43400724595E+02  0.00000000000E+00 0. -1.
         11    1    3    3    0    0 -0.25975885782E+01  0.23880775889E+01  0.34819094712E+01  0.49572245076E+01  0.51100000000E-03 0. -1.
        -11    1    3    3    0    0  0.30236121443E+01 -0.93912802139E+01  0.16433209448E+02  0.19167387602E+02  0.51100000000E-03 0.  1.
         12    1    3    3    0    0  0.10997806649E+02 -0.10578725514E+02  0.18084812679E+02  0.23662663295E+02  0.00000000000E+00 0. -1.
</event>
<event>
 7    1  0.2237500E-009  0.4778726E+02  0.7816164E-02  0.1312668E+00
        -11   -1    0    0    0    0  0.00000000000E+00  0.00000000000E+00  0.45593999997E+02  0.45594000000E+02  0.51100000000E-03 0.  1.
         11   -1    0    0    0    0 -0.00000000000E+00 -0.00000000000E+00 -0.45593999997E+02  0.45594000000E+02  0.51100000000E-03 0. -1.
    9900012    2    1    2    0    0 -0.21356987790E+02 -0.18135768390E+02  0.33145089015E+02  0.47787263274E+02  0.19999964572E+02 0.  0.
         12    1    1    2    0    0  0.21356987790E+02  0.18135768390E+02 -0.33145089015E+02  0.43400736726E+02  0.00000000000E+00 0. -1.
         11    1    3    3    0    0 -0.37379640546E+01 -0.11485610001E+02  0.22668926291E+02  0.25686024056E+02  0.51100000000E-03 0. -1.
        -11    1    3    3    0    0 -0.25510252495E+01 -0.29498436672E+01  0.15162583408E+01  0.41842976832E+01  0.51100000000E-03 0.  1.
         12    1    3    3    0    0 -0.15067998486E+02 -0.37003147217E+01  0.89599043833E+01  0.17916941535E+02  0.00000000000E+00 0. -1.
</event>
<event>
 7    1  0.2237500E-009  0.4778727E+02  0.7816164E-02  0.1312668E+00
        -11   -1    0    0    0    0  0.00000000000E+00  0.00000000000E+00  0.45593999997E+02  0.45594000000E+02  0.51100000000E-03 0.  1.
         11   -1    0    0    0    0 -0.00000000000E+00 -0.00000000000E+00 -0.45593999997E+02  0.45594000000E+02  0.51100000000E-03 0. -1.
    9900012    2    1    2    0    0 -0.35282269782E+02 -0.12710111808E+02  0.21845772642E+02  0.47787270911E+02  0.19999999391E+02 0.  0.
         12    1    1    2    0    0  0.35282269782E+02  0.12710111808E+02 -0.21845772642E+02  0.43400729089E+02  0.00000000000E+00 0. -1.
         11    1    3    3    0    0 -0.44125296046E+01 -0.24371806605E+01  0.10714061374E+02  0.11840666302E+02  0.51100000000E-03 0. -1.
        -11    1    3    3    0    0 -0.67261180801E+01 -0.65708673100E+01  0.54515131412E+01  0.10869036637E+02  0.51100000000E-03 0.  1.
         12    1    3    3    0    0 -0.24143622097E+02 -0.37020638373E+01  0.56801981273E+01  0.25077567972E+02  0.00000000000E+00 0. -1.
</event>
<event>
 7    1  0.2237500E-009  0.4778727E+02  0.7816164E-02  0.1312668E+00
        -11   -1    0    0    0    0  0.00000000000E+00  0.00000000000E+00  0.45593999997E+02  0.45594000000E+02  0.51100000000E-03 0.  1.
         11   -1    0    0    0    0 -0.00000000000E+00 -0.00000000000E+00 -0.45593999997E+02  0.45594000000E+02  0.51100000000E-03 0. -1.
    9900012    2    1    2    0    0  0.40035678387E+02 -0.82756282603E+01  0.14569903023E+02  0.47787266814E+02  0.19999980710E+02 0.  0.
         12    1    1    2    0    0 -0.40035678387E+02  0.82756282603E+01 -0.14569903023E+02  0.43400733186E+02  0.00000000000E+00 0. -1.
         11    1    3    3    0    0  0.87135546548E+01 -0.77884628014E+01  0.29963115203E+01  0.12064993598E+02  0.51100000000E-03 0. -1.
        -11    1    3    3    0    0  0.20663007259E+02 -0.29387538283E+01  0.13155425012E+02  0.24671063021E+02  0.51100000000E-03 0.  1.
        -12    1    3    3    0    0  0.10659116473E+02  0.24515883695E+01 -0.15818335094E+01  0.11051210195E+02  0.00000000000E+00 0.  1.
</event>
<event>
 7    1  0.2237500E-009  0.4778727E+02  0.7816164E-02  0.1312668E+00
        -11   -1    0    0    0    0  0.00000000000E+00  0.00000000000E+00  0.45593999997E+02  0.45594000000E+02  0.51100000000E-03 0.  1.
         11   -1    0    0    0    0 -0.00000000000E+00 -0.00000000000E+00 -0.45593999997E+02  0.45594000000E+02  0.51100000000E-03 0. -1.
    9900012    2    1    2    0    0  0.28076258002E+02 -0.32509165972E+02  0.62049578924E+01  0.47787266849E+02  0.19999980870E+02 0.  0.
         12    1    1    2    0    0 -0.28076258002E+02  0.32509165972E+02 -0.62049578924E+01  0.43400733151E+02  0.00000000000E+00 0. -1.
         11    1    3    3    0    0  0.91341063769E+01 -0.19149607564E+02  0.61204318629E+00  0.21225314280E+02  0.51100000000E-03 0. -1.
        -11    1    3    3    0    0  0.13600223047E+01 -0.46734920514E+01  0.49478871202E+01  0.69406610520E+01  0.51100000000E-03 0.  1.
        -12    1    3    3    0    0  0.17582129321E+02 -0.86860663571E+01  0.64502758586E+00  0.19621291517E+02  0.00000000000E+00 0.  1.
</event>
<event>
 7    1  0.2237500E-009  0.4778726E+02  0.7816164E-02  0.1312668E+00
        -11   -1    0    0    0    0  0.00000000000E+00  0.00000000000E+00  0.45593999997E+02  0.45594000000E+02  0.51100000000E-03 0.  1.
         11   -1    0    0    0    0 -0.00000000000E+00 -0.00000000000E+00 -0.45593999997E+02  0.45594000000E+02  0.51100000000E-03 0. -1.
    9900012    2    1    2    0    0 -0.16957608639E+02  0.36469570607E+02  0.16310543800E+02  0.47787263715E+02  0.19999966583E+02 0.  0.
         12    1    1    2    0    0  0.16957608639E+02 -0.36469570607E+02 -0.16310543800E+02  0.43400736285E+02  0.00000000000E+00 0. -1.
         11    1    3    3    0    0 -0.29682021013E+00  0.92535423780E-01  0.18747457960E+01  0.19003518365E+01  0.51100000000E-03 0. -1.
        -11    1    3    3    0    0 -0.20108686764E+02  0.32075244068E+02  0.11133673593E+02  0.39460603813E+02  0.51100000000E-03 0.  1.
        -12    1    3    3    0    0  0.34478983344E+01  0.43017911151E+01  0.33021244113E+01  0.64263080653E+01  0.00000000000E+00 0.  1.
</event>
<event>
 7    1  0.2237500E-009  0.4778727E+02  0.7816164E-02  0.1312668E+00
        -11   -1    0    0    0    0  0.00000000000E+00  0.00000000000E+00  0.45593999997E+02  0.45594000000E+02  0.51100000000E-03 0. -1.
         11   -1    0    0    0    0 -0.00000000000E+00 -0.00000000000E+00 -0.45593999997E+02  0.45594000000E+02  0.51100000000E-03 0.  1.
    9900012    2    1    2    0    0  0.24643110000E+02 -0.25148257683E+01 -0.35637287911E+02  0.47787268339E+02  0.19999987663E+02 0.  0.
         12    1    1    2    0    0 -0.24643110000E+02  0.25148257683E+01  0.35637287911E+02  0.43400731661E+02  0.00000000000E+00 0. -1.
         11    1    3    3    0    0  0.10819597911E+02  0.51432931431E-01 -0.58456673470E+01  0.12297892961E+02  0.51100000000E-03 0. -1.
        -11    1    3    3    0    0  0.37874676167E+01  0.30061787564E+01 -0.19438805293E+02  0.20031204985E+02  0.51100000000E-03 0.  1.
         12    1    3    3    0    0  0.10036044472E+02 -0.55724374561E+01 -0.10352815271E+02  0.15458170392E+02  0.00000000000E+00 0. -1.
</event>
<event>
 7    1  0.2237500E-009  0.4778727E+02  0.7816164E-02  0.1312668E+00
        -11   -1    0    0    0    0  0.00000000000E+00  0.00000000000E+00  0.45593999997E+02  0.45594000000E+02  0.51100000000E-03 0.  1.
         11   -1    0    0    0    0 -0.00000000000E+00 -0.00000000000E+00 -0.45593999997E+02  0.45594000000E+02  0.51100000000E-03 0. -1.
    9900012    2    1    2    0    0 -0.25278157632E+02  0.31230511971E+02  0.16410161939E+02  0.47787267908E+02  0.19999985701E+02 0.  0.
         12    1    1    2    0    0  0.25278157632E+02 -0.31230511971E+02 -0.16410161939E+02  0.43400732092E+02  0.00000000000E+00 0. -1.
         11    1    3    3    0    0 -0.52269518972E+01  0.11662132476E+02  0.92706158090E+00  0.12813500827E+02  0.51100000000E-03 0. -1.
        -11    1    3    3    0    0 -0.71654448533E+01  0.16136734534E+02  0.11444336535E+02  0.21040690111E+02  0.51100000000E-03 0.  1.
         12    1    3    3    0    0 -0.12885760882E+02  0.34316449614E+01  0.40387638232E+01  0.13933076970E+02  0.00000000000E+00 0. -1.
</event>
<event>
 7    1  0.2237500E-009  0.4778727E+02  0.7816164E-02  0.1312668E+00
        -11   -1    0    0    0    0  0.00000000000E+00  0.00000000000E+00  0.45593999997E+02  0.45594000000E+02  0.51100000000E-03 0. -1.
         11   -1    0    0    0    0 -0.00000000000E+00 -0.00000000000E+00 -0.45593999997E+02  0.45594000000E+02  0.51100000000E-03 0.  1.
    9900012    2    1    2    0    0  0.43298722942E+02  0.28711739076E+01  0.77478131541E+00  0.47787270350E+02  0.19999996835E+02 0.  0.
         12    1    1    2    0    0 -0.43298722942E+02 -0.28711739076E+01 -0.77478131541E+00  0.43400729650E+02  0.00000000000E+00 0. -1.
         11    1    3    3    0    0 -0.37669434757E+00  0.40269927383E-01 -0.78876829517E+00  0.87502913274E+00  0.51100000000E-03 0. -1.
        -11    1    3    3    0    0  0.33030781004E+01 -0.46647969123E+01 -0.85196189555E+00  0.57789700210E+01  0.51100000000E-03 0.  1.
        -12    1    3    3    0    0  0.40372339189E+02  0.74957008925E+01  0.24155115061E+01  0.41133271197E+02  0.00000000000E+00 0.  1.
</event>
<event>
 7    1  0.2237500E-009  0.4778725E+02  0.7816164E-02  0.1312668E+00
        -11   -1    0    0    0    0  0.00000000000E+00  0.00000000000E+00  0.45593999997E+02  0.45594000000E+02  0.51100000000E-03 0. -1.
         11   -1    0    0    0    0 -0.00000000000E+00 -0.00000000000E+00 -0.45593999997E+02  0.45594000000E+02  0.51100000000E-03 0.  1.
    9900012    2    1    2    0    0  0.18189885268E+02 -0.24890441798E+02 -0.30548634621E+02  0.47787250050E+02  0.19999904279E+02 0.  0.
         12    1    1    2    0    0 -0.18189885268E+02  0.24890441798E+02  0.30548634621E+02  0.43400749950E+02  0.00000000000E+00 0. -1.
         11    1    3    3    0    0  0.13088811644E+01 -0.27433539098E-01  0.35845349129E+00  0.13573546582E+01  0.51100000000E-03 0. -1.
        -11    1    3    3    0    0 -0.10975245216E+01 -0.22606319947E+01 -0.11170080019E+02  0.11449266569E+02  0.51100000000E-03 0.  1.
         12    1    3    3    0    0  0.17978528626E+02 -0.22602376265E+02 -0.19737008093E+02  0.34980628823E+02  0.00000000000E+00 0. -1.
</event>
<event>
 7    1  0.2237500E-009  0.4778728E+02  0.7816164E-02  0.1312668E+00
        -11   -1    0    0    0    0  0.00000000000E+00  0.00000000000E+00  0.45593999997E+02  0.45594000000E+02  0.51100000000E-03 0.  1.
         11   -1    0    0    0    0 -0.00000000000E+00 -0.00000000000E+00 -0.45593999997E+02  0.45594000000E+02  0.51100000000E-03 0. -1.
    9900012    2    1    2    0    0  0.45099790960E+01  0.29142661742E+02  0.31843182007E+02  0.47787275522E+02  0.20000020417E+02 0.  0.
         12    1    1    2    0    0 -0.45099790960E+01 -0.29142661742E+02 -0.31843182007E+02  0.43400724478E+02  0.00000000000E+00 0. -1.
         11    1    3    3    0    0 -0.25952938702E+01 -0.17480099908E+01  0.43246650104E+01  0.53379599955E+01  0.51100000000E-03 0. -1.
        -11    1    3    3    0    0  0.12378192701E+01  0.87986390841E+01  0.11521512356E+02  0.14549690496E+02  0.51100000000E-03 0.  1.
        -12    1    3    3    0    0  0.58674536961E+01  0.22092032649E+02  0.15997004640E+02  0.27899625031E+02  0.00000000000E+00 0.  1.
</event>
<event>
 7    1  0.2237500E-009  0.4778727E+02  0.7816164E-02  0.1312668E+00
        -11   -1    0    0    0    0  0.00000000000E+00  0.00000000000E+00  0.45593999997E+02  0.45594000000E+02  0.51100000000E-03 0.  1.
         11   -1    0    0    0    0 -0.00000000000E+00 -0.00000000000E+00 -0.45593999997E+02  0.45594000000E+02  0.51100000000E-03 0. -1.
    9900012    2    1    2    0    0  0.33761083133E+02 -0.14333018271E+02  0.23202953064E+02  0.47787272149E+02  0.20000005038E+02 0.  0.
         12    1    1    2    0    0 -0.33761083133E+02  0.14333018271E+02 -0.23202953064E+02  0.43400727851E+02  0.00000000000E+00 0. -1.
         11    1    3    3    0    0  0.35018802715E+01  0.31944152023E+01  0.55432755849E+01  0.72935148174E+01  0.51100000000E-03 0. -1.
        -11    1    3    3    0    0  0.13520130337E+02 -0.62446685247E+01  0.13018391857E+02  0.19780503940E+02  0.51100000000E-03 0.  1.
         12    1    3    3    0    0  0.16739072525E+02 -0.11282764949E+02  0.46412856221E+01  0.20713253393E+02  0.00000000000E+00 0. -1.
</event>
<event>
 7    1  0.2237500E-009  0.4778726E+02  0.7816164E-02  0.1312668E+00
        -11   -1    0    0    0    0  0.00000000000E+00  0.00000000000E+00  0.45593999997E+02  0.45594000000E+02  0.51100000000E-03 0.  1.
         11   -1    0    0    0    0 -0.00000000000E+00 -0.00000000000E+00 -0.45593999997E+02  0.45594000000E+02  0.51100000000E-03 0. -1.
    9900012    2    1    2    0    0  0.20262122563E+01 -0.10146297889E+02  0.42149389224E+02  0.47787263729E+02  0.19999966645E+02 0.  0.
         12    1    1    2    0    0 -0.20262122563E+01  0.10146297889E+02 -0.42149389224E+02  0.43400736271E+02  0.00000000000E+00 0. -1.
         11    1    3    3    0    0  0.71119709148E+01 -0.67687660526E+01  0.26174202247E+02  0.27955056567E+02  0.51100000000E-03 0. -1.
        -11    1    3    3    0    0  0.13396111089E+01 -0.43771944572E+01  0.10013825569E+02  0.11010499173E+02  0.51100000000E-03 0.  1.
         12    1    3    3    0    0 -0.64253697675E+01  0.99966262062E+00  0.59613614075E+01  0.88217079885E+01  0.00000000000E+00 0. -1.
</event>
<event>
 7    1  0.2237500E-009  0.4778727E+02  0.7816164E-02  0.1312668E+00
        -11   -1    0    0    0    0  0.00000000000E+00  0.00000000000E+00  0.45593999997E+02  0.45594000000E+02  0.51100000000E-03 0.  1.
         11   -1    0    0    0    0 -0.00000000000E+00 -0.00000000000E+00 -0.45593999997E+02  0.45594000000E+02  0.51100000000E-03 0. -1.
    9900012    2    1    2    0    0  0.78996566033E+00 -0.30592889360E+02  0.30774578429E+02  0.47787267257E+02  0.19999982734E+02 0.  0.
         12    1    1    2    0    0 -0.78996566033E+00  0.30592889360E+02 -0.30774578429E+02  0.43400732743E+02  0.00000000000E+00 0. -1.
         11    1    3    3    0    0 -0.67026049037E+00  0.10555315283E+00  0.16803002255E+01  0.18121257412E+01  0.51100000000E-03 0. -1.
        -11    1    3    3    0    0  0.10873504584E+00 -0.26417933569E+02  0.31312490097E+02  0.40968171471E+02  0.51100000000E-03 0.  1.
        -12    1    3    3    0    0  0.13514911049E+01 -0.42805089437E+01 -0.22182118940E+01  0.50069700449E+01  0.00000000000E+00 0.  1.
</event>
<event>
 7    1  0.2237500E-009  0.4778727E+02  0.7816164E-02  0.1312668E+00
        -11   -1    0    0    0    0  0.00000000000E+00  0.00000000000E+00  0.45593999997E+02  0.45594000000E+02  0.51100000000E-03 0.  1.
         11   -1    0    0    0    0 -0.00000000000E+00 -0.00000000000E+00 -0.45593999997E+02  0.45594000000E+02  0.51100000000E-03 0. -1.
    9900012    2    1    2    0    0 -0.19484610408E+02  0.23009185064E+02  0.31217795657E+02  0.47787269525E+02  0.19999993072E+02 0.  0.
         12    1    1    2    0    0  0.19484610408E+02 -0.23009185064E+02 -0.31217795657E+02  0.43400730475E+02  0.00000000000E+00 0. -1.
         11    1    3    3    0    0 -0.52609416362E+00 -0.10361914258E+01 -0.19137586836E+01  0.22389596468E+01  0.51100000000E-03 0. -1.
        -11    1    3    3    0    0 -0.11260782781E+02  0.92769298743E+01  0.14841599206E+02  0.20812009129E+02  0.51100000000E-03 0.  1.
         12    1    3    3    0    0 -0.76977334630E+01  0.14768446616E+02  0.18289955135E+02  0.24736300749E+02  0.00000000000E+00 0. -1.
</event>
<event>
 7    1  0.2237500E-009  0.4778727E+02  0.7816164E-02  0.1312668E+00
        -11   -1    0    0    0    0  0.00000000000E+00  0.00000000000E+00  0.45593999997E+02  0.45594000000E+02  0.51100000000E-03 0.  1.
         11   -1    0    0    0    0 -0.00000000000E+00 -0.00000000000E+00 -0.45593999997E+02  0.45594000000E+02  0.51100000000E-03 0. -1.
    9900012    2    1    2    0    0 -0.31041268415E+01 -0.24883007700E+02  0.35423490710E+02  0.47787269941E+02  0.19999994967E+02 0.  0.
         12    1    1    2    0    0  0.31041268415E+01  0.24883007700E+02 -0.35423490710E+02  0.43400730059E+02  0.00000000000E+00 0. -1.
         11    1    3    3    0    0 -0.73395598423E+00 -0.15453237843E+02  0.69194740257E+01  0.16947577180E+02  0.51100000000E-03 0. -1.
        -11    1    3    3    0    0  0.20999351696E+01 -0.38402618192E+01  0.79501023994E+01  0.90753218664E+01  0.51100000000E-03 0.  1.
        -12    1    3    3    0    0 -0.44701060269E+01 -0.55895080370E+01  0.20553914285E+02  0.21764370894E+02  0.00000000000E+00 0.  1.
</event>
<event>
 7    1  0.2237500E-009  0.4778725E+02  0.7816164E-02  0.1312668E+00
        -11   -1    0    0    0    0  0.00000000000E+00  0.00000000000E+00  0.45593999997E+02  0.45594000000E+02  0.51100000000E-03 0.  1.
         11   -1    0    0    0    0 -0.00000000000E+00 -0.00000000000E+00 -0.45593999997E+02  0.45594000000E+02  0.51100000000E-03 0. -1.
    9900012    2    1    2    0    0 -0.28762146676E+02  0.31990894541E+02  0.57399381067E+01  0.47787247651E+02  0.19999893340E+02 0.  0.
         12    1    1    2    0    0  0.28762146676E+02 -0.31990894541E+02 -0.57399381067E+01  0.43400752349E+02  0.00000000000E+00 0. -1.
         11    1    3    3    0    0 -0.42573473783E+01  0.51205708012E+01  0.45201997595E+01  0.80484444557E+01  0.51100000000E-03 0. -1.
        -11    1    3    3    0    0 -0.59210225116E+01  0.14198693401E+01 -0.46780413008E+01  0.76784508332E+01  0.51100000000E-03 0.  1.
        -12    1    3    3    0    0 -0.18583776787E+02  0.25450454400E+02  0.58977796480E+01  0.32060352362E+02  0.00000000000E+00 0.  1.
</event>
<event>
 7    1  0.2237500E-009  0.4778727E+02  0.7816164E-02  0.1312668E+00
        -11   -1    0    0    0    0  0.00000000000E+00  0.00000000000E+00  0.45593999997E+02  0.45594000000E+02  0.51100000000E-03 0.  1.
         11   -1    0    0    0    0 -0.00000000000E+00 -0.00000000000E+00 -0.45593999997E+02  0.45594000000E+02  0.51100000000E-03 0. -1.
    9900012    2    1    2    0    0 -0.18033803081E+02 -0.37968877702E+02 -0.10806011738E+02  0.47787267090E+02  0.19999981969E+02 0.  0.
         12    1    1    2    0    0  0.18033803081E+02  0.37968877702E+02  0.10806011738E+02  0.43400732910E+02  0.00000000000E+00 0. -1.
         11    1    3    3    0    0 -0.16599407134E+01  0.69049996696E+00 -0.22100729470E+01  0.28489675443E+01  0.51100000000E-03 0. -1.
        -11    1    3    3    0    0 -0.40883593420E+01 -0.13351263339E+02 -0.93348769803E+01  0.16796155613E+02  0.51100000000E-03 0.  1.
         12    1    3    3    0    0 -0.12285503025E+02 -0.25308114329E+02  0.73893818902E+00  0.28142143933E+02  0.00000000000E+00 0. -1.
</event>
<event>
 7    1  0.2237500E-009  0.4778730E+02  0.7816164E-02  0.1312668E+00
        -11   -1    0    0    0    0  0.00000000000E+00  0.00000000000E+00  0.45593999997E+02  0.45594000000E+02  0.51100000000E-03 0.  1.
         11   -1    0    0    0    0 -0.00000000000E+00 -0.00000000000E+00 -0.45593999997E+02  0.45594000000E+02  0.51100000000E-03 0. -1.
    9900012    2    1    2    0    0 -0.43305626945E+02  0.11662514491E+01  0.26235810172E+01  0.47787301332E+02  0.20000138091E+02 0.  0.
         12    1    1    2    0    0  0.43305626945E+02 -0.11662514491E+01 -0.26235810172E+01  0.43400698668E+02  0.00000000000E+00 0. -1.
         11    1    3    3    0    0  0.10833582568E+01 -0.19192865583E+01  0.15933701286E+01  0.27195872174E+01  0.51100000000E-03 0.  1.
        -11    1    3    3    0    0 -0.39462869558E+01  0.16691882142E+01 -0.14521178593E+01  0.45241592114E+01  0.51100000000E-03 0. -1.
        -12    1    3    3    0    0 -0.40442698246E+02  0.14163497932E+01  0.24823287479E+01  0.40543554903E+02  0.00000000000E+00 0.  1.
</event>
<event>
 7    1  0.2237500E-009  0.4778727E+02  0.7816164E-02  0.1312668E+00
        -11   -1    0    0    0    0  0.00000000000E+00  0.00000000000E+00  0.45593999997E+02  0.45594000000E+02  0.51100000000E-03 0.  1.
         11   -1    0    0    0    0 -0.00000000000E+00 -0.00000000000E+00 -0.45593999997E+02  0.45594000000E+02  0.51100000000E-03 0. -1.
    9900012    2    1    2    0    0  0.40972059062E+02  0.13254117298E+02 -0.54076086992E+01  0.47787268659E+02  0.19999989123E+02 0.  0.
         12    1    1    2    0    0 -0.40972059062E+02 -0.13254117298E+02  0.54076086992E+01  0.43400731341E+02  0.00000000000E+00 0. -1.
         11    1    3    3    0    0  0.19235176283E+02  0.29086302773E+01 -0.95315662870E+01  0.21663399846E+02  0.51100000000E-03 0. -1.
        -11    1    3    3    0    0  0.12354301862E+02  0.68349259705E+01 -0.21819786893E+01  0.14286567775E+02  0.51100000000E-03 0.  1.
        -12    1    3    3    0    0  0.93825809166E+01  0.35105610501E+01  0.63059362772E+01  0.11837301038E+02  0.00000000000E+00 0.  1.
</event>
<event>
 7    1  0.2237500E-009  0.4778727E+02  0.7816164E-02  0.1312668E+00
        -11   -1    0    0    0    0  0.00000000000E+00  0.00000000000E+00  0.45593999997E+02  0.45594000000E+02  0.51100000000E-03 0. -1.
         11   -1    0    0    0    0 -0.00000000000E+00 -0.00000000000E+00 -0.45593999997E+02  0.45594000000E+02  0.51100000000E-03 0.  1.
    9900012    2    1    2    0    0  0.17689912460E+02  0.40261133167E+01 -0.39426902913E+02  0.47787271151E+02  0.20000000486E+02 0.  0.
         12    1    1    2    0    0 -0.17689912460E+02 -0.40261133167E+01  0.39426902913E+02  0.43400728849E+02  0.00000000000E+00 0. -1.
         11    1    3    3    0    0  0.37062232953E+01 -0.29732937747E+01 -0.13484857268E+01  0.49391275547E+01  0.51100000000E-03 0. -1.
        -11    1    3    3    0    0  0.57046140820E+01 -0.29692405811E+01 -0.16057302445E+02  0.17297282259E+02  0.51100000000E-03 0.  1.
        -12    1    3    3    0    0  0.82790750829E+01  0.99686476724E+01 -0.22021114741E+02  0.25550861338E+02  0.00000000000E+00 0.  1.
</event>
<event>
 7    1  0.2237500E-009  0.4778727E+02  0.7816164E-02  0.1312668E+00
        -11   -1    0    0    0    0  0.00000000000E+00  0.00000000000E+00  0.45593999997E+02  0.45594000000E+02  0.51100000000E-03 0.  1.
         11   -1    0    0    0    0 -0.00000000000E+00 -0.00000000000E+00 -0.45593999997E+02  0.45594000000E+02  0.51100000000E-03 0. -1.
    9900012    2    1    2    0    0 -0.37050923102E+02  0.21328728050E+02  0.74791361297E+01  0.47787273967E+02  0.20000013323E+02 0.  0.
         12    1    1    2    0    0  0.37050923102E+02 -0.21328728050E+02 -0.74791361297E+01  0.43400726033E+02  0.00000000000E+00 0. -1.
         11    1    3    3    0    0 -0.46755698959E+01  0.68204391638E+01 -0.17218833861E+01  0.84465511835E+01  0.51100000000E-03 0. -1.
        -11    1    3    3    0    0 -0.18750205784E+01  0.40715879245E+01 -0.23946090805E+01  0.50820943818E+01  0.51100000000E-03 0.  1.
        -12    1    3    3    0    0 -0.30500332628E+02  0.10436700962E+02  0.11595628596E+02  0.34258628401E+02  0.00000000000E+00 0.  1.
</event>
<event>
 7    1  0.2237500E-009  0.4778727E+02  0.7816164E-02  0.1312668E+00
        -11   -1    0    0    0    0  0.00000000000E+00  0.00000000000E+00  0.45593999997E+02  0.45594000000E+02  0.51100000000E-03 0. -1.
         11   -1    0    0    0    0 -0.00000000000E+00 -0.00000000000E+00 -0.45593999997E+02  0.45594000000E+02  0.51100000000E-03 0.  1.
    9900012    2    1    2    0    0 -0.39676315800E+02 -0.17567528578E+02  0.89159546442E+00  0.47787273759E+02  0.20000012375E+02 0.  0.
         12    1    1    2    0    0  0.39676315800E+02  0.17567528578E+02 -0.89159546442E+00  0.43400726241E+02  0.00000000000E+00 0. -1.
         11    1    3    3    0    0  0.77218529282E+00  0.73500164871E+00 -0.81662413775E+00  0.13428971642E+01  0.51100000000E-03 0. -1.
        -11    1    3    3    0    0 -0.22945585132E+02 -0.55939559470E+01 -0.42763901379E+01  0.24001661048E+02  0.51100000000E-03 0.  1.
         12    1    3    3    0    0 -0.17502915961E+02 -0.12708574280E+02  0.59846097401E+01  0.22442715546E+02  0.00000000000E+00 0. -1.
</event>
<event>
 7    1  0.2237500E-009  0.4778727E+02  0.7816164E-02  0.1312668E+00
        -11   -1    0    0    0    0  0.00000000000E+00  0.00000000000E+00  0.45593999997E+02  0.45594000000E+02  0.51100000000E-03 0.  1.
         11   -1    0    0    0    0 -0.00000000000E+00 -0.00000000000E+00 -0.45593999997E+02  0.45594000000E+02  0.51100000000E-03 0. -1.
    9900012    2    1    2    0    0 -0.76722904466E+00  0.55960904488E+01  0.43031597290E+02  0.47787271503E+02  0.20000002092E+02 0.  0.
         12    1    1    2    0    0  0.76722904466E+00 -0.55960904488E+01 -0.43031597290E+02  0.43400728497E+02  0.00000000000E+00 0. -1.
         11    1    3    3    0    0 -0.22674166867E+01 -0.58425798865E+01  0.97962569178E+01  0.11629426814E+02  0.51100000000E-03 0.  1.
        -11    1    3    3    0    0  0.22578138488E+01 -0.87716605959E-01  0.94441413966E+01  0.97106758034E+01  0.51100000000E-03 0. -1.
        -12    1    3    3    0    0 -0.75762620679E+00  0.11526386941E+02  0.23791198976E+02  0.26447168886E+02  0.00000000000E+00 0.  1.
</event>
<event>
 7    1  0.2237500E-009  0.4778727E+02  0.7816164E-02  0.1312668E+00
        -11   -1    0    0    0    0  0.00000000000E+00  0.00000000000E+00  0.45593999997E+02  0.45594000000E+02  0.51100000000E-03 0. -1.
         11   -1    0    0    0    0 -0.00000000000E+00 -0.00000000000E+00 -0.45593999997E+02  0.45594000000E+02  0.51100000000E-03 0.  1.
    9900012    2    1    2    0    0  0.14451714420E+01  0.14165367723E+01 -0.43353525414E+02  0.47787271173E+02  0.20000000586E+02 0.  0.
         12    1    1    2    0    0 -0.14451714420E+01 -0.14165367723E+01  0.43353525414E+02  0.43400728827E+02  0.00000000000E+00 0. -1.
         11    1    3    3    0    0 -0.12531068610E+01 -0.15180290007E+01 -0.97534713410E+00  0.21968138622E+01  0.51100000000E-03 0. -1.
        -11    1    3    3    0    0  0.25757013334E+01  0.92434060853E+01 -0.17873251026E+02  0.20286150348E+02  0.51100000000E-03 0.  1.
        -12    1    3    3    0    0  0.12257696964E+00 -0.63088403123E+01 -0.24504927253E+02  0.25304306963E+02  0.00000000000E+00 0.  1.
</event>
<event>
 7    1  0.2237500E-009  0.4778727E+02  0.7816164E-02  0.1312668E+00
        -11   -1    0    0    0    0  0.00000000000E+00  0.00000000000E+00  0.45593999997E+02  0.45594000000E+02  0.51100000000E-03 0.  1.
         11   -1    0    0    0    0 -0.00000000000E+00 -0.00000000000E+00 -0.45593999997E+02  0.45594000000E+02  0.51100000000E-03 0. -1.
    9900012    2    1    2    0    0  0.92888430986E+01 -0.21805401797E+02  0.36357465797E+02  0.47787268753E+02  0.19999989550E+02 0.  0.
         12    1    1    2    0    0 -0.92888430986E+01  0.21805401797E+02 -0.36357465797E+02  0.43400731247E+02  0.00000000000E+00 0. -1.
         11    1    3    3    0    0  0.32063934666E+01 -0.11268802697E+02  0.13336752448E+02  0.17752065779E+02  0.51100000000E-03 0. -1.
        -11    1    3    3    0    0 -0.33158640705E+01 -0.85795933278E+01  0.79024538523E+01  0.12126547462E+02  0.51100000000E-03 0.  1.
         12    1    3    3    0    0  0.93983137025E+01 -0.19570057727E+01  0.15118259496E+02  0.17908655512E+02  0.00000000000E+00 0. -1.
</event>
<event>
 7    1  0.2237500E-009  0.4778732E+02  0.7816164E-02  0.1312668E+00
        -11   -1    0    0    0    0  0.00000000000E+00  0.00000000000E+00  0.45593999997E+02  0.45594000000E+02  0.51100000000E-03 0.  1.
         11   -1    0    0    0    0 -0.00000000000E+00 -0.00000000000E+00 -0.45593999997E+02  0.45594000000E+02  0.51100000000E-03 0. -1.
    9900012    2    1    2    0    0 -0.37094681074E+02 -0.19268956657E+02  0.11675222898E+02  0.47787321614E+02  0.20000230568E+02 0.  0.
         12    1    1    2    0    0  0.37094681074E+02  0.19268956657E+02 -0.11675222898E+02  0.43400678386E+02  0.00000000000E+00 0. -1.
         11    1    3    3    0    0  0.10149930114E+01 -0.14700908874E+01 -0.23454900710E+00  0.18017745498E+01  0.51100000000E-03 0. -1.
        -11    1    3    3    0    0 -0.23590381575E+02 -0.12865266087E+02  0.50561535363E+00  0.26875208306E+02  0.51100000000E-03 0.  1.
         12    1    3    3    0    0 -0.14519292510E+02 -0.49335996825E+01  0.11404156551E+02  0.19110338759E+02  0.00000000000E+00 0. -1.
</event>
<event>
 7    1  0.2237500E-009  0.4778727E+02  0.7816164E-02  0.1312668E+00
        -11   -1    0    0    0    0  0.00000000000E+00  0.00000000000E+00  0.45593999997E+02  0.45594000000E+02  0.51100000000E-03 0.  1.
         11   -1    0    0    0    0 -0.00000000000E+00 -0.00000000000E+00 -0.45593999997E+02  0.45594000000E+02  0.51100000000E-03 0. -1.
    9900012    2    1    2    0    0 -0.24928880505E+02 -0.35209078818E+02 -0.47429026132E+01  0.47787269135E+02  0.19999991293E+02 0.  0.
         12    1    1    2    0    0  0.24928880505E+02  0.35209078818E+02  0.47429026132E+01  0.43400730865E+02  0.00000000000E+00 0. -1.
         11    1    3    3    0    0 -0.11223236401E+02 -0.16325881326E+02 -0.71237677429E+01  0.21053348985E+02  0.51100000000E-03 0. -1.
        -11    1    3    3    0    0 -0.14718971608E+02 -0.14064773766E+02 -0.15729613535E+01  0.20419113446E+02  0.51100000000E-03 0.  1.
         12    1    3    3    0    0  0.10133275036E+01 -0.48184237266E+01  0.39538264832E+01  0.63148067031E+01  0.00000000000E+00 0. -1.
</event>
<event>
 7    1  0.2237500E-009  0.4778727E+02  0.7816164E-02  0.1312668E+00
        -11   -1    0    0    0    0  0.00000000000E+00  0.00000000000E+00  0.45593999997E+02  0.45594000000E+02  0.51100000000E-03 0.  1.
         11   -1    0    0    0    0 -0.00000000000E+00 -0.00000000000E+00 -0.45593999997E+02  0.45594000000E+02  0.51100000000E-03 0. -1.
    9900012    2    1    2    0    0 -0.18507184660E+02  0.16380971522E+02  0.35675919720E+02  0.47787270054E+02  0.19999995482E+02 0.  0.
         12    1    1    2    0    0  0.18507184660E+02 -0.16380971522E+02 -0.35675919720E+02  0.43400729946E+02  0.00000000000E+00 0. -1.
         11    1    3    3    0    0 -0.89233696443E+01  0.11016769834E+01  0.62865539308E+01  0.10970915120E+02  0.51100000000E-03 0. -1.
        -11    1    3    3    0    0 -0.62525011794E+01  0.11230863743E+02  0.88192854363E+01  0.15588645460E+02  0.51100000000E-03 0.  1.
        -12    1    3    3    0    0 -0.33313138365E+01  0.40484307956E+01  0.20570080353E+02  0.21227709474E+02  0.00000000000E+00 0.  1.
</event>
<event>
 7    1  0.2237500E-009  0.4778727E+02  0.7816164E-02  0.1312668E+00
        -11   -1    0    0    0    0  0.00000000000E+00  0.00000000000E+00  0.45593999997E+02  0.45594000000E+02  0.51100000000E-03 0.  1.
         11   -1    0    0    0    0 -0.00000000000E+00 -0.00000000000E+00 -0.45593999997E+02  0.45594000000E+02  0.51100000000E-03 0. -1.
    9900012    2    1    2    0    0  0.14860763108E+02 -0.16246462242E+02  0.37400982209E+02  0.47787270908E+02  0.19999999378E+02 0.  0.
         12    1    1    2    0    0 -0.14860763108E+02  0.16246462242E+02 -0.37400982209E+02  0.43400729092E+02  0.00000000000E+00 0. -1.
         11    1    3    3    0    0  0.97059404026E+01 -0.17985482567E+02  0.29993224873E+02  0.36294302594E+02  0.51100000000E-03 0.  1.
        -11    1    3    3    0    0 -0.89200095700E+00  0.34215749932E+00  0.45701543150E+01  0.46689450827E+01  0.51100000000E-03 0. -1.
         12    1    3    3    0    0  0.60468236621E+01  0.13968628252E+01  0.28376030207E+01  0.68240232309E+01  0.00000000000E+00 0. -1.
</event>
<event>
 7    1  0.2237500E-009  0.4778726E+02  0.7816164E-02  0.1312668E+00
        -11   -1    0    0    0    0  0.00000000000E+00  0.00000000000E+00  0.45593999997E+02  0.45594000000E+02  0.51100000000E-03 0.  1.
         11   -1    0    0    0    0 -0.00000000000E+00 -0.00000000000E+00 -0.45593999997E+02  0.45594000000E+02  0.51100000000E-03 0. -1.
    9900012    2    1    2    0    0  0.17750498923E+01  0.42159458148E+02  0.10151515745E+02  0.47787262848E+02  0.19999962629E+02 0.  0.
         12    1    1    2    0    0 -0.17750498923E+01 -0.42159458148E+02 -0.10151515745E+02  0.43400737152E+02  0.00000000000E+00 0. -1.
         11    1    3    3    0    0  0.10485907310E+02  0.23658498790E+02  0.81330104808E+01  0.27126088491E+02  0.51100000000E-03 0. -1.
        -11    1    3    3    0    0 -0.36351680753E+01  0.80962523859E+01  0.19386798808E+01  0.90841746776E+01  0.51100000000E-03 0.  1.
         12    1    3    3    0    0 -0.50756893427E+01  0.10404706972E+02  0.79825383099E-01  0.11576999679E+02  0.00000000000E+00 0. -1.
</event>
<event>
 7    1  0.2237500E-009  0.4778726E+02  0.7816164E-02  0.1312668E+00
        -11   -1    0    0    0    0  0.00000000000E+00  0.00000000000E+00  0.45593999997E+02  0.45594000000E+02  0.51100000000E-03 0. -1.
         11   -1    0    0    0    0 -0.00000000000E+00 -0.00000000000E+00 -0.45593999997E+02  0.45594000000E+02  0.51100000000E-03 0.  1.
    9900012    2    1    2    0    0  0.21560979801E+02  0.23299718308E+02 -0.29595128886E+02  0.47787258336E+02  0.19999942057E+02 0.  0.
         12    1    1    2    0    0 -0.21560979801E+02 -0.23299718308E+02  0.29595128886E+02  0.43400741664E+02  0.00000000000E+00 0. -1.
         11    1    3    3    0    0  0.33340648299E+01  0.70733360794E+01 -0.92132254822E+01  0.12084353339E+02  0.51100000000E-03 0. -1.
        -11    1    3    3    0    0  0.24284190868E+01  0.12303574496E+02 -0.56759797396E+01  0.13765606085E+02  0.51100000000E-03 0.  1.
         12    1    3    3    0    0  0.15798495884E+02  0.39228077329E+01 -0.14705923664E+02  0.21937298912E+02  0.00000000000E+00 0. -1.
</event>
<event>
 7    1  0.2237500E-009  0.4778727E+02  0.7816164E-02  0.1312668E+00
        -11   -1    0    0    0    0  0.00000000000E+00  0.00000000000E+00  0.45593999997E+02  0.45594000000E+02  0.51100000000E-03 0.  1.
         11   -1    0    0    0    0 -0.00000000000E+00 -0.00000000000E+00 -0.45593999997E+02  0.45594000000E+02  0.51100000000E-03 0. -1.
    9900012    2    1    2    0    0  0.33214924730E+02 -0.12394725245E+02  0.25035230836E+02  0.47787271645E+02  0.20000002739E+02 0.  0.
         12    1    1    2    0    0 -0.33214924730E+02  0.12394725245E+02 -0.25035230836E+02  0.43400728355E+02  0.00000000000E+00 0. -1.
         11    1    3    3    0    0  0.81683605265E+00 -0.32360100390E+00 -0.99116576128E+00  0.13245182423E+01  0.51100000000E-03 0. -1.
        -11    1    3    3    0    0  0.34425364818E+02 -0.10731961784E+02  0.24359505605E+02  0.43516275808E+02  0.51100000000E-03 0.  1.
        -12    1    3    3    0    0 -0.20272761409E+01 -0.13391624578E+01  0.16668909917E+01  0.29464775950E+01  0.00000000000E+00 0.  1.
</event>
<event>
 7    1  0.2237500E-009  0.4778727E+02  0.7816164E-02  0.1312668E+00
        -11   -1    0    0    0    0  0.00000000000E+00  0.00000000000E+00  0.45593999997E+02  0.45594000000E+02  0.51100000000E-03 0. -1.
         11   -1    0    0    0    0 -0.00000000000E+00 -0.00000000000E+00 -0.45593999997E+02  0.45594000000E+02  0.51100000000E-03 0.  1.
    9900012    2    1    2    0    0  0.43168175825E+02  0.33827417395E+01 -0.29477120781E+01  0.47787270142E+02  0.19999995884E+02 0.  0.
         12    1    1    2    0    0 -0.43168175825E+02 -0.33827417395E+01  0.29477120781E+01  0.43400729858E+02  0.00000000000E+00 0. -1.
         11    1    3    3    0    0  0.95818087216E+01  0.48374629801E+01 -0.42318161297E+00  0.10742029110E+02  0.51100000000E-03 0. -1.
        -11    1    3    3    0    0  0.97861053909E+01  0.59169451053E+01 -0.39237668433E+01  0.12090245845E+02  0.51100000000E-03 0.  1.
        -12    1    3    3    0    0  0.23800261713E+02 -0.73716663459E+01  0.13992363781E+01  0.24954995186E+02  0.00000000000E+00 0.  1.
</event>
<event>
 7    1  0.2237500E-009  0.4778728E+02  0.7816164E-02  0.1312668E+00
        -11   -1    0    0    0    0  0.00000000000E+00  0.00000000000E+00  0.45593999997E+02  0.45594000000E+02  0.51100000000E-03 0.  1.
         11   -1    0    0    0    0 -0.00000000000E+00 -0.00000000000E+00 -0.45593999997E+02  0.45594000000E+02  0.51100000000E-03 0. -1.
    9900012    2    1    2    0    0  0.15537693994E+02 -0.32444715845E+02  0.24280504521E+02  0.47787280874E+02  0.20000044815E+02 0.  0.
         12    1    1    2    0    0 -0.15537693994E+02  0.32444715845E+02 -0.24280504521E+02  0.43400719126E+02  0.00000000000E+00 0. -1.
         11    1    3    3    0    0  0.90845411005E+01 -0.14446028250E+02  0.16822481804E+02  0.23962731763E+02  0.51100000000E-03 0. -1.
        -11    1    3    3    0    0  0.97639978500E+01 -0.11410103887E+02  0.65904610516E+01  0.16400009203E+02  0.51100000000E-03 0.  1.
         12    1    3    3    0    0 -0.33108449568E+01 -0.65885837078E+01  0.86756166521E+00  0.74245399080E+01  0.00000000000E+00 0. -1.
</event>
<event>
 7    1  0.2237500E-009  0.4778727E+02  0.7816164E-02  0.1312668E+00
        -11   -1    0    0    0    0  0.00000000000E+00  0.00000000000E+00  0.45593999997E+02  0.45594000000E+02  0.51100000000E-03 0.  1.
         11   -1    0    0    0    0 -0.00000000000E+00 -0.00000000000E+00 -0.45593999997E+02  0.45594000000E+02  0.51100000000E-03 0. -1.
    9900012    2    1    2    0    0  0.33296848850E+02 -0.95624687679E+01 -0.26143872044E+02  0.47787274226E+02  0.20000014507E+02 0.  0.
         12    1    1    2    0    0 -0.33296848850E+02  0.95624687679E+01  0.26143872044E+02  0.43400725774E+02  0.00000000000E+00 0. -1.
         11    1    3    3    0    0  0.86167843900E+01 -0.13520109959E+00 -0.15937002918E+02  0.18117817607E+02  0.51100000000E-03 0. -1.
        -11    1    3    3    0    0  0.57182970786E+01  0.13306076915E+01 -0.79885180689E+00  0.59251668987E+01  0.51100000000E-03 0.  1.
         12    1    3    3    0    0  0.18961767381E+02 -0.10757875360E+02 -0.94080173187E+01  0.23744289721E+02  0.00000000000E+00 0. -1.
</event>
<event>
 7    1  0.2237500E-009  0.4778727E+02  0.7816164E-02  0.1312668E+00
        -11   -1    0    0    0    0  0.00000000000E+00  0.00000000000E+00  0.45593999997E+02  0.45594000000E+02  0.51100000000E-03 0.  1.
         11   -1    0    0    0    0 -0.00000000000E+00 -0.00000000000E+00 -0.45593999997E+02  0.45594000000E+02  0.51100000000E-03 0. -1.
    9900012    2    1    2    0    0  0.32689687981E+02 -0.65869714974E+01  0.27778042418E+02  0.47787268043E+02  0.19999986316E+02 0.  0.
         12    1    1    2    0    0 -0.32689687981E+02  0.65869714974E+01 -0.27778042418E+02  0.43400731957E+02  0.00000000000E+00 0. -1.
         11    1    3    3    0    0  0.23941508226E+02 -0.62840206080E+01  0.16825178639E+02  0.29929439815E+02  0.51100000000E-03 0. -1.
        -11    1    3    3    0    0  0.51994439589E+01 -0.55511291336E+01  0.46149342166E+01  0.88964526765E+01  0.51100000000E-03 0.  1.
         12    1    3    3    0    0  0.35487357958E+01  0.52481782443E+01  0.63379295627E+01  0.89613755514E+01  0.00000000000E+00 0. -1.
</event>
<event>
 7    1  0.2237500E-009  0.4778727E+02  0.7816164E-02  0.1312668E+00
        -11   -1    0    0    0    0  0.00000000000E+00  0.00000000000E+00  0.45593999997E+02  0.45594000000E+02  0.51100000000E-03 0.  1.
         11   -1    0    0    0    0 -0.00000000000E+00 -0.00000000000E+00 -0.45593999997E+02  0.45594000000E+02  0.51100000000E-03 0. -1.
    9900012    2    1    2    0    0 -0.15232727430E+02  0.12510876820E+02  0.38666080398E+02  0.47787265016E+02  0.19999972515E+02 0.  0.
         12    1    1    2    0    0  0.15232727430E+02 -0.12510876820E+02 -0.38666080398E+02  0.43400734984E+02  0.00000000000E+00 0. -1.
         11    1    3    3    0    0 -0.49603211772E+01  0.21396778678E+01  0.11952991024E+01  0.55327884258E+01  0.51100000000E-03 0. -1.
        -11    1    3    3    0    0 -0.12067623113E+02  0.12057998199E+02  0.32378873814E+02  0.36598009753E+02  0.51100000000E-03 0.  1.
         12    1    3    3    0    0  0.17952168608E+01 -0.16867992469E+01  0.50919074818E+01  0.56564668372E+01  0.00000000000E+00 0. -1.
</event>
<event>
 7    1  0.2237500E-009  0.4778727E+02  0.7816164E-02  0.1312668E+00
        -11   -1    0    0    0    0  0.00000000000E+00  0.00000000000E+00  0.45593999997E+02  0.45594000000E+02  0.51100000000E-03 0.  1.
         11   -1    0    0    0    0 -0.00000000000E+00 -0.00000000000E+00 -0.45593999997E+02  0.45594000000E+02  0.51100000000E-03 0. -1.
    9900012    2    1    2    0    0  0.16426447819E+02 -0.32528117510E+02  0.23573646362E+02  0.47787269367E+02  0.19999992351E+02 0.  0.
         12    1    1    2    0    0 -0.16426447819E+02  0.32528117510E+02 -0.23573646362E+02  0.43400730633E+02  0.00000000000E+00 0. -1.
         11    1    3    3    0    0  0.18093628485E+01  0.10822597277E+01 -0.71474924943E+00  0.22261955858E+01  0.51100000000E-03 0.  1.
        -11    1    3    3    0    0  0.40631715307E+00 -0.89129740578E+01  0.14399736618E+01  0.90376835856E+01  0.51100000000E-03 0. -1.
        -12    1    3    3    0    0  0.14210767817E+02 -0.24697403180E+02  0.22848421950E+02  0.36523390195E+02  0.00000000000E+00 0.  1.
</event>
<event>
 7    1  0.2237500E-009  0.4778727E+02  0.7816164E-02  0.1312668E+00
        -11   -1    0    0    0    0  0.00000000000E+00  0.00000000000E+00  0.45593999997E+02  0.45594000000E+02  0.51100000000E-03 0. -1.
         11   -1    0    0    0    0 -0.00000000000E+00 -0.00000000000E+00 -0.45593999997E+02  0.45594000000E+02  0.51100000000E-03 0.  1.
    9900012    2    1    2    0    0  0.17644663632E+02  0.21294319047E+01 -0.39594882912E+02  0.47787269733E+02  0.19999994020E+02 0.  0.
         12    1    1    2    0    0 -0.17644663632E+02 -0.21294319047E+01  0.39594882912E+02  0.43400730267E+02  0.00000000000E+00 0. -1.
         11    1    3    3    0    0  0.61968854341E+01  0.87548797279E+01 -0.19436202941E+02  0.22199443532E+02  0.51100000000E-03 0. -1.
        -11    1    3    3    0    0  0.26407878735E+01 -0.22961523613E-02 -0.10837958735E+02  0.11155048887E+02  0.51100000000E-03 0.  1.
        -12    1    3    3    0    0  0.88069903241E+01 -0.66231516708E+01 -0.93207212367E+01  0.14432777314E+02  0.00000000000E+00 0.  1.
</event>
<event>
 7    1  0.2237500E-009  0.4778727E+02  0.7816164E-02  0.1312668E+00
        -11   -1    0    0    0    0  0.00000000000E+00  0.00000000000E+00  0.45593999997E+02  0.45594000000E+02  0.51100000000E-03 0.  1.
         11   -1    0    0    0    0 -0.00000000000E+00 -0.00000000000E+00 -0.45593999997E+02  0.45594000000E+02  0.51100000000E-03 0. -1.
    9900012    2    1    2    0    0 -0.18852535081E+02 -0.37188675588E+02  0.12050213975E+02  0.47787270423E+02  0.19999997167E+02 0.  0.
         12    1    1    2    0    0  0.18852535081E+02  0.37188675588E+02 -0.12050213975E+02  0.43400729577E+02  0.00000000000E+00 0. -1.
         11    1    3    3    0    0  0.58659123785E+00 -0.61244533792E+01  0.65084409602E+01  0.89561611457E+01  0.51100000000E-03 0. -1.
        -11    1    3    3    0    0 -0.56313974606E+01 -0.13252336875E+02  0.74520852058E+01  0.16213286039E+02  0.51100000000E-03 0.  1.
        -12    1    3    3    0    0 -0.13807728858E+02 -0.17811885334E+02 -0.19103121912E+01  0.22617823239E+02  0.00000000000E+00 0.  1.
</event>
<event>
 7    1  0.2237500E-009  0.4778727E+02  0.7816164E-02  0.1312668E+00
        -11   -1    0    0    0    0  0.00000000000E+00  0.00000000000E+00  0.45593999997E+02  0.45594000000E+02  0.51100000000E-03 0. -1.
         11   -1    0    0    0    0 -0.00000000000E+00 -0.00000000000E+00 -0.45593999997E+02  0.45594000000E+02  0.51100000000E-03 0.  1.
    9900012    2    1    2    0    0 -0.13615405218E+01  0.12128520067E+02 -0.41649355345E+02  0.47787267377E+02  0.19999983278E+02 0.  0.
         12    1    1    2    0    0  0.13615405218E+01 -0.12128520067E+02  0.41649355345E+02  0.43400732623E+02  0.00000000000E+00 0. -1.
         11    1    3    3    0    0  0.55186644670E+01 -0.83143661580E+00 -0.59232131093E+01  0.81382675150E+01  0.51100000000E-03 0. -1.
        -11    1    3    3    0    0  0.18131635693E+01  0.49167907614E+01 -0.89660228375E+01  0.10385179792E+02  0.51100000000E-03 0.  1.
        -12    1    3    3    0    0 -0.86933685581E+01  0.80431659213E+01 -0.26760119398E+02  0.29263820070E+02  0.00000000000E+00 0.  1.
</event>
<event>
 7    1  0.2237500E-009  0.4778727E+02  0.7816164E-02  0.1312668E+00
        -11   -1    0    0    0    0  0.00000000000E+00  0.00000000000E+00  0.45593999997E+02  0.45594000000E+02  0.51100000000E-03 0. -1.
         11   -1    0    0    0    0 -0.00000000000E+00 -0.00000000000E+00 -0.45593999997E+02  0.45594000000E+02  0.51100000000E-03 0.  1.
    9900012    2    1    2    0    0  0.67545745715E+00  0.10298098060E+02 -0.42155856899E+02  0.47787270314E+02  0.19999996668E+02 0.  0.
         12    1    1    2    0    0 -0.67545745715E+00 -0.10298098060E+02  0.42155856899E+02  0.43400729686E+02  0.00000000000E+00 0. -1.
         11    1    3    3    0    0 -0.17358202142E+01  0.13471781650E+01 -0.79646637294E+01  0.82621927724E+01  0.51100000000E-03 0. -1.
        -11    1    3    3    0    0 -0.38044119556E+00 -0.16390772236E+01 -0.25468727746E+02  0.25524251271E+02  0.51100000000E-03 0.  1.
         12    1    3    3    0    0  0.27917188669E+01  0.10589997119E+02 -0.87224654231E+01  0.14000826271E+02  0.00000000000E+00 0. -1.
</event>
<event>
 7    1  0.2237500E-009  0.4778727E+02  0.7816164E-02  0.1312668E+00
        -11   -1    0    0    0    0  0.00000000000E+00  0.00000000000E+00  0.45593999997E+02  0.45594000000E+02  0.51100000000E-03 0.  1.
         11   -1    0    0    0    0 -0.00000000000E+00 -0.00000000000E+00 -0.45593999997E+02  0.45594000000E+02  0.51100000000E-03 0. -1.
    9900012    2    1    2    0    0  0.30389564782E+02  0.33697011674E+01  0.30801674383E+02  0.47787266384E+02  0.19999978753E+02 0.  0.
         12    1    1    2    0    0 -0.30389564782E+02 -0.33697011674E+01 -0.30801674383E+02  0.43400733616E+02  0.00000000000E+00 0. -1.
         11    1    3    3    0    0  0.83145792347E+01  0.50455914531E+01  0.11433434511E+02  0.15010451224E+02  0.51100000000E-03 0. -1.
        -11    1    3    3    0    0  0.36451786618E+01  0.55542050858E+01  0.47200879211E+01  0.81495859929E+01  0.51100000000E-03 0.  1.
         12    1    3    3    0    0  0.18429806885E+02 -0.72300953716E+01  0.14648151950E+02  0.24627229168E+02  0.00000000000E+00 0. -1.
</event>
<event>
 7    1  0.2237500E-009  0.4778727E+02  0.7816164E-02  0.1312668E+00
        -11   -1    0    0    0    0  0.00000000000E+00  0.00000000000E+00  0.45593999997E+02  0.45594000000E+02  0.51100000000E-03 0.  1.
         11   -1    0    0    0    0 -0.00000000000E+00 -0.00000000000E+00 -0.45593999997E+02  0.45594000000E+02  0.51100000000E-03 0. -1.
    9900012    2    1    2    0    0 -0.64641233533E+01 -0.24706648705E+02  0.35091591192E+02  0.47787272433E+02  0.20000006332E+02 0.  0.
         12    1    1    2    0    0  0.64641233533E+01  0.24706648705E+02 -0.35091591192E+02  0.43400727567E+02  0.00000000000E+00 0. -1.
         11    1    3    3    0    0 -0.14869555452E+01 -0.81681852209E+01  0.27173998827E+01  0.87358198802E+01  0.51100000000E-03 0. -1.
        -11    1    3    3    0    0  0.44421204814E+01 -0.78656887926E+01  0.13173695885E+02  0.15973345238E+02  0.51100000000E-03 0.  1.
        -12    1    3    3    0    0 -0.94192882895E+01 -0.86727746917E+01  0.19200495424E+02  0.23078107315E+02  0.00000000000E+00 0.  1.
</event>
<event>
 7    1  0.2237500E-009  0.4778727E+02  0.7816164E-02  0.1312668E+00
        -11   -1    0    0    0    0  0.00000000000E+00  0.00000000000E+00  0.45593999997E+02  0.45594000000E+02  0.51100000000E-03 0.  1.
         11   -1    0    0    0    0 -0.00000000000E+00 -0.00000000000E+00 -0.45593999997E+02  0.45594000000E+02  0.51100000000E-03 0. -1.
    9900012    2    1    2    0    0 -0.26080389700E+02  0.34522350634E+02  0.34123001798E+01  0.47787271749E+02  0.20000003212E+02 0.  0.
         12    1    1    2    0    0  0.26080389700E+02 -0.34522350634E+02 -0.34123001798E+01  0.43400728251E+02  0.00000000000E+00 0. -1.
         11    1    3    3    0    0 -0.52841949525E+01  0.53502855982E+00  0.27917289992E+01  0.60002269059E+01  0.51100000000E-03 0. -1.
        -11    1    3    3    0    0 -0.48039214536E+01  0.56809260867E+01 -0.47614000541E+01  0.88329787314E+01  0.51100000000E-03 0.  1.
        -12    1    3    3    0    0 -0.15992273294E+02  0.28306395988E+02  0.53819712346E+01  0.32954066112E+02  0.00000000000E+00 0.  1.
</event>
<event>
 7    1  0.2237500E-009  0.4778726E+02  0.7816164E-02  0.1312668E+00
        -11   -1    0    0    0    0  0.00000000000E+00  0.00000000000E+00  0.45593999997E+02  0.45594000000E+02  0.51100000000E-03 0.  1.
         11   -1    0    0    0    0 -0.00000000000E+00 -0.00000000000E+00 -0.45593999997E+02  0.45594000000E+02  0.51100000000E-03 0. -1.
    9900012    2    1    2    0    0 -0.19328946355E+02 -0.18411771205E+02  0.34220203906E+02  0.47787264505E+02  0.19999970185E+02 0.  0.
         12    1    1    2    0    0  0.19328946355E+02  0.18411771205E+02 -0.34220203906E+02  0.43400735495E+02  0.00000000000E+00 0. -1.
         11    1    3    3    0    0 -0.63573618772E+01 -0.38608242993E+01  0.65528996910E+01  0.99127447727E+01  0.51100000000E-03 0. -1.
        -11    1    3    3    0    0 -0.73215590713E+01 -0.87081992471E+01  0.27482853547E+02  0.29744666760E+02  0.51100000000E-03 0.  1.
         12    1    3    3    0    0 -0.56500254067E+01 -0.58427476585E+01  0.18445066865E+00  0.81298529720E+01  0.00000000000E+00 0. -1.
</event>
<event>
 7    1  0.2237500E-009  0.4778727E+02  0.7816164E-02  0.1312668E+00
        -11   -1    0    0    0    0  0.00000000000E+00  0.00000000000E+00  0.45593999997E+02  0.45594000000E+02  0.51100000000E-03 0.  1.
         11   -1    0    0    0    0 -0.00000000000E+00 -0.00000000000E+00 -0.45593999997E+02  0.45594000000E+02  0.51100000000E-03 0. -1.
    9900012    2    1    2    0    0  0.14024712415E+02 -0.31872742017E+01  0.40948407762E+02  0.47787269898E+02  0.19999994772E+02 0.  0.
         12    1    1    2    0    0 -0.14024712415E+02  0.31872742017E+01 -0.40948407762E+02  0.43400730102E+02  0.00000000000E+00 0. -1.
         11    1    3    3    0    0  0.31623314729E+01 -0.64922311140E+01  0.19984267452E+02  0.21249008236E+02  0.51100000000E-03 0. -1.
        -11    1    3    3    0    0  0.10222758124E+02 -0.23492845498E+01  0.14906915762E+02  0.18227453452E+02  0.51100000000E-03 0.  1.
         12    1    3    3    0    0  0.63962281822E+00  0.56542414622E+01  0.60572245482E+01  0.83108082091E+01  0.00000000000E+00 0. -1.
</event>
<event>
 7    1  0.2237500E-009  0.4778727E+02  0.7816164E-02  0.1312668E+00
        -11   -1    0    0    0    0  0.00000000000E+00  0.00000000000E+00  0.45593999997E+02  0.45594000000E+02  0.51100000000E-03 0.  1.
         11   -1    0    0    0    0 -0.00000000000E+00 -0.00000000000E+00 -0.45593999997E+02  0.45594000000E+02  0.51100000000E-03 0. -1.
    9900012    2    1    2    0    0 -0.36419497037E+02 -0.12670385255E+02  0.19917449913E+02  0.47787271458E+02  0.20000001887E+02 0.  0.
         12    1    1    2    0    0  0.36419497037E+02  0.12670385255E+02 -0.19917449913E+02  0.43400728542E+02  0.00000000000E+00 0. -1.
         11    1    3    3    0    0 -0.20202950960E+02 -0.11738858557E+02  0.85225799850E+01  0.24871558005E+02  0.51100000000E-03 0.  1.
        -11    1    3    3    0    0 -0.25448357137E+01 -0.21518501809E+01 -0.18750603039E+01  0.38239376845E+01  0.51100000000E-03 0. -1.
         12    1    3    3    0    0 -0.13671710363E+02  0.12203234834E+01  0.13269930232E+02  0.19091775769E+02  0.00000000000E+00 0. -1.
</event>
<event>
 7    1  0.2661926E-009  0.4778727E+02  0.7816164E-02  0.1312668E+00
        -11   -1    0    0    0    0  0.00000000000E+00  0.00000000000E+00  0.45593999997E+02  0.45594000000E+02  0.51100000000E-03 0. -1.
         11   -1    0    0    0    0 -0.00000000000E+00 -0.00000000000E+00 -0.45593999997E+02  0.45594000000E+02  0.51100000000E-03 0.  1.
    9900012    2    1    2    0    0 -0.18589758018E+01 -0.15010535491E+02 -0.40679863749E+02  0.47787270957E+02  0.19999999603E+02 0.  0.
         12    1    1    2    0    0  0.18589758018E+01  0.15010535491E+02  0.40679863749E+02  0.43400729043E+02  0.00000000000E+00 0. -1.
         11    1    3    3    0    0  0.47569416997E+01 -0.39909786138E+01 -0.43380909318E+01  0.75746576044E+01  0.51100000000E-03 0. -1.
        -11    1    3    3    0    0 -0.23541766619E+00  0.21515858012E+01 -0.83475497630E+01  0.86235914934E+01  0.51100000000E-03 0.  1.
        -12    1    3    3    0    0 -0.63804998353E+01 -0.13171142679E+02 -0.27994223055E+02  0.31589021860E+02  0.00000000000E+00 0.  1.
</event>
