<event>
 7    1  0.3435518E-013  0.7246171E+02  0.7816164E-02  0.1226708E+00
        -11   -1    0    0    0    0  0.00000000000E+00  0.00000000000E+00  0.45593999997E+02  0.45594000000E+02  0.51100000000E-03 0. -1.
         11   -1    0    0    0    0 -0.00000000000E+00 -0.00000000000E+00 -0.45593999997E+02  0.45594000000E+02  0.51100000000E-03 0.  1.
    9900012    2    1    2    0    0 -0.89742565337E+01  0.29400169142E+01  0.16170744405E+02  0.72461709540E+02  0.70000181393E+02 0.  0.
        -12    1    1    2    0    0  0.89742565337E+01 -0.29400169142E+01 -0.16170744405E+02  0.18726290460E+02  0.00000000000E+00 0.  1.
         11    1    3    3    0    0  0.92562424417E+01  0.27674286917E+01 -0.20668828064E+01  0.98797110535E+01  0.51100000000E-03 0. -1.
        -11    1    3    3    0    0  0.13351249438E+02 -0.10503388195E+02 -0.92778540364E+01  0.19356022342E+02  0.51100000000E-03 0.  1.
         12    1    3    3    0    0 -0.31581748414E+02  0.10675976417E+02  0.27515481248E+02  0.43225976144E+02  0.00000000000E+00 0. -1.
</event>
<event>
 7    1  0.3435518E-013  0.7246158E+02  0.7816164E-02  0.1226708E+00
        -11   -1    0    0    0    0  0.00000000000E+00  0.00000000000E+00  0.45593999997E+02  0.45594000000E+02  0.51100000000E-03 0. -1.
         11   -1    0    0    0    0 -0.00000000000E+00 -0.00000000000E+00 -0.45593999997E+02  0.45594000000E+02  0.51100000000E-03 0.  1.
    9900012    2    1    2    0    0 -0.10350951521E+02  0.27592659963E+01  0.15359783681E+02  0.72461582805E+02  0.70000016297E+02 0.  0.
        -12    1    1    2    0    0  0.10350951521E+02 -0.27592659963E+01 -0.15359783681E+02  0.18726417195E+02  0.00000000000E+00 0.  1.
         11    1    3    3    0    0  0.10264965663E+01  0.14148404576E+02  0.15930492531E+01  0.14274762816E+02  0.51100000000E-03 0. -1.
        -11    1    3    3    0    0  0.65276516671E+01  0.16377858451E+02  0.17616915962E+02  0.24923888381E+02  0.51100000000E-03 0.  1.
        -12    1    3    3    0    0 -0.17905099754E+02 -0.27766997032E+02 -0.38501815334E+01  0.33262931609E+02  0.00000000000E+00 0.  1.
</event>
<event>
 7    1  0.3435518E-013  0.7246155E+02  0.7816164E-02  0.1226708E+00
        -11   -1    0    0    0    0  0.00000000000E+00  0.00000000000E+00  0.45593999997E+02  0.45594000000E+02  0.51100000000E-03 0. -1.
         11   -1    0    0    0    0 -0.00000000000E+00 -0.00000000000E+00 -0.45593999997E+02  0.45594000000E+02  0.51100000000E-03 0.  1.
    9900012    2    1    2    0    0 -0.11177360524E+02  0.12712413412E+02  0.80088145359E+01  0.72461549366E+02  0.69999972738E+02 0.  0.
        -12    1    1    2    0    0  0.11177360524E+02 -0.12712413412E+02 -0.80088145359E+01  0.18726450634E+02  0.00000000000E+00 0.  1.
         11    1    3    3    0    0 -0.24430653333E+02  0.27022520942E+01  0.31251055843E+02  0.39759118202E+02  0.51100000000E-03 0.  1.
        -11    1    3    3    0    0 -0.10476844923E+01  0.69037850560E+01 -0.27138090742E+01  0.74916387291E+01  0.51100000000E-03 0. -1.
        -12    1    3    3    0    0  0.14300977301E+02  0.31063762622E+01 -0.20528432233E+02  0.25210792435E+02  0.00000000000E+00 0.  1.
</event>
<event>
 7    1  0.3435518E-013  0.7246157E+02  0.7816164E-02  0.1226708E+00
        -11   -1    0    0    0    0  0.00000000000E+00  0.00000000000E+00  0.45593999997E+02  0.45594000000E+02  0.51100000000E-03 0. -1.
         11   -1    0    0    0    0 -0.00000000000E+00 -0.00000000000E+00 -0.45593999997E+02  0.45594000000E+02  0.51100000000E-03 0.  1.
    9900012    2    1    2    0    0 -0.84124888948E+01 -0.12234817994E+02  0.11411321380E+02  0.72461574917E+02  0.70000006022E+02 0.  0.
        -12    1    1    2    0    0  0.84124888948E+01  0.12234817994E+02 -0.11411321380E+02  0.18726425083E+02  0.00000000000E+00 0.  1.
         11    1    3    3    0    0 -0.14982202842E+02 -0.10703679100E+02 -0.57033099908E+01  0.19275966730E+02  0.51100000000E-03 0. -1.
        -11    1    3    3    0    0 -0.20277551675E+02  0.16616889819E+01 -0.14372863555E+01  0.20396227703E+02  0.51100000000E-03 0.  1.
         12    1    3    3    0    0  0.26847265621E+02 -0.31928278763E+01  0.18551917727E+02  0.32789380484E+02  0.00000000000E+00 0. -1.
</event>
<event>
 7    1  0.3435518E-013  0.7246161E+02  0.7816164E-02  0.1226708E+00
        -11   -1    0    0    0    0  0.00000000000E+00  0.00000000000E+00  0.45593999997E+02  0.45594000000E+02  0.51100000000E-03 0. -1.
         11   -1    0    0    0    0 -0.00000000000E+00 -0.00000000000E+00 -0.45593999997E+02  0.45594000000E+02  0.51100000000E-03 0.  1.
    9900012    2    1    2    0    0  0.13118057118E+02 -0.96616906870E+01  0.92328660222E+01  0.72461614751E+02  0.70000057914E+02 0.  0.
        -12    1    1    2    0    0 -0.13118057118E+02  0.96616906870E+01 -0.92328660222E+01  0.18726385249E+02  0.00000000000E+00 0.  1.
         11    1    3    3    0    0  0.21964834340E+02  0.11900743134E+02  0.70758417772E+00  0.24991644811E+02  0.51100000000E-03 0. -1.
        -11    1    3    3    0    0 -0.15162928223E+01  0.95500635703E+01 -0.69972724738E+01  0.11935856922E+02  0.51100000000E-03 0.  1.
        -12    1    3    3    0    0 -0.73304843994E+01 -0.31112497392E+02  0.15522554318E+02  0.35534113019E+02  0.00000000000E+00 0.  1.
</event>
<event>
 7    1  0.3435518E-013  0.7246145E+02  0.7816164E-02  0.1226708E+00
        -11   -1    0    0    0    0  0.00000000000E+00  0.00000000000E+00  0.45593999997E+02  0.45594000000E+02  0.51100000000E-03 0.  1.
         11   -1    0    0    0    0 -0.00000000000E+00 -0.00000000000E+00 -0.45593999997E+02  0.45594000000E+02  0.51100000000E-03 0. -1.
    9900012    2    1    2    0    0  0.17075282897E+02  0.71610590612E+01 -0.27995951624E+01  0.72461447035E+02  0.69999839431E+02 0.  0.
        -12    1    1    2    0    0 -0.17075282897E+02 -0.71610590612E+01  0.27995951624E+01  0.18726552965E+02  0.00000000000E+00 0.  1.
         11    1    3    3    0    0  0.28789014057E+02  0.49774885857E+01 -0.10512755785E+01  0.29235045811E+02  0.51100000000E-03 0. -1.
        -11    1    3    3    0    0  0.99460317263E+01  0.93522223148E+00  0.13437498897E+02  0.16744090438E+02  0.51100000000E-03 0.  1.
         12    1    3    3    0    0 -0.21659762886E+02  0.12483482440E+01 -0.15185818481E+02  0.26482310786E+02  0.00000000000E+00 0. -1.
</event>
<event>
 7    1  0.3435518E-013  0.7246153E+02  0.7816164E-02  0.1226708E+00
        -11   -1    0    0    0    0  0.00000000000E+00  0.00000000000E+00  0.45593999997E+02  0.45594000000E+02  0.51100000000E-03 0. -1.
         11   -1    0    0    0    0 -0.00000000000E+00 -0.00000000000E+00 -0.45593999997E+02  0.45594000000E+02  0.51100000000E-03 0.  1.
    9900012    2    1    2    0    0  0.56229460627E+01  0.10377897173E+02  0.14538304188E+02  0.72461533146E+02  0.69999951608E+02 0.  0.
        -12    1    1    2    0    0 -0.56229460627E+01 -0.10377897173E+02 -0.14538304188E+02  0.18726466854E+02  0.00000000000E+00 0.  1.
         11    1    3    3    0    0  0.88016452940E+01 -0.15936427901E+02  0.13857064030E+02  0.22879180884E+02  0.51100000000E-03 0. -1.
        -11    1    3    3    0    0 -0.11784524194E+02 -0.41322041799E+01 -0.10199915486E+02  0.16124155732E+02  0.51100000000E-03 0.  1.
        -12    1    3    3    0    0  0.86058249630E+01  0.30446529254E+02  0.10881155644E+02  0.33458196530E+02  0.00000000000E+00 0.  1.
</event>
<event>
 7    1  0.3435518E-013  0.7246153E+02  0.7816164E-02  0.1226708E+00
        -11   -1    0    0    0    0  0.00000000000E+00  0.00000000000E+00  0.45593999997E+02  0.45594000000E+02  0.51100000000E-03 0.  1.
         11   -1    0    0    0    0 -0.00000000000E+00 -0.00000000000E+00 -0.45593999997E+02  0.45594000000E+02  0.51100000000E-03 0. -1.
    9900012    2    1    2    0    0 -0.18591767433E+02 -0.15806154091E+01 -0.15901437557E+01  0.72461528936E+02  0.69999946123E+02 0.  0.
        -12    1    1    2    0    0  0.18591767433E+02  0.15806154091E+01  0.15901437557E+01  0.18726471064E+02  0.00000000000E+00 0.  1.
         11    1    3    3    0    0  0.17677769919E+02 -0.82071673516E+01 -0.96259692299E+00  0.19513783292E+02  0.51100000000E-03 0. -1.
        -11    1    3    3    0    0  0.30460554568E+01 -0.71204521581E+01 -0.74461854511E+01  0.10743601389E+02  0.51100000000E-03 0.  1.
         12    1    3    3    0    0 -0.39315592809E+02  0.13747004101E+02  0.68186386183E+01  0.42204144255E+02  0.00000000000E+00 0. -1.
</event>
<event>
 7    1  0.3435518E-013  0.7246163E+02  0.7816164E-02  0.1226708E+00
        -11   -1    0    0    0    0  0.00000000000E+00  0.00000000000E+00  0.45593999997E+02  0.45594000000E+02  0.51100000000E-03 0.  1.
         11   -1    0    0    0    0 -0.00000000000E+00 -0.00000000000E+00 -0.45593999997E+02  0.45594000000E+02  0.51100000000E-03 0. -1.
    9900012    2    1    2    0    0 -0.68284410852E+01  0.13557736046E+02  0.10965274039E+02  0.72461626910E+02  0.70000073753E+02 0.  0.
        -12    1    1    2    0    0  0.68284410852E+01 -0.13557736046E+02 -0.10965274039E+02  0.18726373090E+02  0.00000000000E+00 0.  1.
         11    1    3    3    0    0  0.18607012729E+02  0.12101984866E+01  0.22110881740E+02  0.28923633842E+02  0.51100000000E-03 0. -1.
        -11    1    3    3    0    0 -0.35778154462E+01 -0.26021409669E+00  0.99950623806E+01  0.10619310100E+02  0.51100000000E-03 0.  1.
        -12    1    3    3    0    0 -0.21857638368E+02  0.12607751656E+02 -0.21140670082E+02  0.32918682968E+02  0.00000000000E+00 0.  1.
</event>
<event>
 7    1  0.3435518E-013  0.7246160E+02  0.7816164E-02  0.1226708E+00
        -11   -1    0    0    0    0  0.00000000000E+00  0.00000000000E+00  0.45593999997E+02  0.45594000000E+02  0.51100000000E-03 0.  1.
         11   -1    0    0    0    0 -0.00000000000E+00 -0.00000000000E+00 -0.45593999997E+02  0.45594000000E+02  0.51100000000E-03 0. -1.
    9900012    2    1    2    0    0  0.70004459543E+01  0.13226295327E+02 -0.11257754756E+02  0.72461596881E+02  0.70000034634E+02 0.  0.
        -12    1    1    2    0    0 -0.70004459543E+01 -0.13226295327E+02  0.11257754756E+02  0.18726403119E+02  0.00000000000E+00 0.  1.
         11    1    3    3    0    0 -0.12808288598E+02  0.54512645701E+01  0.37680939762E+01  0.14421063577E+02  0.51100000000E-03 0. -1.
        -11    1    3    3    0    0 -0.13876303863E+02 -0.10783631886E+02 -0.38512935224E+01  0.17990858445E+02  0.51100000000E-03 0.  1.
         12    1    3    3    0    0  0.33685038415E+02  0.18558662642E+02 -0.11174555210E+02  0.40049674858E+02  0.00000000000E+00 0. -1.
</event>
<event>
 7    1  0.4311946E-013  0.7246158E+02  0.7816164E-02  0.1226708E+00
        -11   -1    0    0    0    0  0.00000000000E+00  0.00000000000E+00  0.45593999997E+02  0.45594000000E+02  0.51100000000E-03 0. -1.
         11   -1    0    0    0    0 -0.00000000000E+00 -0.00000000000E+00 -0.45593999997E+02  0.45594000000E+02  0.51100000000E-03 0.  1.
    9900012    2    1    2    0    0 -0.56007057412E+01  0.17580322868E+02 -0.32005113192E+01  0.72461576699E+02  0.70000008344E+02 0.  0.
        -12    1    1    2    0    0  0.56007057412E+01 -0.17580322868E+02  0.32005113192E+01  0.18726423301E+02  0.00000000000E+00 0.  1.
         11    1    3    3    0    0 -0.15012830359E+02  0.50466021426E+01 -0.63644772251E+01  0.17069265924E+02  0.51100000000E-03 0.  1.
        -11    1    3    3    0    0  0.18276784703E+02  0.29634412539E+02  0.75754431874E+01  0.35631820124E+02  0.51100000000E-03 0. -1.
         12    1    3    3    0    0 -0.88646600852E+01 -0.17100691814E+02 -0.44114772815E+01  0.19760490651E+02  0.00000000000E+00 0. -1.
</event>
<event>
 7    1  0.3435518E-013  0.7246157E+02  0.7816164E-02  0.1226708E+00
        -11   -1    0    0    0    0  0.00000000000E+00  0.00000000000E+00  0.45593999997E+02  0.45594000000E+02  0.51100000000E-03 0. -1.
         11   -1    0    0    0    0 -0.00000000000E+00 -0.00000000000E+00 -0.45593999997E+02  0.45594000000E+02  0.51100000000E-03 0.  1.
    9900012    2    1    2    0    0  0.16836025090E+02  0.40909617936E+01 -0.71057310303E+01  0.72461571545E+02  0.70000001629E+02 0.  0.
        -12    1    1    2    0    0 -0.16836025090E+02 -0.40909617936E+01  0.71057310303E+01  0.18726428455E+02  0.00000000000E+00 0.  1.
         11    1    3    3    0    0  0.55451586729E+01 -0.28937996091E+01  0.53115431826E+01  0.82058120943E+01  0.51100000000E-03 0. -1.
        -11    1    3    3    0    0  0.12794534871E+01 -0.26073163889E+02 -0.14109626692E+02  0.29673699501E+02  0.51100000000E-03 0.  1.
         12    1    3    3    0    0  0.10011412930E+02  0.33057925292E+02  0.16923524789E+01  0.34582059950E+02  0.00000000000E+00 0. -1.
</event>
<event>
 7    1  0.3435518E-013  0.7246125E+02  0.7816164E-02  0.1226709E+00
        -11   -1    0    0    0    0  0.00000000000E+00  0.00000000000E+00  0.45593999997E+02  0.45594000000E+02  0.51100000000E-03 0.  1.
         11   -1    0    0    0    0 -0.00000000000E+00 -0.00000000000E+00 -0.45593999997E+02  0.45594000000E+02  0.51100000000E-03 0. -1.
    9900012    2    1    2    0    0 -0.74094167180E+01  0.15947272107E+02 -0.64402043398E+01  0.72461249730E+02  0.69999582404E+02 0.  0.
        -12    1    1    2    0    0  0.74094167180E+01 -0.15947272107E+02  0.64402043398E+01  0.18726750270E+02  0.00000000000E+00 0.  1.
         11    1    3    3    0    0 -0.15972600049E+02 -0.11077209390E+02 -0.14677151754E+02  0.24356668575E+02  0.51100000000E-03 0. -1.
        -11    1    3    3    0    0 -0.89077751479E+00 -0.13468898999E+01 -0.11927525660E+02  0.12036339377E+02  0.51100000000E-03 0.  1.
        -12    1    3    3    0    0  0.94539608458E+01  0.28371371396E+02  0.20164473074E+02  0.36068241778E+02  0.00000000000E+00 0.  1.
</event>
<event>
 7    1  0.3435518E-013  0.7246156E+02  0.7816164E-02  0.1226708E+00
        -11   -1    0    0    0    0  0.00000000000E+00  0.00000000000E+00  0.45593999997E+02  0.45594000000E+02  0.51100000000E-03 0. -1.
         11   -1    0    0    0    0 -0.00000000000E+00 -0.00000000000E+00 -0.45593999997E+02  0.45594000000E+02  0.51100000000E-03 0.  1.
    9900012    2    1    2    0    0 -0.52339326472E+01 -0.75021933038E+01  0.16340218421E+02  0.72461556307E+02  0.69999981779E+02 0.  0.
        -12    1    1    2    0    0  0.52339326472E+01  0.75021933038E+01 -0.16340218421E+02  0.18726443693E+02  0.00000000000E+00 0.  1.
         11    1    3    3    0    0  0.93333780419E+01 -0.53292810667E+01  0.18575664030E+02  0.21460859181E+02  0.51100000000E-03 0. -1.
        -11    1    3    3    0    0  0.12284585537E+02 -0.11587218797E+02 -0.12220670112E+02  0.20845130355E+02  0.51100000000E-03 0.  1.
        -12    1    3    3    0    0 -0.26851896226E+02  0.94143065600E+01  0.99852245025E+01  0.30155566771E+02  0.00000000000E+00 0.  1.
</event>
<event>
 7    1  0.3435518E-013  0.7246159E+02  0.7816164E-02  0.1226708E+00
        -11   -1    0    0    0    0  0.00000000000E+00  0.00000000000E+00  0.45593999997E+02  0.45594000000E+02  0.51100000000E-03 0.  1.
         11   -1    0    0    0    0 -0.00000000000E+00 -0.00000000000E+00 -0.45593999997E+02  0.45594000000E+02  0.51100000000E-03 0. -1.
    9900012    2    1    2    0    0  0.47608942807E+01 -0.15555647698E+02 -0.92754562013E+01  0.72461591444E+02  0.70000027551E+02 0.  0.
        -12    1    1    2    0    0 -0.47608942807E+01  0.15555647698E+02  0.92754562013E+01  0.18726408556E+02  0.00000000000E+00 0.  1.
         11    1    3    3    0    0  0.84375316725E+00  0.14096009946E+02 -0.12577995663E+01  0.14177146251E+02  0.51100000000E-03 0. -1.
        -11    1    3    3    0    0  0.14291899860E+01  0.74724336213E+01  0.13359039747E+02  0.15373476883E+02  0.51100000000E-03 0.  1.
         12    1    3    3    0    0  0.24879511275E+01 -0.37124091266E+02 -0.21376696382E+02  0.42910968310E+02  0.00000000000E+00 0. -1.
</event>
<event>
 7    1  0.3435518E-013  0.7246155E+02  0.7816164E-02  0.1226708E+00
        -11   -1    0    0    0    0  0.00000000000E+00  0.00000000000E+00  0.45593999997E+02  0.45594000000E+02  0.51100000000E-03 0.  1.
         11   -1    0    0    0    0 -0.00000000000E+00 -0.00000000000E+00 -0.45593999997E+02  0.45594000000E+02  0.51100000000E-03 0. -1.
    9900012    2    1    2    0    0  0.14133738376E+01 -0.65116328399E+01 -0.17500886729E+02  0.72461547476E+02  0.69999970275E+02 0.  0.
        -12    1    1    2    0    0 -0.14133738376E+01  0.65116328399E+01  0.17500886729E+02  0.18726452524E+02  0.00000000000E+00 0.  1.
         11    1    3    3    0    0  0.28598720646E+01  0.44589320096E+01 -0.89854064226E+01  0.10430650590E+02  0.51100000000E-03 0. -1.
        -11    1    3    3    0    0 -0.17809978039E+02  0.19765302977E+02 -0.29533869445E+01  0.26769105593E+02  0.51100000000E-03 0.  1.
         12    1    3    3    0    0  0.16363479812E+02 -0.30735867827E+02 -0.55620933615E+01  0.35261791293E+02  0.00000000000E+00 0. -1.
</event>
<event>
 7    1  0.3435518E-013  0.7246184E+02  0.7816164E-02  0.1226707E+00
        -11   -1    0    0    0    0  0.00000000000E+00  0.00000000000E+00  0.45593999997E+02  0.45594000000E+02  0.51100000000E-03 0.  1.
         11   -1    0    0    0    0 -0.00000000000E+00 -0.00000000000E+00 -0.45593999997E+02  0.45594000000E+02  0.51100000000E-03 0. -1.
    9900012    2    1    2    0    0  0.15739638561E+01  0.16913131626E+02 -0.78827455045E+01  0.72461840215E+02  0.70000351620E+02 0.  0.
        -12    1    1    2    0    0 -0.15739638561E+01 -0.16913131626E+02  0.78827455045E+01  0.18726159785E+02  0.00000000000E+00 0.  1.
         11    1    3    3    0    0  0.25643802388E+02  0.40210511523E+01 -0.18515184073E+01  0.26023096933E+02  0.51100000000E-03 0. -1.
        -11    1    3    3    0    0  0.58111397587E+01  0.64929225871E+01  0.88757972787E+01  0.12438133566E+02  0.51100000000E-03 0.  1.
         12    1    3    3    0    0 -0.29880978291E+02  0.63991578866E+01 -0.14907024376E+02  0.34000609716E+02  0.00000000000E+00 0. -1.
</event>
<event>
 7    1  0.3435518E-013  0.7246162E+02  0.7816164E-02  0.1226708E+00
        -11   -1    0    0    0    0  0.00000000000E+00  0.00000000000E+00  0.45593999997E+02  0.45594000000E+02  0.51100000000E-03 0. -1.
         11   -1    0    0    0    0 -0.00000000000E+00 -0.00000000000E+00 -0.45593999997E+02  0.45594000000E+02  0.51100000000E-03 0.  1.
    9900012    2    1    2    0    0  0.15327805403E+02  0.10525272696E+02  0.22258596244E+01  0.72461616610E+02  0.70000060335E+02 0.  0.
        -12    1    1    2    0    0 -0.15327805403E+02 -0.10525272696E+02 -0.22258596244E+01  0.18726383390E+02  0.00000000000E+00 0.  1.
         11    1    3    3    0    0  0.14312866156E+02 -0.80910891237E+01 -0.30245465548E+01  0.16717408379E+02  0.51100000000E-03 0. -1.
        -11    1    3    3    0    0  0.80140662693E+01  0.43494886492E+01  0.27176253434E+02  0.28665171561E+02  0.51100000000E-03 0.  1.
        -12    1    3    3    0    0 -0.69991270217E+01  0.14266873170E+02 -0.21925847254E+02  0.27079036669E+02  0.00000000000E+00 0.  1.
</event>
<event>
 7    1  0.3435518E-013  0.7246158E+02  0.7816164E-02  0.1226708E+00
        -11   -1    0    0    0    0  0.00000000000E+00  0.00000000000E+00  0.45593999997E+02  0.45594000000E+02  0.51100000000E-03 0. -1.
         11   -1    0    0    0    0 -0.00000000000E+00 -0.00000000000E+00 -0.45593999997E+02  0.45594000000E+02  0.51100000000E-03 0.  1.
    9900012    2    1    2    0    0  0.10105951810E+02  0.24315983160E+01  0.15576769736E+02  0.72461583157E+02  0.70000016756E+02 0.  0.
        -12    1    1    2    0    0 -0.10105951810E+02 -0.24315983160E+01 -0.15576769736E+02  0.18726416843E+02  0.00000000000E+00 0.  1.
         11    1    3    3    0    0  0.76470220727E+01 -0.99334531877E+01  0.73274754248E+01  0.14520410985E+02  0.51100000000E-03 0. -1.
        -11    1    3    3    0    0 -0.13066997387E+02  0.69631459414E+01 -0.20223047707E+02  0.25063987730E+02  0.51100000000E-03 0.  1.
         12    1    3    3    0    0  0.15525927124E+02  0.54019055623E+01  0.28472342019E+02  0.32877184442E+02  0.00000000000E+00 0. -1.
</event>
<event>
 7    1  0.3435518E-013  0.7246157E+02  0.7816164E-02  0.1226708E+00
        -11   -1    0    0    0    0  0.00000000000E+00  0.00000000000E+00  0.45593999997E+02  0.45594000000E+02  0.51100000000E-03 0.  1.
         11   -1    0    0    0    0 -0.00000000000E+00 -0.00000000000E+00 -0.45593999997E+02  0.45594000000E+02  0.51100000000E-03 0. -1.
    9900012    2    1    2    0    0  0.17565505078E+02  0.64021007763E-01 -0.64906163290E+01  0.72461570344E+02  0.70000000065E+02 0.  0.
        -12    1    1    2    0    0 -0.17565505078E+02 -0.64021007763E-01  0.64906163290E+01  0.18726429656E+02  0.00000000000E+00 0.  1.
         11    1    3    3    0    0  0.13106209732E+02 -0.17354476989E+01 -0.11129032247E+02  0.17281199937E+02  0.51100000000E-03 0. -1.
        -11    1    3    3    0    0  0.10705109888E+01 -0.62820846383E+00  0.29724441570E+02  0.29750345655E+02  0.51100000000E-03 0.  1.
         12    1    3    3    0    0  0.33887843569E+01  0.24276771705E+01 -0.25086025653E+02  0.25430024752E+02  0.00000000000E+00 0. -1.
</event>
<event>
 7    1  0.3435518E-013  0.7246157E+02  0.7816164E-02  0.1226708E+00
        -11   -1    0    0    0    0  0.00000000000E+00  0.00000000000E+00  0.45593999997E+02  0.45594000000E+02  0.51100000000E-03 0. -1.
         11   -1    0    0    0    0 -0.00000000000E+00 -0.00000000000E+00 -0.45593999997E+02  0.45594000000E+02  0.51100000000E-03 0.  1.
    9900012    2    1    2    0    0 -0.22939864162E+01  0.10173716452E+02  0.15553530704E+02  0.72461569548E+02  0.69999999027E+02 0.  0.
        -12    1    1    2    0    0  0.22939864162E+01 -0.10173716452E+02 -0.15553530704E+02  0.18726430452E+02  0.00000000000E+00 0.  1.
         11    1    3    3    0    0 -0.23765264881E+01  0.10605976313E+02  0.64752505031E+01  0.12651619700E+02  0.51100000000E-03 0. -1.
        -11    1    3    3    0    0  0.98692796357E+00  0.26555071248E+02 -0.81312413553E+01  0.27789618962E+02  0.51100000000E-03 0.  1.
         12    1    3    3    0    0 -0.90438789165E+00 -0.26987331109E+02  0.17209521556E+02  0.32020330886E+02  0.00000000000E+00 0. -1.
</event>
<event>
 7    1  0.3435518E-013  0.7246160E+02  0.7816164E-02  0.1226708E+00
        -11   -1    0    0    0    0  0.00000000000E+00  0.00000000000E+00  0.45593999997E+02  0.45594000000E+02  0.51100000000E-03 0.  1.
         11   -1    0    0    0    0 -0.00000000000E+00 -0.00000000000E+00 -0.45593999997E+02  0.45594000000E+02  0.51100000000E-03 0. -1.
    9900012    2    1    2    0    0 -0.23794394284E+00  0.32095590582E+01 -0.18447767928E+02  0.72461600768E+02  0.70000039697E+02 0.  0.
        -12    1    1    2    0    0  0.23794394284E+00 -0.32095590582E+01  0.18447767928E+02  0.18726399232E+02  0.00000000000E+00 0.  1.
         11    1    3    3    0    0 -0.16887947089E+01  0.15046113700E+02 -0.33140456439E+02  0.36435249667E+02  0.51100000000E-03 0. -1.
        -11    1    3    3    0    0  0.10823670750E+02 -0.80603178729E+01 -0.45916145323E+01  0.14254946404E+02  0.51100000000E-03 0.  1.
        -12    1    3    3    0    0 -0.93728199841E+01 -0.37762367690E+01  0.19284303043E+02  0.21771404696E+02  0.00000000000E+00 0.  1.
</event>
<event>
 7    1  0.3435518E-013  0.7246156E+02  0.7816164E-02  0.1226708E+00
        -11   -1    0    0    0    0  0.00000000000E+00  0.00000000000E+00  0.45593999997E+02  0.45594000000E+02  0.51100000000E-03 0.  1.
         11   -1    0    0    0    0 -0.00000000000E+00 -0.00000000000E+00 -0.45593999997E+02  0.45594000000E+02  0.51100000000E-03 0. -1.
    9900012    2    1    2    0    0 -0.16310606006E+01  0.43719352219E+01 -0.18135752497E+02  0.72461556266E+02  0.69999981726E+02 0.  0.
        -12    1    1    2    0    0  0.16310606006E+01 -0.43719352219E+01  0.18135752497E+02  0.18726443734E+02  0.00000000000E+00 0.  1.
         11    1    3    3    0    0  0.20582217123E+02  0.92715014212E+01 -0.90254512568E+01  0.24311461720E+02  0.51100000000E-03 0. -1.
        -11    1    3    3    0    0 -0.43693243606E+01 -0.59521349626E+01 -0.23859374255E+02  0.24975761171E+02  0.51100000000E-03 0.  1.
        -12    1    3    3    0    0 -0.17843953363E+02  0.10525687632E+01  0.14749073014E+02  0.23174333376E+02  0.00000000000E+00 0.  1.
</event>
<event>
 7    1  0.3435518E-013  0.7246156E+02  0.7816164E-02  0.1226708E+00
        -11   -1    0    0    0    0  0.00000000000E+00  0.00000000000E+00  0.45593999997E+02  0.45594000000E+02  0.51100000000E-03 0.  1.
         11   -1    0    0    0    0 -0.00000000000E+00 -0.00000000000E+00 -0.45593999997E+02  0.45594000000E+02  0.51100000000E-03 0. -1.
    9900012    2    1    2    0    0  0.94614441777E+01  0.28338389113E+01 -0.15910056679E+02  0.72461562206E+02  0.69999989464E+02 0.  0.
        -12    1    1    2    0    0 -0.94614441777E+01 -0.28338389113E+01  0.15910056679E+02  0.18726437794E+02  0.00000000000E+00 0.  1.
         11    1    3    3    0    0  0.54309512255E+01  0.40223548888E+01 -0.18377689218E+02  0.19580960940E+02  0.51100000000E-03 0. -1.
        -11    1    3    3    0    0  0.24034517987E+01 -0.58345370841E+01 -0.24585941607E+02  0.25382807735E+02  0.51100000000E-03 0.  1.
        -12    1    3    3    0    0  0.16270411535E+01  0.46460211067E+01  0.27053574146E+02  0.27497793531E+02  0.00000000000E+00 0.  1.
</event>
<event>
 7    1  0.3435518E-013  0.7246153E+02  0.7816164E-02  0.1226708E+00
        -11   -1    0    0    0    0  0.00000000000E+00  0.00000000000E+00  0.45593999997E+02  0.45594000000E+02  0.51100000000E-03 0.  1.
         11   -1    0    0    0    0 -0.00000000000E+00 -0.00000000000E+00 -0.45593999997E+02  0.45594000000E+02  0.51100000000E-03 0. -1.
    9900012    2    1    2    0    0  0.91043110581E+01  0.85195366132E+01 -0.13971748359E+02  0.72461528465E+02  0.69999945509E+02 0.  0.
        -12    1    1    2    0    0 -0.91043110581E+01 -0.85195366132E+01  0.13971748359E+02  0.18726471535E+02  0.00000000000E+00 0.  1.
         11    1    3    3    0    0 -0.73582445820E+01 -0.97119546516E+01  0.16261415745E+02  0.20319927873E+02  0.51100000000E-03 0. -1.
        -11    1    3    3    0    0  0.21412549678E+02  0.10019790300E+02 -0.36994689543E+01  0.23928634566E+02  0.51100000000E-03 0.  1.
        -12    1    3    3    0    0 -0.49499940380E+01  0.82117009650E+01 -0.26533695149E+02  0.28212966026E+02  0.00000000000E+00 0.  1.
</event>
<event>
 7    1  0.3435518E-013  0.7246156E+02  0.7816164E-02  0.1226708E+00
        -11   -1    0    0    0    0  0.00000000000E+00  0.00000000000E+00  0.45593999997E+02  0.45594000000E+02  0.51100000000E-03 0. -1.
         11   -1    0    0    0    0 -0.00000000000E+00 -0.00000000000E+00 -0.45593999997E+02  0.45594000000E+02  0.51100000000E-03 0.  1.
    9900012    2    1    2    0    0  0.71136285199E+01 -0.16759221223E+02 -0.43822734073E+01  0.72461560751E+02  0.69999987568E+02 0.  0.
        -12    1    1    2    0    0 -0.71136285199E+01  0.16759221223E+02  0.43822734073E+01  0.18726439249E+02  0.00000000000E+00 0.  1.
         11    1    3    3    0    0 -0.80288711074E+01 -0.33541394962E+02  0.92781595110E+01  0.35715153527E+02  0.51100000000E-03 0. -1.
        -11    1    3    3    0    0 -0.14954979457E+01 -0.58188381986E+01 -0.30997815769E+01  0.67604761794E+01  0.51100000000E-03 0.  1.
        -12    1    3    3    0    0  0.16637997573E+02  0.22601011938E+02 -0.10560651341E+02  0.29985931045E+02  0.00000000000E+00 0.  1.
</event>
<event>
 7    1  0.3435518E-013  0.7246154E+02  0.7816164E-02  0.1226708E+00
        -11   -1    0    0    0    0  0.00000000000E+00  0.00000000000E+00  0.45593999997E+02  0.45594000000E+02  0.51100000000E-03 0.  1.
         11   -1    0    0    0    0 -0.00000000000E+00 -0.00000000000E+00 -0.45593999997E+02  0.45594000000E+02  0.51100000000E-03 0. -1.
    9900012    2    1    2    0    0  0.13763471825E+01  0.18650675476E+02  0.96864942252E+00  0.72461539871E+02  0.69999960368E+02 0.  0.
        -12    1    1    2    0    0 -0.13763471825E+01 -0.18650675476E+02 -0.96864942252E+00  0.18726460129E+02  0.00000000000E+00 0.  1.
         11    1    3    3    0    0 -0.56336806710E+01  0.13158526850E+02 -0.94115289445E+01  0.17130734488E+02  0.51100000000E-03 0. -1.
        -11    1    3    3    0    0 -0.71054048029E+01  0.51086464367E+01 -0.19999187348E+02  0.21830083387E+02  0.51100000000E-03 0.  1.
        -12    1    3    3    0    0  0.14115432656E+02  0.38350218904E+00  0.30379365715E+02  0.33500721996E+02  0.00000000000E+00 0.  1.
</event>
<event>
 7    1  0.3435518E-013  0.7246160E+02  0.7816164E-02  0.1226708E+00
        -11   -1    0    0    0    0  0.00000000000E+00  0.00000000000E+00  0.45593999997E+02  0.45594000000E+02  0.51100000000E-03 0.  1.
         11   -1    0    0    0    0 -0.00000000000E+00 -0.00000000000E+00 -0.45593999997E+02  0.45594000000E+02  0.51100000000E-03 0. -1.
    9900012    2    1    2    0    0  0.17706992763E+02  0.26287432375E+01  0.54982071456E+01  0.72461597101E+02  0.70000034920E+02 0.  0.
        -12    1    1    2    0    0 -0.17706992763E+02 -0.26287432375E+01 -0.54982071456E+01  0.18726402899E+02  0.00000000000E+00 0.  1.
         11    1    3    3    0    0  0.32844810128E+01  0.20367462847E+02 -0.20990482170E+02  0.29431644540E+02  0.51100000000E-03 0. -1.
        -11    1    3    3    0    0 -0.58761387140E+01 -0.53502847325E+01  0.74222047553E+00  0.79815690438E+01  0.51100000000E-03 0.  1.
        -12    1    3    3    0    0  0.20298650464E+02 -0.12388434877E+02  0.25746468840E+02  0.35048383517E+02  0.00000000000E+00 0.  1.
</event>
<event>
 7    1  0.3435518E-013  0.7246159E+02  0.7816164E-02  0.1226708E+00
        -11   -1    0    0    0    0  0.00000000000E+00  0.00000000000E+00  0.45593999997E+02  0.45594000000E+02  0.51100000000E-03 0. -1.
         11   -1    0    0    0    0 -0.00000000000E+00 -0.00000000000E+00 -0.45593999997E+02  0.45594000000E+02  0.51100000000E-03 0.  1.
    9900012    2    1    2    0    0 -0.80924010217E+01  0.13876394595E+02  0.96248262454E+01  0.72461586528E+02  0.70000021148E+02 0.  0.
        -12    1    1    2    0    0  0.80924010217E+01 -0.13876394595E+02 -0.96248262454E+01  0.18726413472E+02  0.00000000000E+00 0.  1.
         11    1    3    3    0    0  0.14231257723E+02  0.36557244307E+01  0.14030479476E+01  0.14760134189E+02  0.51100000000E-03 0. -1.
        -11    1    3    3    0    0 -0.64216154876E+01  0.30385196639E+02  0.12051631427E+01  0.31079731960E+02  0.51100000000E-03 0.  1.
         12    1    3    3    0    0 -0.15902043257E+02 -0.20164526474E+02  0.70166151550E+01  0.26621720378E+02  0.00000000000E+00 0. -1.
</event>
<event>
 7    1  0.3435518E-013  0.7246144E+02  0.7816164E-02  0.1226708E+00
        -11   -1    0    0    0    0  0.00000000000E+00  0.00000000000E+00  0.45593999997E+02  0.45594000000E+02  0.51100000000E-03 0.  1.
         11   -1    0    0    0    0 -0.00000000000E+00 -0.00000000000E+00 -0.45593999997E+02  0.45594000000E+02  0.51100000000E-03 0. -1.
    9900012    2    1    2    0    0 -0.99260581064E+01 -0.15735583939E+01 -0.15801313599E+02  0.72461435259E+02  0.69999824091E+02 0.  0.
        -12    1    1    2    0    0  0.99260581064E+01  0.15735583939E+01  0.15801313599E+02  0.18726564741E+02  0.00000000000E+00 0.  1.
         11    1    3    3    0    0 -0.36153544781E+01 -0.66050297116E+01 -0.36813260903E+02  0.37575435914E+02  0.51100000000E-03 0. -1.
        -11    1    3    3    0    0 -0.87887477510E+01 -0.43351927384E+01 -0.19246021348E+01  0.99869953814E+01  0.51100000000E-03 0.  1.
        -12    1    3    3    0    0  0.24780441227E+01  0.93666640562E+01  0.22936549439E+02  0.24899003964E+02  0.00000000000E+00 0.  1.
</event>
<event>
 7    1  0.3435518E-013  0.7246183E+02  0.7816164E-02  0.1226707E+00
        -11   -1    0    0    0    0  0.00000000000E+00  0.00000000000E+00  0.45593999997E+02  0.45594000000E+02  0.51100000000E-03 0. -1.
         11   -1    0    0    0    0 -0.00000000000E+00 -0.00000000000E+00 -0.45593999997E+02  0.45594000000E+02  0.51100000000E-03 0.  1.
    9900012    2    1    2    0    0  0.12578063624E+01  0.65744643815E+01  0.17488960617E+02  0.72461831085E+02  0.70000339728E+02 0.  0.
        -12    1    1    2    0    0 -0.12578063624E+01 -0.65744643815E+01 -0.17488960617E+02  0.18726168915E+02  0.00000000000E+00 0.  1.
         11    1    3    3    0    0  0.18620614395E+02  0.23753307173E+02  0.19529745866E+02  0.35949379076E+02  0.51100000000E-03 0. -1.
        -11    1    3    3    0    0 -0.21835226245E+01  0.19329314776E+01  0.91932911882E+01  0.96447186730E+01  0.51100000000E-03 0.  1.
        -12    1    3    3    0    0 -0.15179285408E+02 -0.19111774269E+02 -0.11234076437E+02  0.26867733336E+02  0.00000000000E+00 0.  1.
</event>
<event>
 7    1  0.3435518E-013  0.7246152E+02  0.7816164E-02  0.1226708E+00
        -11   -1    0    0    0    0  0.00000000000E+00  0.00000000000E+00  0.45593999997E+02  0.45594000000E+02  0.51100000000E-03 0. -1.
         11   -1    0    0    0    0 -0.00000000000E+00 -0.00000000000E+00 -0.45593999997E+02  0.45594000000E+02  0.51100000000E-03 0.  1.
    9900012    2    1    2    0    0  0.70306197024E+01 -0.17170594251E+02  0.25341794878E+01  0.72461521794E+02  0.69999936820E+02 0.  0.
        -12    1    1    2    0    0 -0.70306197024E+01  0.17170594251E+02 -0.25341794878E+01  0.18726478206E+02  0.00000000000E+00 0.  1.
         11    1    3    3    0    0  0.34779095671E+02 -0.11271978532E+02  0.24577030798E+01  0.36642643197E+02  0.51100000000E-03 0. -1.
        -11    1    3    3    0    0 -0.13968803665E+01 -0.81254491268E+01 -0.38221777093E+01  0.90875321718E+01  0.51100000000E-03 0.  1.
        -12    1    3    3    0    0 -0.26351595602E+02  0.22268334085E+01  0.38986541173E+01  0.26731346426E+02  0.00000000000E+00 0.  1.
</event>
<event>
 7    1  0.3435518E-013  0.7246159E+02  0.7816164E-02  0.1226708E+00
        -11   -1    0    0    0    0  0.00000000000E+00  0.00000000000E+00  0.45593999997E+02  0.45594000000E+02  0.51100000000E-03 0.  1.
         11   -1    0    0    0    0 -0.00000000000E+00 -0.00000000000E+00 -0.45593999997E+02  0.45594000000E+02  0.51100000000E-03 0. -1.
    9900012    2    1    2    0    0  0.17584144390E+01  0.18023542084E+02 -0.47684888872E+01  0.72461586119E+02  0.70000020614E+02 0.  0.
        -12    1    1    2    0    0 -0.17584144390E+01 -0.18023542084E+02  0.47684888872E+01  0.18726413881E+02  0.00000000000E+00 0.  1.
         11    1    3    3    0    0 -0.50047242592E+01  0.48464703424E+01 -0.18676419238E+02  0.19933493811E+02  0.51100000000E-03 0. -1.
        -11    1    3    3    0    0 -0.86065308076E+01 -0.55514961234E+01 -0.12849524158E+02  0.16431730070E+02  0.51100000000E-03 0.  1.
        -12    1    3    3    0    0  0.15369669506E+02  0.18728567865E+02  0.26757454509E+02  0.36096362238E+02  0.00000000000E+00 0.  1.
</event>
<event>
 7    1  0.3435518E-013  0.7246154E+02  0.7816164E-02  0.1226708E+00
        -11   -1    0    0    0    0  0.00000000000E+00  0.00000000000E+00  0.45593999997E+02  0.45594000000E+02  0.51100000000E-03 0. -1.
         11   -1    0    0    0    0 -0.00000000000E+00 -0.00000000000E+00 -0.45593999997E+02  0.45594000000E+02  0.51100000000E-03 0.  1.
    9900012    2    1    2    0    0  0.10042991355E+02  0.13439676332E+02  0.83182766402E+01  0.72461540069E+02  0.69999960627E+02 0.  0.
        -12    1    1    2    0    0 -0.10042991355E+02 -0.13439676332E+02 -0.83182766402E+01  0.18726459931E+02  0.00000000000E+00 0.  1.
         11    1    3    3    0    0  0.37246003798E+01 -0.88618956337E+01 -0.64027088566E+01  0.11549914423E+02  0.51100000000E-03 0. -1.
        -11    1    3    3    0    0  0.26878036708E+02  0.38284003213E+01  0.18729038535E+02  0.32982758996E+02  0.51100000000E-03 0.  1.
         12    1    3    3    0    0 -0.20559645732E+02  0.18473171644E+02 -0.40080530379E+01  0.27928866651E+02  0.00000000000E+00 0. -1.
</event>
<event>
 7    1  0.3435518E-013  0.7246156E+02  0.7816164E-02  0.1226708E+00
        -11   -1    0    0    0    0  0.00000000000E+00  0.00000000000E+00  0.45593999997E+02  0.45594000000E+02  0.51100000000E-03 0. -1.
         11   -1    0    0    0    0 -0.00000000000E+00 -0.00000000000E+00 -0.45593999997E+02  0.45594000000E+02  0.51100000000E-03 0.  1.
    9900012    2    1    2    0    0  0.16251484054E+02 -0.88023583755E+01  0.30144893717E+01  0.72461564325E+02  0.69999992223E+02 0.  0.
        -12    1    1    2    0    0 -0.16251484054E+02  0.88023583755E+01 -0.30144893717E+01  0.18726435675E+02  0.00000000000E+00 0.  1.
         11    1    3    3    0    0  0.63774233434E+01  0.29484583950E+01 -0.73817248413E+01  0.10190917393E+02  0.51100000000E-03 0. -1.
        -11    1    3    3    0    0 -0.20239842335E+02 -0.15200594988E+02 -0.83229224540E+01  0.26645456351E+02  0.51100000000E-03 0.  1.
         12    1    3    3    0    0  0.30113903045E+02  0.34497782176E+01  0.18719136667E+02  0.35625190581E+02  0.00000000000E+00 0. -1.
</event>
<event>
 7    1  0.3435518E-013  0.7246157E+02  0.7816164E-02  0.1226708E+00
        -11   -1    0    0    0    0  0.00000000000E+00  0.00000000000E+00  0.45593999997E+02  0.45594000000E+02  0.51100000000E-03 0.  1.
         11   -1    0    0    0    0 -0.00000000000E+00 -0.00000000000E+00 -0.45593999997E+02  0.45594000000E+02  0.51100000000E-03 0. -1.
    9900012    2    1    2    0    0 -0.72795738116E+00  0.12888019898E+02 -0.13566439531E+02  0.72461567868E+02  0.69999996839E+02 0.  0.
        -12    1    1    2    0    0  0.72795738116E+00 -0.12888019898E+02  0.13566439531E+02  0.18726432132E+02  0.00000000000E+00 0.  1.
         11    1    3    3    0    0  0.85131726151E+01  0.14240462854E+02 -0.10336325817E+02  0.19547494007E+02  0.51100000000E-03 0. -1.
        -11    1    3    3    0    0 -0.24210100620E+02  0.15646650896E+02 -0.76778924734E+01  0.29831136240E+02  0.51100000000E-03 0.  1.
         12    1    3    3    0    0  0.14968970624E+02 -0.16999093852E+02  0.44477787597E+01  0.23082937621E+02  0.00000000000E+00 0. -1.
</event>
<event>
 7    1  0.3435518E-013  0.7246150E+02  0.7816164E-02  0.1226708E+00
        -11   -1    0    0    0    0  0.00000000000E+00  0.00000000000E+00  0.45593999997E+02  0.45594000000E+02  0.51100000000E-03 0.  1.
         11   -1    0    0    0    0 -0.00000000000E+00 -0.00000000000E+00 -0.45593999997E+02  0.45594000000E+02  0.51100000000E-03 0. -1.
    9900012    2    1    2    0    0  0.17999346156E+02 -0.15416324839E+01 -0.49324091380E+01  0.72461501324E+02  0.69999910154E+02 0.  0.
        -12    1    1    2    0    0 -0.17999346156E+02  0.15416324839E+01  0.49324091380E+01  0.18726498676E+02  0.00000000000E+00 0.  1.
         11    1    3    3    0    0 -0.84489946248E+01 -0.65315434544E+01 -0.10295874245E+02  0.14834136200E+02  0.51100000000E-03 0. -1.
        -11    1    3    3    0    0  0.19555089748E+02 -0.55050242947E+01 -0.20509987330E+02  0.28868086325E+02  0.51100000000E-03 0.  1.
        -12    1    3    3    0    0  0.68932510321E+01  0.10494935265E+02  0.25873452437E+02  0.28759278799E+02  0.00000000000E+00 0.  1.
</event>
<event>
 7    1  0.3435518E-013  0.7246160E+02  0.7816164E-02  0.1226708E+00
        -11   -1    0    0    0    0  0.00000000000E+00  0.00000000000E+00  0.45593999997E+02  0.45594000000E+02  0.51100000000E-03 0. -1.
         11   -1    0    0    0    0 -0.00000000000E+00 -0.00000000000E+00 -0.45593999997E+02  0.45594000000E+02  0.51100000000E-03 0.  1.
    9900012    2    1    2    0    0  0.18103116473E+02  0.46556603915E+01 -0.11313690990E+01  0.72461601634E+02  0.70000040826E+02 0.  0.
        -12    1    1    2    0    0 -0.18103116473E+02 -0.46556603915E+01  0.11313690990E+01  0.18726398366E+02  0.00000000000E+00 0.  1.
         11    1    3    3    0    0 -0.10127556244E+02  0.19971511207E+02 -0.77915704538E+01  0.23709433265E+02  0.51100000000E-03 0. -1.
        -11    1    3    3    0    0 -0.58842951852E+01  0.52254395163E+01 -0.17266764500E+01  0.80567710523E+01  0.51100000000E-03 0.  1.
        -12    1    3    3    0    0  0.34114967902E+02 -0.20541290331E+02  0.83868778048E+01  0.40695397317E+02  0.00000000000E+00 0.  1.
</event>
<event>
 7    1  0.3435518E-013  0.7246157E+02  0.7816164E-02  0.1226708E+00
        -11   -1    0    0    0    0  0.00000000000E+00  0.00000000000E+00  0.45593999997E+02  0.45594000000E+02  0.51100000000E-03 0.  1.
         11   -1    0    0    0    0 -0.00000000000E+00 -0.00000000000E+00 -0.45593999997E+02  0.45594000000E+02  0.51100000000E-03 0. -1.
    9900012    2    1    2    0    0 -0.73999184938E+01  0.13466118510E+02  0.10704392044E+02  0.72461570803E+02  0.70000000663E+02 0.  0.
        -12    1    1    2    0    0  0.73999184938E+01 -0.13466118510E+02 -0.10704392044E+02  0.18726429197E+02  0.00000000000E+00 0.  1.
         11    1    3    3    0    0  0.14230890088E+02 -0.22021857263E+02  0.17981608070E+00  0.26220464605E+02  0.51100000000E-03 0. -1.
        -11    1    3    3    0    0 -0.11791000443E+02  0.52486323440E+01  0.56829044031E+00  0.12918931349E+02  0.51100000000E-03 0.  1.
        -12    1    3    3    0    0 -0.98398081394E+01  0.30239343429E+02  0.99562855226E+01  0.33322174849E+02  0.00000000000E+00 0.  1.
</event>
<event>
 7    1  0.3435518E-013  0.7246168E+02  0.7816164E-02  0.1226708E+00
        -11   -1    0    0    0    0  0.00000000000E+00  0.00000000000E+00  0.45593999997E+02  0.45594000000E+02  0.51100000000E-03 0.  1.
         11   -1    0    0    0    0 -0.00000000000E+00 -0.00000000000E+00 -0.45593999997E+02  0.45594000000E+02  0.51100000000E-03 0. -1.
    9900012    2    1    2    0    0 -0.13716888070E+02 -0.12251138571E+02 -0.35258629607E+01  0.72461678305E+02  0.70000140703E+02 0.  0.
        -12    1    1    2    0    0  0.13716888070E+02  0.12251138571E+02  0.35258629607E+01  0.18726321695E+02  0.00000000000E+00 0.  1.
         11    1    3    3    0    0 -0.90657267391E+01  0.17400765512E+01 -0.54787610626E+01  0.10734621128E+02  0.51100000000E-03 0. -1.
        -11    1    3    3    0    0 -0.32085181190E+02 -0.35437978213E+01 -0.33520529605E+00  0.32282033980E+02  0.51100000000E-03 0.  1.
        -12    1    3    3    0    0  0.27434019859E+02 -0.10447417301E+02  0.22881033980E+01  0.29445023197E+02  0.00000000000E+00 0.  1.
</event>
<event>
 7    1  0.3435518E-013  0.7246159E+02  0.7816164E-02  0.1226708E+00
        -11   -1    0    0    0    0  0.00000000000E+00  0.00000000000E+00  0.45593999997E+02  0.45594000000E+02  0.51100000000E-03 0. -1.
         11   -1    0    0    0    0 -0.00000000000E+00 -0.00000000000E+00 -0.45593999997E+02  0.45594000000E+02  0.51100000000E-03 0.  1.
    9900012    2    1    2    0    0 -0.54300595352E+01 -0.13897635741E+02  0.11315861155E+02  0.72461587118E+02  0.70000021916E+02 0.  0.
        -12    1    1    2    0    0  0.54300595352E+01  0.13897635741E+02 -0.11315861155E+02  0.18726412882E+02  0.00000000000E+00 0.  1.
         11    1    3    3    0    0  0.69459191008E+01 -0.24559796172E+02  0.91672525871E+01  0.27119511434E+02  0.51100000000E-03 0. -1.
        -11    1    3    3    0    0  0.15393399304E+02  0.37551888496E+01  0.49241321942E+01  0.16592325441E+02  0.51100000000E-03 0.  1.
         12    1    3    3    0    0 -0.27769377940E+02  0.69069715813E+01 -0.27755236266E+01  0.28749750242E+02  0.00000000000E+00 0. -1.
</event>
<event>
 7    1  0.3435518E-013  0.7246153E+02  0.7816164E-02  0.1226708E+00
        -11   -1    0    0    0    0  0.00000000000E+00  0.00000000000E+00  0.45593999997E+02  0.45594000000E+02  0.51100000000E-03 0.  1.
         11   -1    0    0    0    0 -0.00000000000E+00 -0.00000000000E+00 -0.45593999997E+02  0.45594000000E+02  0.51100000000E-03 0. -1.
    9900012    2    1    2    0    0 -0.10130279376E+02  0.14260444699E+02 -0.66856569315E+01  0.72461525376E+02  0.69999941485E+02 0.  0.
        -12    1    1    2    0    0  0.10130279376E+02 -0.14260444699E+02  0.66856569315E+01  0.18726474624E+02  0.00000000000E+00 0.  1.
         11    1    3    3    0    0  0.11959241285E+01  0.16374647553E+02 -0.20814914703E+02  0.26510752373E+02  0.51100000000E-03 0. -1.
        -11    1    3    3    0    0 -0.10636918533E+02  0.17955118866E+02 -0.86805635382E+00  0.20887408922E+02  0.51100000000E-03 0.  1.
        -12    1    3    3    0    0 -0.68928497127E+00 -0.20069321720E+02  0.14997314126E+02  0.25063364081E+02  0.00000000000E+00 0.  1.
</event>
<event>
 7    1  0.3435518E-013  0.7246157E+02  0.7816164E-02  0.1226708E+00
        -11   -1    0    0    0    0  0.00000000000E+00  0.00000000000E+00  0.45593999997E+02  0.45594000000E+02  0.51100000000E-03 0. -1.
         11   -1    0    0    0    0 -0.00000000000E+00 -0.00000000000E+00 -0.45593999997E+02  0.45594000000E+02  0.51100000000E-03 0.  1.
    9900012    2    1    2    0    0  0.14329237444E+02  0.11436627096E+02  0.38151888549E+01  0.72461570788E+02  0.70000000643E+02 0.  0.
        -12    1    1    2    0    0 -0.14329237444E+02 -0.11436627096E+02 -0.38151888549E+01  0.18726429212E+02  0.00000000000E+00 0.  1.
         11    1    3    3    0    0  0.12138602450E+02  0.15491048692E+02  0.19999968141E+01  0.19781765506E+02  0.51100000000E-03 0. -1.
        -11    1    3    3    0    0  0.23529605843E+02 -0.13922929239E+02 -0.58350914871E+01  0.27956011923E+02  0.51100000000E-03 0.  1.
        -12    1    3    3    0    0 -0.21338970849E+02  0.98685076427E+01  0.76502835279E+01  0.24723793359E+02  0.00000000000E+00 0.  1.
</event>
<event>
 7    1  0.3435518E-013  0.7246155E+02  0.7816164E-02  0.1226708E+00
        -11   -1    0    0    0    0  0.00000000000E+00  0.00000000000E+00  0.45593999997E+02  0.45594000000E+02  0.51100000000E-03 0.  1.
         11   -1    0    0    0    0 -0.00000000000E+00 -0.00000000000E+00 -0.45593999997E+02  0.45594000000E+02  0.51100000000E-03 0. -1.
    9900012    2    1    2    0    0 -0.10659568304E+02  0.15338337548E+02  0.13374838097E+01  0.72461551909E+02  0.69999976049E+02 0.  0.
        -12    1    1    2    0    0  0.10659568304E+02 -0.15338337548E+02 -0.13374838097E+01  0.18726448091E+02  0.00000000000E+00 0.  1.
         11    1    3    3    0    0 -0.40357757702E+01  0.29028010016E+02 -0.18050910461E+02  0.34420171707E+02  0.51100000000E-03 0. -1.
        -11    1    3    3    0    0  0.76475246833E+01  0.23418393054E+01 -0.14474426556E+01  0.81279724173E+01  0.51100000000E-03 0.  1.
        -12    1    3    3    0    0 -0.14271317217E+02 -0.16031511773E+02  0.20835836926E+02  0.29913407785E+02  0.00000000000E+00 0.  1.
</event>
<event>
 7    1  0.3435518E-013  0.7246156E+02  0.7816164E-02  0.1226708E+00
        -11   -1    0    0    0    0  0.00000000000E+00  0.00000000000E+00  0.45593999997E+02  0.45594000000E+02  0.51100000000E-03 0.  1.
         11   -1    0    0    0    0 -0.00000000000E+00 -0.00000000000E+00 -0.45593999997E+02  0.45594000000E+02  0.51100000000E-03 0. -1.
    9900012    2    1    2    0    0  0.10943885931E+02  0.11226274431E+02 -0.10241166577E+02  0.72461564949E+02  0.69999993037E+02 0.  0.
        -12    1    1    2    0    0 -0.10943885931E+02 -0.11226274431E+02  0.10241166577E+02  0.18726435051E+02  0.00000000000E+00 0.  1.
         11    1    3    3    0    0 -0.44260264439E+01  0.19796919120E+02 -0.49413250119E+01  0.20878802884E+02  0.51100000000E-03 0. -1.
        -11    1    3    3    0    0  0.81276007767E+01  0.17978717887E+02  0.76589118354E+01  0.21164855823E+02  0.51100000000E-03 0.  1.
         12    1    3    3    0    0  0.72423115977E+01 -0.26549362576E+02 -0.12958753400E+02  0.30417906242E+02  0.00000000000E+00 0. -1.
</event>
<event>
 7    1  0.3435518E-013  0.7246158E+02  0.7816164E-02  0.1226708E+00
        -11   -1    0    0    0    0  0.00000000000E+00  0.00000000000E+00  0.45593999997E+02  0.45594000000E+02  0.51100000000E-03 0.  1.
         11   -1    0    0    0    0 -0.00000000000E+00 -0.00000000000E+00 -0.45593999997E+02  0.45594000000E+02  0.51100000000E-03 0. -1.
    9900012    2    1    2    0    0  0.76547802665E+01 -0.15955758438E+02 -0.61234636557E+01  0.72461582953E+02  0.70000016491E+02 0.  0.
        -12    1    1    2    0    0 -0.76547802665E+01  0.15955758438E+02  0.61234636557E+01  0.18726417047E+02  0.00000000000E+00 0.  1.
         11    1    3    3    0    0  0.17011140471E+02 -0.16847657185E+02 -0.32235398173E+02  0.40153995422E+02  0.51100000000E-03 0. -1.
        -11    1    3    3    0    0  0.16097232873E+01  0.58448308000E+01  0.13895176795E+02  0.15160118554E+02  0.51100000000E-03 0.  1.
        -12    1    3    3    0    0 -0.10966083491E+02 -0.49529320535E+01  0.12216757723E+02  0.17147468977E+02  0.00000000000E+00 0.  1.
</event>
<event>
 7    1  0.3435518E-013  0.7246159E+02  0.7816164E-02  0.1226708E+00
        -11   -1    0    0    0    0  0.00000000000E+00  0.00000000000E+00  0.45593999997E+02  0.45594000000E+02  0.51100000000E-03 0.  1.
         11   -1    0    0    0    0 -0.00000000000E+00 -0.00000000000E+00 -0.45593999997E+02  0.45594000000E+02  0.51100000000E-03 0. -1.
    9900012    2    1    2    0    0  0.76188908256E+01 -0.14617703268E+01 -0.17043888310E+02  0.72461590877E+02  0.70000026813E+02 0.  0.
        -12    1    1    2    0    0 -0.76188908256E+01  0.14617703268E+01  0.17043888310E+02  0.18726409123E+02  0.00000000000E+00 0.  1.
         11    1    3    3    0    0 -0.13450268064E+01 -0.71046569860E+01 -0.34291024907E+01  0.80027490371E+01  0.51100000000E-03 0. -1.
        -11    1    3    3    0    0 -0.23978728058E+02  0.83708291234E+01  0.58982228274E+01  0.26073726475E+02  0.51100000000E-03 0.  1.
         12    1    3    3    0    0  0.32942645690E+02 -0.27279424642E+01 -0.19513008647E+02  0.38385115365E+02  0.00000000000E+00 0. -1.
</event>
<event>
 7    1  0.3435518E-013  0.7246157E+02  0.7816164E-02  0.1226708E+00
        -11   -1    0    0    0    0  0.00000000000E+00  0.00000000000E+00  0.45593999997E+02  0.45594000000E+02  0.51100000000E-03 0. -1.
         11   -1    0    0    0    0 -0.00000000000E+00 -0.00000000000E+00 -0.45593999997E+02  0.45594000000E+02  0.51100000000E-03 0.  1.
    9900012    2    1    2    0    0 -0.10480987786E+02 -0.14725802411E+02  0.48968018415E+01  0.72461574022E+02  0.70000004856E+02 0.  0.
        -12    1    1    2    0    0  0.10480987786E+02  0.14725802411E+02 -0.48968018415E+01  0.18726425978E+02  0.00000000000E+00 0.  1.
         11    1    3    3    0    0  0.34901483174E+01 -0.34896435718E+02  0.17327268942E+02  0.39117471932E+02  0.51100000000E-03 0. -1.
        -11    1    3    3    0    0 -0.40942784230E+01 -0.31841940791E+00 -0.95770852179E+01  0.10420415935E+02  0.51100000000E-03 0.  1.
        -12    1    3    3    0    0 -0.98768576804E+01  0.20489052715E+02 -0.28533818822E+01  0.22923686155E+02  0.00000000000E+00 0.  1.
</event>
<event>
 7    1  0.3435518E-013  0.7246155E+02  0.7816164E-02  0.1226708E+00
        -11   -1    0    0    0    0  0.00000000000E+00  0.00000000000E+00  0.45593999997E+02  0.45594000000E+02  0.51100000000E-03 0. -1.
         11   -1    0    0    0    0 -0.00000000000E+00 -0.00000000000E+00 -0.45593999997E+02  0.45594000000E+02  0.51100000000E-03 0.  1.
    9900012    2    1    2    0    0  0.16630988514E+02 -0.29083860212E+01  0.81013177436E+01  0.72461552462E+02  0.69999976770E+02 0.  0.
        -12    1    1    2    0    0 -0.16630988514E+02  0.29083860212E+01 -0.81013177436E+01  0.18726447538E+02  0.00000000000E+00 0.  1.
         11    1    3    3    0    0  0.18130194981E+02  0.22681130434E+02 -0.12763047071E+02  0.31718023561E+02  0.51100000000E-03 0. -1.
        -11    1    3    3    0    0  0.16771576609E+01  0.44649741146E+01  0.26227805235E+01  0.54431451936E+01  0.51100000000E-03 0.  1.
        -12    1    3    3    0    0 -0.31763641279E+01 -0.30054490570E+02  0.18241584291E+02  0.35300383708E+02  0.00000000000E+00 0.  1.
</event>
<event>
 7    1  0.3435518E-013  0.7246157E+02  0.7816164E-02  0.1226708E+00
        -11   -1    0    0    0    0  0.00000000000E+00  0.00000000000E+00  0.45593999997E+02  0.45594000000E+02  0.51100000000E-03 0. -1.
         11   -1    0    0    0    0 -0.00000000000E+00 -0.00000000000E+00 -0.45593999997E+02  0.45594000000E+02  0.51100000000E-03 0.  1.
    9900012    2    1    2    0    0 -0.11913863533E+02 -0.14312568420E+02  0.19721575807E+01  0.72461570426E+02  0.70000000172E+02 0.  0.
        -12    1    1    2    0    0  0.11913863533E+02  0.14312568420E+02 -0.19721575807E+01  0.18726429574E+02  0.00000000000E+00 0.  1.
         11    1    3    3    0    0 -0.13453797379E+02 -0.20148341203E+02  0.83645440103E+01  0.25630566008E+02  0.51100000000E-03 0. -1.
        -11    1    3    3    0    0 -0.78413803833E+01 -0.18309688735E+02 -0.64195704584E+01  0.20927083720E+02  0.51100000000E-03 0.  1.
         12    1    3    3    0    0  0.93813142299E+01  0.24145461518E+02  0.27184028827E-01  0.25903920698E+02  0.00000000000E+00 0. -1.
</event>
<event>
 7    1  0.3435518E-013  0.7246164E+02  0.7816164E-02  0.1226708E+00
        -11   -1    0    0    0    0  0.00000000000E+00  0.00000000000E+00  0.45593999997E+02  0.45594000000E+02  0.51100000000E-03 0.  1.
         11   -1    0    0    0    0 -0.00000000000E+00 -0.00000000000E+00 -0.45593999997E+02  0.45594000000E+02  0.51100000000E-03 0. -1.
    9900012    2    1    2    0    0 -0.10931580258E+02  0.14345298210E+02 -0.50388131784E+01  0.72461637141E+02  0.70000087080E+02 0.  0.
        -12    1    1    2    0    0  0.10931580258E+02 -0.14345298210E+02  0.50388131784E+01  0.18726362859E+02  0.00000000000E+00 0.  1.
         11    1    3    3    0    0 -0.10533404622E+01 -0.18807981498E+01 -0.12118601021E+02  0.12308834989E+02  0.51100000000E-03 0. -1.
        -11    1    3    3    0    0  0.53569935206E+01 -0.16390510462E+02 -0.10396739490E+02  0.20135501113E+02  0.51100000000E-03 0.  1.
         12    1    3    3    0    0 -0.15235233317E+02  0.32616606822E+02  0.17476527333E+02  0.40017301039E+02  0.00000000000E+00 0. -1.
</event>
<event>
 7    1  0.3435518E-013  0.7246155E+02  0.7816164E-02  0.1226708E+00
        -11   -1    0    0    0    0  0.00000000000E+00  0.00000000000E+00  0.45593999997E+02  0.45594000000E+02  0.51100000000E-03 0.  1.
         11   -1    0    0    0    0 -0.00000000000E+00 -0.00000000000E+00 -0.45593999997E+02  0.45594000000E+02  0.51100000000E-03 0. -1.
    9900012    2    1    2    0    0 -0.10321680939E+02  0.14330596747E+02 -0.62270989720E+01  0.72461551801E+02  0.69999975909E+02 0.  0.
        -12    1    1    2    0    0  0.10321680939E+02 -0.14330596747E+02  0.62270989720E+01  0.18726448199E+02  0.00000000000E+00 0.  1.
         11    1    3    3    0    0 -0.33897734755E+01 -0.44174743948E+01  0.86958294176E+01  0.10325797488E+02  0.51100000000E-03 0.  1.
        -11    1    3    3    0    0 -0.19274646391E+02  0.65558886611E+00  0.15435119348E+02  0.24701916926E+02  0.51100000000E-03 0. -1.
         12    1    3    3    0    0  0.12342738928E+02  0.18092482276E+02 -0.30358047737E+02  0.37433837388E+02  0.00000000000E+00 0. -1.
</event>
<event>
 7    1  0.3435518E-013  0.7246156E+02  0.7816164E-02  0.1226708E+00
        -11   -1    0    0    0    0  0.00000000000E+00  0.00000000000E+00  0.45593999997E+02  0.45594000000E+02  0.51100000000E-03 0.  1.
         11   -1    0    0    0    0 -0.00000000000E+00 -0.00000000000E+00 -0.45593999997E+02  0.45594000000E+02  0.51100000000E-03 0. -1.
    9900012    2    1    2    0    0 -0.18454566394E+02  0.20588783819E+01  0.24227169859E+01  0.72461559907E+02  0.69999986468E+02 0.  0.
        -12    1    1    2    0    0  0.18454566394E+02 -0.20588783819E+01 -0.24227169859E+01  0.18726440093E+02  0.00000000000E+00 0.  1.
         11    1    3    3    0    0  0.10700333173E+02  0.24220864893E+01 -0.14530685382E+02  0.18207263685E+02  0.51100000000E-03 0. -1.
        -11    1    3    3    0    0 -0.94887128825E+01  0.17803278816E+02  0.18587793083E+02  0.27431705392E+02  0.51100000000E-03 0.  1.
        -12    1    3    3    0    0 -0.19666186684E+02 -0.18166486923E+02 -0.16343907152E+01  0.26822590830E+02  0.00000000000E+00 0.  1.
</event>
<event>
 7    1  0.3435518E-013  0.7246152E+02  0.7816164E-02  0.1226708E+00
        -11   -1    0    0    0    0  0.00000000000E+00  0.00000000000E+00  0.45593999997E+02  0.45594000000E+02  0.51100000000E-03 0. -1.
         11   -1    0    0    0    0 -0.00000000000E+00 -0.00000000000E+00 -0.45593999997E+02  0.45594000000E+02  0.51100000000E-03 0.  1.
    9900012    2    1    2    0    0  0.15775090403E+02  0.49027071722E+01 -0.88199195731E+01  0.72461521524E+02  0.69999936468E+02 0.  0.
        -12    1    1    2    0    0 -0.15775090403E+02 -0.49027071722E+01  0.88199195731E+01  0.18726478476E+02  0.00000000000E+00 0.  1.
         11    1    3    3    0    0 -0.58190718724E+01 -0.60374918445E+01  0.97195641555E+01  0.12836776576E+02  0.51100000000E-03 0. -1.
        -11    1    3    3    0    0 -0.32982126268E+01 -0.46240683972E+01 -0.28162930156E+02  0.28729964328E+02  0.51100000000E-03 0.  1.
         12    1    3    3    0    0  0.24892374902E+02  0.15564267414E+02  0.96234464274E+01  0.30894780620E+02  0.00000000000E+00 0. -1.
</event>
<event>
 7    1  0.3435518E-013  0.7246158E+02  0.7816164E-02  0.1226708E+00
        -11   -1    0    0    0    0  0.00000000000E+00  0.00000000000E+00  0.45593999997E+02  0.45594000000E+02  0.51100000000E-03 0.  1.
         11   -1    0    0    0    0 -0.00000000000E+00 -0.00000000000E+00 -0.45593999997E+02  0.45594000000E+02  0.51100000000E-03 0. -1.
    9900012    2    1    2    0    0  0.21528458459E+01  0.14033310692E+02 -0.12211069983E+02  0.72461580579E+02  0.70000013397E+02 0.  0.
        -12    1    1    2    0    0 -0.21528458459E+01 -0.14033310692E+02  0.12211069983E+02  0.18726419421E+02  0.00000000000E+00 0.  1.
         11    1    3    3    0    0 -0.24994893767E+02  0.36216653550E+01 -0.17321013584E+02  0.30624805080E+02  0.51100000000E-03 0. -1.
        -11    1    3    3    0    0 -0.14100614387E+01 -0.48033645568E+01  0.79065259178E+01  0.93580840281E+01  0.51100000000E-03 0.  1.
        -12    1    3    3    0    0  0.28557801052E+02  0.15215009894E+02 -0.27965823177E+01  0.32478691470E+02  0.00000000000E+00 0.  1.
</event>
<event>
 7    1  0.3435518E-013  0.7246140E+02  0.7816164E-02  0.1226708E+00
        -11   -1    0    0    0    0  0.00000000000E+00  0.00000000000E+00  0.45593999997E+02  0.45594000000E+02  0.51100000000E-03 0. -1.
         11   -1    0    0    0    0 -0.00000000000E+00 -0.00000000000E+00 -0.45593999997E+02  0.45594000000E+02  0.51100000000E-03 0.  1.
    9900012    2    1    2    0    0 -0.11198921312E+02  0.87432661171E+01  0.12199377978E+02  0.72461404901E+02  0.69999784544E+02 0.  0.
        -12    1    1    2    0    0  0.11198921312E+02 -0.87432661171E+01 -0.12199377978E+02  0.18726595099E+02  0.00000000000E+00 0.  1.
         11    1    3    3    0    0 -0.36630982406E+01  0.71072927398E+01  0.39769021215E+01  0.89301539491E+01  0.51100000000E-03 0. -1.
        -11    1    3    3    0    0  0.11029064536E+02  0.12517258658E+02  0.29103918285E+02  0.33546387118E+02  0.51100000000E-03 0.  1.
        -12    1    3    3    0    0 -0.18564887608E+02 -0.10881285281E+02 -0.20881442428E+02  0.29984863834E+02  0.00000000000E+00 0.  1.
</event>
<event>
 7    1  0.3435518E-013  0.7246162E+02  0.7816164E-02  0.1226708E+00
        -11   -1    0    0    0    0  0.00000000000E+00  0.00000000000E+00  0.45593999997E+02  0.45594000000E+02  0.51100000000E-03 0. -1.
         11   -1    0    0    0    0 -0.00000000000E+00 -0.00000000000E+00 -0.45593999997E+02  0.45594000000E+02  0.51100000000E-03 0.  1.
    9900012    2    1    2    0    0  0.16596412843E+02 -0.70357539392E+01 -0.50729157296E+01  0.72461622167E+02  0.70000067573E+02 0.  0.
        -12    1    1    2    0    0 -0.16596412843E+02  0.70357539392E+01  0.50729157296E+01  0.18726377833E+02  0.00000000000E+00 0.  1.
         11    1    3    3    0    0 -0.25575598703E+01  0.15594788837E+01  0.15755754838E+02  0.16037982967E+02  0.51100000000E-03 0. -1.
        -11    1    3    3    0    0 -0.16010041438E+02  0.78418445268E+00 -0.70096384100E+01  0.17494896484E+02  0.51100000000E-03 0.  1.
        -12    1    3    3    0    0  0.35164014151E+02 -0.93794172756E+01 -0.13819032157E+02  0.38928742716E+02  0.00000000000E+00 0.  1.
</event>
<event>
 7    1  0.3435518E-013  0.7246154E+02  0.7816164E-02  0.1226708E+00
        -11   -1    0    0    0    0  0.00000000000E+00  0.00000000000E+00  0.45593999997E+02  0.45594000000E+02  0.51100000000E-03 0. -1.
         11   -1    0    0    0    0 -0.00000000000E+00 -0.00000000000E+00 -0.45593999997E+02  0.45594000000E+02  0.51100000000E-03 0.  1.
    9900012    2    1    2    0    0 -0.17890724562E+02  0.20529505211E+01  0.51368946818E+01  0.72461539625E+02  0.69999960047E+02 0.  0.
        -12    1    1    2    0    0  0.17890724562E+02 -0.20529505211E+01 -0.51368946818E+01  0.18726460375E+02  0.00000000000E+00 0.  1.
         11    1    3    3    0    0  0.28465052352E+01  0.10911546433E+02  0.23097857105E+02  0.25703607543E+02  0.51100000000E-03 0. -1.
        -11    1    3    3    0    0 -0.58661349600E+01  0.14407026574E+02 -0.67319217218E+01  0.16949711632E+02  0.51100000000E-03 0.  1.
        -12    1    3    3    0    0 -0.14871094838E+02 -0.23265622486E+02 -0.11229040701E+02  0.29808220450E+02  0.00000000000E+00 0.  1.
</event>
<event>
 7    1  0.3435518E-013  0.7246154E+02  0.7816164E-02  0.1226708E+00
        -11   -1    0    0    0    0  0.00000000000E+00  0.00000000000E+00  0.45593999997E+02  0.45594000000E+02  0.51100000000E-03 0.  1.
         11   -1    0    0    0    0 -0.00000000000E+00 -0.00000000000E+00 -0.45593999997E+02  0.45594000000E+02  0.51100000000E-03 0. -1.
    9900012    2    1    2    0    0 -0.28972175349E+01  0.18275604464E+02  0.28790018010E+01  0.72461541730E+02  0.69999962789E+02 0.  0.
        -12    1    1    2    0    0  0.28972175349E+01 -0.18275604464E+02 -0.28790018010E+01  0.18726458270E+02  0.00000000000E+00 0.  1.
         11    1    3    3    0    0 -0.43318698554E+01  0.31418024707E+01  0.29957442249E+01  0.61327402465E+01  0.51100000000E-03 0. -1.
        -11    1    3    3    0    0 -0.71557984481E+01  0.55338476435E+00  0.30507200069E+02  0.31340085234E+02  0.51100000000E-03 0.  1.
         12    1    3    3    0    0  0.85904507686E+01  0.14580417229E+02 -0.30623942493E+02  0.34988716250E+02  0.00000000000E+00 0. -1.
</event>
<event>
 7    1  0.3435518E-013  0.7246132E+02  0.7816164E-02  0.1226709E+00
        -11   -1    0    0    0    0  0.00000000000E+00  0.00000000000E+00  0.45593999997E+02  0.45594000000E+02  0.51100000000E-03 0. -1.
         11   -1    0    0    0    0 -0.00000000000E+00 -0.00000000000E+00 -0.45593999997E+02  0.45594000000E+02  0.51100000000E-03 0.  1.
    9900012    2    1    2    0    0  0.14345427944E+02  0.11946421454E+02 -0.14765521112E+01  0.72461321315E+02  0.69999675657E+02 0.  0.
        -12    1    1    2    0    0 -0.14345427944E+02 -0.11946421454E+02  0.14765521112E+01  0.18726678685E+02  0.00000000000E+00 0.  1.
         11    1    3    3    0    0  0.17218484834E+02  0.22789875422E+02  0.13841917965E+02  0.31740405400E+02  0.51100000000E-03 0. -1.
        -11    1    3    3    0    0  0.67624592071E+01  0.10962285024E+02 -0.99710964443E+01  0.16288809411E+02  0.51100000000E-03 0.  1.
        -12    1    3    3    0    0 -0.96355160973E+01 -0.21805738992E+02 -0.53473736317E+01  0.24432106504E+02  0.00000000000E+00 0.  1.
</event>
<event>
 7    1  0.3435518E-013  0.7246155E+02  0.7816164E-02  0.1226708E+00
        -11   -1    0    0    0    0  0.00000000000E+00  0.00000000000E+00  0.45593999997E+02  0.45594000000E+02  0.51100000000E-03 0. -1.
         11   -1    0    0    0    0 -0.00000000000E+00 -0.00000000000E+00 -0.45593999997E+02  0.45594000000E+02  0.51100000000E-03 0.  1.
    9900012    2    1    2    0    0 -0.11453489028E+02  0.11845995978E+02  0.88977483013E+01  0.72461549283E+02  0.69999972629E+02 0.  0.
        -12    1    1    2    0    0  0.11453489028E+02 -0.11845995978E+02 -0.88977483013E+01  0.18726450717E+02  0.00000000000E+00 0.  1.
         11    1    3    3    0    0  0.73037541895E+01  0.35744094690E+01  0.17498964449E+02  0.19295983659E+02  0.51100000000E-03 0. -1.
        -11    1    3    3    0    0  0.40568884881E+01 -0.87817729943E+01 -0.20211203801E+02  0.22406932866E+02  0.51100000000E-03 0.  1.
         12    1    3    3    0    0 -0.22814131705E+02  0.17053359504E+02  0.11609987653E+02  0.30758632758E+02  0.00000000000E+00 0. -1.
</event>
<event>
 7    1  0.3435518E-013  0.7246155E+02  0.7816164E-02  0.1226708E+00
        -11   -1    0    0    0    0  0.00000000000E+00  0.00000000000E+00  0.45593999997E+02  0.45594000000E+02  0.51100000000E-03 0.  1.
         11   -1    0    0    0    0 -0.00000000000E+00 -0.00000000000E+00 -0.45593999997E+02  0.45594000000E+02  0.51100000000E-03 0. -1.
    9900012    2    1    2    0    0  0.13216624104E+02 -0.90009418769E+01 -0.97459581587E+01  0.72461553252E+02  0.69999977799E+02 0.  0.
        -12    1    1    2    0    0 -0.13216624104E+02  0.90009418769E+01  0.97459581587E+01  0.18726446748E+02  0.00000000000E+00 0.  1.
         11    1    3    3    0    0  0.49886249021E+01 -0.41326438293E+01 -0.32765494585E+02  0.33399741901E+02  0.51100000000E-03 0. -1.
        -11    1    3    3    0    0  0.18972758068E+02 -0.22652918569E-01  0.98128100673E+01  0.21360180326E+02  0.51100000000E-03 0.  1.
        -12    1    3    3    0    0 -0.10744758867E+02 -0.48456451290E+01  0.13206726359E+02  0.17701631025E+02  0.00000000000E+00 0.  1.
</event>
<event>
 7    1  0.3435518E-013  0.7246158E+02  0.7816164E-02  0.1226708E+00
        -11   -1    0    0    0    0  0.00000000000E+00  0.00000000000E+00  0.45593999997E+02  0.45594000000E+02  0.51100000000E-03 0.  1.
         11   -1    0    0    0    0 -0.00000000000E+00 -0.00000000000E+00 -0.45593999997E+02  0.45594000000E+02  0.51100000000E-03 0. -1.
    9900012    2    1    2    0    0  0.10082790175E+02 -0.78049972880E+01 -0.13714893207E+02  0.72461576528E+02  0.70000008120E+02 0.  0.
        -12    1    1    2    0    0 -0.10082790175E+02  0.78049972880E+01  0.13714893207E+02  0.18726423472E+02  0.00000000000E+00 0.  1.
         11    1    3    3    0    0  0.14155969095E+02 -0.83018388972E+01 -0.79573126982E+01  0.18238169199E+02  0.51100000000E-03 0. -1.
        -11    1    3    3    0    0 -0.13667078080E+02 -0.20190506472E+02  0.10160266905E+02  0.26413568458E+02  0.51100000000E-03 0.  1.
         12    1    3    3    0    0  0.95938991607E+01  0.20687348081E+02 -0.15917847414E+02  0.27809838871E+02  0.00000000000E+00 0. -1.
</event>
<event>
 7    1  0.3435518E-013  0.7246164E+02  0.7816164E-02  0.1226708E+00
        -11   -1    0    0    0    0  0.00000000000E+00  0.00000000000E+00  0.45593999997E+02  0.45594000000E+02  0.51100000000E-03 0. -1.
         11   -1    0    0    0    0 -0.00000000000E+00 -0.00000000000E+00 -0.45593999997E+02  0.45594000000E+02  0.51100000000E-03 0.  1.
    9900012    2    1    2    0    0  0.18106513844E+02  0.19468221668E+01  0.43635533858E+01  0.72461640015E+02  0.70000090824E+02 0.  0.
        -12    1    1    2    0    0 -0.18106513844E+02 -0.19468221668E+01 -0.43635533858E+01  0.18726359985E+02  0.00000000000E+00 0.  1.
         11    1    3    3    0    0  0.82163319729E+01  0.12906905630E+02 -0.79044710148E+01  0.17221410695E+02  0.51100000000E-03 0. -1.
        -11    1    3    3    0    0  0.53643220058E+01 -0.22892966068E+02 -0.13046886433E+02  0.26890241572E+02  0.51100000000E-03 0.  1.
        -12    1    3    3    0    0  0.45258598650E+01  0.11932882604E+02  0.25314910834E+02  0.28349987748E+02  0.00000000000E+00 0.  1.
</event>
<event>
 7    1  0.3435518E-013  0.7246158E+02  0.7816164E-02  0.1226708E+00
        -11   -1    0    0    0    0  0.00000000000E+00  0.00000000000E+00  0.45593999997E+02  0.45594000000E+02  0.51100000000E-03 0.  1.
         11   -1    0    0    0    0 -0.00000000000E+00 -0.00000000000E+00 -0.45593999997E+02  0.45594000000E+02  0.51100000000E-03 0. -1.
    9900012    2    1    2    0    0 -0.14280022157E+02  0.11283524617E+02 -0.44093016934E+01  0.72461577437E+02  0.70000009304E+02 0.  0.
        -12    1    1    2    0    0  0.14280022157E+02 -0.11283524617E+02  0.44093016934E+01  0.18726422563E+02  0.00000000000E+00 0.  1.
         11    1    3    3    0    0 -0.32896028612E+01  0.29419089056E+02  0.18525735274E+02  0.34921442633E+02  0.51100000000E-03 0. -1.
        -11    1    3    3    0    0 -0.24326022572E+01  0.17688806333E+00 -0.15977849446E+02  0.16162936500E+02  0.51100000000E-03 0.  1.
        -12    1    3    3    0    0 -0.85578170387E+01 -0.18312452502E+02 -0.69571875223E+01  0.21377198304E+02  0.00000000000E+00 0.  1.
</event>
<event>
 7    1  0.3435518E-013  0.7246160E+02  0.7816164E-02  0.1226708E+00
        -11   -1    0    0    0    0  0.00000000000E+00  0.00000000000E+00  0.45593999997E+02  0.45594000000E+02  0.51100000000E-03 0. -1.
         11   -1    0    0    0    0 -0.00000000000E+00 -0.00000000000E+00 -0.45593999997E+02  0.45594000000E+02  0.51100000000E-03 0.  1.
    9900012    2    1    2    0    0  0.15597951171E+02  0.10308621528E+02  0.10556221151E+01  0.72461598942E+02  0.70000037319E+02 0.  0.
        -12    1    1    2    0    0 -0.15597951171E+02 -0.10308621528E+02 -0.10556221151E+01  0.18726401058E+02  0.00000000000E+00 0.  1.
         11    1    3    3    0    0  0.20473205106E+02 -0.46404995251E+01  0.11423617747E+02  0.23899485472E+02  0.51100000000E-03 0. -1.
        -11    1    3    3    0    0  0.13379092544E+02  0.12584894349E+02  0.10159690369E+02  0.20990450012E+02  0.51100000000E-03 0.  1.
        -12    1    3    3    0    0 -0.18254346479E+02  0.23642267044E+01 -0.20527686000E+02  0.27571663457E+02  0.00000000000E+00 0.  1.
</event>
<event>
 7    1  0.3435518E-013  0.7246158E+02  0.7816164E-02  0.1226708E+00
        -11   -1    0    0    0    0  0.00000000000E+00  0.00000000000E+00  0.45593999997E+02  0.45594000000E+02  0.51100000000E-03 0.  1.
         11   -1    0    0    0    0 -0.00000000000E+00 -0.00000000000E+00 -0.45593999997E+02  0.45594000000E+02  0.51100000000E-03 0. -1.
    9900012    2    1    2    0    0 -0.16702533695E+02 -0.13323885354E+01 -0.83623575776E+01  0.72461577083E+02  0.70000008843E+02 0.  0.
        -12    1    1    2    0    0  0.16702533695E+02  0.13323885354E+01  0.83623575776E+01  0.18726422917E+02  0.00000000000E+00 0.  1.
         11    1    3    3    0    0 -0.27261682821E+01 -0.12588554693E+02  0.16351299898E+02  0.20815107767E+02  0.51100000000E-03 0. -1.
        -11    1    3    3    0    0 -0.81122908303E+01 -0.11544417656E+01  0.10809155488E+02  0.13563916873E+02  0.51100000000E-03 0.  1.
         12    1    3    3    0    0 -0.58640745823E+01  0.12410607923E+02 -0.35522812963E+02  0.38082552443E+02  0.00000000000E+00 0. -1.
</event>
<event>
 7    1  0.3435518E-013  0.7246152E+02  0.7816164E-02  0.1226708E+00
        -11   -1    0    0    0    0  0.00000000000E+00  0.00000000000E+00  0.45593999997E+02  0.45594000000E+02  0.51100000000E-03 0.  1.
         11   -1    0    0    0    0 -0.00000000000E+00 -0.00000000000E+00 -0.45593999997E+02  0.45594000000E+02  0.51100000000E-03 0. -1.
    9900012    2    1    2    0    0 -0.17226951018E+02 -0.72454087526E+01 -0.11905552993E+01  0.72461515778E+02  0.69999928983E+02 0.  0.
        -12    1    1    2    0    0  0.17226951018E+02  0.72454087526E+01  0.11905552993E+01  0.18726484222E+02  0.00000000000E+00 0.  1.
         11    1    3    3    0    0 -0.52107575815E+01  0.17290764771E+02  0.40477424216E+01  0.18506938156E+02  0.51100000000E-03 0. -1.
        -11    1    3    3    0    0 -0.17486359389E+02 -0.41016321851E+01  0.15945057566E+02  0.24017514699E+02  0.51100000000E-03 0.  1.
         12    1    3    3    0    0  0.54701659525E+01 -0.20434541339E+02 -0.21183355286E+02  0.29937062923E+02  0.00000000000E+00 0. -1.
</event>
<event>
 7    1  0.3435518E-013  0.7246173E+02  0.7816164E-02  0.1226708E+00
        -11   -1    0    0    0    0  0.00000000000E+00  0.00000000000E+00  0.45593999997E+02  0.45594000000E+02  0.51100000000E-03 0. -1.
         11   -1    0    0    0    0 -0.00000000000E+00 -0.00000000000E+00 -0.45593999997E+02  0.45594000000E+02  0.51100000000E-03 0.  1.
    9900012    2    1    2    0    0 -0.28439077045E+00  0.18317818622E+02  0.38793977971E+01  0.72461732768E+02  0.70000211652E+02 0.  0.
        -12    1    1    2    0    0  0.28439077045E+00 -0.18317818622E+02 -0.38793977971E+01  0.18726267232E+02  0.00000000000E+00 0.  1.
         11    1    3    3    0    0 -0.22806627166E+02  0.12787373788E+02  0.47547277491E+01  0.26575676987E+02  0.51100000000E-03 0. -1.
        -11    1    3    3    0    0  0.72129337032E+00  0.65976341347E+01 -0.17326164456E+02  0.18553840985E+02  0.51100000000E-03 0.  1.
        -12    1    3    3    0    0  0.21800943025E+02 -0.10671893009E+01  0.16450834504E+02  0.27332214796E+02  0.00000000000E+00 0.  1.
</event>
<event>
 7    1  0.3435518E-013  0.7246168E+02  0.7816164E-02  0.1226708E+00
        -11   -1    0    0    0    0  0.00000000000E+00  0.00000000000E+00  0.45593999997E+02  0.45594000000E+02  0.51100000000E-03 0. -1.
         11   -1    0    0    0    0 -0.00000000000E+00 -0.00000000000E+00 -0.45593999997E+02  0.45594000000E+02  0.51100000000E-03 0.  1.
    9900012    2    1    2    0    0  0.13016088968E+02 -0.79575023996E+01  0.10859763496E+02  0.72461684835E+02  0.70000149211E+02 0.  0.
        -12    1    1    2    0    0 -0.13016088968E+02  0.79575023996E+01 -0.10859763496E+02  0.18726315165E+02  0.00000000000E+00 0.  1.
         11    1    3    3    0    0 -0.45463900424E+01  0.20226375066E+02 -0.75202184449E+01  0.22052881817E+02  0.51100000000E-03 0. -1.
        -11    1    3    3    0    0 -0.77016040900E+01 -0.79704495877E+01  0.13848840279E+02  0.17737901497E+02  0.51100000000E-03 0.  1.
         12    1    3    3    0    0  0.25264083101E+02 -0.20213427878E+02  0.45311416619E+01  0.32670901522E+02  0.00000000000E+00 0. -1.
</event>
<event>
 7    1  0.3435518E-013  0.7246150E+02  0.7816164E-02  0.1226708E+00
        -11   -1    0    0    0    0  0.00000000000E+00  0.00000000000E+00  0.45593999997E+02  0.45594000000E+02  0.51100000000E-03 0. -1.
         11   -1    0    0    0    0 -0.00000000000E+00 -0.00000000000E+00 -0.45593999997E+02  0.45594000000E+02  0.51100000000E-03 0.  1.
    9900012    2    1    2    0    0 -0.40289292672E+01 -0.16422380832E+02  0.80470447143E+01  0.72461500277E+02  0.69999908790E+02 0.  0.
        -12    1    1    2    0    0  0.40289292672E+01  0.16422380832E+02 -0.80470447143E+01  0.18726499723E+02  0.00000000000E+00 0.  1.
         11    1    3    3    0    0  0.46884509608E+01 -0.33605266160E+02  0.22383736458E+02  0.40648827095E+02  0.51100000000E-03 0. -1.
        -11    1    3    3    0    0  0.45582072703E+01 -0.20197522017E+01 -0.33879715420E+01  0.60278523460E+01  0.51100000000E-03 0.  1.
        -12    1    3    3    0    0 -0.13275587498E+02  0.19202637529E+02 -0.10948720202E+02  0.25784820837E+02  0.00000000000E+00 0.  1.
</event>
<event>
 7    1  0.3435518E-013  0.7246156E+02  0.7816164E-02  0.1226708E+00
        -11   -1    0    0    0    0  0.00000000000E+00  0.00000000000E+00  0.45593999997E+02  0.45594000000E+02  0.51100000000E-03 0.  1.
         11   -1    0    0    0    0 -0.00000000000E+00 -0.00000000000E+00 -0.45593999997E+02  0.45594000000E+02  0.51100000000E-03 0. -1.
    9900012    2    1    2    0    0 -0.22263516516E+01 -0.15291054656E+02 -0.10578595459E+02  0.72461556770E+02  0.69999982382E+02 0.  0.
        -12    1    1    2    0    0  0.22263516516E+01  0.15291054656E+02  0.10578595459E+02  0.18726443230E+02  0.00000000000E+00 0.  1.
         11    1    3    3    0    0 -0.60279132633E+01 -0.12767338714E+02 -0.11460829269E+02  0.18184919135E+02  0.51100000000E-03 0. -1.
        -11    1    3    3    0    0 -0.16175107117E+02 -0.20873922482E+02 -0.40197954098E+01  0.26711673205E+02  0.51100000000E-03 0.  1.
        -12    1    3    3    0    0  0.19976668728E+02  0.18350206540E+02  0.49020292200E+01  0.27564964430E+02  0.00000000000E+00 0.  1.
</event>
<event>
 7    1  0.3435518E-013  0.7246139E+02  0.7816164E-02  0.1226709E+00
        -11   -1    0    0    0    0  0.00000000000E+00  0.00000000000E+00  0.45593999997E+02  0.45594000000E+02  0.51100000000E-03 0. -1.
         11   -1    0    0    0    0 -0.00000000000E+00 -0.00000000000E+00 -0.45593999997E+02  0.45594000000E+02  0.51100000000E-03 0.  1.
    9900012    2    1    2    0    0  0.17158580086E+02 -0.74570209464E+01  0.81365807628E+00  0.72461386013E+02  0.69999759938E+02 0.  0.
        -12    1    1    2    0    0 -0.17158580086E+02  0.74570209464E+01 -0.81365807628E+00  0.18726613987E+02  0.00000000000E+00 0.  1.
         11    1    3    3    0    0  0.16276836702E+02  0.85309928574E+01 -0.10714041454E+02  0.21272139918E+02  0.51100000000E-03 0.  1.
        -11    1    3    3    0    0 -0.57704687587E+01 -0.15111154469E+02  0.28593554592E+02  0.32851737603E+02  0.51100000000E-03 0. -1.
         12    1    3    3    0    0  0.66522121431E+01 -0.87685933471E+00 -0.17065855062E+02  0.18337508492E+02  0.00000000000E+00 0. -1.
</event>
<event>
 7    1  0.3435518E-013  0.7246154E+02  0.7816164E-02  0.1226708E+00
        -11   -1    0    0    0    0  0.00000000000E+00  0.00000000000E+00  0.45593999997E+02  0.45594000000E+02  0.51100000000E-03 0.  1.
         11   -1    0    0    0    0 -0.00000000000E+00 -0.00000000000E+00 -0.45593999997E+02  0.45594000000E+02  0.51100000000E-03 0. -1.
    9900012    2    1    2    0    0 -0.15552694077E+02  0.91342142431E+01 -0.50358890901E+01  0.72461538994E+02  0.69999959225E+02 0.  0.
        -12    1    1    2    0    0  0.15552694077E+02 -0.91342142431E+01  0.50358890901E+01  0.18726461006E+02  0.00000000000E+00 0.  1.
         11    1    3    3    0    0 -0.20616915664E+02  0.14048624007E+02  0.63465026740E+01  0.25742943585E+02  0.51100000000E-03 0. -1.
        -11    1    3    3    0    0 -0.10422336112E+02  0.26441705205E+01  0.12994057854E+02  0.16866009236E+02  0.51100000000E-03 0.  1.
         12    1    3    3    0    0  0.15486557699E+02 -0.75585802842E+01 -0.24376449618E+02  0.29852586173E+02  0.00000000000E+00 0. -1.
</event>
<event>
 7    1  0.3435518E-013  0.7246159E+02  0.7816164E-02  0.1226708E+00
        -11   -1    0    0    0    0  0.00000000000E+00  0.00000000000E+00  0.45593999997E+02  0.45594000000E+02  0.51100000000E-03 0. -1.
         11   -1    0    0    0    0 -0.00000000000E+00 -0.00000000000E+00 -0.45593999997E+02  0.45594000000E+02  0.51100000000E-03 0.  1.
    9900012    2    1    2    0    0  0.55067152490E+01 -0.14001248355E+02 -0.11149862427E+02  0.72461593499E+02  0.70000030228E+02 0.  0.
        -12    1    1    2    0    0 -0.55067152490E+01  0.14001248355E+02  0.11149862427E+02  0.18726406501E+02  0.00000000000E+00 0.  1.
         11    1    3    3    0    0  0.11467105539E+02 -0.40230117528E+01  0.25266138924E+01  0.12412208145E+02  0.51100000000E-03 0. -1.
        -11    1    3    3    0    0  0.59312332966E+01  0.21685976686E+02 -0.13502197101E+02  0.26225377787E+02  0.51100000000E-03 0.  1.
        -12    1    3    3    0    0 -0.11891623586E+02 -0.31664213288E+02 -0.17427921854E+00  0.33824007567E+02  0.00000000000E+00 0.  1.
</event>
<event>
 7    1  0.3435518E-013  0.7246154E+02  0.7816164E-02  0.1226708E+00
        -11   -1    0    0    0    0  0.00000000000E+00  0.00000000000E+00  0.45593999997E+02  0.45594000000E+02  0.51100000000E-03 0. -1.
         11   -1    0    0    0    0 -0.00000000000E+00 -0.00000000000E+00 -0.45593999997E+02  0.45594000000E+02  0.51100000000E-03 0.  1.
    9900012    2    1    2    0    0 -0.16745486398E+02 -0.81096898591E+01 -0.21217560422E+01  0.72461541899E+02  0.69999963010E+02 0.  0.
        -12    1    1    2    0    0  0.16745486398E+02  0.81096898591E+01  0.21217560422E+01  0.18726458101E+02  0.00000000000E+00 0.  1.
         11    1    3    3    0    0 -0.23470271514E+02  0.21736853359E+02 -0.82386969124E+01  0.33033627805E+02  0.51100000000E-03 0. -1.
        -11    1    3    3    0    0  0.20591030301E+01  0.29134714576E+01  0.52230845254E+01  0.63252536268E+01  0.51100000000E-03 0.  1.
        -12    1    3    3    0    0  0.46656820862E+01 -0.32760014675E+02  0.89385634483E+00  0.33102660467E+02  0.00000000000E+00 0.  1.
</event>
<event>
 7    1  0.3435518E-013  0.7246149E+02  0.7816164E-02  0.1226708E+00
        -11   -1    0    0    0    0  0.00000000000E+00  0.00000000000E+00  0.45593999997E+02  0.45594000000E+02  0.51100000000E-03 0. -1.
         11   -1    0    0    0    0 -0.00000000000E+00 -0.00000000000E+00 -0.45593999997E+02  0.45594000000E+02  0.51100000000E-03 0.  1.
    9900012    2    1    2    0    0 -0.13996409678E+02 -0.56634750275E+01  0.11077354838E+02  0.72461488753E+02  0.69999893778E+02 0.  0.
        -12    1    1    2    0    0  0.13996409678E+02  0.56634750275E+01 -0.11077354838E+02  0.18726511247E+02  0.00000000000E+00 0.  1.
         11    1    3    3    0    0  0.11945106067E+02 -0.37563681793E+01 -0.13280183657E+02  0.18252647454E+02  0.51100000000E-03 0. -1.
        -11    1    3    3    0    0  0.92951147240E+01 -0.78874038317E+01  0.29318702024E+01  0.12538188070E+02  0.51100000000E-03 0.  1.
         12    1    3    3    0    0 -0.35236630469E+02  0.59802969834E+01  0.21425668292E+02  0.41670653230E+02  0.00000000000E+00 0. -1.
</event>
<event>
 7    1  0.3435518E-013  0.7246161E+02  0.7816164E-02  0.1226708E+00
        -11   -1    0    0    0    0  0.00000000000E+00  0.00000000000E+00  0.45593999997E+02  0.45594000000E+02  0.51100000000E-03 0.  1.
         11   -1    0    0    0    0 -0.00000000000E+00 -0.00000000000E+00 -0.45593999997E+02  0.45594000000E+02  0.51100000000E-03 0. -1.
    9900012    2    1    2    0    0 -0.46618570576E+00  0.15088469888E+02  0.11081449146E+02  0.72461607719E+02  0.70000048753E+02 0.  0.
        -12    1    1    2    0    0  0.46618570576E+00 -0.15088469888E+02 -0.11081449146E+02  0.18726392281E+02  0.00000000000E+00 0.  1.
         11    1    3    3    0    0 -0.49491793649E+01  0.19733019916E+02  0.85888749171E+01  0.22082917017E+02  0.51100000000E-03 0. -1.
        -11    1    3    3    0    0  0.13716105482E+01  0.22511249114E+02 -0.21443432974E+01  0.22654709457E+02  0.51100000000E-03 0.  1.
        -12    1    3    3    0    0  0.31113831110E+01 -0.27155799142E+02  0.46369175261E+01  0.27723981245E+02  0.00000000000E+00 0.  1.
</event>
<event>
 7    1  0.3435518E-013  0.7246166E+02  0.7816164E-02  0.1226708E+00
        -11   -1    0    0    0    0  0.00000000000E+00  0.00000000000E+00  0.45593999997E+02  0.45594000000E+02  0.51100000000E-03 0.  1.
         11   -1    0    0    0    0 -0.00000000000E+00 -0.00000000000E+00 -0.45593999997E+02  0.45594000000E+02  0.51100000000E-03 0. -1.
    9900012    2    1    2    0    0 -0.70312916638E+00  0.10686020279E+02 -0.15361980551E+02  0.72461658487E+02  0.70000114887E+02 0.  0.
        -12    1    1    2    0    0  0.70312916638E+00 -0.10686020279E+02  0.15361980551E+02  0.18726341513E+02  0.00000000000E+00 0.  1.
         11    1    3    3    0    0 -0.16893252878E+02  0.94584420973E+01 -0.24332442956E+02  0.31095207029E+02  0.51100000000E-03 0. -1.
        -11    1    3    3    0    0  0.16684209871E+02  0.12945603125E+02 -0.63688976094E+01  0.22057070438E+02  0.51100000000E-03 0.  1.
        -12    1    3    3    0    0 -0.49408616006E+00 -0.11718024944E+02  0.15339360014E+02  0.19309381020E+02  0.00000000000E+00 0.  1.
</event>
<event>
 7    1  0.3435518E-013  0.7246168E+02  0.7816164E-02  0.1226708E+00
        -11   -1    0    0    0    0  0.00000000000E+00  0.00000000000E+00  0.45593999997E+02  0.45594000000E+02  0.51100000000E-03 0. -1.
         11   -1    0    0    0    0 -0.00000000000E+00 -0.00000000000E+00 -0.45593999997E+02  0.45594000000E+02  0.51100000000E-03 0.  1.
    9900012    2    1    2    0    0 -0.15020896113E+02  0.14512003174E+01  0.11087915093E+02  0.72461677256E+02  0.70000139337E+02 0.  0.
        -12    1    1    2    0    0  0.15020896113E+02 -0.14512003174E+01 -0.11087915093E+02  0.18726322744E+02  0.00000000000E+00 0.  1.
         11    1    3    3    0    0 -0.24557665834E+02  0.29650043157E+02  0.99534476289E+01  0.39765250287E+02  0.51100000000E-03 0. -1.
        -11    1    3    3    0    0  0.72355766884E+01 -0.38184057587E+01  0.56967995473E+00  0.82011174887E+01  0.51100000000E-03 0.  1.
        -12    1    3    3    0    0  0.23011930319E+01 -0.24380437081E+02  0.56478750905E+00  0.24495309481E+02  0.00000000000E+00 0.  1.
</event>
<event>
 7    1  0.3435518E-013  0.7246143E+02  0.7816164E-02  0.1226708E+00
        -11   -1    0    0    0    0  0.00000000000E+00  0.00000000000E+00  0.45593999997E+02  0.45594000000E+02  0.51100000000E-03 0.  1.
         11   -1    0    0    0    0 -0.00000000000E+00 -0.00000000000E+00 -0.45593999997E+02  0.45594000000E+02  0.51100000000E-03 0. -1.
    9900012    2    1    2    0    0  0.10839794487E+02  0.15147307654E+02 -0.19345570315E+01  0.72461425711E+02  0.69999811654E+02 0.  0.
        -12    1    1    2    0    0 -0.10839794487E+02 -0.15147307654E+02  0.19345570315E+01  0.18726574289E+02  0.00000000000E+00 0.  1.
         11    1    3    3    0    0 -0.10450003105E+02 -0.69873520843E+01 -0.21883604821E+02  0.25237230717E+02  0.51100000000E-03 0. -1.
        -11    1    3    3    0    0  0.56355734360E+01  0.66519798671E+01 -0.78710131186E+01  0.11745695887E+02  0.51100000000E-03 0.  1.
        -12    1    3    3    0    0  0.15654224156E+02  0.15482679871E+02  0.27820060908E+02  0.35478499107E+02  0.00000000000E+00 0.  1.
</event>
<event>
 7    1  0.3435518E-013  0.7246160E+02  0.7816164E-02  0.1226708E+00
        -11   -1    0    0    0    0  0.00000000000E+00  0.00000000000E+00  0.45593999997E+02  0.45594000000E+02  0.51100000000E-03 0. -1.
         11   -1    0    0    0    0 -0.00000000000E+00 -0.00000000000E+00 -0.45593999997E+02  0.45594000000E+02  0.51100000000E-03 0.  1.
    9900012    2    1    2    0    0 -0.84462021801E+01  0.10700132355E+02  0.12839268685E+02  0.72461601947E+02  0.70000041233E+02 0.  0.
        -12    1    1    2    0    0  0.84462021801E+01 -0.10700132355E+02 -0.12839268685E+02  0.18726398053E+02  0.00000000000E+00 0.  1.
         11    1    3    3    0    0  0.24532725163E+01 -0.88769861869E+01 -0.60019295635E+01  0.10992842605E+02  0.51100000000E-03 0. -1.
        -11    1    3    3    0    0  0.40847022883E+01 -0.12768346392E+02 -0.90770933068E+01  0.16189783369E+02  0.51100000000E-03 0.  1.
        -12    1    3    3    0    0 -0.14984176985E+02  0.32345464935E+02  0.27918291555E+02  0.45278975972E+02  0.00000000000E+00 0.  1.
</event>
<event>
 7    1  0.3435518E-013  0.7246157E+02  0.7816164E-02  0.1226708E+00
        -11   -1    0    0    0    0  0.00000000000E+00  0.00000000000E+00  0.45593999997E+02  0.45594000000E+02  0.51100000000E-03 0.  1.
         11   -1    0    0    0    0 -0.00000000000E+00 -0.00000000000E+00 -0.45593999997E+02  0.45594000000E+02  0.51100000000E-03 0. -1.
    9900012    2    1    2    0    0 -0.15037044469E+02  0.65669147727E+01 -0.90245296326E+01  0.72461569185E+02  0.69999998554E+02 0.  0.
        -12    1    1    2    0    0  0.15037044469E+02 -0.65669147727E+01  0.90245296326E+01  0.18726430815E+02  0.00000000000E+00 0.  1.
         11    1    3    3    0    0  0.64001848522E+01 -0.59732894810E+01 -0.16303959999E+02  0.18505719799E+02  0.51100000000E-03 0. -1.
        -11    1    3    3    0    0 -0.37851299121E+01 -0.56994004659E+01  0.23069454278E+02  0.24062628599E+02  0.51100000000E-03 0.  1.
         12    1    3    3    0    0 -0.17652099409E+02  0.18239604720E+02 -0.15790023912E+02  0.29893220787E+02  0.00000000000E+00 0. -1.
</event>
<event>
 7    1  0.3435518E-013  0.7246111E+02  0.7816164E-02  0.1226709E+00
        -11   -1    0    0    0    0  0.00000000000E+00  0.00000000000E+00  0.45593999997E+02  0.45594000000E+02  0.51100000000E-03 0. -1.
         11   -1    0    0    0    0 -0.00000000000E+00 -0.00000000000E+00 -0.45593999997E+02  0.45594000000E+02  0.51100000000E-03 0.  1.
    9900012    2    1    2    0    0 -0.14769000499E+02 -0.70074456269E+01  0.91361165821E+01  0.72461113015E+02  0.69999404306E+02 0.  0.
        -12    1    1    2    0    0  0.14769000499E+02  0.70074456269E+01 -0.91361165821E+01  0.18726886985E+02  0.00000000000E+00 0.  1.
         11    1    3    3    0    0  0.25677987695E+01 -0.11919227239E+02 -0.16969543398E+02  0.20895620879E+02  0.51100000000E-03 0. -1.
        -11    1    3    3    0    0  0.11366606231E+02 -0.22988630477E+01 -0.72377537897E+00  0.11619309772E+02  0.51100000000E-03 0.  1.
         12    1    3    3    0    0 -0.28703405500E+02  0.72106446603E+01  0.26829435359E+02  0.39946182363E+02  0.00000000000E+00 0. -1.
</event>
<event>
 7    1  0.3435518E-013  0.7246146E+02  0.7816164E-02  0.1226708E+00
        -11   -1    0    0    0    0  0.00000000000E+00  0.00000000000E+00  0.45593999997E+02  0.45594000000E+02  0.51100000000E-03 0. -1.
         11   -1    0    0    0    0 -0.00000000000E+00 -0.00000000000E+00 -0.45593999997E+02  0.45594000000E+02  0.51100000000E-03 0.  1.
    9900012    2    1    2    0    0 -0.16854896935E+02 -0.33597680180E+01  0.74369091954E+01  0.72461462408E+02  0.69999859457E+02 0.  0.
        -12    1    1    2    0    0  0.16854896935E+02  0.33597680180E+01 -0.74369091954E+01  0.18726537592E+02  0.00000000000E+00 0.  1.
         11    1    3    3    0    0  0.44309074487E+00  0.76189690522E+01  0.74553728608E+01  0.10669001996E+02  0.51100000000E-03 0. -1.
        -11    1    3    3    0    0  0.15267144864E+02  0.14028182785E+02  0.48307297090E-01  0.20733498460E+02  0.51100000000E-03 0.  1.
         12    1    3    3    0    0 -0.32565132543E+02 -0.25006919856E+02 -0.66770962494E-01  0.41058961952E+02  0.00000000000E+00 0. -1.
</event>
<event>
 7    1  0.3435518E-013  0.7246150E+02  0.7816164E-02  0.1226708E+00
        -11   -1    0    0    0    0  0.00000000000E+00  0.00000000000E+00  0.45593999997E+02  0.45594000000E+02  0.51100000000E-03 0.  1.
         11   -1    0    0    0    0 -0.00000000000E+00 -0.00000000000E+00 -0.45593999997E+02  0.45594000000E+02  0.51100000000E-03 0. -1.
    9900012    2    1    2    0    0  0.12322950578E+02  0.32470248857E+00 -0.14096854714E+02  0.72461498579E+02  0.69999906577E+02 0.  0.
        -12    1    1    2    0    0 -0.12322950578E+02 -0.32470248857E+00  0.14096854714E+02  0.18726501421E+02  0.00000000000E+00 0.  1.
         11    1    3    3    0    0 -0.10946853004E+02 -0.11870496902E+02  0.15053314723E+02  0.22075882129E+02  0.51100000000E-03 0. -1.
        -11    1    3    3    0    0  0.24298703645E+01 -0.60514680511E+01  0.36350183496E+01  0.74657815549E+01  0.51100000000E-03 0.  1.
         12    1    3    3    0    0  0.20839933218E+02  0.18246667442E+02 -0.32785187786E+02  0.42919834895E+02  0.00000000000E+00 0. -1.
</event>
<event>
 7    1  0.3435518E-013  0.7246156E+02  0.7816164E-02  0.1226708E+00
        -11   -1    0    0    0    0  0.00000000000E+00  0.00000000000E+00  0.45593999997E+02  0.45594000000E+02  0.51100000000E-03 0.  1.
         11   -1    0    0    0    0 -0.00000000000E+00 -0.00000000000E+00 -0.45593999997E+02  0.45594000000E+02  0.51100000000E-03 0. -1.
    9900012    2    1    2    0    0  0.16787647876E+02 -0.73471248656E+01 -0.38566953680E+01  0.72461562427E+02  0.69999989751E+02 0.  0.
        -12    1    1    2    0    0 -0.16787647876E+02  0.73471248656E+01  0.38566953680E+01  0.18726437573E+02  0.00000000000E+00 0.  1.
         11    1    3    3    0    0  0.16253888321E+02  0.19578681420E+02  0.17455498895E+02  0.30857869234E+02  0.51100000000E-03 0.  1.
        -11    1    3    3    0    0  0.89158138075E+01 -0.26653072788E+01 -0.20933620188E+01  0.95382264359E+01  0.51100000000E-03 0. -1.
        -12    1    3    3    0    0 -0.83820542519E+01 -0.24260499007E+02 -0.19218832245E+02  0.32065466758E+02  0.00000000000E+00 0.  1.
</event>
<event>
 7    1  0.3435518E-013  0.7246156E+02  0.7816164E-02  0.1226708E+00
        -11   -1    0    0    0    0  0.00000000000E+00  0.00000000000E+00  0.45593999997E+02  0.45594000000E+02  0.51100000000E-03 0. -1.
         11   -1    0    0    0    0 -0.00000000000E+00 -0.00000000000E+00 -0.45593999997E+02  0.45594000000E+02  0.51100000000E-03 0.  1.
    9900012    2    1    2    0    0  0.49207120393E+01  0.12027673171E+02  0.13483369207E+02  0.72461559493E+02  0.69999985929E+02 0.  0.
        -12    1    1    2    0    0 -0.49207120393E+01 -0.12027673171E+02 -0.13483369207E+02  0.18726440507E+02  0.00000000000E+00 0.  1.
         11    1    3    3    0    0 -0.22606400593E+02 -0.11516550211E+02  0.15385824558E+02  0.29671600465E+02  0.51100000000E-03 0. -1.
        -11    1    3    3    0    0  0.41370713655E+00 -0.21523111635E+01 -0.48458787273E+01  0.53184713819E+01  0.51100000000E-03 0.  1.
        -12    1    3    3    0    0  0.27113405496E+02  0.25696534546E+02  0.29434233761E+01  0.37471487646E+02  0.00000000000E+00 0.  1.
</event>
<event>
 7    1  0.3435518E-013  0.7246145E+02  0.7816164E-02  0.1226708E+00
        -11   -1    0    0    0    0  0.00000000000E+00  0.00000000000E+00  0.45593999997E+02  0.45594000000E+02  0.51100000000E-03 0. -1.
         11   -1    0    0    0    0 -0.00000000000E+00 -0.00000000000E+00 -0.45593999997E+02  0.45594000000E+02  0.51100000000E-03 0.  1.
    9900012    2    1    2    0    0  0.92185130592E+01 -0.18302073280E+00  0.16299365445E+02  0.72461446833E+02  0.69999839168E+02 0.  0.
        -12    1    1    2    0    0 -0.92185130592E+01  0.18302073280E+00 -0.16299365445E+02  0.18726553167E+02  0.00000000000E+00 0.  1.
         11    1    3    3    0    0  0.56212005929E+01  0.91735636853E+01  0.15897218533E+02  0.19195669411E+02  0.51100000000E-03 0. -1.
        -11    1    3    3    0    0  0.63288785196E+01 -0.16835512800E+02  0.23062857830E+02  0.29246958921E+02  0.51100000000E-03 0.  1.
        -12    1    3    3    0    0 -0.27315660533E+01  0.74789283823E+01 -0.22660710918E+02  0.24018818501E+02  0.00000000000E+00 0.  1.
</event>
<event>
 7    1  0.3435518E-013  0.7246157E+02  0.7816164E-02  0.1226708E+00
        -11   -1    0    0    0    0  0.00000000000E+00  0.00000000000E+00  0.45593999997E+02  0.45594000000E+02  0.51100000000E-03 0. -1.
         11   -1    0    0    0    0 -0.00000000000E+00 -0.00000000000E+00 -0.45593999997E+02  0.45594000000E+02  0.51100000000E-03 0.  1.
    9900012    2    1    2    0    0 -0.24566806225E+01 -0.12525091335E+02  0.13702775427E+02  0.72461568225E+02  0.69999997304E+02 0.  0.
        -12    1    1    2    0    0  0.24566806225E+01  0.12525091335E+02 -0.13702775427E+02  0.18726431775E+02  0.00000000000E+00 0.  1.
         11    1    3    3    0    0 -0.20769919122E+02  0.23943737414E+01  0.22176990136E+02  0.30478540938E+02  0.51100000000E-03 0. -1.
        -11    1    3    3    0    0  0.44721496716E+01 -0.19770560213E+02  0.62388464907E+01  0.21208450665E+02  0.51100000000E-03 0.  1.
        -12    1    3    3    0    0  0.13841088828E+02  0.48510951368E+01 -0.14713061199E+02  0.20774576622E+02  0.00000000000E+00 0.  1.
</event>
<event>
 7    1  0.3435518E-013  0.7246148E+02  0.7816164E-02  0.1226708E+00
        -11   -1    0    0    0    0  0.00000000000E+00  0.00000000000E+00  0.45593999997E+02  0.45594000000E+02  0.51100000000E-03 0. -1.
         11   -1    0    0    0    0 -0.00000000000E+00 -0.00000000000E+00 -0.45593999997E+02  0.45594000000E+02  0.51100000000E-03 0.  1.
    9900012    2    1    2    0    0  0.18667373697E+02  0.14324513793E+01  0.39962803331E+00  0.72461482431E+02  0.69999885541E+02 0.  0.
        -12    1    1    2    0    0 -0.18667373697E+02 -0.14324513793E+01 -0.39962803331E+00  0.18726517569E+02  0.00000000000E+00 0.  1.
         11    1    3    3    0    0  0.16497152289E+02 -0.11151211987E+01 -0.15494447937E+02  0.22660040734E+02  0.51100000000E-03 0. -1.
        -11    1    3    3    0    0 -0.89940490786E+01  0.22486954006E+02  0.63589912743E+01  0.25039824073E+02  0.51100000000E-03 0.  1.
        -12    1    3    3    0    0  0.11164270487E+02 -0.19939381428E+02  0.95350846957E+01  0.24761617625E+02  0.00000000000E+00 0.  1.
</event>
<event>
 7    1  0.3435518E-013  0.7246158E+02  0.7816164E-02  0.1226708E+00
        -11   -1    0    0    0    0  0.00000000000E+00  0.00000000000E+00  0.45593999997E+02  0.45594000000E+02  0.51100000000E-03 0. -1.
         11   -1    0    0    0    0 -0.00000000000E+00 -0.00000000000E+00 -0.45593999997E+02  0.45594000000E+02  0.51100000000E-03 0.  1.
    9900012    2    1    2    0    0 -0.17060025186E+02 -0.56657196052E+01 -0.52472997690E+01  0.72461575012E+02  0.70000006145E+02 0.  0.
        -12    1    1    2    0    0  0.17060025186E+02  0.56657196052E+01  0.52472997690E+01  0.18726424988E+02  0.00000000000E+00 0.  1.
         11    1    3    3    0    0  0.33690426450E+01 -0.35846091332E+01 -0.70110654838E+01  0.85647481259E+01  0.51100000000E-03 0. -1.
        -11    1    3    3    0    0 -0.38724221311E+02 -0.96008553028E+01 -0.96671704542E+01  0.41051137908E+02  0.51100000000E-03 0.  1.
         12    1    3    3    0    0  0.18295153480E+02  0.75197448308E+01  0.11430936169E+02  0.22845688978E+02  0.00000000000E+00 0. -1.
</event>
<event>
 7    1  0.3435518E-013  0.7246160E+02  0.7816164E-02  0.1226708E+00
        -11   -1    0    0    0    0  0.00000000000E+00  0.00000000000E+00  0.45593999997E+02  0.45594000000E+02  0.51100000000E-03 0.  1.
         11   -1    0    0    0    0 -0.00000000000E+00 -0.00000000000E+00 -0.45593999997E+02  0.45594000000E+02  0.51100000000E-03 0. -1.
    9900012    2    1    2    0    0 -0.17138664097E+02  0.15821461287E+01 -0.73784146048E+01  0.72461601641E+02  0.70000040835E+02 0.  0.
        -12    1    1    2    0    0  0.17138664097E+02 -0.15821461287E+01  0.73784146048E+01  0.18726398359E+02  0.00000000000E+00 0.  1.
         11    1    3    3    0    0  0.58796254264E+01  0.87112103235E+01 -0.10831234047E+02  0.15092077779E+02  0.51100000000E-03 0. -1.
        -11    1    3    3    0    0 -0.80295617181E+01 -0.22677038336E+02  0.19086389926E+02  0.30708503867E+02  0.51100000000E-03 0.  1.
         12    1    3    3    0    0 -0.14988727806E+02  0.15547974141E+02 -0.15633570483E+02  0.26661019995E+02  0.00000000000E+00 0. -1.
</event>
<event>
 7    1  0.3435518E-013  0.7246153E+02  0.7816164E-02  0.1226708E+00
        -11   -1    0    0    0    0  0.00000000000E+00  0.00000000000E+00  0.45593999997E+02  0.45594000000E+02  0.51100000000E-03 0.  1.
         11   -1    0    0    0    0 -0.00000000000E+00 -0.00000000000E+00 -0.45593999997E+02  0.45594000000E+02  0.51100000000E-03 0. -1.
    9900012    2    1    2    0    0 -0.93875091898E+01  0.91362078056E+01 -0.13382261919E+02  0.72461533277E+02  0.69999951779E+02 0.  0.
        -12    1    1    2    0    0  0.93875091898E+01 -0.91362078056E+01  0.13382261919E+02  0.18726466723E+02  0.00000000000E+00 0.  1.
         11    1    3    3    0    0 -0.33557121409E+01  0.27569217374E+01  0.77819630335E+01  0.89118107226E+01  0.51100000000E-03 0. -1.
        -11    1    3    3    0    0  0.24468229826E+02 -0.50638905214E+01 -0.53755078168E+00  0.24992523264E+02  0.51100000000E-03 0.  1.
         12    1    3    3    0    0 -0.30500026874E+02  0.11443176590E+02 -0.20626674170E+02  0.38557199291E+02  0.00000000000E+00 0. -1.
</event>
<event>
 7    1  0.3435518E-013  0.7246156E+02  0.7816164E-02  0.1226708E+00
        -11   -1    0    0    0    0  0.00000000000E+00  0.00000000000E+00  0.45593999997E+02  0.45594000000E+02  0.51100000000E-03 0.  1.
         11   -1    0    0    0    0 -0.00000000000E+00 -0.00000000000E+00 -0.45593999997E+02  0.45594000000E+02  0.51100000000E-03 0. -1.
    9900012    2    1    2    0    0 -0.50470968425E+01 -0.18033204418E+02  0.10008848873E+00  0.72461557043E+02  0.69999982738E+02 0.  0.
        -12    1    1    2    0    0  0.50470968425E+01  0.18033204418E+02 -0.10008848873E+00  0.18726442957E+02  0.00000000000E+00 0.  1.
         11    1    3    3    0    0  0.14347337079E+02 -0.82491394862E+01 -0.83302998050E+01  0.18528040334E+02  0.51100000000E-03 0. -1.
        -11    1    3    3    0    0 -0.94355474232E+00  0.10619177655E+02  0.21105392412E+02  0.23645185953E+02  0.51100000000E-03 0.  1.
         12    1    3    3    0    0 -0.18450879180E+02 -0.20403242587E+02 -0.12675004118E+02  0.30288330756E+02  0.00000000000E+00 0. -1.
</event>
<event>
 7    1  0.3435518E-013  0.7246168E+02  0.7816164E-02  0.1226708E+00
        -11   -1    0    0    0    0  0.00000000000E+00  0.00000000000E+00  0.45593999997E+02  0.45594000000E+02  0.51100000000E-03 0.  1.
         11   -1    0    0    0    0 -0.00000000000E+00 -0.00000000000E+00 -0.45593999997E+02  0.45594000000E+02  0.51100000000E-03 0. -1.
    9900012    2    1    2    0    0  0.10039007848E+02 -0.15130855939E+02 -0.45771839410E+01  0.72461679143E+02  0.70000141795E+02 0.  0.
        -12    1    1    2    0    0 -0.10039007848E+02  0.15130855939E+02  0.45771839410E+01  0.18726320857E+02  0.00000000000E+00 0.  1.
         11    1    3    3    0    0  0.22782845711E+01  0.84633962571E+00 -0.18708054777E+02  0.18865263983E+02  0.51100000000E-03 0. -1.
        -11    1    3    3    0    0  0.36454302621E+01  0.17129376633E+02  0.94747569942E+01  0.19911698219E+02  0.51100000000E-03 0.  1.
        -12    1    3    3    0    0  0.41152930148E+01 -0.33106572197E+02  0.46561138418E+01  0.33684716940E+02  0.00000000000E+00 0.  1.
</event>
<event>
 7    1  0.3435518E-013  0.7246154E+02  0.7816164E-02  0.1226708E+00
        -11   -1    0    0    0    0  0.00000000000E+00  0.00000000000E+00  0.45593999997E+02  0.45594000000E+02  0.51100000000E-03 0.  1.
         11   -1    0    0    0    0 -0.00000000000E+00 -0.00000000000E+00 -0.45593999997E+02  0.45594000000E+02  0.51100000000E-03 0. -1.
    9900012    2    1    2    0    0 -0.12215620781E+02  0.12203753342E+02 -0.72475678036E+01  0.72461542092E+02  0.69999963262E+02 0.  0.
        -12    1    1    2    0    0  0.12215620781E+02 -0.12203753342E+02  0.72475678036E+01  0.18726457908E+02  0.00000000000E+00 0.  1.
         11    1    3    3    0    0 -0.24045326522E+02 -0.15580865859E+02 -0.51009368201E+01  0.29102588633E+02  0.51100000000E-03 0. -1.
        -11    1    3    3    0    0 -0.78278835532E+01  0.11717158743E+02  0.77826299435E+01  0.16097729623E+02  0.51100000000E-03 0.  1.
         12    1    3    3    0    0  0.19657589294E+02  0.16067460459E+02 -0.99292609270E+01  0.27261223836E+02  0.00000000000E+00 0. -1.
</event>
<event>
 7    1  0.3435518E-013  0.7246157E+02  0.7816164E-02  0.1226708E+00
        -11   -1    0    0    0    0  0.00000000000E+00  0.00000000000E+00  0.45593999997E+02  0.45594000000E+02  0.51100000000E-03 0.  1.
         11   -1    0    0    0    0 -0.00000000000E+00 -0.00000000000E+00 -0.45593999997E+02  0.45594000000E+02  0.51100000000E-03 0. -1.
    9900012    2    1    2    0    0  0.13427603560E+02  0.93133938459E+01 -0.91454443050E+01  0.72461574985E+02  0.70000006111E+02 0.  0.
        -12    1    1    2    0    0 -0.13427603560E+02 -0.93133938459E+01  0.91454443050E+01  0.18726425015E+02  0.00000000000E+00 0.  1.
         11    1    3    3    0    0  0.12318164625E+02 -0.27143342888E+02 -0.29716589450E+01  0.29955450255E+02  0.51100000000E-03 0. -1.
        -11    1    3    3    0    0 -0.59515611542E+01  0.45357361357E+01  0.37099623254E+01  0.83521136954E+01  0.51100000000E-03 0.  1.
        -12    1    3    3    0    0  0.70610000893E+01  0.31921000598E+02 -0.98837476854E+01  0.34154011035E+02  0.00000000000E+00 0.  1.
</event>
<event>
 7    1  0.3435518E-013  0.7246154E+02  0.7816164E-02  0.1226708E+00
        -11   -1    0    0    0    0  0.00000000000E+00  0.00000000000E+00  0.45593999997E+02  0.45594000000E+02  0.51100000000E-03 0.  1.
         11   -1    0    0    0    0 -0.00000000000E+00 -0.00000000000E+00 -0.45593999997E+02  0.45594000000E+02  0.51100000000E-03 0. -1.
    9900012    2    1    2    0    0 -0.37137222242E+01 -0.37957134977E+01 -0.17957755350E+02  0.72461544090E+02  0.69999965864E+02 0.  0.
        -12    1    1    2    0    0  0.37137222242E+01  0.37957134977E+01  0.17957755350E+02  0.18726455910E+02  0.00000000000E+00 0.  1.
         11    1    3    3    0    0  0.63145033668E+00 -0.26253625143E+01  0.92113872796E+00  0.28530255303E+01  0.51100000000E-03 0. -1.
        -11    1    3    3    0    0  0.24348544957E+02  0.10416841169E+00 -0.30149996154E+02  0.38754157982E+02  0.51100000000E-03 0.  1.
         12    1    3    3    0    0 -0.28693717518E+02 -0.12745193951E+01  0.11271102075E+02  0.30854360578E+02  0.00000000000E+00 0. -1.
</event>
<event>
 7    1  0.3435518E-013  0.7246155E+02  0.7816164E-02  0.1226708E+00
        -11   -1    0    0    0    0  0.00000000000E+00  0.00000000000E+00  0.45593999997E+02  0.45594000000E+02  0.51100000000E-03 0. -1.
         11   -1    0    0    0    0 -0.00000000000E+00 -0.00000000000E+00 -0.45593999997E+02  0.45594000000E+02  0.51100000000E-03 0.  1.
    9900012    2    1    2    0    0  0.15086254405E+02 -0.84310426534E+00 -0.11062282151E+02  0.72461548570E+02  0.69999971700E+02 0.  0.
        -12    1    1    2    0    0 -0.15086254405E+02  0.84310426534E+00  0.11062282151E+02  0.18726451430E+02  0.00000000000E+00 0.  1.
         11    1    3    3    0    0  0.19162552264E+01  0.98603312395E+01 -0.11986844112E+01  0.10116076849E+02  0.51100000000E-03 0. -1.
        -11    1    3    3    0    0 -0.19434652583E+02 -0.12875197237E+02 -0.17056852092E+02  0.28886201350E+02  0.51100000000E-03 0.  1.
         12    1    3    3    0    0  0.32604651762E+02  0.21717617317E+01  0.71932543517E+01  0.33459270370E+02  0.00000000000E+00 0. -1.
</event>
<event>
 7    1  0.3435518E-013  0.7246160E+02  0.7816164E-02  0.1226708E+00
        -11   -1    0    0    0    0  0.00000000000E+00  0.00000000000E+00  0.45593999997E+02  0.45594000000E+02  0.51100000000E-03 0.  1.
         11   -1    0    0    0    0 -0.00000000000E+00 -0.00000000000E+00 -0.45593999997E+02  0.45594000000E+02  0.51100000000E-03 0. -1.
    9900012    2    1    2    0    0  0.39643985096E+00 -0.13425565367E+02 -0.13048951761E+02  0.72461598529E+02  0.70000036781E+02 0.  0.
        -12    1    1    2    0    0 -0.39643985096E+00  0.13425565367E+02  0.13048951761E+02  0.18726401471E+02  0.00000000000E+00 0.  1.
         11    1    3    3    0    0 -0.99008950217E+01 -0.89794819450E+01  0.81770578895E+01  0.15669176565E+02  0.51100000000E-03 0. -1.
        -11    1    3    3    0    0 -0.50533173950E+00 -0.16228298843E+02  0.11820250153E+02  0.20083111250E+02  0.51100000000E-03 0.  1.
         12    1    3    3    0    0  0.10802666612E+02  0.11782215421E+02 -0.33046259804E+02  0.36709310715E+02  0.00000000000E+00 0. -1.
</event>
<event>
 7    1  0.3435518E-013  0.7246140E+02  0.7816164E-02  0.1226708E+00
        -11   -1    0    0    0    0  0.00000000000E+00  0.00000000000E+00  0.45593999997E+02  0.45594000000E+02  0.51100000000E-03 0. -1.
         11   -1    0    0    0    0 -0.00000000000E+00 -0.00000000000E+00 -0.45593999997E+02  0.45594000000E+02  0.51100000000E-03 0.  1.
    9900012    2    1    2    0    0 -0.14768076337E+02  0.80705983836E+00  0.11486426041E+02  0.72461403740E+02  0.69999783032E+02 0.  0.
        -12    1    1    2    0    0  0.14768076337E+02 -0.80705983836E+00 -0.11486426041E+02  0.18726596260E+02  0.00000000000E+00 0.  1.
         11    1    3    3    0    0 -0.11332952480E+02  0.12784068627E+02 -0.11626411172E+02  0.20664986320E+02  0.51100000000E-03 0. -1.
        -11    1    3    3    0    0 -0.19652801606E+02  0.57823718777E+01  0.35424778874E+01  0.20789843321E+02  0.51100000000E-03 0.  1.
        -12    1    3    3    0    0  0.16217677749E+02 -0.17759380666E+02  0.19570359326E+02  0.31006574099E+02  0.00000000000E+00 0.  1.
</event>
<event>
 7    1  0.3435518E-013  0.7246156E+02  0.7816164E-02  0.1226708E+00
        -11   -1    0    0    0    0  0.00000000000E+00  0.00000000000E+00  0.45593999997E+02  0.45594000000E+02  0.51100000000E-03 0.  1.
         11   -1    0    0    0    0 -0.00000000000E+00 -0.00000000000E+00 -0.45593999997E+02  0.45594000000E+02  0.51100000000E-03 0. -1.
    9900012    2    1    2    0    0  0.31454452182E+01 -0.39699571042E+01 -0.18028454469E+02  0.72461559987E+02  0.69999986573E+02 0.  0.
        -12    1    1    2    0    0 -0.31454452182E+01  0.39699571042E+01  0.18028454469E+02  0.18726440013E+02  0.00000000000E+00 0.  1.
         11    1    3    3    0    0 -0.63398511774E+01 -0.43481532101E+01 -0.12830173706E+02  0.14957055422E+02  0.51100000000E-03 0. -1.
        -11    1    3    3    0    0  0.57599123948E+01 -0.20923375897E+02 -0.21404076288E+02  0.30481120907E+02  0.51100000000E-03 0.  1.
        -12    1    3    3    0    0  0.37253840008E+01  0.21301572003E+02  0.16205795525E+02  0.27023383659E+02  0.00000000000E+00 0.  1.
</event>
<event>
 7    1  0.3435518E-013  0.7246157E+02  0.7816164E-02  0.1226708E+00
        -11   -1    0    0    0    0  0.00000000000E+00  0.00000000000E+00  0.45593999997E+02  0.45594000000E+02  0.51100000000E-03 0.  1.
         11   -1    0    0    0    0 -0.00000000000E+00 -0.00000000000E+00 -0.45593999997E+02  0.45594000000E+02  0.51100000000E-03 0. -1.
    9900012    2    1    2    0    0  0.18831273531E+01  0.17491147556E+02 -0.64181586282E+01  0.72461570238E+02  0.69999999927E+02 0.  0.
        -12    1    1    2    0    0 -0.18831273531E+01 -0.17491147556E+02  0.64181586282E+01  0.18726429762E+02  0.00000000000E+00 0.  1.
         11    1    3    3    0    0  0.16058524768E+01 -0.51433869583E+00  0.35047982418E+01  0.38893338052E+01  0.51100000000E-03 0. -1.
        -11    1    3    3    0    0  0.15202939852E+02 -0.20146910119E+02 -0.11134431468E+02  0.27586281588E+02  0.51100000000E-03 0.  1.
         12    1    3    3    0    0 -0.14925664976E+02  0.38152396371E+02  0.12114745977E+01  0.40985954845E+02  0.00000000000E+00 0. -1.
</event>
<event>
 7    1  0.3435518E-013  0.7246124E+02  0.7816164E-02  0.1226709E+00
        -11   -1    0    0    0    0  0.00000000000E+00  0.00000000000E+00  0.45593999997E+02  0.45594000000E+02  0.51100000000E-03 0. -1.
         11   -1    0    0    0    0 -0.00000000000E+00 -0.00000000000E+00 -0.45593999997E+02  0.45594000000E+02  0.51100000000E-03 0.  1.
    9900012    2    1    2    0    0  0.13050872917E+02 -0.10035519648E+02 -0.89249365115E+01  0.72461242933E+02  0.69999573550E+02 0.  0.
        -12    1    1    2    0    0 -0.13050872917E+02  0.10035519648E+02  0.89249365115E+01  0.18726757067E+02  0.00000000000E+00 0.  1.
         11    1    3    3    0    0  0.69888502552E+00 -0.77187418360E+01  0.15537829375E+02  0.17363512253E+02  0.51100000000E-03 0. -1.
        -11    1    3    3    0    0  0.79946602186E+01  0.71971320469E+01  0.12610920158E+02  0.16575542501E+02  0.51100000000E-03 0.  1.
        -12    1    3    3    0    0  0.43573276731E+01 -0.95139098592E+01 -0.37073686044E+02  0.38522188180E+02  0.00000000000E+00 0.  1.
</event>
<event>
 7    1  0.3435518E-013  0.7246158E+02  0.7816164E-02  0.1226708E+00
        -11   -1    0    0    0    0  0.00000000000E+00  0.00000000000E+00  0.45593999997E+02  0.45594000000E+02  0.51100000000E-03 0.  1.
         11   -1    0    0    0    0 -0.00000000000E+00 -0.00000000000E+00 -0.45593999997E+02  0.45594000000E+02  0.51100000000E-03 0. -1.
    9900012    2    1    2    0    0  0.13470865926E+02  0.12797308476E+02 -0.23330971833E+01  0.72461583485E+02  0.70000017184E+02 0.  0.
        -12    1    1    2    0    0 -0.13470865926E+02 -0.12797308476E+02  0.23330971833E+01  0.18726416515E+02  0.00000000000E+00 0.  1.
         11    1    3    3    0    0  0.21601703247E+00  0.17592278845E+02  0.82201388520E+01  0.19419207536E+02  0.51100000000E-03 0. -1.
        -11    1    3    3    0    0  0.31324241906E+02  0.25769945157E+01 -0.13324057254E+01  0.31458295202E+02  0.51100000000E-03 0.  1.
        -12    1    3    3    0    0 -0.18069393013E+02 -0.73719648852E+01 -0.92208303099E+01  0.21584080747E+02  0.00000000000E+00 0.  1.
</event>
<event>
 7    1  0.3435518E-013  0.7246158E+02  0.7816164E-02  0.1226708E+00
        -11   -1    0    0    0    0  0.00000000000E+00  0.00000000000E+00  0.45593999997E+02  0.45594000000E+02  0.51100000000E-03 0.  1.
         11   -1    0    0    0    0 -0.00000000000E+00 -0.00000000000E+00 -0.45593999997E+02  0.45594000000E+02  0.51100000000E-03 0. -1.
    9900012    2    1    2    0    0  0.35305340117E+01  0.18144026473E+02 -0.30014215763E+01  0.72461577530E+02  0.70000009425E+02 0.  0.
        -12    1    1    2    0    0 -0.35305340117E+01 -0.18144026473E+02  0.30014215763E+01  0.18726422470E+02  0.00000000000E+00 0.  1.
         11    1    3    3    0    0  0.16516109436E+02  0.16726217851E+01 -0.16360585168E+02  0.23307687183E+02  0.51100000000E-03 0. -1.
        -11    1    3    3    0    0  0.97924678059E+01 -0.87326507492E+01  0.58307762057E+01  0.14357909536E+02  0.51100000000E-03 0.  1.
         12    1    3    3    0    0 -0.22778043230E+02  0.25204055437E+02  0.75283873856E+01  0.34795980810E+02  0.00000000000E+00 0. -1.
</event>
<event>
 7    1  0.3435518E-013  0.7246158E+02  0.7816164E-02  0.1226708E+00
        -11   -1    0    0    0    0  0.00000000000E+00  0.00000000000E+00  0.45593999997E+02  0.45594000000E+02  0.51100000000E-03 0.  1.
         11   -1    0    0    0    0 -0.00000000000E+00 -0.00000000000E+00 -0.45593999997E+02  0.45594000000E+02  0.51100000000E-03 0. -1.
    9900012    2    1    2    0    0 -0.12027068942E+02  0.29972454559E+01 -0.14037273704E+02  0.72461576938E+02  0.70000008655E+02 0.  0.
        -12    1    1    2    0    0  0.12027068942E+02 -0.29972454559E+01  0.14037273704E+02  0.18726423062E+02  0.00000000000E+00 0.  1.
         11    1    3    3    0    0  0.10290059710E+02  0.27701569625E+02  0.13032777813E+01  0.29579736675E+02  0.51100000000E-03 0. -1.
        -11    1    3    3    0    0 -0.49781474688E+01 -0.82238114281E+01  0.55691101270E+01  0.11109816132E+02  0.51100000000E-03 0.  1.
        -12    1    3    3    0    0 -0.17338981183E+02 -0.16480512741E+02 -0.20909661612E+02  0.31772024131E+02  0.00000000000E+00 0.  1.
</event>
<event>
 7    1  0.3435518E-013  0.7246154E+02  0.7816164E-02  0.1226708E+00
        -11   -1    0    0    0    0  0.00000000000E+00  0.00000000000E+00  0.45593999997E+02  0.45594000000E+02  0.51100000000E-03 0.  1.
         11   -1    0    0    0    0 -0.00000000000E+00 -0.00000000000E+00 -0.45593999997E+02  0.45594000000E+02  0.51100000000E-03 0. -1.
    9900012    2    1    2    0    0 -0.11775220841E+02 -0.14205414005E+02 -0.31985669621E+01  0.72461536278E+02  0.69999955688E+02 0.  0.
        -12    1    1    2    0    0  0.11775220841E+02  0.14205414005E+02  0.31985669621E+01  0.18726463722E+02  0.00000000000E+00 0.  1.
         11    1    3    3    0    0 -0.81815859640E+01  0.73583286634E+00 -0.13393215297E+01  0.83230752318E+01  0.51100000000E-03 0. -1.
        -11    1    3    3    0    0 -0.58501570100E+01  0.24053916931E+02  0.22773409480E+01  0.24859636739E+02  0.51100000000E-03 0.  1.
         12    1    3    3    0    0  0.22565221328E+01 -0.38995163802E+02 -0.41365863803E+01  0.39278824307E+02  0.00000000000E+00 0. -1.
</event>
<event>
 7    1  0.3435518E-013  0.7246159E+02  0.7816164E-02  0.1226708E+00
        -11   -1    0    0    0    0  0.00000000000E+00  0.00000000000E+00  0.45593999997E+02  0.45594000000E+02  0.51100000000E-03 0.  1.
         11   -1    0    0    0    0 -0.00000000000E+00 -0.00000000000E+00 -0.45593999997E+02  0.45594000000E+02  0.51100000000E-03 0. -1.
    9900012    2    1    2    0    0 -0.12282324855E+02 -0.54829504033E+01 -0.13029197970E+02  0.72461594880E+02  0.70000032028E+02 0.  0.
        -12    1    1    2    0    0  0.12282324855E+02  0.54829504033E+01  0.13029197970E+02  0.18726405120E+02  0.00000000000E+00 0.  1.
         11    1    3    3    0    0 -0.38844555631E+01 -0.63024289397E+00  0.18009104241E+01  0.43277568952E+01  0.51100000000E-03 0. -1.
        -11    1    3    3    0    0 -0.10682697999E+02 -0.33955320325E+02 -0.15755277125E+02  0.38927015972E+02  0.51100000000E-03 0.  1.
         12    1    3    3    0    0  0.22848287071E+01  0.29102612816E+02  0.92516873064E+00  0.29206822013E+02  0.00000000000E+00 0. -1.
</event>
<event>
 7    1  0.3435518E-013  0.7246166E+02  0.7816164E-02  0.1226708E+00
        -11   -1    0    0    0    0  0.00000000000E+00  0.00000000000E+00  0.45593999997E+02  0.45594000000E+02  0.51100000000E-03 0. -1.
         11   -1    0    0    0    0 -0.00000000000E+00 -0.00000000000E+00 -0.45593999997E+02  0.45594000000E+02  0.51100000000E-03 0.  1.
    9900012    2    1    2    0    0 -0.13722981486E+02  0.67171604915E+01  0.10827521249E+02  0.72461663403E+02  0.70000121291E+02 0.  0.
        -12    1    1    2    0    0  0.13722981486E+02 -0.67171604915E+01 -0.10827521249E+02  0.18726336597E+02  0.00000000000E+00 0.  1.
         11    1    3    3    0    0 -0.55546047805E+01 -0.96608559297E+01  0.32104570139E+01  0.11597103348E+02  0.51100000000E-03 0. -1.
        -11    1    3    3    0    0 -0.28831117540E+02 -0.64197448567E+01  0.53021919370E+01  0.30009326920E+02  0.51100000000E-03 0.  1.
         12    1    3    3    0    0  0.20662740834E+02  0.22797761278E+02  0.23148722983E+01  0.30855233135E+02  0.00000000000E+00 0. -1.
</event>
<event>
 7    1  0.3435518E-013  0.7246155E+02  0.7816164E-02  0.1226708E+00
        -11   -1    0    0    0    0  0.00000000000E+00  0.00000000000E+00  0.45593999997E+02  0.45594000000E+02  0.51100000000E-03 0.  1.
         11   -1    0    0    0    0 -0.00000000000E+00 -0.00000000000E+00 -0.45593999997E+02  0.45594000000E+02  0.51100000000E-03 0. -1.
    9900012    2    1    2    0    0  0.13887730242E+02 -0.93467268061E+01  0.83934280865E+01  0.72461548433E+02  0.69999971521E+02 0.  0.
        -12    1    1    2    0    0 -0.13887730242E+02  0.93467268061E+01 -0.83934280865E+01  0.18726451567E+02  0.00000000000E+00 0.  1.
         11    1    3    3    0    0  0.34742001819E+01  0.64637311944E+01 -0.15163606232E+02  0.16845914700E+02  0.51100000000E-03 0. -1.
        -11    1    3    3    0    0  0.14114300620E+02  0.16464442419E+01 -0.10159313827E+02  0.17468140094E+02  0.51100000000E-03 0.  1.
        -12    1    3    3    0    0 -0.37007705602E+01 -0.17456902242E+02  0.33716348146E+02  0.38147493639E+02  0.00000000000E+00 0.  1.
</event>
<event>
 7    1  0.3435518E-013  0.7246151E+02  0.7816164E-02  0.1226708E+00
        -11   -1    0    0    0    0  0.00000000000E+00  0.00000000000E+00  0.45593999997E+02  0.45594000000E+02  0.51100000000E-03 0.  1.
         11   -1    0    0    0    0 -0.00000000000E+00 -0.00000000000E+00 -0.45593999997E+02  0.45594000000E+02  0.51100000000E-03 0. -1.
    9900012    2    1    2    0    0 -0.16962884631E+02  0.22562887772E+01 -0.76059850590E+01  0.72461513337E+02  0.69999925802E+02 0.  0.
        -12    1    1    2    0    0  0.16962884631E+02 -0.22562887772E+01  0.76059850590E+01  0.18726486663E+02  0.00000000000E+00 0.  1.
         11    1    3    3    0    0  0.14875776424E+02  0.11079739100E+02  0.74674638030E+01  0.19995308416E+02  0.51100000000E-03 0. -1.
        -11    1    3    3    0    0 -0.21274050861E+02  0.10250478914E+02  0.34380511645E+01  0.23863733029E+02  0.51100000000E-03 0.  1.
        -12    1    3    3    0    0 -0.10564610194E+02 -0.19073929237E+02 -0.18511500026E+02  0.28602471892E+02  0.00000000000E+00 0.  1.
</event>
<event>
 7    1  0.3435518E-013  0.7246169E+02  0.7816164E-02  0.1226708E+00
        -11   -1    0    0    0    0  0.00000000000E+00  0.00000000000E+00  0.45593999997E+02  0.45594000000E+02  0.51100000000E-03 0.  1.
         11   -1    0    0    0    0 -0.00000000000E+00 -0.00000000000E+00 -0.45593999997E+02  0.45594000000E+02  0.51100000000E-03 0. -1.
    9900012    2    1    2    0    0 -0.57656413337E+01  0.17753290589E+02  0.15008738988E+01  0.72461693125E+02  0.70000160009E+02 0.  0.
        -12    1    1    2    0    0  0.57656413337E+01 -0.17753290589E+02 -0.15008738988E+01  0.18726306875E+02  0.00000000000E+00 0.  1.
         11    1    3    3    0    0 -0.59725769496E+01  0.24310677640E+02 -0.20684346300E+02  0.32473418435E+02  0.51100000000E-03 0. -1.
        -11    1    3    3    0    0 -0.22910014668E+01  0.10356364233E+02 -0.15677119652E+01  0.10721972249E+02  0.51100000000E-03 0.  1.
        -12    1    3    3    0    0  0.24979370827E+01 -0.16913751284E+02  0.23752932164E+02  0.29266302441E+02  0.00000000000E+00 0.  1.
</event>
<event>
 7    1  0.3435518E-013  0.7246153E+02  0.7816164E-02  0.1226708E+00
        -11   -1    0    0    0    0  0.00000000000E+00  0.00000000000E+00  0.45593999997E+02  0.45594000000E+02  0.51100000000E-03 0.  1.
         11   -1    0    0    0    0 -0.00000000000E+00 -0.00000000000E+00 -0.45593999997E+02  0.45594000000E+02  0.51100000000E-03 0. -1.
    9900012    2    1    2    0    0 -0.16438379653E+02 -0.77105001088E+01  0.45835004146E+01  0.72461531737E+02  0.69999949772E+02 0.  0.
        -12    1    1    2    0    0  0.16438379653E+02  0.77105001088E+01 -0.45835004146E+01  0.18726468263E+02  0.00000000000E+00 0.  1.
         11    1    3    3    0    0 -0.24130160400E+02  0.14422057694E+02 -0.34285187618E+01  0.28319871649E+02  0.51100000000E-03 0. -1.
        -11    1    3    3    0    0 -0.51332453211E+01  0.33285939142E+01  0.13760342543E+02  0.15059109274E+02  0.51100000000E-03 0.  1.
        -12    1    3    3    0    0  0.12825026068E+02 -0.25461151717E+02 -0.57483233662E+01  0.29082550815E+02  0.00000000000E+00 0.  1.
</event>
<event>
 7    1  0.3435518E-013  0.7246158E+02  0.7816164E-02  0.1226708E+00
        -11   -1    0    0    0    0  0.00000000000E+00  0.00000000000E+00  0.45593999997E+02  0.45594000000E+02  0.51100000000E-03 0.  1.
         11   -1    0    0    0    0 -0.00000000000E+00 -0.00000000000E+00 -0.45593999997E+02  0.45594000000E+02  0.51100000000E-03 0. -1.
    9900012    2    1    2    0    0 -0.46257419832E+01  0.18069631543E+02 -0.16642154361E+01  0.72461583204E+02  0.70000016817E+02 0.  0.
        -12    1    1    2    0    0  0.46257419832E+01 -0.18069631543E+02  0.16642154361E+01  0.18726416796E+02  0.00000000000E+00 0.  1.
         11    1    3    3    0    0 -0.15240151484E+02  0.17320148839E+02  0.10218508583E+02  0.25232274788E+02  0.51100000000E-03 0.  1.
        -11    1    3    3    0    0 -0.15936334494E+02 -0.69907960715E+01 -0.85000557901E+01  0.19367212900E+02  0.51100000000E-03 0. -1.
         12    1    3    3    0    0  0.26550743995E+02  0.77402787758E+01 -0.33826682295E+01  0.27862095516E+02  0.00000000000E+00 0. -1.
</event>
<event>
 7    1  0.3435518E-013  0.7246158E+02  0.7816164E-02  0.1226708E+00
        -11   -1    0    0    0    0  0.00000000000E+00  0.00000000000E+00  0.45593999997E+02  0.45594000000E+02  0.51100000000E-03 0. -1.
         11   -1    0    0    0    0 -0.00000000000E+00 -0.00000000000E+00 -0.45593999997E+02  0.45594000000E+02  0.51100000000E-03 0.  1.
    9900012    2    1    2    0    0  0.17138793803E+02  0.72911425074E+01  0.19441811594E+01  0.72461578760E+02  0.70000011028E+02 0.  0.
        -12    1    1    2    0    0 -0.17138793803E+02 -0.72911425074E+01 -0.19441811594E+01  0.18726421240E+02  0.00000000000E+00 0.  1.
         11    1    3    3    0    0 -0.13778310431E+02  0.16875020445E+02 -0.60493868229E+01  0.22609803947E+02  0.51100000000E-03 0. -1.
        -11    1    3    3    0    0 -0.49814469380E+01 -0.12098313147E+02  0.49959112581E+00  0.13093264916E+02  0.51100000000E-03 0.  1.
         12    1    3    3    0    0  0.35898551172E+02  0.25144352101E+01  0.74939768565E+01  0.36758509897E+02  0.00000000000E+00 0. -1.
</event>
<event>
 7    1  0.3435518E-013  0.7246157E+02  0.7816164E-02  0.1226708E+00
        -11   -1    0    0    0    0  0.00000000000E+00  0.00000000000E+00  0.45593999997E+02  0.45594000000E+02  0.51100000000E-03 0. -1.
         11   -1    0    0    0    0 -0.00000000000E+00 -0.00000000000E+00 -0.45593999997E+02  0.45594000000E+02  0.51100000000E-03 0.  1.
    9900012    2    1    2    0    0 -0.13061094166E+02 -0.60404864670E+01  0.11983297947E+02  0.72461572491E+02  0.70000002861E+02 0.  0.
        -12    1    1    2    0    0  0.13061094166E+02  0.60404864670E+01 -0.11983297947E+02  0.18726427509E+02  0.00000000000E+00 0.  1.
         11    1    3    3    0    0  0.36581109942E+01 -0.40755949312E+01 -0.13179331652E+02  0.14271896620E+02  0.51100000000E-03 0. -1.
        -11    1    3    3    0    0  0.81945836095E+01  0.78756394118E+01 -0.91981981642E+01  0.14621345574E+02  0.51100000000E-03 0.  1.
         12    1    3    3    0    0 -0.24913788770E+02 -0.98405309477E+01  0.34360827763E+02  0.43568330296E+02  0.00000000000E+00 0. -1.
</event>
<event>
 7    1  0.3435518E-013  0.7246146E+02  0.7816164E-02  0.1226708E+00
        -11   -1    0    0    0    0  0.00000000000E+00  0.00000000000E+00  0.45593999997E+02  0.45594000000E+02  0.51100000000E-03 0. -1.
         11   -1    0    0    0    0 -0.00000000000E+00 -0.00000000000E+00 -0.45593999997E+02  0.45594000000E+02  0.51100000000E-03 0.  1.
    9900012    2    1    2    0    0  0.44178022079E+01 -0.14384265481E+02  0.11147170788E+02  0.72461455035E+02  0.69999849853E+02 0.  0.
        -12    1    1    2    0    0 -0.44178022079E+01  0.14384265481E+02 -0.11147170788E+02  0.18726544965E+02  0.00000000000E+00 0.  1.
         11    1    3    3    0    0  0.30579717890E+01 -0.18010223386E+01 -0.89171922697E+00  0.36592398620E+01  0.51100000000E-03 0. -1.
        -11    1    3    3    0    0 -0.87930655744E+01 -0.30581162912E+01 -0.26361013327E+02  0.27956628933E+02  0.51100000000E-03 0.  1.
         12    1    3    3    0    0  0.10152895993E+02 -0.95251268509E+01  0.38399903342E+02  0.40845586239E+02  0.00000000000E+00 0. -1.
</event>
<event>
 7    1  0.3435518E-013  0.7246162E+02  0.7816164E-02  0.1226708E+00
        -11   -1    0    0    0    0  0.00000000000E+00  0.00000000000E+00  0.45593999997E+02  0.45594000000E+02  0.51100000000E-03 0. -1.
         11   -1    0    0    0    0 -0.00000000000E+00 -0.00000000000E+00 -0.45593999997E+02  0.45594000000E+02  0.51100000000E-03 0.  1.
    9900012    2    1    2    0    0  0.99750218275E+01  0.10772875537E+02  0.11624180989E+02  0.72461615099E+02  0.70000058367E+02 0.  0.
        -12    1    1    2    0    0 -0.99750218275E+01 -0.10772875537E+02 -0.11624180989E+02  0.18726384901E+02  0.00000000000E+00 0.  1.
         11    1    3    3    0    0  0.23859384675E+02  0.90958194374E+01  0.28049218935E+02  0.37931027556E+02  0.51100000000E-03 0. -1.
        -11    1    3    3    0    0  0.47029373070E+01  0.23917995252E+01  0.42094465191E+01  0.67496492161E+01  0.51100000000E-03 0.  1.
        -12    1    3    3    0    0 -0.18587300154E+02 -0.71474342600E+00 -0.20634484466E+02  0.27780938327E+02  0.00000000000E+00 0.  1.
</event>
<event>
 7    1  0.3435518E-013  0.7246157E+02  0.7816164E-02  0.1226708E+00
        -11   -1    0    0    0    0  0.00000000000E+00  0.00000000000E+00  0.45593999997E+02  0.45594000000E+02  0.51100000000E-03 0. -1.
         11   -1    0    0    0    0 -0.00000000000E+00 -0.00000000000E+00 -0.45593999997E+02  0.45594000000E+02  0.51100000000E-03 0.  1.
    9900012    2    1    2    0    0  0.69332735279E+01 -0.37306237851E+01  0.16990920521E+02  0.72461569059E+02  0.69999998390E+02 0.  0.
        -12    1    1    2    0    0 -0.69332735279E+01  0.37306237851E+01 -0.16990920521E+02  0.18726430941E+02  0.00000000000E+00 0.  1.
         11    1    3    3    0    0  0.16888425541E+02  0.10476294153E+02  0.21829842834E+02  0.29521410787E+02  0.51100000000E-03 0. -1.
        -11    1    3    3    0    0 -0.20470743250E+01 -0.20788278117E+02  0.11338921150E+02  0.23767922784E+02  0.51100000000E-03 0.  1.
         12    1    3    3    0    0 -0.79080776876E+01  0.65813601780E+01 -0.16177843463E+02  0.19172235488E+02  0.00000000000E+00 0. -1.
</event>
<event>
 7    1  0.3435518E-013  0.7246158E+02  0.7816164E-02  0.1226708E+00
        -11   -1    0    0    0    0  0.00000000000E+00  0.00000000000E+00  0.45593999997E+02  0.45594000000E+02  0.51100000000E-03 0. -1.
         11   -1    0    0    0    0 -0.00000000000E+00 -0.00000000000E+00 -0.45593999997E+02  0.45594000000E+02  0.51100000000E-03 0.  1.
    9900012    2    1    2    0    0 -0.11825960355E+02 -0.21405047259E+01  0.14361192856E+02  0.72461575914E+02  0.70000007320E+02 0.  0.
        -12    1    1    2    0    0  0.11825960355E+02  0.21405047259E+01 -0.14361192856E+02  0.18726424086E+02  0.00000000000E+00 0.  1.
         11    1    3    3    0    0  0.87038987379E+01  0.10925494581E+02  0.37733466984E+01  0.14469361792E+02  0.51100000000E-03 0. -1.
        -11    1    3    3    0    0  0.10592654052E+02  0.23568423571E+01 -0.12294064667E+02  0.16398263691E+02  0.51100000000E-03 0.  1.
         12    1    3    3    0    0 -0.31122513146E+02 -0.15422841664E+02  0.22881910825E+02  0.41593950431E+02  0.00000000000E+00 0. -1.
</event>
<event>
 7    1  0.3435518E-013  0.7246153E+02  0.7816164E-02  0.1226708E+00
        -11   -1    0    0    0    0  0.00000000000E+00  0.00000000000E+00  0.45593999997E+02  0.45594000000E+02  0.51100000000E-03 0.  1.
         11   -1    0    0    0    0 -0.00000000000E+00 -0.00000000000E+00 -0.45593999997E+02  0.45594000000E+02  0.51100000000E-03 0. -1.
    9900012    2    1    2    0    0 -0.72306747499E+01  0.10803262109E+02 -0.13479147071E+02  0.72461533828E+02  0.69999952495E+02 0.  0.
        -12    1    1    2    0    0  0.72306747499E+01 -0.10803262109E+02  0.13479147071E+02  0.18726466172E+02  0.00000000000E+00 0.  1.
         11    1    3    3    0    0 -0.63466128748E+01  0.21505729386E+01 -0.15205488228E+02  0.16616598071E+02  0.51100000000E-03 0. -1.
        -11    1    3    3    0    0 -0.10002446121E+02 -0.21635882013E+02  0.38382183900E+01  0.24143161341E+02  0.51100000000E-03 0.  1.
         12    1    3    3    0    0  0.91183842455E+01  0.30288571184E+02 -0.21118772328E+01  0.31701774415E+02  0.00000000000E+00 0. -1.
</event>
<event>
 7    1  0.3435518E-013  0.7246146E+02  0.7816164E-02  0.1226708E+00
        -11   -1    0    0    0    0  0.00000000000E+00  0.00000000000E+00  0.45593999997E+02  0.45594000000E+02  0.51100000000E-03 0.  1.
         11   -1    0    0    0    0 -0.00000000000E+00 -0.00000000000E+00 -0.45593999997E+02  0.45594000000E+02  0.51100000000E-03 0. -1.
    9900012    2    1    2    0    0 -0.75623920588E+01  0.14541351794E+02  0.90577436455E+01  0.72461457190E+02  0.69999852661E+02 0.  0.
        -12    1    1    2    0    0  0.75623920588E+01 -0.14541351794E+02 -0.90577436455E+01  0.18726542810E+02  0.00000000000E+00 0.  1.
         11    1    3    3    0    0 -0.26126468874E+02 -0.34032308155E+01  0.37650447994E+01  0.26614843948E+02  0.51100000000E-03 0. -1.
        -11    1    3    3    0    0  0.47099528058E+01 -0.43553016106E+01  0.16195443597E+02  0.17419664208E+02  0.51100000000E-03 0.  1.
         12    1    3    3    0    0  0.13854124009E+02  0.22299884220E+02 -0.10902744751E+02  0.28426949034E+02  0.00000000000E+00 0. -1.
</event>
<event>
 7    1  0.3435518E-013  0.7246159E+02  0.7816164E-02  0.1226708E+00
        -11   -1    0    0    0    0  0.00000000000E+00  0.00000000000E+00  0.45593999997E+02  0.45594000000E+02  0.51100000000E-03 0. -1.
         11   -1    0    0    0    0 -0.00000000000E+00 -0.00000000000E+00 -0.45593999997E+02  0.45594000000E+02  0.51100000000E-03 0.  1.
    9900012    2    1    2    0    0 -0.34422566497E+00  0.17150909305E+02  0.75104122942E+01  0.72461588861E+02  0.70000024187E+02 0.  0.
        -12    1    1    2    0    0  0.34422566497E+00 -0.17150909305E+02 -0.75104122942E+01  0.18726411139E+02  0.00000000000E+00 0.  1.
         11    1    3    3    0    0 -0.13892833736E+02  0.70282759225E+01 -0.21912806334E+02  0.26880821664E+02  0.51100000000E-03 0. -1.
        -11    1    3    3    0    0  0.23899379868E+01 -0.78763449973E+01 -0.12312537244E+01  0.83225356768E+01  0.51100000000E-03 0.  1.
         12    1    3    3    0    0  0.11158670084E+02  0.17998978380E+02  0.30654472353E+02  0.37258231520E+02  0.00000000000E+00 0. -1.
</event>
<event>
 7    1  0.3435518E-013  0.7246158E+02  0.7816164E-02  0.1226708E+00
        -11   -1    0    0    0    0  0.00000000000E+00  0.00000000000E+00  0.45593999997E+02  0.45594000000E+02  0.51100000000E-03 0.  1.
         11   -1    0    0    0    0 -0.00000000000E+00 -0.00000000000E+00 -0.45593999997E+02  0.45594000000E+02  0.51100000000E-03 0. -1.
    9900012    2    1    2    0    0 -0.13326604650E+02 -0.11603249038E+02 -0.62004066652E+01  0.72461579559E+02  0.70000012069E+02 0.  0.
        -12    1    1    2    0    0  0.13326604650E+02  0.11603249038E+02  0.62004066652E+01  0.18726420441E+02  0.00000000000E+00 0.  1.
         11    1    3    3    0    0 -0.16832540431E+02 -0.61922121255E+01 -0.21348132016E+02  0.27882264062E+02  0.51100000000E-03 0. -1.
        -11    1    3    3    0    0 -0.13595539600E+02 -0.16567097445E+02  0.91048802134E+01  0.23285322818E+02  0.51100000000E-03 0.  1.
        -12    1    3    3    0    0  0.17101475382E+02  0.11156060533E+02  0.60428451373E+01  0.21293992679E+02  0.00000000000E+00 0.  1.
</event>
<event>
 7    1  0.3435518E-013  0.7246156E+02  0.7816164E-02  0.1226708E+00
        -11   -1    0    0    0    0  0.00000000000E+00  0.00000000000E+00  0.45593999997E+02  0.45594000000E+02  0.51100000000E-03 0. -1.
         11   -1    0    0    0    0 -0.00000000000E+00 -0.00000000000E+00 -0.45593999997E+02  0.45594000000E+02  0.51100000000E-03 0.  1.
    9900012    2    1    2    0    0  0.10466969351E+02 -0.13239485986E+02  0.81140756356E+01  0.72461557199E+02  0.69999982940E+02 0.  0.
        -12    1    1    2    0    0 -0.10466969351E+02  0.13239485986E+02 -0.81140756356E+01  0.18726442801E+02  0.00000000000E+00 0.  1.
         11    1    3    3    0    0  0.95416017258E+01  0.20603685616E+02  0.20626274607E+02  0.30675678132E+02  0.51100000000E-03 0. -1.
        -11    1    3    3    0    0 -0.51368347363E+01 -0.12696120515E+02  0.40129440211E+01  0.14271729650E+02  0.51100000000E-03 0.  1.
        -12    1    3    3    0    0  0.60622023616E+01 -0.21147051087E+02 -0.16525142993E+02  0.27514149416E+02  0.00000000000E+00 0.  1.
</event>
<event>
 7    1  0.3435518E-013  0.7246149E+02  0.7816164E-02  0.1226708E+00
        -11   -1    0    0    0    0  0.00000000000E+00  0.00000000000E+00  0.45593999997E+02  0.45594000000E+02  0.51100000000E-03 0. -1.
         11   -1    0    0    0    0 -0.00000000000E+00 -0.00000000000E+00 -0.45593999997E+02  0.45594000000E+02  0.51100000000E-03 0.  1.
    9900012    2    1    2    0    0  0.99490734638E+01  0.15161244093E+02  0.46727674431E+01  0.72461490960E+02  0.69999896652E+02 0.  0.
        -12    1    1    2    0    0 -0.99490734638E+01 -0.15161244093E+02 -0.46727674431E+01  0.18726509040E+02  0.00000000000E+00 0.  1.
         11    1    3    3    0    0  0.38925049832E+01  0.86968918812E+01  0.68658554301E+01  0.11744253679E+02  0.51100000000E-03 0. -1.
        -11    1    3    3    0    0  0.24987140919E+02 -0.11789120742E+02  0.12796011061E+02  0.30447963454E+02  0.51100000000E-03 0.  1.
         12    1    3    3    0    0 -0.18930572438E+02  0.18253472954E+02 -0.14989099048E+02  0.30269273827E+02  0.00000000000E+00 0. -1.
</event>
<event>
 7    1  0.3435518E-013  0.7246127E+02  0.7816164E-02  0.1226709E+00
        -11   -1    0    0    0    0  0.00000000000E+00  0.00000000000E+00  0.45593999997E+02  0.45594000000E+02  0.51100000000E-03 0.  1.
         11   -1    0    0    0    0 -0.00000000000E+00 -0.00000000000E+00 -0.45593999997E+02  0.45594000000E+02  0.51100000000E-03 0. -1.
    9900012    2    1    2    0    0  0.13827704633E+02  0.10053037385E+02  0.76433847135E+01  0.72461272951E+02  0.69999612654E+02 0.  0.
        -12    1    1    2    0    0 -0.13827704633E+02 -0.10053037385E+02 -0.76433847135E+01  0.18726727049E+02  0.00000000000E+00 0.  1.
         11    1    3    3    0    0  0.29779907855E+01 -0.41588168599E+01  0.20110227350E+01  0.54962168348E+01  0.51100000000E-03 0. -1.
        -11    1    3    3    0    0  0.35449732108E+01  0.52457579021E+01  0.34913417136E+02  0.35482833982E+02  0.51100000000E-03 0.  1.
         12    1    3    3    0    0  0.73047406368E+01  0.89660963425E+01 -0.29281055157E+02  0.31482222135E+02  0.00000000000E+00 0. -1.
</event>
<event>
 7    1  0.3435518E-013  0.7246125E+02  0.7816164E-02  0.1226709E+00
        -11   -1    0    0    0    0  0.00000000000E+00  0.00000000000E+00  0.45593999997E+02  0.45594000000E+02  0.51100000000E-03 0.  1.
         11   -1    0    0    0    0 -0.00000000000E+00 -0.00000000000E+00 -0.45593999997E+02  0.45594000000E+02  0.51100000000E-03 0. -1.
    9900012    2    1    2    0    0  0.55017607508E+01 -0.63229621883E+01 -0.16746395499E+02  0.72461254837E+02  0.69999589057E+02 0.  0.
        -12    1    1    2    0    0 -0.55017607508E+01  0.63229621883E+01  0.16746395499E+02  0.18726745163E+02  0.00000000000E+00 0.  1.
         11    1    3    3    0    0  0.21497966044E+02  0.24607895364E+00 -0.20916528454E+02  0.29995404010E+02  0.51100000000E-03 0. -1.
        -11    1    3    3    0    0  0.65070788525E+01  0.99192861423E+01 -0.53160030005E+01  0.12999776957E+02  0.51100000000E-03 0.  1.
        -12    1    3    3    0    0 -0.22503284145E+02 -0.16488327284E+02  0.94861359561E+01  0.29466073870E+02  0.00000000000E+00 0.  1.
</event>
<event>
 7    1  0.3435518E-013  0.7246154E+02  0.7816164E-02  0.1226708E+00
        -11   -1    0    0    0    0  0.00000000000E+00  0.00000000000E+00  0.45593999997E+02  0.45594000000E+02  0.51100000000E-03 0.  1.
         11   -1    0    0    0    0 -0.00000000000E+00 -0.00000000000E+00 -0.45593999997E+02  0.45594000000E+02  0.51100000000E-03 0. -1.
    9900012    2    1    2    0    0 -0.58485109687E+01  0.21646789177E+01 -0.17657553801E+02  0.72461544873E+02  0.69999966884E+02 0.  0.
        -12    1    1    2    0    0  0.58485109687E+01 -0.21646789177E+01  0.17657553801E+02  0.18726455127E+02  0.00000000000E+00 0.  1.
         11    1    3    3    0    0 -0.10536854993E+02  0.50617095486E+01 -0.39980321311E+01  0.12354370801E+02  0.51100000000E-03 0.  1.
        -11    1    3    3    0    0  0.30182423322E+01  0.26780476311E+02 -0.14023900151E+02  0.30380478501E+02  0.51100000000E-03 0. -1.
        -12    1    3    3    0    0  0.16701016922E+01 -0.29677506942E+02  0.36437848050E+00  0.29726695572E+02  0.00000000000E+00 0.  1.
</event>
<event>
 7    1  0.3435518E-013  0.7246151E+02  0.7816164E-02  0.1226708E+00
        -11   -1    0    0    0    0  0.00000000000E+00  0.00000000000E+00  0.45593999997E+02  0.45594000000E+02  0.51100000000E-03 0. -1.
         11   -1    0    0    0    0 -0.00000000000E+00 -0.00000000000E+00 -0.45593999997E+02  0.45594000000E+02  0.51100000000E-03 0.  1.
    9900012    2    1    2    0    0  0.16397516124E+02 -0.55801921556E+01  0.71178888869E+01  0.72461510160E+02  0.69999921664E+02 0.  0.
        -12    1    1    2    0    0 -0.16397516124E+02  0.55801921556E+01 -0.71178888869E+01  0.18726489840E+02  0.00000000000E+00 0.  1.
         11    1    3    3    0    0  0.26586962898E+02  0.12546339330E+02  0.19241652794E+02  0.35135714440E+02  0.51100000000E-03 0. -1.
        -11    1    3    3    0    0  0.55543274062E+01  0.21701146158E+01  0.38304321557E+01  0.70874650716E+01  0.51100000000E-03 0.  1.
        -12    1    3    3    0    0 -0.15743774181E+02 -0.20296646101E+02 -0.15954196063E+02  0.30238330648E+02  0.00000000000E+00 0.  1.
</event>
<event>
 7    1  0.3435518E-013  0.7246159E+02  0.7816164E-02  0.1226708E+00
        -11   -1    0    0    0    0  0.00000000000E+00  0.00000000000E+00  0.45593999997E+02  0.45594000000E+02  0.51100000000E-03 0.  1.
         11   -1    0    0    0    0 -0.00000000000E+00 -0.00000000000E+00 -0.45593999997E+02  0.45594000000E+02  0.51100000000E-03 0. -1.
    9900012    2    1    2    0    0  0.99365070602E+00 -0.12258391095E+02 -0.14121724658E+02  0.72461585466E+02  0.70000019764E+02 0.  0.
        -12    1    1    2    0    0 -0.99365070602E+00  0.12258391095E+02  0.14121724658E+02  0.18726414534E+02  0.00000000000E+00 0.  1.
         11    1    3    3    0    0  0.13199507361E+00  0.42128874736E+01 -0.14224217126E+01  0.44484972018E+01  0.51100000000E-03 0. -1.
        -11    1    3    3    0    0 -0.24012228378E+02  0.22899198781E+01  0.13201187555E+02  0.27497312557E+02  0.51100000000E-03 0.  1.
         12    1    3    3    0    0  0.24873884011E+02 -0.18761198447E+02 -0.25900490501E+02  0.40515775707E+02  0.00000000000E+00 0. -1.
</event>
<event>
 7    1  0.3435518E-013  0.7246184E+02  0.7816164E-02  0.1226707E+00
        -11   -1    0    0    0    0  0.00000000000E+00  0.00000000000E+00  0.45593999997E+02  0.45594000000E+02  0.51100000000E-03 0.  1.
         11   -1    0    0    0    0 -0.00000000000E+00 -0.00000000000E+00 -0.45593999997E+02  0.45594000000E+02  0.51100000000E-03 0. -1.
    9900012    2    1    2    0    0  0.66033528776E+01 -0.24909642232E+01  0.17345311933E+02  0.72461841343E+02  0.70000353090E+02 0.  0.
        -12    1    1    2    0    0 -0.66033528776E+01  0.24909642232E+01 -0.17345311933E+02  0.18726158657E+02  0.00000000000E+00 0.  1.
         11    1    3    3    0    0  0.20714366984E+01  0.14979654448E+02  0.17545278053E+02  0.23162851284E+02  0.51100000000E-03 0. -1.
        -11    1    3    3    0    0  0.36456121197E+01  0.10955032517E+02 -0.13617492214E+02  0.17853271959E+02  0.51100000000E-03 0.  1.
         12    1    3    3    0    0  0.88630405946E+00 -0.28425651188E+02  0.13417526093E+02  0.31445718100E+02  0.00000000000E+00 0. -1.
</event>
<event>
 7    1  0.3435518E-013  0.7246149E+02  0.7816164E-02  0.1226708E+00
        -11   -1    0    0    0    0  0.00000000000E+00  0.00000000000E+00  0.45593999997E+02  0.45594000000E+02  0.51100000000E-03 0.  1.
         11   -1    0    0    0    0 -0.00000000000E+00 -0.00000000000E+00 -0.45593999997E+02  0.45594000000E+02  0.51100000000E-03 0. -1.
    9900012    2    1    2    0    0  0.10230862307E+02 -0.41135457917E+01  0.15135733679E+02  0.72461488404E+02  0.69999893323E+02 0.  0.
        -12    1    1    2    0    0 -0.10230862307E+02  0.41135457917E+01 -0.15135733679E+02  0.18726511596E+02  0.00000000000E+00 0.  1.
         11    1    3    3    0    0  0.22286808115E+02  0.18335462184E+01  0.15885665440E+02  0.27430240145E+02  0.51100000000E-03 0. -1.
        -11    1    3    3    0    0 -0.21421821477E+02  0.11969835897E+02  0.20336383744E+01  0.24623303842E+02  0.51100000000E-03 0.  1.
         12    1    3    3    0    0  0.93658756692E+01 -0.17916927907E+02 -0.27835701347E+01  0.20407944418E+02  0.00000000000E+00 0. -1.
</event>
<event>
 7    1  0.3435518E-013  0.7246153E+02  0.7816164E-02  0.1226708E+00
        -11   -1    0    0    0    0  0.00000000000E+00  0.00000000000E+00  0.45593999997E+02  0.45594000000E+02  0.51100000000E-03 0.  1.
         11   -1    0    0    0    0 -0.00000000000E+00 -0.00000000000E+00 -0.45593999997E+02  0.45594000000E+02  0.51100000000E-03 0. -1.
    9900012    2    1    2    0    0 -0.50553343457E+01 -0.53791180225E+01 -0.17210154964E+02  0.72461528097E+02  0.69999945030E+02 0.  0.
        -12    1    1    2    0    0  0.50553343457E+01  0.53791180225E+01  0.17210154964E+02  0.18726471903E+02  0.00000000000E+00 0.  1.
         11    1    3    3    0    0  0.76448839102E+01 -0.19624933991E+01 -0.20717793118E+00  0.78954767620E+01  0.51100000000E-03 0. -1.
        -11    1    3    3    0    0 -0.23523948964E+02 -0.25478719790E+02  0.95361539934E-02  0.34677679106E+02  0.51100000000E-03 0.  1.
         12    1    3    3    0    0  0.10823730708E+02  0.22062095166E+02 -0.17012513187E+02  0.29888372229E+02  0.00000000000E+00 0. -1.
</event>
<event>
 7    1  0.3435518E-013  0.7246159E+02  0.7816164E-02  0.1226708E+00
        -11   -1    0    0    0    0  0.00000000000E+00  0.00000000000E+00  0.45593999997E+02  0.45594000000E+02  0.51100000000E-03 0. -1.
         11   -1    0    0    0    0 -0.00000000000E+00 -0.00000000000E+00 -0.45593999997E+02  0.45594000000E+02  0.51100000000E-03 0.  1.
    9900012    2    1    2    0    0 -0.14985218858E+02  0.82112319550E+01  0.76614169750E+01  0.72461590186E+02  0.70000025913E+02 0.  0.
        -12    1    1    2    0    0  0.14985218858E+02 -0.82112319550E+01 -0.76614169750E+01  0.18726409814E+02  0.00000000000E+00 0.  1.
         11    1    3    3    0    0  0.41081689190E+01  0.42826233812E+01  0.75533376596E+01  0.96057703987E+01  0.51100000000E-03 0. -1.
        -11    1    3    3    0    0  0.67740354257E+01  0.18347507576E+02 -0.19276600531E+02  0.27460989030E+02  0.51100000000E-03 0.  1.
         12    1    3    3    0    0 -0.25867423203E+02 -0.14418899002E+02  0.19384679847E+02  0.35394830758E+02  0.00000000000E+00 0. -1.
</event>
<event>
 7    1  0.3435518E-013  0.7246157E+02  0.7816164E-02  0.1226708E+00
        -11   -1    0    0    0    0  0.00000000000E+00  0.00000000000E+00  0.45593999997E+02  0.45594000000E+02  0.51100000000E-03 0.  1.
         11   -1    0    0    0    0 -0.00000000000E+00 -0.00000000000E+00 -0.45593999997E+02  0.45594000000E+02  0.51100000000E-03 0. -1.
    9900012    2    1    2    0    0  0.14396661292E+01 -0.23188438075E+00 -0.18669568014E+02  0.72461570048E+02  0.69999999679E+02 0.  0.
        -12    1    1    2    0    0 -0.14396661292E+01  0.23188438075E+00  0.18669568014E+02  0.18726429952E+02  0.00000000000E+00 0.  1.
         11    1    3    3    0    0  0.10452707872E+02  0.16718465004E+02  0.78130913922E+01  0.21208738089E+02  0.51100000000E-03 0. -1.
        -11    1    3    3    0    0 -0.14096418588E+02 -0.21039112469E+02 -0.14306327650E+01  0.25365330293E+02  0.51100000000E-03 0.  1.
         12    1    3    3    0    0  0.50833768455E+01  0.40887630845E+01 -0.25052026641E+02  0.25887501666E+02  0.00000000000E+00 0. -1.
</event>
<event>
 7    1  0.3435518E-013  0.7246159E+02  0.7816164E-02  0.1226708E+00
        -11   -1    0    0    0    0  0.00000000000E+00  0.00000000000E+00  0.45593999997E+02  0.45594000000E+02  0.51100000000E-03 0. -1.
         11   -1    0    0    0    0 -0.00000000000E+00 -0.00000000000E+00 -0.45593999997E+02  0.45594000000E+02  0.51100000000E-03 0.  1.
    9900012    2    1    2    0    0 -0.18505909411E+02  0.11178268110E+01 -0.26382360236E+01  0.72461587924E+02  0.70000022966E+02 0.  0.
        -12    1    1    2    0    0  0.18505909411E+02 -0.11178268110E+01  0.26382360236E+01  0.18726412076E+02  0.00000000000E+00 0.  1.
         11    1    3    3    0    0 -0.10108982811E+02  0.50485403741E+01  0.23404796762E+02  0.25989686514E+02  0.51100000000E-03 0. -1.
        -11    1    3    3    0    0 -0.18660944219E+02  0.10010799188E+02 -0.14371510205E+02  0.25592718600E+02  0.51100000000E-03 0.  1.
        -12    1    3    3    0    0  0.10264017619E+02 -0.13941512751E+02 -0.11671522580E+02  0.20879182810E+02  0.00000000000E+00 0.  1.
</event>
<event>
 7    1  0.3435518E-013  0.7246163E+02  0.7816164E-02  0.1226708E+00
        -11   -1    0    0    0    0  0.00000000000E+00  0.00000000000E+00  0.45593999997E+02  0.45594000000E+02  0.51100000000E-03 0.  1.
         11   -1    0    0    0    0 -0.00000000000E+00 -0.00000000000E+00 -0.45593999997E+02  0.45594000000E+02  0.51100000000E-03 0. -1.
    9900012    2    1    2    0    0  0.49808984251E+01 -0.14550205905E+02 -0.10684531354E+02  0.72461626853E+02  0.70000073677E+02 0.  0.
        -12    1    1    2    0    0 -0.49808984251E+01  0.14550205905E+02  0.10684531354E+02  0.18726373147E+02  0.00000000000E+00 0.  1.
         11    1    3    3    0    0  0.21443754464E+01  0.18488736827E+01  0.61030644175E+01  0.67278581655E+01  0.51100000000E-03 0. -1.
        -11    1    3    3    0    0  0.24407626700E+02 -0.46241984947E+01  0.12245410660E+02  0.27695947995E+02  0.51100000000E-03 0.  1.
         12    1    3    3    0    0 -0.21571103722E+02 -0.11774881093E+02 -0.29033006431E+02  0.38037820692E+02  0.00000000000E+00 0. -1.
</event>
<event>
 7    1  0.3435518E-013  0.7246159E+02  0.7816164E-02  0.1226708E+00
        -11   -1    0    0    0    0  0.00000000000E+00  0.00000000000E+00  0.45593999997E+02  0.45594000000E+02  0.51100000000E-03 0.  1.
         11   -1    0    0    0    0 -0.00000000000E+00 -0.00000000000E+00 -0.45593999997E+02  0.45594000000E+02  0.51100000000E-03 0. -1.
    9900012    2    1    2    0    0  0.27198554789E+01 -0.18381953376E+02 -0.23204649792E+01  0.72461591336E+02  0.70000027410E+02 0.  0.
        -12    1    1    2    0    0 -0.27198554789E+01  0.18381953376E+02  0.23204649792E+01  0.18726408664E+02  0.00000000000E+00 0.  1.
         11    1    3    3    0    0  0.18570282443E+02 -0.68314890001E+01 -0.15935257392E+02  0.25405846972E+02  0.51100000000E-03 0. -1.
        -11    1    3    3    0    0 -0.75195694201E+00  0.14355911722E+02  0.65685476482E+00  0.14390590643E+02  0.51100000000E-03 0.  1.
         12    1    3    3    0    0 -0.15098470022E+02 -0.25906376097E+02  0.12957937648E+02  0.32665153721E+02  0.00000000000E+00 0. -1.
</event>
<event>
 7    1  0.3435518E-013  0.7246155E+02  0.7816164E-02  0.1226708E+00
        -11   -1    0    0    0    0  0.00000000000E+00  0.00000000000E+00  0.45593999997E+02  0.45594000000E+02  0.51100000000E-03 0.  1.
         11   -1    0    0    0    0 -0.00000000000E+00 -0.00000000000E+00 -0.45593999997E+02  0.45594000000E+02  0.51100000000E-03 0. -1.
    9900012    2    1    2    0    0  0.24297789556E+01  0.16348690966E+02 -0.88032113734E+01  0.72461546717E+02  0.69999969286E+02 0.  0.
        -12    1    1    2    0    0 -0.24297789556E+01 -0.16348690966E+02  0.88032113734E+01  0.18726453283E+02  0.00000000000E+00 0.  1.
         11    1    3    3    0    0  0.10502634896E+02  0.39214775777E+02 -0.15184153648E+02  0.43343540479E+02  0.51100000000E-03 0. -1.
        -11    1    3    3    0    0 -0.32456888007E+01 -0.39689864219E+01  0.80486294632E+01  0.95429442787E+01  0.51100000000E-03 0.  1.
        -12    1    3    3    0    0 -0.48271671400E+01 -0.18897098390E+02 -0.16676871887E+01  0.19575061959E+02  0.00000000000E+00 0.  1.
</event>
<event>
 7    1  0.3435518E-013  0.7246158E+02  0.7816164E-02  0.1226708E+00
        -11   -1    0    0    0    0  0.00000000000E+00  0.00000000000E+00  0.45593999997E+02  0.45594000000E+02  0.51100000000E-03 0. -1.
         11   -1    0    0    0    0 -0.00000000000E+00 -0.00000000000E+00 -0.45593999997E+02  0.45594000000E+02  0.51100000000E-03 0.  1.
    9900012    2    1    2    0    0 -0.15983334215E+02  0.84899483640E+01 -0.48096261623E+01  0.72461582840E+02  0.70000016343E+02 0.  0.
        -12    1    1    2    0    0  0.15983334215E+02 -0.84899483640E+01  0.48096261623E+01  0.18726417160E+02  0.00000000000E+00 0.  1.
         11    1    3    3    0    0 -0.93366529918E+01  0.39170462042E+01 -0.53430590793E+01  0.11448345760E+02  0.51100000000E-03 0. -1.
        -11    1    3    3    0    0 -0.66083424646E+01  0.32061554122E+02  0.51545353995E+01  0.33138839423E+02  0.51100000000E-03 0.  1.
         12    1    3    3    0    0 -0.38338758415E-01 -0.27488651962E+02 -0.46211024825E+01  0.27874397657E+02  0.00000000000E+00 0. -1.
</event>
<event>
 7    1  0.3435518E-013  0.7246152E+02  0.7816164E-02  0.1226708E+00
        -11   -1    0    0    0    0  0.00000000000E+00  0.00000000000E+00  0.45593999997E+02  0.45594000000E+02  0.51100000000E-03 0. -1.
         11   -1    0    0    0    0 -0.00000000000E+00 -0.00000000000E+00 -0.45593999997E+02  0.45594000000E+02  0.51100000000E-03 0.  1.
    9900012    2    1    2    0    0  0.32320317344E+01 -0.49418488727E+01  0.17771132107E+02  0.72461520465E+02  0.69999935088E+02 0.  0.
        -12    1    1    2    0    0 -0.32320317344E+01  0.49418488727E+01 -0.17771132107E+02  0.18726479535E+02  0.00000000000E+00 0.  1.
         11    1    3    3    0    0 -0.96670159927E+01  0.10403129619E+02  0.19030890811E+02  0.23745549254E+02  0.51100000000E-03 0. -1.
        -11    1    3    3    0    0  0.22096495983E+02 -0.18248713279E+02  0.13025874981E+02  0.31479264451E+02  0.51100000000E-03 0.  1.
        -12    1    3    3    0    0 -0.91974482560E+01  0.29037347871E+01 -0.14285633685E+02  0.17236706759E+02  0.00000000000E+00 0.  1.
</event>
<event>
 7    1  0.3435518E-013  0.7246139E+02  0.7816164E-02  0.1226708E+00
        -11   -1    0    0    0    0  0.00000000000E+00  0.00000000000E+00  0.45593999997E+02  0.45594000000E+02  0.51100000000E-03 0. -1.
         11   -1    0    0    0    0 -0.00000000000E+00 -0.00000000000E+00 -0.45593999997E+02  0.45594000000E+02  0.51100000000E-03 0.  1.
    9900012    2    1    2    0    0  0.14021783659E+02 -0.55361694616E+00  0.12400359450E+02  0.72461392641E+02  0.69999768573E+02 0.  0.
        -12    1    1    2    0    0 -0.14021783659E+02  0.55361694616E+00 -0.12400359450E+02  0.18726607359E+02  0.00000000000E+00 0.  1.
         11    1    3    3    0    0 -0.46527617953E+01 -0.13912309542E+02  0.22201828131E+01  0.14836770575E+02  0.51100000000E-03 0. -1.
        -11    1    3    3    0    0 -0.64283693746E+01 -0.12109586994E+02 -0.96202912366E+01  0.16748612889E+02  0.51100000000E-03 0.  1.
         12    1    3    3    0    0  0.25102914828E+02  0.25468279590E+02  0.19800467873E+02  0.40876009176E+02  0.00000000000E+00 0. -1.
</event>
<event>
 7    1  0.3435518E-013  0.7246153E+02  0.7816164E-02  0.1226708E+00
        -11   -1    0    0    0    0  0.00000000000E+00  0.00000000000E+00  0.45593999997E+02  0.45594000000E+02  0.51100000000E-03 0.  1.
         11   -1    0    0    0    0 -0.00000000000E+00 -0.00000000000E+00 -0.45593999997E+02  0.45594000000E+02  0.51100000000E-03 0. -1.
    9900012    2    1    2    0    0 -0.48160990708E+01  0.64825059530E+01 -0.16895649392E+02  0.72461530443E+02  0.69999948086E+02 0.  0.
        -12    1    1    2    0    0  0.48160990708E+01 -0.64825059530E+01  0.16895649392E+02  0.18726469557E+02  0.00000000000E+00 0.  1.
         11    1    3    3    0    0 -0.15578067056E+02  0.95211105944E+01 -0.34197556954E+02  0.38765972476E+02  0.51100000000E-03 0. -1.
        -11    1    3    3    0    0 -0.45134635237E+01  0.49843773501E+01 -0.27299599455E+01  0.72572758052E+01  0.51100000000E-03 0.  1.
        -12    1    3    3    0    0  0.15275431509E+02 -0.80229819915E+01  0.20031867507E+02  0.26438282161E+02  0.00000000000E+00 0.  1.
</event>
<event>
 7    1  0.3435518E-013  0.7246161E+02  0.7816164E-02  0.1226708E+00
        -11   -1    0    0    0    0  0.00000000000E+00  0.00000000000E+00  0.45593999997E+02  0.45594000000E+02  0.51100000000E-03 0. -1.
         11   -1    0    0    0    0 -0.00000000000E+00 -0.00000000000E+00 -0.45593999997E+02  0.45594000000E+02  0.51100000000E-03 0.  1.
    9900012    2    1    2    0    0 -0.86070592700E+01 -0.15243100412E+02 -0.66516148800E+01  0.72461613270E+02  0.70000055983E+02 0.  0.
        -12    1    1    2    0    0  0.86070592700E+01  0.15243100412E+02  0.66516148800E+01  0.18726386730E+02  0.00000000000E+00 0.  1.
         11    1    3    3    0    0  0.14873882291E+02 -0.98414353018E+01  0.18547451473E+01  0.17931154537E+02  0.51100000000E-03 0. -1.
        -11    1    3    3    0    0 -0.23432505024E+02  0.15058505219E+02 -0.16715737323E+02  0.32484715570E+02  0.51100000000E-03 0.  1.
         12    1    3    3    0    0 -0.48436537363E-01 -0.20460170330E+02  0.82093772958E+01  0.22045743163E+02  0.00000000000E+00 0. -1.
</event>
<event>
 7    1  0.3859062E-013  0.7246148E+02  0.7816164E-02  0.1226708E+00
        -11   -1    0    0    0    0  0.00000000000E+00  0.00000000000E+00  0.45593999997E+02  0.45594000000E+02  0.51100000000E-03 0. -1.
         11   -1    0    0    0    0 -0.00000000000E+00 -0.00000000000E+00 -0.45593999997E+02  0.45594000000E+02  0.51100000000E-03 0.  1.
    9900012    2    1    2    0    0  0.19521902157E+01 -0.10506297846E+02  0.15378209756E+02  0.72461476661E+02  0.69999878025E+02 0.  0.
        -12    1    1    2    0    0 -0.19521902157E+01  0.10506297846E+02 -0.15378209756E+02  0.18726523339E+02  0.00000000000E+00 0.  1.
         11    1    3    3    0    0  0.69870176910E+01  0.28083758585E+01  0.19716887272E+02  0.21105947862E+02  0.51100000000E-03 0. -1.
        -11    1    3    3    0    0  0.11754346772E+01  0.18319821149E+02 -0.52857359705E+01  0.19103311195E+02  0.51100000000E-03 0.  1.
         12    1    3    3    0    0 -0.62102621524E+01 -0.31634494854E+02  0.94705845389E+00  0.32252217604E+02  0.00000000000E+00 0. -1.
</event>
<event>
 7    1  0.3435518E-013  0.7246160E+02  0.7816164E-02  0.1226708E+00
        -11   -1    0    0    0    0  0.00000000000E+00  0.00000000000E+00  0.45593999997E+02  0.45594000000E+02  0.51100000000E-03 0.  1.
         11   -1    0    0    0    0 -0.00000000000E+00 -0.00000000000E+00 -0.45593999997E+02  0.45594000000E+02  0.51100000000E-03 0. -1.
    9900012    2    1    2    0    0 -0.17736410061E+02  0.45013206382E+01 -0.39794216980E+01  0.72461603486E+02  0.70000043239E+02 0.  0.
        -12    1    1    2    0    0  0.17736410061E+02 -0.45013206382E+01  0.39794216980E+01  0.18726396514E+02  0.00000000000E+00 0.  1.
         11    1    3    3    0    0 -0.14611344715E+02 -0.97725468770E+01 -0.11044385760E+02  0.20759877743E+02  0.51100000000E-03 0. -1.
        -11    1    3    3    0    0 -0.14527439929E+02 -0.11604068160E+02  0.13153162968E+02  0.22775131286E+02  0.51100000000E-03 0.  1.
        -12    1    3    3    0    0  0.11402374583E+02  0.25877935675E+02 -0.60881989068E+01  0.28926594457E+02  0.00000000000E+00 0.  1.
</event>
<event>
 7    1  0.3435518E-013  0.7246159E+02  0.7816164E-02  0.1226708E+00
        -11   -1    0    0    0    0  0.00000000000E+00  0.00000000000E+00  0.45593999997E+02  0.45594000000E+02  0.51100000000E-03 0. -1.
         11   -1    0    0    0    0 -0.00000000000E+00 -0.00000000000E+00 -0.45593999997E+02  0.45594000000E+02  0.51100000000E-03 0.  1.
    9900012    2    1    2    0    0  0.99912172418E+01  0.88719111535E-02  0.15838370995E+02  0.72461588265E+02  0.70000023411E+02 0.  0.
        -12    1    1    2    0    0 -0.99912172418E+01 -0.88719111535E-02 -0.15838370995E+02  0.18726411735E+02  0.00000000000E+00 0.  1.
         11    1    3    3    0    0 -0.92995245236E+01 -0.58359767716E+01  0.14964378572E+02  0.18559967876E+02  0.51100000000E-03 0. -1.
        -11    1    3    3    0    0 -0.35935790657E+00 -0.17919793095E+01  0.23155382043E+02  0.23227398601E+02  0.51100000000E-03 0.  1.
        -12    1    3    3    0    0  0.19650099672E+02  0.76368279922E+01 -0.22281389620E+02  0.30674221788E+02  0.00000000000E+00 0.  1.
</event>
<event>
 7    1  0.3435518E-013  0.7246160E+02  0.7816164E-02  0.1226708E+00
        -11   -1    0    0    0    0  0.00000000000E+00  0.00000000000E+00  0.45593999997E+02  0.45594000000E+02  0.51100000000E-03 0.  1.
         11   -1    0    0    0    0 -0.00000000000E+00 -0.00000000000E+00 -0.45593999997E+02  0.45594000000E+02  0.51100000000E-03 0. -1.
    9900012    2    1    2    0    0 -0.10266816595E+02 -0.92539679417E+01 -0.12634654268E+02  0.72461603280E+02  0.70000042969E+02 0.  0.
        -12    1    1    2    0    0  0.10266816595E+02  0.92539679417E+01  0.12634654268E+02  0.18726396720E+02  0.00000000000E+00 0.  1.
         11    1    3    3    0    0 -0.35399181714E+02 -0.75876095465E+01 -0.12758424233E+02  0.38385560747E+02  0.51100000000E-03 0. -1.
        -11    1    3    3    0    0 -0.59573008781E+00 -0.62693113374E+01  0.42754668888E+01  0.76117525158E+01  0.51100000000E-03 0.  1.
         12    1    3    3    0    0  0.25728095207E+02  0.46029529423E+01 -0.41516969234E+01  0.26464290017E+02  0.00000000000E+00 0. -1.
</event>
<event>
 7    1  0.3435518E-013  0.7246158E+02  0.7816164E-02  0.1226708E+00
        -11   -1    0    0    0    0  0.00000000000E+00  0.00000000000E+00  0.45593999997E+02  0.45594000000E+02  0.51100000000E-03 0. -1.
         11   -1    0    0    0    0 -0.00000000000E+00 -0.00000000000E+00 -0.45593999997E+02  0.45594000000E+02  0.51100000000E-03 0.  1.
    9900012    2    1    2    0    0 -0.36730332257E+01  0.47865171320E+01  0.17727856355E+02  0.72461579887E+02  0.70000012496E+02 0.  0.
        -12    1    1    2    0    0  0.36730332257E+01 -0.47865171320E+01 -0.17727856355E+02  0.18726420113E+02  0.00000000000E+00 0.  1.
         11    1    3    3    0    0  0.26115791641E+02 -0.18266675631E+01  0.16673248495E+02  0.31038178153E+02  0.51100000000E-03 0.  1.
        -11    1    3    3    0    0  0.26785566305E+01  0.82630913110E+01  0.19468410492E+01  0.89018837315E+01  0.51100000000E-03 0. -1.
         12    1    3    3    0    0 -0.32467381497E+02 -0.16499066159E+01 -0.89223318902E+00  0.32521518002E+02  0.00000000000E+00 0. -1.
</event>
<event>
 7    1  0.3435518E-013  0.7246154E+02  0.7816164E-02  0.1226708E+00
        -11   -1    0    0    0    0  0.00000000000E+00  0.00000000000E+00  0.45593999997E+02  0.45594000000E+02  0.51100000000E-03 0.  1.
         11   -1    0    0    0    0 -0.00000000000E+00 -0.00000000000E+00 -0.45593999997E+02  0.45594000000E+02  0.51100000000E-03 0. -1.
    9900012    2    1    2    0    0 -0.44982982325E+01 -0.18101981620E+02 -0.16624528956E+01  0.72461543443E+02  0.69999965021E+02 0.  0.
        -12    1    1    2    0    0  0.44982982325E+01  0.18101981620E+02  0.16624528956E+01  0.18726456557E+02  0.00000000000E+00 0.  1.
         11    1    3    3    0    0 -0.97217312321E+01 -0.34155286322E+01 -0.10715014475E+02  0.14865713217E+02  0.51100000000E-03 0. -1.
        -11    1    3    3    0    0 -0.46638452408E+01  0.13348142918E+02  0.21200007786E+02  0.25482635307E+02  0.51100000000E-03 0.  1.
         12    1    3    3    0    0  0.98872782404E+01 -0.28034595905E+02 -0.12147446206E+02  0.32113194919E+02  0.00000000000E+00 0. -1.
</event>
<event>
 7    1  0.3435518E-013  0.7246157E+02  0.7816164E-02  0.1226708E+00
        -11   -1    0    0    0    0  0.00000000000E+00  0.00000000000E+00  0.45593999997E+02  0.45594000000E+02  0.51100000000E-03 0.  1.
         11   -1    0    0    0    0 -0.00000000000E+00 -0.00000000000E+00 -0.45593999997E+02  0.45594000000E+02  0.51100000000E-03 0. -1.
    9900012    2    1    2    0    0 -0.42244881742E+01 -0.17302799049E+02 -0.57832623608E+01  0.72461567377E+02  0.69999996199E+02 0.  0.
        -12    1    1    2    0    0  0.42244881742E+01  0.17302799049E+02  0.57832623608E+01  0.18726432623E+02  0.00000000000E+00 0.  1.
         11    1    3    3    0    0  0.98557148552E+01 -0.22961659624E+02 -0.71512815884E+01  0.25990647483E+02  0.51100000000E-03 0. -1.
        -11    1    3    3    0    0 -0.23312700052E+02 -0.50749098388E+01 -0.12255864576E+02  0.26822432968E+02  0.51100000000E-03 0.  1.
        -12    1    3    3    0    0  0.92324970224E+01  0.10733770414E+02  0.13623883803E+02  0.19648486925E+02  0.00000000000E+00 0.  1.
</event>
<event>
 7    1  0.3435518E-013  0.7246174E+02  0.7816164E-02  0.1226708E+00
        -11   -1    0    0    0    0  0.00000000000E+00  0.00000000000E+00  0.45593999997E+02  0.45594000000E+02  0.51100000000E-03 0. -1.
         11   -1    0    0    0    0 -0.00000000000E+00 -0.00000000000E+00 -0.45593999997E+02  0.45594000000E+02  0.51100000000E-03 0.  1.
    9900012    2    1    2    0    0 -0.57756541273E+01 -0.24453822628E+01  0.17644685450E+02  0.72461735033E+02  0.70000214602E+02 0.  0.
        -12    1    1    2    0    0  0.57756541273E+01  0.24453822628E+01 -0.17644685450E+02  0.18726264967E+02  0.00000000000E+00 0.  1.
         11    1    3    3    0    0 -0.69592614908E+01 -0.18367452388E+02  0.16291930161E+02  0.25519044189E+02  0.51100000000E-03 0. -1.
        -11    1    3    3    0    0  0.11606904993E+02 -0.98521470353E+01 -0.85119009610E+01  0.17442405309E+02  0.51100000000E-03 0.  1.
        -12    1    3    3    0    0 -0.10423297629E+02  0.25774217160E+02  0.98646562502E+01  0.29500285535E+02  0.00000000000E+00 0.  1.
</event>
<event>
 7    1  0.3435518E-013  0.7246164E+02  0.7816164E-02  0.1226708E+00
        -11   -1    0    0    0    0  0.00000000000E+00  0.00000000000E+00  0.45593999997E+02  0.45594000000E+02  0.51100000000E-03 0.  1.
         11   -1    0    0    0    0 -0.00000000000E+00 -0.00000000000E+00 -0.45593999997E+02  0.45594000000E+02  0.51100000000E-03 0. -1.
    9900012    2    1    2    0    0 -0.13446201509E+02 -0.79303716097E+01 -0.10343372559E+02  0.72461641978E+02  0.70000093381E+02 0.  0.
        -12    1    1    2    0    0  0.13446201509E+02  0.79303716097E+01  0.10343372559E+02  0.18726358022E+02  0.00000000000E+00 0.  1.
         11    1    3    3    0    0 -0.20098039778E+02  0.19391753913E+02 -0.12912218802E+02  0.30768437032E+02  0.51100000000E-03 0. -1.
        -11    1    3    3    0    0 -0.25110677159E+01  0.67349386216E+00  0.10799446276E+02  0.11107974397E+02  0.51100000000E-03 0.  1.
         12    1    3    3    0    0  0.91629059846E+01 -0.27995619385E+02 -0.82306000334E+01  0.30585230549E+02  0.00000000000E+00 0. -1.
</event>
<event>
 7    1  0.3435518E-013  0.7246151E+02  0.7816164E-02  0.1226708E+00
        -11   -1    0    0    0    0  0.00000000000E+00  0.00000000000E+00  0.45593999997E+02  0.45594000000E+02  0.51100000000E-03 0.  1.
         11   -1    0    0    0    0 -0.00000000000E+00 -0.00000000000E+00 -0.45593999997E+02  0.45594000000E+02  0.51100000000E-03 0. -1.
    9900012    2    1    2    0    0  0.12963834349E+02 -0.12714865702E+02 -0.45774226034E+01  0.72461505172E+02  0.69999915166E+02 0.  0.
        -12    1    1    2    0    0 -0.12963834349E+02  0.12714865702E+02  0.45774226034E+01  0.18726494828E+02  0.00000000000E+00 0.  1.
         11    1    3    3    0    0 -0.94718614720E+01  0.15221977815E+02  0.16700734056E+02  0.24501822108E+02  0.51100000000E-03 0. -1.
        -11    1    3    3    0    0  0.14822625647E+02 -0.68566559737E+01  0.99477191830E+00  0.16361953845E+02  0.51100000000E-03 0.  1.
        -12    1    3    3    0    0  0.76130701740E+01 -0.21080187544E+02 -0.22272928577E+02  0.31597729219E+02  0.00000000000E+00 0.  1.
</event>
<event>
 7    1  0.3435518E-013  0.7246156E+02  0.7816164E-02  0.1226708E+00
        -11   -1    0    0    0    0  0.00000000000E+00  0.00000000000E+00  0.45593999997E+02  0.45594000000E+02  0.51100000000E-03 0.  1.
         11   -1    0    0    0    0 -0.00000000000E+00 -0.00000000000E+00 -0.45593999997E+02  0.45594000000E+02  0.51100000000E-03 0. -1.
    9900012    2    1    2    0    0 -0.11088485943E+02 -0.81337542983E+01  0.12710909119E+02  0.72461556395E+02  0.69999981893E+02 0.  0.
        -12    1    1    2    0    0  0.11088485943E+02  0.81337542983E+01 -0.12710909119E+02  0.18726443605E+02  0.00000000000E+00 0.  1.
         11    1    3    3    0    0 -0.50343383072E+01  0.24408074033E+02 -0.10645932838E+02  0.27100452514E+02  0.51100000000E-03 0. -1.
        -11    1    3    3    0    0  0.22092964653E+01  0.35750745954E+00  0.76670973350E+01  0.79870635568E+01  0.51100000000E-03 0.  1.
        -12    1    3    3    0    0 -0.82634441007E+01 -0.32899335791E+02  0.15689744622E+02  0.37374040324E+02  0.00000000000E+00 0.  1.
</event>
<event>
 7    1  0.3435518E-013  0.7246180E+02  0.7816164E-02  0.1226707E+00
        -11   -1    0    0    0    0  0.00000000000E+00  0.00000000000E+00  0.45593999997E+02  0.45594000000E+02  0.51100000000E-03 0. -1.
         11   -1    0    0    0    0 -0.00000000000E+00 -0.00000000000E+00 -0.45593999997E+02  0.45594000000E+02  0.51100000000E-03 0.  1.
    9900012    2    1    2    0    0 -0.12401433497E+02  0.43298609600E+01  0.13346431861E+02  0.72461801984E+02  0.70000301818E+02 0.  0.
        -12    1    1    2    0    0  0.12401433497E+02 -0.43298609600E+01 -0.13346431861E+02  0.18726198016E+02  0.00000000000E+00 0.  1.
         11    1    3    3    0    0 -0.13880856946E+02 -0.66013303408E+01 -0.58997273362E+01  0.16463976881E+02  0.51100000000E-03 0. -1.
        -11    1    3    3    0    0  0.15931436073E+02 -0.13139763545E+02 -0.20587642766E+01  0.20753374472E+02  0.51100000000E-03 0.  1.
        -12    1    3    3    0    0 -0.14452012623E+02  0.24070954846E+02  0.21304923474E+02  0.35244450631E+02  0.00000000000E+00 0.  1.
</event>
<event>
 7    1  0.3435518E-013  0.7246152E+02  0.7816164E-02  0.1226708E+00
        -11   -1    0    0    0    0  0.00000000000E+00  0.00000000000E+00  0.45593999997E+02  0.45594000000E+02  0.51100000000E-03 0.  1.
         11   -1    0    0    0    0 -0.00000000000E+00 -0.00000000000E+00 -0.45593999997E+02  0.45594000000E+02  0.51100000000E-03 0. -1.
    9900012    2    1    2    0    0  0.13465179542E+02 -0.11561962580E+02  0.59741903144E+01  0.72461521722E+02  0.69999936725E+02 0.  0.
        -12    1    1    2    0    0 -0.13465179542E+02  0.11561962580E+02 -0.59741903144E+01  0.18726478278E+02  0.00000000000E+00 0.  1.
         11    1    3    3    0    0 -0.26129189957E+01 -0.18101667383E+02 -0.80250636712E+01  0.19972464918E+02  0.51100000000E-03 0. -1.
        -11    1    3    3    0    0 -0.42264203112E+01 -0.43996315790E+01  0.25848990860E+02  0.26559173847E+02  0.51100000000E-03 0.  1.
        -12    1    3    3    0    0  0.20304518849E+02  0.10939336382E+02 -0.11849736875E+02  0.25929882957E+02  0.00000000000E+00 0.  1.
</event>
<event>
 7    1  0.3435518E-013  0.7246163E+02  0.7816164E-02  0.1226708E+00
        -11   -1    0    0    0    0  0.00000000000E+00  0.00000000000E+00  0.45593999997E+02  0.45594000000E+02  0.51100000000E-03 0.  1.
         11   -1    0    0    0    0 -0.00000000000E+00 -0.00000000000E+00 -0.45593999997E+02  0.45594000000E+02  0.51100000000E-03 0. -1.
    9900012    2    1    2    0    0 -0.49571164101E+01 -0.97336310878E+01 -0.15210539625E+02  0.72461625740E+02  0.70000072228E+02 0.  0.
        -12    1    1    2    0    0  0.49571164101E+01  0.97336310878E+01  0.15210539625E+02  0.18726374260E+02  0.00000000000E+00 0.  1.
         11    1    3    3    0    0 -0.13040038743E+02 -0.95666880897E+00 -0.46477870882E+00  0.13083342277E+02  0.51100000000E-03 0. -1.
        -11    1    3    3    0    0  0.14282530978E+02 -0.29523152773E+02 -0.18112211653E+02  0.37465443438E+02  0.51100000000E-03 0.  1.
         12    1    3    3    0    0 -0.61996086451E+01  0.20746190494E+02  0.33664507369E+01  0.21912840025E+02  0.00000000000E+00 0. -1.
</event>
<event>
 7    1  0.3435518E-013  0.7246158E+02  0.7816164E-02  0.1226708E+00
        -11   -1    0    0    0    0  0.00000000000E+00  0.00000000000E+00  0.45593999997E+02  0.45594000000E+02  0.51100000000E-03 0. -1.
         11   -1    0    0    0    0 -0.00000000000E+00 -0.00000000000E+00 -0.45593999997E+02  0.45594000000E+02  0.51100000000E-03 0.  1.
    9900012    2    1    2    0    0 -0.14544594196E+02 -0.87561023305E+01  0.79034218863E+01  0.72461584810E+02  0.70000018910E+02 0.  0.
        -12    1    1    2    0    0  0.14544594196E+02  0.87561023305E+01 -0.79034218863E+01  0.18726415190E+02  0.00000000000E+00 0.  1.
         11    1    3    3    0    0 -0.32791506280E+02  0.12251079678E+02  0.14357380176E+02  0.37835250801E+02  0.51100000000E-03 0. -1.
        -11    1    3    3    0    0  0.17120854836E+01  0.38077996140E+01 -0.12355072332E+01  0.43539697964E+01  0.51100000000E-03 0.  1.
         12    1    3    3    0    0  0.16534826600E+02 -0.24814981622E+02 -0.52184510564E+01  0.30272364213E+02  0.00000000000E+00 0. -1.
</event>
<event>
 7    1  0.3435518E-013  0.7246159E+02  0.7816164E-02  0.1226708E+00
        -11   -1    0    0    0    0  0.00000000000E+00  0.00000000000E+00  0.45593999997E+02  0.45594000000E+02  0.51100000000E-03 0.  1.
         11   -1    0    0    0    0 -0.00000000000E+00 -0.00000000000E+00 -0.45593999997E+02  0.45594000000E+02  0.51100000000E-03 0. -1.
    9900012    2    1    2    0    0 -0.95768764304E+01 -0.16080476675E+02  0.61660701449E+00  0.72461588265E+02  0.70000023410E+02 0.  0.
        -12    1    1    2    0    0  0.95768764304E+01  0.16080476675E+02 -0.61660701449E+00  0.18726411735E+02  0.00000000000E+00 0.  1.
         11    1    3    3    0    0 -0.24513068604E+02  0.39999612460E+01  0.10129061175E+02  0.26823275395E+02  0.51100000000E-03 0. -1.
        -11    1    3    3    0    0  0.14280547280E+02  0.74967114564E+01  0.89955397823E+00  0.16153758414E+02  0.51100000000E-03 0.  1.
         12    1    3    3    0    0  0.65564489352E+00 -0.27577149377E+02 -0.10412008139E+02  0.29484554456E+02  0.00000000000E+00 0. -1.
</event>
<event>
 7    1  0.3435518E-013  0.7246156E+02  0.7816164E-02  0.1226708E+00
        -11   -1    0    0    0    0  0.00000000000E+00  0.00000000000E+00  0.45593999997E+02  0.45594000000E+02  0.51100000000E-03 0. -1.
         11   -1    0    0    0    0 -0.00000000000E+00 -0.00000000000E+00 -0.45593999997E+02  0.45594000000E+02  0.51100000000E-03 0.  1.
    9900012    2    1    2    0    0 -0.10047909926E+02 -0.10089833533E+02  0.12162010330E+02  0.72461555333E+02  0.69999980511E+02 0.  0.
        -12    1    1    2    0    0  0.10047909926E+02  0.10089833533E+02 -0.12162010330E+02  0.18726444667E+02  0.00000000000E+00 0.  1.
         11    1    3    3    0    0  0.53705236449E+00  0.38816697957E+01  0.17658468062E+01  0.42981392310E+01  0.51100000000E-03 0. -1.
        -11    1    3    3    0    0 -0.33374267660E+02  0.41006799949E+01 -0.68971792220E+01  0.34325331750E+02  0.51100000000E-03 0.  1.
         12    1    3    3    0    0  0.22789305370E+02 -0.18072183323E+02  0.17293342746E+02  0.33838084352E+02  0.00000000000E+00 0. -1.
</event>
<event>
 7    1  0.3435518E-013  0.7246162E+02  0.7816164E-02  0.1226708E+00
        -11   -1    0    0    0    0  0.00000000000E+00  0.00000000000E+00  0.45593999997E+02  0.45594000000E+02  0.51100000000E-03 0. -1.
         11   -1    0    0    0    0 -0.00000000000E+00 -0.00000000000E+00 -0.45593999997E+02  0.45594000000E+02  0.51100000000E-03 0.  1.
    9900012    2    1    2    0    0  0.14735684549E+02 -0.10277650845E+02 -0.52826928557E+01  0.72461618880E+02  0.70000063292E+02 0.  0.
        -12    1    1    2    0    0 -0.14735684549E+02  0.10277650845E+02  0.52826928557E+01  0.18726381120E+02  0.00000000000E+00 0.  1.
         11    1    3    3    0    0 -0.43305669200E+01  0.28460533388E+01  0.14290510033E+02  0.15201069263E+02  0.51100000000E-03 0. -1.
        -11    1    3    3    0    0 -0.14844458967E+02 -0.13210370977E+02 -0.63252652214E+01  0.20853796867E+02  0.51100000000E-03 0.  1.
        -12    1    3    3    0    0  0.33910710436E+02  0.86666793504E-01 -0.13247937668E+02  0.36406752751E+02  0.00000000000E+00 0.  1.
</event>
<event>
 7    1  0.3435518E-013  0.7246163E+02  0.7816164E-02  0.1226708E+00
        -11   -1    0    0    0    0  0.00000000000E+00  0.00000000000E+00  0.45593999997E+02  0.45594000000E+02  0.51100000000E-03 0. -1.
         11   -1    0    0    0    0 -0.00000000000E+00 -0.00000000000E+00 -0.45593999997E+02  0.45594000000E+02  0.51100000000E-03 0.  1.
    9900012    2    1    2    0    0  0.98970750109E+01 -0.14089792844E+02 -0.73622501685E+01  0.72461625987E+02  0.70000072549E+02 0.  0.
        -12    1    1    2    0    0 -0.98970750109E+01  0.14089792844E+02  0.73622501685E+01  0.18726374013E+02  0.00000000000E+00 0.  1.
         11    1    3    3    0    0  0.42201811192E+01  0.87707723867E+01 -0.87471801614E+01  0.13086234675E+02  0.51100000000E-03 0. -1.
        -11    1    3    3    0    0  0.29395267454E+02 -0.19304633120E+02  0.32630079575E+01  0.35318519643E+02  0.51100000000E-03 0.  1.
         12    1    3    3    0    0 -0.23718373562E+02 -0.35559321104E+01 -0.18780779646E+01  0.24056871668E+02  0.00000000000E+00 0. -1.
</event>
<event>
 7    1  0.3435518E-013  0.7246159E+02  0.7816164E-02  0.1226708E+00
        -11   -1    0    0    0    0  0.00000000000E+00  0.00000000000E+00  0.45593999997E+02  0.45594000000E+02  0.51100000000E-03 0.  1.
         11   -1    0    0    0    0 -0.00000000000E+00 -0.00000000000E+00 -0.45593999997E+02  0.45594000000E+02  0.51100000000E-03 0. -1.
    9900012    2    1    2    0    0 -0.76958171142E+01 -0.16820726983E+02 -0.29182303853E+01  0.72461587480E+02  0.70000022388E+02 0.  0.
        -12    1    1    2    0    0  0.76958171142E+01  0.16820726983E+02  0.29182303853E+01  0.18726412520E+02  0.00000000000E+00 0.  1.
         11    1    3    3    0    0  0.12984736468E+02 -0.18235265458E+02 -0.98635176347E+01  0.24462568709E+02  0.51100000000E-03 0. -1.
        -11    1    3    3    0    0 -0.10358886518E+02  0.12114636976E+02 -0.14737652518E+02  0.21708739277E+02  0.51100000000E-03 0.  1.
        -12    1    3    3    0    0 -0.10321667064E+02 -0.10700098502E+02  0.21682939768E+02  0.26290279494E+02  0.00000000000E+00 0.  1.
</event>
<event>
 7    1  0.3435518E-013  0.7246151E+02  0.7816164E-02  0.1226708E+00
        -11   -1    0    0    0    0  0.00000000000E+00  0.00000000000E+00  0.45593999997E+02  0.45594000000E+02  0.51100000000E-03 0. -1.
         11   -1    0    0    0    0 -0.00000000000E+00 -0.00000000000E+00 -0.45593999997E+02  0.45594000000E+02  0.51100000000E-03 0.  1.
    9900012    2    1    2    0    0  0.13882345574E+02 -0.10915830190E+02  0.62294914065E+01  0.72461509924E+02  0.69999921357E+02 0.  0.
        -12    1    1    2    0    0 -0.13882345574E+02  0.10915830190E+02 -0.62294914065E+01  0.18726490076E+02  0.00000000000E+00 0.  1.
         11    1    3    3    0    0  0.18579540634E+02 -0.72327855605E+01  0.15205464587E+02  0.25074263114E+02  0.51100000000E-03 0. -1.
        -11    1    3    3    0    0  0.20389824405E+02 -0.48293011050E+01 -0.74089836968E+01  0.22225213792E+02  0.51100000000E-03 0.  1.
        -12    1    3    3    0    0 -0.25087019465E+02  0.11462564751E+01 -0.15669894835E+01  0.25162033018E+02  0.00000000000E+00 0.  1.
</event>
<event>
 7    1  0.3435518E-013  0.7246148E+02  0.7816164E-02  0.1226708E+00
        -11   -1    0    0    0    0  0.00000000000E+00  0.00000000000E+00  0.45593999997E+02  0.45594000000E+02  0.51100000000E-03 0.  1.
         11   -1    0    0    0    0 -0.00000000000E+00 -0.00000000000E+00 -0.45593999997E+02  0.45594000000E+02  0.51100000000E-03 0. -1.
    9900012    2    1    2    0    0 -0.86703684449E+01 -0.16500180231E+02 -0.18031374885E+01  0.72461480264E+02  0.69999882718E+02 0.  0.
        -12    1    1    2    0    0  0.86703684449E+01  0.16500180231E+02  0.18031374885E+01  0.18726519736E+02  0.00000000000E+00 0.  1.
         11    1    3    3    0    0 -0.82442718108E+01  0.99603441830E+01 -0.13297879234E+02  0.18547508359E+02  0.51100000000E-03 0. -1.
        -11    1    3    3    0    0  0.11253284980E+01  0.86953012142E+01  0.16190373192E+02  0.18412028997E+02  0.51100000000E-03 0.  1.
        -12    1    3    3    0    0 -0.15514251322E+01 -0.35155825628E+02 -0.46956314464E+01  0.35501942908E+02  0.00000000000E+00 0.  1.
</event>
<event>
 7    1  0.3435518E-013  0.7246153E+02  0.7816164E-02  0.1226708E+00
        -11   -1    0    0    0    0  0.00000000000E+00  0.00000000000E+00  0.45593999997E+02  0.45594000000E+02  0.51100000000E-03 0.  1.
         11   -1    0    0    0    0 -0.00000000000E+00 -0.00000000000E+00 -0.45593999997E+02  0.45594000000E+02  0.51100000000E-03 0. -1.
    9900012    2    1    2    0    0 -0.11726104383E+02  0.10853638464E+02 -0.97661516560E+01  0.72461529161E+02  0.69999946416E+02 0.  0.
        -12    1    1    2    0    0  0.11726104383E+02 -0.10853638464E+02  0.97661516560E+01  0.18726470839E+02  0.00000000000E+00 0.  1.
         11    1    3    3    0    0  0.20394478744E+01  0.11962898371E+02  0.92607834245E+01  0.15265398618E+02  0.51100000000E-03 0. -1.
        -11    1    3    3    0    0  0.17248693417E+02  0.43286183724E-01  0.49865586835E+01  0.17955084685E+02  0.51100000000E-03 0.  1.
         12    1    3    3    0    0 -0.31014245674E+02 -0.11525460906E+01 -0.24013493764E+02  0.39241045857E+02  0.00000000000E+00 0. -1.
</event>
<event>
 7    1  0.3435518E-013  0.7246153E+02  0.7816164E-02  0.1226708E+00
        -11   -1    0    0    0    0  0.00000000000E+00  0.00000000000E+00  0.45593999997E+02  0.45594000000E+02  0.51100000000E-03 0.  1.
         11   -1    0    0    0    0 -0.00000000000E+00 -0.00000000000E+00 -0.45593999997E+02  0.45594000000E+02  0.51100000000E-03 0. -1.
    9900012    2    1    2    0    0  0.27006735950E+01  0.17119233360E+02 -0.70935868441E+01  0.72461527748E+02  0.69999944575E+02 0.  0.
        -12    1    1    2    0    0 -0.27006735950E+01 -0.17119233360E+02  0.70935868441E+01  0.18726472252E+02  0.00000000000E+00 0.  1.
         11    1    3    3    0    0  0.10327236210E+02 -0.31920303405E+00 -0.28563775255E+02  0.30375038361E+02  0.51100000000E-03 0. -1.
        -11    1    3    3    0    0  0.98985452404E+01  0.81782346237E+01 -0.35057576784E-01  0.12840013580E+02  0.51100000000E-03 0.  1.
        -12    1    3    3    0    0 -0.17525107855E+02  0.92602017702E+01  0.21505245988E+02  0.29246475808E+02  0.00000000000E+00 0.  1.
</event>
<event>
 7    1  0.3435518E-013  0.7246162E+02  0.7816164E-02  0.1226708E+00
        -11   -1    0    0    0    0  0.00000000000E+00  0.00000000000E+00  0.45593999997E+02  0.45594000000E+02  0.51100000000E-03 0.  1.
         11   -1    0    0    0    0 -0.00000000000E+00 -0.00000000000E+00 -0.45593999997E+02  0.45594000000E+02  0.51100000000E-03 0. -1.
    9900012    2    1    2    0    0  0.39684959288E+01  0.13423304579E+02 -0.12439587664E+02  0.72461617354E+02  0.70000061304E+02 0.  0.
        -12    1    1    2    0    0 -0.39684959288E+01 -0.13423304579E+02  0.12439587664E+02  0.18726382646E+02  0.00000000000E+00 0.  1.
         11    1    3    3    0    0 -0.11196179424E+02 -0.20145814299E+01  0.72124015928E+01  0.13469658831E+02  0.51100000000E-03 0.  1.
        -11    1    3    3    0    0  0.26013701799E+02  0.26795008367E+01  0.73976178309E+01  0.27177511951E+02  0.51100000000E-03 0. -1.
         12    1    3    3    0    0 -0.10849026446E+02  0.12758385172E+02 -0.27049607088E+02  0.31814446571E+02  0.00000000000E+00 0. -1.
</event>
<event>
 7    1  0.3435518E-013  0.7246157E+02  0.7816164E-02  0.1226708E+00
        -11   -1    0    0    0    0  0.00000000000E+00  0.00000000000E+00  0.45593999997E+02  0.45594000000E+02  0.51100000000E-03 0. -1.
         11   -1    0    0    0    0 -0.00000000000E+00 -0.00000000000E+00 -0.45593999997E+02  0.45594000000E+02  0.51100000000E-03 0.  1.
    9900012    2    1    2    0    0  0.96786375453E+01  0.10536019348E+01  0.15996654674E+02  0.72461573151E+02  0.70000003721E+02 0.  0.
        -12    1    1    2    0    0 -0.96786375453E+01 -0.10536019348E+01 -0.15996654674E+02  0.18726426849E+02  0.00000000000E+00 0.  1.
         11    1    3    3    0    0 -0.17859830799E+02  0.31305579845E+01 -0.43897313614E+01  0.18655929115E+02  0.51100000000E-03 0. -1.
        -11    1    3    3    0    0 -0.23971398337E+01 -0.14148965067E+02  0.15562498219E+02  0.21169101137E+02  0.51100000000E-03 0.  1.
         12    1    3    3    0    0  0.29935608178E+02  0.12072009017E+02  0.48238878166E+01  0.32636542899E+02  0.00000000000E+00 0. -1.
</event>
<event>
 7    1  0.3435518E-013  0.7246156E+02  0.7816164E-02  0.1226708E+00
        -11   -1    0    0    0    0  0.00000000000E+00  0.00000000000E+00  0.45593999997E+02  0.45594000000E+02  0.51100000000E-03 0.  1.
         11   -1    0    0    0    0 -0.00000000000E+00 -0.00000000000E+00 -0.45593999997E+02  0.45594000000E+02  0.51100000000E-03 0. -1.
    9900012    2    1    2    0    0 -0.11806562054E+01  0.14256604611E+02 -0.12084490923E+02  0.72461557599E+02  0.69999983462E+02 0.  0.
        -12    1    1    2    0    0  0.11806562054E+01 -0.14256604611E+02  0.12084490923E+02  0.18726442401E+02  0.00000000000E+00 0.  1.
         11    1    3    3    0    0 -0.68928816845E+01  0.76847922388E+01 -0.21348490792E+01  0.10541604741E+02  0.51100000000E-03 0. -1.
        -11    1    3    3    0    0  0.15729707585E+02  0.95370619988E+01  0.21783467091E+02  0.28511378273E+02  0.51100000000E-03 0.  1.
         12    1    3    3    0    0 -0.10017482106E+02 -0.29652496263E+01 -0.31733108935E+02  0.33408574585E+02  0.00000000000E+00 0. -1.
</event>
<event>
 7    1  0.3435518E-013  0.7246153E+02  0.7816164E-02  0.1226708E+00
        -11   -1    0    0    0    0  0.00000000000E+00  0.00000000000E+00  0.45593999997E+02  0.45594000000E+02  0.51100000000E-03 0. -1.
         11   -1    0    0    0    0 -0.00000000000E+00 -0.00000000000E+00 -0.45593999997E+02  0.45594000000E+02  0.51100000000E-03 0.  1.
    9900012    2    1    2    0    0  0.15491056997E+02 -0.43685181344E+01  0.95720452804E+01  0.72461525468E+02  0.69999941605E+02 0.  0.
        -12    1    1    2    0    0 -0.15491056997E+02  0.43685181344E+01 -0.95720452804E+01  0.18726474532E+02  0.00000000000E+00 0.  1.
         11    1    3    3    0    0  0.17137402860E+02  0.61108910435E+01 -0.27375977365E+01  0.18399130625E+02  0.51100000000E-03 0. -1.
        -11    1    3    3    0    0  0.61891016065E+01  0.16372332690E+02 -0.82477979455E+01  0.19349016192E+02  0.51100000000E-03 0.  1.
         12    1    3    3    0    0 -0.78354474700E+01 -0.26851741868E+02  0.20557440962E+02  0.34713378650E+02  0.00000000000E+00 0. -1.
</event>
<event>
 7    1  0.3435518E-013  0.7246158E+02  0.7816164E-02  0.1226708E+00
        -11   -1    0    0    0    0  0.00000000000E+00  0.00000000000E+00  0.45593999997E+02  0.45594000000E+02  0.51100000000E-03 0.  1.
         11   -1    0    0    0    0 -0.00000000000E+00 -0.00000000000E+00 -0.45593999997E+02  0.45594000000E+02  0.51100000000E-03 0. -1.
    9900012    2    1    2    0    0  0.14598755381E+02 -0.11724103137E+02 -0.31711669297E+00  0.72461579732E+02  0.70000012295E+02 0.  0.
        -12    1    1    2    0    0 -0.14598755381E+02  0.11724103137E+02  0.31711669297E+00  0.18726420268E+02  0.00000000000E+00 0.  1.
         11    1    3    3    0    0  0.86426752026E+00  0.12160250884E+02 -0.10519572052E+02  0.16102175515E+02  0.51100000000E-03 0. -1.
        -11    1    3    3    0    0 -0.51442589921E+01  0.35780006195E+01 -0.13889455334E+02  0.15237534537E+02  0.51100000000E-03 0.  1.
        -12    1    3    3    0    0  0.18878746853E+02 -0.27462354640E+02  0.24091910694E+02  0.41121869680E+02  0.00000000000E+00 0.  1.
</event>
<event>
 7    1  0.3435518E-013  0.7246153E+02  0.7816164E-02  0.1226708E+00
        -11   -1    0    0    0    0  0.00000000000E+00  0.00000000000E+00  0.45593999997E+02  0.45594000000E+02  0.51100000000E-03 0.  1.
         11   -1    0    0    0    0 -0.00000000000E+00 -0.00000000000E+00 -0.45593999997E+02  0.45594000000E+02  0.51100000000E-03 0. -1.
    9900012    2    1    2    0    0  0.29222638959E+01 -0.10821147880E+02 -0.15001456435E+02  0.72461533091E+02  0.69999951536E+02 0.  0.
        -12    1    1    2    0    0 -0.29222638959E+01  0.10821147880E+02  0.15001456435E+02  0.18726466909E+02  0.00000000000E+00 0.  1.
         11    1    3    3    0    0  0.16502736343E+02  0.95301062881E+01 -0.11684019009E+02  0.22353512770E+02  0.51100000000E-03 0. -1.
        -11    1    3    3    0    0 -0.46774512477E+01  0.24744132249E+00 -0.21013802966E+02  0.21529507489E+02  0.51100000000E-03 0.  1.
        -12    1    3    3    0    0 -0.89030211993E+01 -0.20598695490E+02  0.17696365540E+02  0.28578512832E+02  0.00000000000E+00 0.  1.
</event>
<event>
 7    1  0.3435518E-013  0.7246154E+02  0.7816164E-02  0.1226708E+00
        -11   -1    0    0    0    0  0.00000000000E+00  0.00000000000E+00  0.45593999997E+02  0.45594000000E+02  0.51100000000E-03 0. -1.
         11   -1    0    0    0    0 -0.00000000000E+00 -0.00000000000E+00 -0.45593999997E+02  0.45594000000E+02  0.51100000000E-03 0.  1.
    9900012    2    1    2    0    0 -0.10827080525E+02 -0.56536030411E+01  0.14194761146E+02  0.72461544274E+02  0.69999966104E+02 0.  0.
        -12    1    1    2    0    0  0.10827080525E+02  0.56536030411E+01 -0.14194761146E+02  0.18726455726E+02  0.00000000000E+00 0.  1.
         11    1    3    3    0    0 -0.11489849602E+02  0.20022540793E+02 -0.47621415719E+01  0.23571100447E+02  0.51100000000E-03 0. -1.
        -11    1    3    3    0    0  0.56788467997E+01 -0.99633737108E+01 -0.10228411500E+02  0.15366799236E+02  0.51100000000E-03 0.  1.
        -12    1    3    3    0    0 -0.50160777227E+01 -0.15712770123E+02  0.29185314219E+02  0.33523644591E+02  0.00000000000E+00 0.  1.
</event>
<event>
 7    1  0.3435518E-013  0.7246161E+02  0.7816164E-02  0.1226708E+00
        -11   -1    0    0    0    0  0.00000000000E+00  0.00000000000E+00  0.45593999997E+02  0.45594000000E+02  0.51100000000E-03 0. -1.
         11   -1    0    0    0    0 -0.00000000000E+00 -0.00000000000E+00 -0.45593999997E+02  0.45594000000E+02  0.51100000000E-03 0.  1.
    9900012    2    1    2    0    0  0.12008394633E+02  0.80065638575E+01 -0.11931941152E+02  0.72461606164E+02  0.70000046726E+02 0.  0.
        -12    1    1    2    0    0 -0.12008394633E+02 -0.80065638575E+01  0.11931941152E+02  0.18726393836E+02  0.00000000000E+00 0.  1.
         11    1    3    3    0    0 -0.20833287595E+02  0.14459567167E+02 -0.61874346872E+01  0.26103434697E+02  0.51100000000E-03 0. -1.
        -11    1    3    3    0    0 -0.17045891092E+01  0.68826186353E+01 -0.60579014446E+01  0.93259977206E+01  0.51100000000E-03 0.  1.
        -12    1    3    3    0    0  0.34546271337E+02 -0.13335621945E+02  0.31339497972E+00  0.37032173746E+02  0.00000000000E+00 0.  1.
</event>
<event>
 7    1  0.3435518E-013  0.7246155E+02  0.7816164E-02  0.1226708E+00
        -11   -1    0    0    0    0  0.00000000000E+00  0.00000000000E+00  0.45593999997E+02  0.45594000000E+02  0.51100000000E-03 0.  1.
         11   -1    0    0    0    0 -0.00000000000E+00 -0.00000000000E+00 -0.45593999997E+02  0.45594000000E+02  0.51100000000E-03 0. -1.
    9900012    2    1    2    0    0  0.46357298612E+00 -0.14860695089E+02 -0.11385287892E+02  0.72461549754E+02  0.69999973242E+02 0.  0.
        -12    1    1    2    0    0 -0.46357298612E+00  0.14860695089E+02  0.11385287892E+02  0.18726450246E+02  0.00000000000E+00 0.  1.
         11    1    3    3    0    0 -0.11438975545E+02 -0.42586054943E+01 -0.18308561182E+02  0.22004301741E+02  0.51100000000E-03 0. -1.
        -11    1    3    3    0    0 -0.17594333714E+02  0.20217013056E+01  0.39135104498E+00  0.17714429455E+02  0.51100000000E-03 0.  1.
         12    1    3    3    0    0  0.29496882246E+02 -0.12623790901E+02  0.65319222454E+01  0.32742818558E+02  0.00000000000E+00 0. -1.
</event>
<event>
 7    1  0.3435518E-013  0.7246155E+02  0.7816164E-02  0.1226708E+00
        -11   -1    0    0    0    0  0.00000000000E+00  0.00000000000E+00  0.45593999997E+02  0.45594000000E+02  0.51100000000E-03 0. -1.
         11   -1    0    0    0    0 -0.00000000000E+00 -0.00000000000E+00 -0.45593999997E+02  0.45594000000E+02  0.51100000000E-03 0.  1.
    9900012    2    1    2    0    0  0.81073364455E+01  0.10026133902E+02  0.13580419164E+02  0.72461546787E+02  0.69999969378E+02 0.  0.
        -12    1    1    2    0    0 -0.81073364455E+01 -0.10026133902E+02 -0.13580419164E+02  0.18726453213E+02  0.00000000000E+00 0.  1.
         11    1    3    3    0    0  0.13758516603E+02  0.71674606682E+01  0.34222645412E+02  0.37574708659E+02  0.51100000000E-03 0. -1.
        -11    1    3    3    0    0  0.82080412442E+01  0.63660477435E+01 -0.78272787391E+00  0.10416869401E+02  0.51100000000E-03 0.  1.
        -12    1    3    3    0    0 -0.13859221402E+02 -0.35073745096E+01 -0.19859498374E+02  0.24469968727E+02  0.00000000000E+00 0.  1.
</event>
<event>
 7    1  0.3435518E-013  0.7246148E+02  0.7816164E-02  0.1226708E+00
        -11   -1    0    0    0    0  0.00000000000E+00  0.00000000000E+00  0.45593999997E+02  0.45594000000E+02  0.51100000000E-03 0.  1.
         11   -1    0    0    0    0 -0.00000000000E+00 -0.00000000000E+00 -0.45593999997E+02  0.45594000000E+02  0.51100000000E-03 0. -1.
    9900012    2    1    2    0    0  0.12544008442E+02 -0.13879505992E+02 -0.83059946054E+00  0.72461475233E+02  0.69999876165E+02 0.  0.
        -12    1    1    2    0    0 -0.12544008442E+02  0.13879505992E+02  0.83059946054E+00  0.18726524767E+02  0.00000000000E+00 0.  1.
         11    1    3    3    0    0 -0.76031507264E+01 -0.93194980289E+01  0.25314619807E+01  0.12291022923E+02  0.51100000000E-03 0. -1.
        -11    1    3    3    0    0 -0.14954753796E+02  0.47419033243E+00 -0.16573539666E+02  0.22328272098E+02  0.51100000000E-03 0.  1.
         12    1    3    3    0    0  0.35101912965E+02 -0.50341982956E+01  0.13211478225E+02  0.37842180212E+02  0.00000000000E+00 0. -1.
</event>
<event>
 7    1  0.3435518E-013  0.7246149E+02  0.7816164E-02  0.1226708E+00
        -11   -1    0    0    0    0  0.00000000000E+00  0.00000000000E+00  0.45593999997E+02  0.45594000000E+02  0.51100000000E-03 0.  1.
         11   -1    0    0    0    0 -0.00000000000E+00 -0.00000000000E+00 -0.45593999997E+02  0.45594000000E+02  0.51100000000E-03 0. -1.
    9900012    2    1    2    0    0  0.15720289385E+02  0.10162262353E+02  0.53207084655E+00  0.72461490078E+02  0.69999895503E+02 0.  0.
        -12    1    1    2    0    0 -0.15720289385E+02 -0.10162262353E+02 -0.53207084655E+00  0.18726509922E+02  0.00000000000E+00 0.  1.
         11    1    3    3    0    0 -0.16442720796E+02 -0.17579588860E+02 -0.82538303552E+01  0.25446625070E+02  0.51100000000E-03 0. -1.
        -11    1    3    3    0    0  0.17280805344E+01 -0.43175298639E+00 -0.33571337333E+01  0.38003973659E+01  0.51100000000E-03 0.  1.
        -12    1    3    3    0    0  0.30434929646E+02  0.28173604200E+02  0.12143034935E+02  0.43214467642E+02  0.00000000000E+00 0.  1.
</event>
<event>
 7    1  0.3435518E-013  0.7246158E+02  0.7816164E-02  0.1226708E+00
        -11   -1    0    0    0    0  0.00000000000E+00  0.00000000000E+00  0.45593999997E+02  0.45594000000E+02  0.51100000000E-03 0.  1.
         11   -1    0    0    0    0 -0.00000000000E+00 -0.00000000000E+00 -0.45593999997E+02  0.45594000000E+02  0.51100000000E-03 0. -1.
    9900012    2    1    2    0    0  0.13189141343E+01  0.86437585188E+01 -0.16559730957E+02  0.72461580556E+02  0.70000013368E+02 0.  0.
        -12    1    1    2    0    0 -0.13189141343E+01 -0.86437585188E+01  0.16559730957E+02  0.18726419444E+02  0.00000000000E+00 0.  1.
         11    1    3    3    0    0  0.12898061821E+02 -0.41117221904E+01 -0.28017849085E+02  0.31116974880E+02  0.51100000000E-03 0. -1.
        -11    1    3    3    0    0  0.32934122036E+01  0.88834724911E+01 -0.10755269710E+02  0.14333125069E+02  0.51100000000E-03 0.  1.
        -12    1    3    3    0    0 -0.14872559890E+02  0.38720082181E+01  0.22213387838E+02  0.27011480607E+02  0.00000000000E+00 0.  1.
</event>
<event>
 7    1  0.3435518E-013  0.7246157E+02  0.7816164E-02  0.1226708E+00
        -11   -1    0    0    0    0  0.00000000000E+00  0.00000000000E+00  0.45593999997E+02  0.45594000000E+02  0.51100000000E-03 0.  1.
         11   -1    0    0    0    0 -0.00000000000E+00 -0.00000000000E+00 -0.45593999997E+02  0.45594000000E+02  0.51100000000E-03 0. -1.
    9900012    2    1    2    0    0 -0.76408427441E+01 -0.95328314185E+01 -0.14192320216E+02  0.72461566655E+02  0.69999995259E+02 0.  0.
        -12    1    1    2    0    0  0.76408427441E+01  0.95328314185E+01  0.14192320216E+02  0.18726433345E+02  0.00000000000E+00 0.  1.
         11    1    3    3    0    0 -0.27044243818E+01 -0.23786896157E+02 -0.20974521543E+01  0.24031846492E+02  0.51100000000E-03 0. -1.
        -11    1    3    3    0    0 -0.19807594732E+02 -0.68210922297E+01 -0.73639834966E+01  0.22205773157E+02  0.51100000000E-03 0.  1.
        -12    1    3    3    0    0  0.14871176370E+02  0.21075156968E+02 -0.47308845652E+01  0.26223947007E+02  0.00000000000E+00 0.  1.
</event>
<event>
 7    1  0.3435518E-013  0.7246162E+02  0.7816164E-02  0.1226708E+00
        -11   -1    0    0    0    0  0.00000000000E+00  0.00000000000E+00  0.45593999997E+02  0.45594000000E+02  0.51100000000E-03 0.  1.
         11   -1    0    0    0    0 -0.00000000000E+00 -0.00000000000E+00 -0.45593999997E+02  0.45594000000E+02  0.51100000000E-03 0. -1.
    9900012    2    1    2    0    0  0.18476831329E+02 -0.30235370364E+01  0.37732960513E+00  0.72461616211E+02  0.70000059815E+02 0.  0.
        -12    1    1    2    0    0 -0.18476831329E+02  0.30235370364E+01 -0.37732960513E+00  0.18726383789E+02  0.00000000000E+00 0.  1.
         11    1    3    3    0    0  0.49311058929E+01  0.12233689674E+02 -0.26511510540E+02  0.29611470071E+02  0.51100000000E-03 0. -1.
        -11    1    3    3    0    0  0.58932791720E+01 -0.16230608643E+00 -0.43465420429E+01  0.73245826268E+01  0.51100000000E-03 0.  1.
        -12    1    3    3    0    0  0.76524462644E+01 -0.15094920624E+02  0.31235382188E+02  0.35525563513E+02  0.00000000000E+00 0.  1.
</event>
<event>
 7    1  0.3435518E-013  0.7246158E+02  0.7816164E-02  0.1226708E+00
        -11   -1    0    0    0    0  0.00000000000E+00  0.00000000000E+00  0.45593999997E+02  0.45594000000E+02  0.51100000000E-03 0. -1.
         11   -1    0    0    0    0 -0.00000000000E+00 -0.00000000000E+00 -0.45593999997E+02  0.45594000000E+02  0.51100000000E-03 0.  1.
    9900012    2    1    2    0    0  0.88565567120E+01 -0.36205250650E+01  0.16097583297E+02  0.72461575180E+02  0.70000006365E+02 0.  0.
        -12    1    1    2    0    0 -0.88565567120E+01  0.36205250650E+01 -0.16097583297E+02  0.18726424820E+02  0.00000000000E+00 0.  1.
         11    1    3    3    0    0  0.10413917658E+01 -0.99891163095E+01 -0.11768264924E+02  0.15471231400E+02  0.51100000000E-03 0. -1.
        -11    1    3    3    0    0  0.21717246489E+02  0.94493719943E+01 -0.21367887749E+01  0.23780144925E+02  0.51100000000E-03 0.  1.
         12    1    3    3    0    0 -0.13902081543E+02 -0.30807807498E+01  0.30002636996E+02  0.33210198854E+02  0.00000000000E+00 0. -1.
</event>
<event>
 7    1  0.3435518E-013  0.7246159E+02  0.7816164E-02  0.1226708E+00
        -11   -1    0    0    0    0  0.00000000000E+00  0.00000000000E+00  0.45593999997E+02  0.45594000000E+02  0.51100000000E-03 0.  1.
         11   -1    0    0    0    0 -0.00000000000E+00 -0.00000000000E+00 -0.45593999997E+02  0.45594000000E+02  0.51100000000E-03 0. -1.
    9900012    2    1    2    0    0 -0.47647377691E+01  0.33547880877E+01 -0.17796657329E+02  0.72461592410E+02  0.70000028810E+02 0.  0.
        -12    1    1    2    0    0  0.47647377691E+01 -0.33547880877E+01  0.17796657329E+02  0.18726407590E+02  0.00000000000E+00 0.  1.
         11    1    3    3    0    0 -0.10937944617E+02  0.42268123990E+00 -0.16352241229E+02  0.19677730696E+02  0.51100000000E-03 0. -1.
        -11    1    3    3    0    0 -0.52475440901E+01  0.23108594470E+02 -0.12837939986E+02  0.26951002963E+02  0.51100000000E-03 0.  1.
         12    1    3    3    0    0  0.11420750938E+02 -0.20176487622E+02  0.11393523886E+02  0.25832858752E+02  0.00000000000E+00 0. -1.
</event>
<event>
 7    1  0.3435518E-013  0.7246153E+02  0.7816164E-02  0.1226708E+00
        -11   -1    0    0    0    0  0.00000000000E+00  0.00000000000E+00  0.45593999997E+02  0.45594000000E+02  0.51100000000E-03 0. -1.
         11   -1    0    0    0    0 -0.00000000000E+00 -0.00000000000E+00 -0.45593999997E+02  0.45594000000E+02  0.51100000000E-03 0.  1.
    9900012    2    1    2    0    0 -0.29214816022E+01 -0.70525597637E+01  0.17099917349E+02  0.72461526031E+02  0.69999942339E+02 0.  0.
        -12    1    1    2    0    0  0.29214816022E+01  0.70525597637E+01 -0.17099917349E+02  0.18726473969E+02  0.00000000000E+00 0.  1.
         11    1    3    3    0    0 -0.99229361231E+01  0.93887567454E+01  0.10651562240E+02  0.17322505389E+02  0.51100000000E-03 0. -1.
        -11    1    3    3    0    0  0.36424106902E+01  0.16641053458E+02 -0.80765720276E+01  0.18852661133E+02  0.51100000000E-03 0.  1.
         12    1    3    3    0    0  0.33590438307E+01 -0.33082369967E+02  0.14524927136E+02  0.36286359509E+02  0.00000000000E+00 0. -1.
</event>
<event>
 7    1  0.3435518E-013  0.7246154E+02  0.7816164E-02  0.1226708E+00
        -11   -1    0    0    0    0  0.00000000000E+00  0.00000000000E+00  0.45593999997E+02  0.45594000000E+02  0.51100000000E-03 0.  1.
         11   -1    0    0    0    0 -0.00000000000E+00 -0.00000000000E+00 -0.45593999997E+02  0.45594000000E+02  0.51100000000E-03 0. -1.
    9900012    2    1    2    0    0 -0.40768216924E+01  0.10798413086E+02 -0.14746320522E+02  0.72461543602E+02  0.69999965228E+02 0.  0.
        -12    1    1    2    0    0  0.40768216924E+01 -0.10798413086E+02  0.14746320522E+02  0.18726456398E+02  0.00000000000E+00 0.  1.
         11    1    3    3    0    0  0.11939425269E+02  0.41129582621E+00 -0.32309420123E+02  0.34447317297E+02  0.51100000000E-03 0. -1.
        -11    1    3    3    0    0 -0.14085980729E+02 -0.62431743757E+01  0.27320112560E+01  0.15647874141E+02  0.51100000000E-03 0.  1.
        -12    1    3    3    0    0 -0.19302662328E+01  0.16630291635E+02  0.14831088345E+02  0.22366352163E+02  0.00000000000E+00 0.  1.
</event>
<event>
 7    1  0.3889127E-013  0.7246157E+02  0.7816164E-02  0.1226708E+00
        -11   -1    0    0    0    0  0.00000000000E+00  0.00000000000E+00  0.45593999997E+02  0.45594000000E+02  0.51100000000E-03 0. -1.
         11   -1    0    0    0    0 -0.00000000000E+00 -0.00000000000E+00 -0.45593999997E+02  0.45594000000E+02  0.51100000000E-03 0.  1.
    9900012    2    1    2    0    0 -0.12028847966E+02  0.12202621271E+02  0.75552553336E+01  0.72461573954E+02  0.70000004768E+02 0.  0.
        -12    1    1    2    0    0  0.12028847966E+02 -0.12202621271E+02 -0.75552553336E+01  0.18726426046E+02  0.00000000000E+00 0.  1.
         11    1    3    3    0    0 -0.69756236756E+01  0.44873795493E+01 -0.76001352766E+01  0.11249798103E+02  0.51100000000E-03 0. -1.
        -11    1    3    3    0    0 -0.10083798516E+02 -0.15026885622E+02 -0.14721619123E+02  0.23328445166E+02  0.51100000000E-03 0.  1.
         12    1    3    3    0    0  0.50305742254E+01  0.22742127344E+02  0.29877009733E+02  0.37883330685E+02  0.00000000000E+00 0. -1.
</event>
<event>
 7    1  0.3435518E-013  0.7246152E+02  0.7816164E-02  0.1226708E+00
        -11   -1    0    0    0    0  0.00000000000E+00  0.00000000000E+00  0.45593999997E+02  0.45594000000E+02  0.51100000000E-03 0.  1.
         11   -1    0    0    0    0 -0.00000000000E+00 -0.00000000000E+00 -0.45593999997E+02  0.45594000000E+02  0.51100000000E-03 0. -1.
    9900012    2    1    2    0    0 -0.94227186870E+01  0.15008248067E+02  0.60535957952E+01  0.72461517161E+02  0.69999930783E+02 0.  0.
        -12    1    1    2    0    0  0.94227186870E+01 -0.15008248067E+02 -0.60535957952E+01  0.18726482839E+02  0.00000000000E+00 0.  1.
         11    1    3    3    0    0 -0.10243324568E+02  0.30136671682E+02 -0.10530251199E+02  0.33526569596E+02  0.51100000000E-03 0. -1.
        -11    1    3    3    0    0  0.87705912023E+00  0.44452257031E+01 -0.69677001577E+01  0.83113242026E+01  0.51100000000E-03 0.  1.
        -12    1    3    3    0    0 -0.56453238900E-01 -0.19573649318E+02  0.23551547152E+02  0.30623623362E+02  0.00000000000E+00 0.  1.
</event>
<event>
 7    1  0.3435518E-013  0.7246156E+02  0.7816164E-02  0.1226708E+00
        -11   -1    0    0    0    0  0.00000000000E+00  0.00000000000E+00  0.45593999997E+02  0.45594000000E+02  0.51100000000E-03 0.  1.
         11   -1    0    0    0    0 -0.00000000000E+00 -0.00000000000E+00 -0.45593999997E+02  0.45594000000E+02  0.51100000000E-03 0. -1.
    9900012    2    1    2    0    0 -0.13391998861E+02  0.82803029791E+01 -0.10137575237E+02  0.72461561935E+02  0.69999989110E+02 0.  0.
        -12    1    1    2    0    0  0.13391998861E+02 -0.82803029791E+01  0.10137575237E+02  0.18726438065E+02  0.00000000000E+00 0.  1.
         11    1    3    3    0    0  0.15646683532E+02  0.83994457385E+01 -0.33226663681E+01  0.18066806755E+02  0.51100000000E-03 0. -1.
        -11    1    3    3    0    0 -0.92097670495E+01  0.20392308656E+02  0.59304832868E+01  0.23148146658E+02  0.51100000000E-03 0.  1.
        -12    1    3    3    0    0 -0.19828915344E+02 -0.20511451415E+02 -0.12745392156E+02  0.31246608521E+02  0.00000000000E+00 0.  1.
</event>
<event>
 7    1  0.3435518E-013  0.7246166E+02  0.7816164E-02  0.1226708E+00
        -11   -1    0    0    0    0  0.00000000000E+00  0.00000000000E+00  0.45593999997E+02  0.45594000000E+02  0.51100000000E-03 0.  1.
         11   -1    0    0    0    0 -0.00000000000E+00 -0.00000000000E+00 -0.45593999997E+02  0.45594000000E+02  0.51100000000E-03 0. -1.
    9900012    2    1    2    0    0  0.13304116873E+02 -0.13080534040E+01 -0.13113554712E+02  0.72461659015E+02  0.70000115575E+02 0.  0.
        -12    1    1    2    0    0 -0.13304116873E+02  0.13080534040E+01  0.13113554712E+02  0.18726340985E+02  0.00000000000E+00 0.  1.
         11    1    3    3    0    0  0.15167115773E+02  0.23315867732E+02 -0.65675227027E+01  0.28579773331E+02  0.51100000000E-03 0. -1.
        -11    1    3    3    0    0 -0.67246275620E+01  0.15910521270E+01 -0.14496908493E+02  0.16059651890E+02  0.51100000000E-03 0.  1.
        -12    1    3    3    0    0  0.48616286623E+01 -0.26214973263E+02  0.79508764832E+01  0.27822233794E+02  0.00000000000E+00 0.  1.
</event>
<event>
 7    1  0.3435518E-013  0.7246158E+02  0.7816164E-02  0.1226708E+00
        -11   -1    0    0    0    0  0.00000000000E+00  0.00000000000E+00  0.45593999997E+02  0.45594000000E+02  0.51100000000E-03 0. -1.
         11   -1    0    0    0    0 -0.00000000000E+00 -0.00000000000E+00 -0.45593999997E+02  0.45594000000E+02  0.51100000000E-03 0.  1.
    9900012    2    1    2    0    0 -0.16226177582E+02  0.74673323756E+01  0.56239460966E+01  0.72461583860E+02  0.70000017672E+02 0.  0.
        -12    1    1    2    0    0  0.16226177582E+02 -0.74673323756E+01 -0.56239460966E+01  0.18726416140E+02  0.00000000000E+00 0.  1.
         11    1    3    3    0    0 -0.91584316060E+01 -0.58163065951E+01  0.17113809022E+02  0.20262989695E+02  0.51100000000E-03 0. -1.
        -11    1    3    3    0    0 -0.10730631602E+02  0.73869828957E+01  0.17822136360E+02  0.22075835558E+02  0.51100000000E-03 0.  1.
        -12    1    3    3    0    0  0.36628856260E+01  0.58966560750E+01 -0.29311999285E+02  0.30122758607E+02  0.00000000000E+00 0.  1.
</event>
<event>
 7    1  0.3435518E-013  0.7246168E+02  0.7816164E-02  0.1226708E+00
        -11   -1    0    0    0    0  0.00000000000E+00  0.00000000000E+00  0.45593999997E+02  0.45594000000E+02  0.51100000000E-03 0. -1.
         11   -1    0    0    0    0 -0.00000000000E+00 -0.00000000000E+00 -0.45593999997E+02  0.45594000000E+02  0.51100000000E-03 0.  1.
    9900012    2    1    2    0    0  0.13990402716E+01  0.21842889539E+01  0.18545799217E+02  0.72461678938E+02  0.70000141529E+02 0.  0.
        -12    1    1    2    0    0 -0.13990402716E+01 -0.21842889539E+01 -0.18545799217E+02  0.18726321062E+02  0.00000000000E+00 0.  1.
         11    1    3    3    0    0 -0.10916413944E+02  0.78316333797E+00  0.17271244935E+02  0.20446939626E+02  0.51100000000E-03 0. -1.
        -11    1    3    3    0    0 -0.18603701529E+02 -0.40959877399E+01  0.66043473505E+01  0.20161652470E+02  0.51100000000E-03 0.  1.
        -12    1    3    3    0    0  0.30919155744E+02  0.54971133558E+01 -0.53297930683E+01  0.31853086842E+02  0.00000000000E+00 0.  1.
</event>
<event>
 7    1  0.3435518E-013  0.7246147E+02  0.7816164E-02  0.1226708E+00
        -11   -1    0    0    0    0  0.00000000000E+00  0.00000000000E+00  0.45593999997E+02  0.45594000000E+02  0.51100000000E-03 0.  1.
         11   -1    0    0    0    0 -0.00000000000E+00 -0.00000000000E+00 -0.45593999997E+02  0.45594000000E+02  0.51100000000E-03 0. -1.
    9900012    2    1    2    0    0  0.88403156108E+01 -0.15613615141E+02  0.53616161106E+01  0.72461465746E+02  0.69999863806E+02 0.  0.
        -12    1    1    2    0    0 -0.88403156108E+01  0.15613615141E+02 -0.53616161106E+01  0.18726534254E+02  0.00000000000E+00 0.  1.
         11    1    3    3    0    0  0.19497573836E+02 -0.22914699384E+01  0.19311639439E+01  0.19726520585E+02  0.51100000000E-03 0. -1.
        -11    1    3    3    0    0 -0.24402298115E+02 -0.22715944233E+02  0.10046957039E+02  0.34819931386E+02  0.51100000000E-03 0.  1.
         12    1    3    3    0    0  0.13745039890E+02  0.93937990311E+01 -0.66165048725E+01  0.17915013775E+02  0.00000000000E+00 0. -1.
</event>
<event>
 7    1  0.3435518E-013  0.7246169E+02  0.7816164E-02  0.1226708E+00
        -11   -1    0    0    0    0  0.00000000000E+00  0.00000000000E+00  0.45593999997E+02  0.45594000000E+02  0.51100000000E-03 0.  1.
         11   -1    0    0    0    0 -0.00000000000E+00 -0.00000000000E+00 -0.45593999997E+02  0.45594000000E+02  0.51100000000E-03 0. -1.
    9900012    2    1    2    0    0 -0.12755893718E+02  0.10183500813E+01 -0.13672048391E+02  0.72461687799E+02  0.70000153071E+02 0.  0.
        -12    1    1    2    0    0  0.12755893718E+02 -0.10183500813E+01  0.13672048391E+02  0.18726312201E+02  0.00000000000E+00 0.  1.
         11    1    3    3    0    0 -0.12406986080E+02  0.26977130169E+02 -0.18962951812E+02  0.35231979755E+02  0.51100000000E-03 0. -1.
        -11    1    3    3    0    0 -0.56160803257E+01  0.18719919436E+01  0.66110367650E+01  0.88741489412E+01  0.51100000000E-03 0.  1.
        -12    1    3    3    0    0  0.52671726869E+01 -0.27830772032E+02 -0.13201333440E+01  0.28355559103E+02  0.00000000000E+00 0.  1.
</event>
<event>
 7    1  0.3435518E-013  0.7246159E+02  0.7816164E-02  0.1226708E+00
        -11   -1    0    0    0    0  0.00000000000E+00  0.00000000000E+00  0.45593999997E+02  0.45594000000E+02  0.51100000000E-03 0.  1.
         11   -1    0    0    0    0 -0.00000000000E+00 -0.00000000000E+00 -0.45593999997E+02  0.45594000000E+02  0.51100000000E-03 0. -1.
    9900012    2    1    2    0    0  0.11363332219E+02 -0.64043080507E+01 -0.13436447776E+02  0.72461585245E+02  0.70000019476E+02 0.  0.
        -12    1    1    2    0    0 -0.11363332219E+02  0.64043080507E+01  0.13436447776E+02  0.18726414755E+02  0.00000000000E+00 0.  1.
         11    1    3    3    0    0 -0.85109894600E+00 -0.42676914035E+01  0.44019682186E+01  0.61899017593E+01  0.51100000000E-03 0. -1.
        -11    1    3    3    0    0  0.26805639667E+02 -0.12257016145E+01  0.14702516770E+02  0.30597527057E+02  0.51100000000E-03 0.  1.
         12    1    3    3    0    0 -0.14591208502E+02 -0.91091503268E+00 -0.32540932764E+02  0.35674156429E+02  0.00000000000E+00 0. -1.
</event>
<event>
 7    1  0.3435518E-013  0.7246111E+02  0.7816164E-02  0.1226709E+00
        -11   -1    0    0    0    0  0.00000000000E+00  0.00000000000E+00  0.45593999997E+02  0.45594000000E+02  0.51100000000E-03 0.  1.
         11   -1    0    0    0    0 -0.00000000000E+00 -0.00000000000E+00 -0.45593999997E+02  0.45594000000E+02  0.51100000000E-03 0. -1.
    9900012    2    1    2    0    0  0.33072974670E+01 -0.16237035588E+02 -0.87245016683E+01  0.72461108358E+02  0.69999398239E+02 0.  0.
        -12    1    1    2    0    0 -0.33072974670E+01  0.16237035588E+02  0.87245016683E+01  0.18726891642E+02  0.00000000000E+00 0.  1.
         11    1    3    3    0    0  0.41135403744E+01 -0.31936792787E+02 -0.13322229863E+02  0.34847693708E+02  0.51100000000E-03 0. -1.
        -11    1    3    3    0    0 -0.14653779708E+02 -0.19093188465E+01  0.34912787958E+01  0.15184458702E+02  0.51100000000E-03 0.  1.
        -12    1    3    3    0    0  0.13847536801E+02  0.17609076046E+02  0.11064493991E+01  0.22428955948E+02  0.00000000000E+00 0.  1.
</event>
<event>
 7    1  0.3435518E-013  0.7246156E+02  0.7816164E-02  0.1226708E+00
        -11   -1    0    0    0    0  0.00000000000E+00  0.00000000000E+00  0.45593999997E+02  0.45594000000E+02  0.51100000000E-03 0.  1.
         11   -1    0    0    0    0 -0.00000000000E+00 -0.00000000000E+00 -0.45593999997E+02  0.45594000000E+02  0.51100000000E-03 0. -1.
    9900012    2    1    2    0    0 -0.10752219021E+02 -0.82223414697E+01 -0.12940727145E+02  0.72461560612E+02  0.69999987387E+02 0.  0.
        -12    1    1    2    0    0  0.10752219021E+02  0.82223414697E+01  0.12940727145E+02  0.18726439388E+02  0.00000000000E+00 0.  1.
         11    1    3    3    0    0 -0.27127848452E+01 -0.16536247286E+02 -0.21752064955E+02  0.27458313968E+02  0.51100000000E-03 0. -1.
        -11    1    3    3    0    0  0.16561211682E+02  0.15511316456E+01  0.10095610962E+02  0.19457674648E+02  0.51100000000E-03 0.  1.
         12    1    3    3    0    0 -0.24600645857E+02  0.67627741706E+01 -0.12842731516E+01  0.25545571996E+02  0.00000000000E+00 0. -1.
</event>
<event>
 7    1  0.3435518E-013  0.7246157E+02  0.7816164E-02  0.1226708E+00
        -11   -1    0    0    0    0  0.00000000000E+00  0.00000000000E+00  0.45593999997E+02  0.45594000000E+02  0.51100000000E-03 0. -1.
         11   -1    0    0    0    0 -0.00000000000E+00 -0.00000000000E+00 -0.45593999997E+02  0.45594000000E+02  0.51100000000E-03 0.  1.
    9900012    2    1    2    0    0 -0.18149129063E+02  0.21492314251E+00 -0.46089248602E+01  0.72461567716E+02  0.69999996642E+02 0.  0.
        -12    1    1    2    0    0  0.18149129063E+02 -0.21492314251E+00  0.46089248602E+01  0.18726432284E+02  0.00000000000E+00 0.  1.
         11    1    3    3    0    0 -0.26860980220E+02  0.52784431718E+01  0.54303518776E+01  0.27908116068E+02  0.51100000000E-03 0. -1.
        -11    1    3    3    0    0 -0.41529157340E+01  0.11301863848E+02  0.10005256590E+02  0.15655158742E+02  0.51100000000E-03 0.  1.
        -12    1    3    3    0    0  0.12864766890E+02 -0.16365383877E+02 -0.20044533328E+02  0.28898292907E+02  0.00000000000E+00 0.  1.
</event>
<event>
 7    1  0.3435518E-013  0.7246160E+02  0.7816164E-02  0.1226708E+00
        -11   -1    0    0    0    0  0.00000000000E+00  0.00000000000E+00  0.45593999997E+02  0.45594000000E+02  0.51100000000E-03 0.  1.
         11   -1    0    0    0    0 -0.00000000000E+00 -0.00000000000E+00 -0.45593999997E+02  0.45594000000E+02  0.51100000000E-03 0. -1.
    9900012    2    1    2    0    0  0.10269235067E+02  0.15502868981E+02 -0.22095152579E+01  0.72461599034E+02  0.70000037438E+02 0.  0.
        -12    1    1    2    0    0 -0.10269235067E+02 -0.15502868981E+02  0.22095152579E+01  0.18726400966E+02  0.00000000000E+00 0.  1.
         11    1    3    3    0    0  0.29987285749E+01  0.10189605409E+01 -0.14203903615E+02  0.14552715617E+02  0.51100000000E-03 0. -1.
        -11    1    3    3    0    0 -0.15179807705E+02  0.18815576413E+02 -0.10019457105E+02  0.26169486022E+02  0.51100000000E-03 0.  1.
         12    1    3    3    0    0  0.22450314196E+02 -0.43316679730E+01  0.22013845463E+02  0.31739397395E+02  0.00000000000E+00 0. -1.
</event>
<event>
 7    1  0.3435518E-013  0.7246165E+02  0.7816164E-02  0.1226708E+00
        -11   -1    0    0    0    0  0.00000000000E+00  0.00000000000E+00  0.45593999997E+02  0.45594000000E+02  0.51100000000E-03 0.  1.
         11   -1    0    0    0    0 -0.00000000000E+00 -0.00000000000E+00 -0.45593999997E+02  0.45594000000E+02  0.51100000000E-03 0. -1.
    9900012    2    1    2    0    0 -0.16491697832E+02 -0.77161043469E+01 -0.43774248425E+01  0.72461649263E+02  0.70000102872E+02 0.  0.
        -12    1    1    2    0    0  0.16491697832E+02  0.77161043469E+01  0.43774248425E+01  0.18726350737E+02  0.00000000000E+00 0.  1.
         11    1    3    3    0    0  0.18862172785E+02 -0.37033879732E+01  0.19691877535E-01  0.19222305603E+02  0.51100000000E-03 0. -1.
        -11    1    3    3    0    0  0.64613216685E+00  0.12520138288E+02 -0.53076173864E+01  0.13614042461E+02  0.51100000000E-03 0.  1.
         12    1    3    3    0    0 -0.36000002784E+02 -0.16532854662E+02  0.91050066642E+00  0.39625301200E+02  0.00000000000E+00 0. -1.
</event>
<event>
 7    1  0.3435518E-013  0.7246162E+02  0.7816164E-02  0.1226708E+00
        -11   -1    0    0    0    0  0.00000000000E+00  0.00000000000E+00  0.45593999997E+02  0.45594000000E+02  0.51100000000E-03 0.  1.
         11   -1    0    0    0    0 -0.00000000000E+00 -0.00000000000E+00 -0.45593999997E+02  0.45594000000E+02  0.51100000000E-03 0. -1.
    9900012    2    1    2    0    0  0.70232600273E+01 -0.16706426876E+02 -0.47165963662E+01  0.72461623905E+02  0.70000069838E+02 0.  0.
        -12    1    1    2    0    0 -0.70232600273E+01  0.16706426876E+02  0.47165963662E+01  0.18726376095E+02  0.00000000000E+00 0.  1.
         11    1    3    3    0    0 -0.38446216885E+01  0.24785599377E+02  0.76648459076E+01  0.26227026432E+02  0.51100000000E-03 0. -1.
        -11    1    3    3    0    0  0.78166357048E+01 -0.10899023713E+02 -0.99526391674E+00  0.13449128677E+02  0.51100000000E-03 0.  1.
        -12    1    3    3    0    0  0.30512460109E+01 -0.30593002540E+02 -0.11386178357E+02  0.32785468796E+02  0.00000000000E+00 0.  1.
</event>
<event>
 7    1  0.3435518E-013  0.7246162E+02  0.7816164E-02  0.1226708E+00
        -11   -1    0    0    0    0  0.00000000000E+00  0.00000000000E+00  0.45593999997E+02  0.45594000000E+02  0.51100000000E-03 0. -1.
         11   -1    0    0    0    0 -0.00000000000E+00 -0.00000000000E+00 -0.45593999997E+02  0.45594000000E+02  0.51100000000E-03 0.  1.
    9900012    2    1    2    0    0 -0.15568730627E+02 -0.99493144492E+01  0.30501093571E+01  0.72461617583E+02  0.70000061602E+02 0.  0.
        -12    1    1    2    0    0  0.15568730627E+02  0.99493144492E+01 -0.30501093571E+01  0.18726382417E+02  0.00000000000E+00 0.  1.
         11    1    3    3    0    0  0.19737871704E+01 -0.15848611630E+02 -0.18258266673E+01  0.16075072929E+02  0.51100000000E-03 0. -1.
        -11    1    3    3    0    0 -0.18150194738E+02 -0.12164882383E+02 -0.17234371035E+02  0.27828716780E+02  0.51100000000E-03 0.  1.
        -12    1    3    3    0    0  0.60767694043E+00  0.18064179564E+02  0.22110307059E+02  0.28557827873E+02  0.00000000000E+00 0.  1.
</event>
<event>
 7    1  0.3435518E-013  0.7246149E+02  0.7816164E-02  0.1226708E+00
        -11   -1    0    0    0    0  0.00000000000E+00  0.00000000000E+00  0.45593999997E+02  0.45594000000E+02  0.51100000000E-03 0. -1.
         11   -1    0    0    0    0 -0.00000000000E+00 -0.00000000000E+00 -0.45593999997E+02  0.45594000000E+02  0.51100000000E-03 0.  1.
    9900012    2    1    2    0    0 -0.74133228772E+01  0.15587787517E+02  0.72626169063E+01  0.72461492582E+02  0.69999898765E+02 0.  0.
        -12    1    1    2    0    0  0.74133228772E+01 -0.15587787517E+02 -0.72626169063E+01  0.18726507418E+02  0.00000000000E+00 0.  1.
         11    1    3    3    0    0  0.61754449848E+01  0.13137072034E+02  0.80135754675E+01  0.16581199427E+02  0.51100000000E-03 0. -1.
        -11    1    3    3    0    0 -0.49525988676E+01  0.11176001174E+02  0.24735473134E+02  0.27591209999E+02  0.51100000000E-03 0.  1.
        -12    1    3    3    0    0 -0.86361689944E+01 -0.87252856909E+01 -0.25486431695E+02  0.28289083157E+02  0.00000000000E+00 0.  1.
</event>
<event>
 7    1  0.3543050E-013  0.7246155E+02  0.7816164E-02  0.1226708E+00
        -11   -1    0    0    0    0  0.00000000000E+00  0.00000000000E+00  0.45593999997E+02  0.45594000000E+02  0.51100000000E-03 0. -1.
         11   -1    0    0    0    0 -0.00000000000E+00 -0.00000000000E+00 -0.45593999997E+02  0.45594000000E+02  0.51100000000E-03 0.  1.
    9900012    2    1    2    0    0 -0.38002924318E+01  0.78617530312E+01  0.16565947680E+02  0.72461547965E+02  0.69999970912E+02 0.  0.
        -12    1    1    2    0    0  0.38002924318E+01 -0.78617530312E+01 -0.16565947680E+02  0.18726452035E+02  0.00000000000E+00 0.  1.
         11    1    3    3    0    0 -0.33329435787E+01  0.20392096013E+02  0.89432522203E+01  0.22515058366E+02  0.51100000000E-03 0. -1.
        -11    1    3    3    0    0 -0.17889406294E+02 -0.52584234392E+01 -0.12426673227E+02  0.22407679094E+02  0.51100000000E-03 0.  1.
         12    1    3    3    0    0  0.17422057441E+02 -0.72719195423E+01  0.20049368687E+02  0.27538810505E+02  0.00000000000E+00 0. -1.
</event>
<event>
 7    1  0.3435518E-013  0.7246160E+02  0.7816164E-02  0.1226708E+00
        -11   -1    0    0    0    0  0.00000000000E+00  0.00000000000E+00  0.45593999997E+02  0.45594000000E+02  0.51100000000E-03 0. -1.
         11   -1    0    0    0    0 -0.00000000000E+00 -0.00000000000E+00 -0.45593999997E+02  0.45594000000E+02  0.51100000000E-03 0.  1.
    9900012    2    1    2    0    0  0.17267574154E+02 -0.72461823104E+01 -0.40739833162E-01  0.72461603257E+02  0.70000042940E+02 0.  0.
        -12    1    1    2    0    0 -0.17267574154E+02  0.72461823104E+01  0.40739833162E-01  0.18726396743E+02  0.00000000000E+00 0.  1.
         11    1    3    3    0    0  0.13364287594E+01  0.83060990474E+01  0.20313495899E+01  0.86546926364E+01  0.51100000000E-03 0. -1.
        -11    1    3    3    0    0 -0.72188705688E+01  0.14753649101E+02 -0.16264634796E+02  0.23115375822E+02  0.51100000000E-03 0.  1.
         12    1    3    3    0    0  0.23150015963E+02 -0.30305930459E+02  0.14192545373E+02  0.40691534798E+02  0.00000000000E+00 0. -1.
</event>
<event>
 7    1  0.3435518E-013  0.7246158E+02  0.7816164E-02  0.1226708E+00
        -11   -1    0    0    0    0  0.00000000000E+00  0.00000000000E+00  0.45593999997E+02  0.45594000000E+02  0.51100000000E-03 0.  1.
         11   -1    0    0    0    0 -0.00000000000E+00 -0.00000000000E+00 -0.45593999997E+02  0.45594000000E+02  0.51100000000E-03 0. -1.
    9900012    2    1    2    0    0  0.52247721884E+01  0.17668802994E+02 -0.33457280672E+01  0.72461581764E+02  0.70000014941E+02 0.  0.
        -12    1    1    2    0    0 -0.52247721884E+01 -0.17668802994E+02  0.33457280672E+01  0.18726418236E+02  0.00000000000E+00 0.  1.
         11    1    3    3    0    0  0.19327208306E+02  0.15283346584E+02 -0.27827900260E+01  0.24796483306E+02  0.51100000000E-03 0. -1.
        -11    1    3    3    0    0 -0.91820184224E+01  0.12971338606E+02  0.19069906128E+02  0.24823907983E+02  0.51100000000E-03 0.  1.
        -12    1    3    3    0    0 -0.49204176957E+01 -0.10585882197E+02 -0.19632844169E+02  0.22841190476E+02  0.00000000000E+00 0.  1.
</event>
<event>
 7    1  0.3435518E-013  0.7246156E+02  0.7816164E-02  0.1226708E+00
        -11   -1    0    0    0    0  0.00000000000E+00  0.00000000000E+00  0.45593999997E+02  0.45594000000E+02  0.51100000000E-03 0.  1.
         11   -1    0    0    0    0 -0.00000000000E+00 -0.00000000000E+00 -0.45593999997E+02  0.45594000000E+02  0.51100000000E-03 0. -1.
    9900012    2    1    2    0    0 -0.90302573615E+01  0.15225620040E+02 -0.61085570476E+01  0.72461560861E+02  0.69999987712E+02 0.  0.
        -12    1    1    2    0    0  0.90302573615E+01 -0.15225620040E+02  0.61085570476E+01  0.18726439139E+02  0.00000000000E+00 0.  1.
         11    1    3    3    0    0 -0.17433977181E+02  0.41549092420E+01 -0.21066818728E+02  0.27658953030E+02  0.51100000000E-03 0. -1.
        -11    1    3    3    0    0 -0.13702108609E+02  0.10069566130E+02 -0.17225360274E+01  0.17091257209E+02  0.51100000000E-03 0.  1.
         12    1    3    3    0    0  0.22105828428E+02  0.10011446681E+01  0.16680797707E+02  0.27711350622E+02  0.00000000000E+00 0. -1.
</event>
<event>
 7    1  0.3435518E-013  0.7246157E+02  0.7816164E-02  0.1226708E+00
        -11   -1    0    0    0    0  0.00000000000E+00  0.00000000000E+00  0.45593999997E+02  0.45594000000E+02  0.51100000000E-03 0.  1.
         11   -1    0    0    0    0 -0.00000000000E+00 -0.00000000000E+00 -0.45593999997E+02  0.45594000000E+02  0.51100000000E-03 0. -1.
    9900012    2    1    2    0    0  0.14890719900E+02  0.56230436724E+01 -0.98654445634E+01  0.72461570663E+02  0.70000000481E+02 0.  0.
        -12    1    1    2    0    0 -0.14890719900E+02 -0.56230436724E+01  0.98654445634E+01  0.18726429337E+02  0.00000000000E+00 0.  1.
         11    1    3    3    0    0  0.17423649619E+01  0.23724709860E+01 -0.23046804940E+01  0.37384497696E+01  0.51100000000E-03 0. -1.
        -11    1    3    3    0    0  0.39382956196E+02 -0.33439566665E+01 -0.12009689401E+02  0.41308981163E+02  0.51100000000E-03 0.  1.
         12    1    3    3    0    0 -0.26234601258E+02  0.65945293528E+01  0.44489253320E+01  0.27414139731E+02  0.00000000000E+00 0. -1.
</event>
<event>
 7    1  0.3435518E-013  0.7246156E+02  0.7816164E-02  0.1226708E+00
        -11   -1    0    0    0    0  0.00000000000E+00  0.00000000000E+00  0.45593999997E+02  0.45594000000E+02  0.51100000000E-03 0.  1.
         11   -1    0    0    0    0 -0.00000000000E+00 -0.00000000000E+00 -0.45593999997E+02  0.45594000000E+02  0.51100000000E-03 0. -1.
    9900012    2    1    2    0    0  0.45061351238E+01 -0.13075016524E+02 -0.12626088208E+02  0.72461563759E+02  0.69999991487E+02 0.  0.
        -12    1    1    2    0    0 -0.45061351238E+01  0.13075016524E+02  0.12626088208E+02  0.18726436241E+02  0.00000000000E+00 0.  1.
         11    1    3    3    0    0  0.21740380553E+02  0.39461969252E+00 -0.18276594091E+02  0.28404819365E+02  0.51100000000E-03 0. -1.
        -11    1    3    3    0    0  0.10402005907E+02 -0.11550458696E+02  0.50628630559E+01  0.16347703373E+02  0.51100000000E-03 0.  1.
         12    1    3    3    0    0 -0.27636251336E+02 -0.19191775198E+01  0.58764282765E+00  0.27709041022E+02  0.00000000000E+00 0. -1.
</event>
<event>
 7    1  0.3435518E-013  0.7246163E+02  0.7816164E-02  0.1226708E+00
        -11   -1    0    0    0    0  0.00000000000E+00  0.00000000000E+00  0.45593999997E+02  0.45594000000E+02  0.51100000000E-03 0.  1.
         11   -1    0    0    0    0 -0.00000000000E+00 -0.00000000000E+00 -0.45593999997E+02  0.45594000000E+02  0.51100000000E-03 0. -1.
    9900012    2    1    2    0    0  0.63657984480E+01 -0.11478857873E+02 -0.13356253328E+02  0.72461626327E+02  0.70000072993E+02 0.  0.
        -12    1    1    2    0    0 -0.63657984480E+01  0.11478857873E+02  0.13356253328E+02  0.18726373673E+02  0.00000000000E+00 0.  1.
         11    1    3    3    0    0  0.15600905801E+02 -0.18976655616E+02 -0.70397868430E+01  0.25555044888E+02  0.51100000000E-03 0. -1.
        -11    1    3    3    0    0  0.17581516430E+02 -0.76146041806E+00 -0.67376790464E+01  0.18843722062E+02  0.51100000000E-03 0.  1.
        -12    1    3    3    0    0 -0.26816623782E+02  0.82592581606E+01  0.42121256109E+00  0.28062859378E+02  0.00000000000E+00 0.  1.
</event>
<event>
 7    1  0.3435518E-013  0.7246149E+02  0.7816164E-02  0.1226708E+00
        -11   -1    0    0    0    0  0.00000000000E+00  0.00000000000E+00  0.45593999997E+02  0.45594000000E+02  0.51100000000E-03 0. -1.
         11   -1    0    0    0    0 -0.00000000000E+00 -0.00000000000E+00 -0.45593999997E+02  0.45594000000E+02  0.51100000000E-03 0.  1.
    9900012    2    1    2    0    0 -0.38376139901E+01  0.78252246014E+01  0.16574698432E+02  0.72461493403E+02  0.69999899835E+02 0.  0.
        -12    1    1    2    0    0  0.38376139901E+01 -0.78252246014E+01 -0.16574698432E+02  0.18726506597E+02  0.00000000000E+00 0.  1.
         11    1    3    3    0    0  0.47180177193E+01 -0.74580610448E+01  0.23908084010E+02  0.25484874868E+02  0.51100000000E-03 0. -1.
        -11    1    3    3    0    0 -0.15840004386E+02  0.36872507902E+01  0.14111562832E+02  0.21532249375E+02  0.51100000000E-03 0.  1.
        -12    1    3    3    0    0  0.72843726765E+01  0.11596034856E+02 -0.21444948409E+02  0.25444369160E+02  0.00000000000E+00 0.  1.
</event>
<event>
 7    1  0.3435518E-013  0.7246157E+02  0.7816164E-02  0.1226708E+00
        -11   -1    0    0    0    0  0.00000000000E+00  0.00000000000E+00  0.45593999997E+02  0.45594000000E+02  0.51100000000E-03 0.  1.
         11   -1    0    0    0    0 -0.00000000000E+00 -0.00000000000E+00 -0.45593999997E+02  0.45594000000E+02  0.51100000000E-03 0. -1.
    9900012    2    1    2    0    0  0.56231053039E+01 -0.17816017539E+02 -0.12843225558E+01  0.72461567381E+02  0.69999996205E+02 0.  0.
        -12    1    1    2    0    0 -0.56231053039E+01  0.17816017539E+02  0.12843225558E+01  0.18726432619E+02  0.00000000000E+00 0.  1.
         11    1    3    3    0    0 -0.12921766820E+02  0.41028750770E+01 -0.59258814895E+01  0.14796003290E+02  0.51100000000E-03 0. -1.
        -11    1    3    3    0    0  0.15972913908E+02 -0.21974864614E+02  0.25135310125E+02  0.37010977680E+02  0.51100000000E-03 0.  1.
         12    1    3    3    0    0  0.25719582159E+01  0.55971998251E-01 -0.20493751191E+02  0.20654586411E+02  0.00000000000E+00 0. -1.
</event>
<event>
 7    1  0.3435518E-013  0.7246162E+02  0.7816164E-02  0.1226708E+00
        -11   -1    0    0    0    0  0.00000000000E+00  0.00000000000E+00  0.45593999997E+02  0.45594000000E+02  0.51100000000E-03 0.  1.
         11   -1    0    0    0    0 -0.00000000000E+00 -0.00000000000E+00 -0.45593999997E+02  0.45594000000E+02  0.51100000000E-03 0. -1.
    9900012    2    1    2    0    0 -0.84585628768E+01  0.62438206308E+00 -0.16695517588E+02  0.72461616301E+02  0.70000059932E+02 0.  0.
        -12    1    1    2    0    0  0.84585628768E+01 -0.62438206308E+00  0.16695517588E+02  0.18726383699E+02  0.00000000000E+00 0.  1.
         11    1    3    3    0    0  0.15314654209E+02  0.50188981705E+01 -0.17914564985E+02  0.24096879700E+02  0.51100000000E-03 0. -1.
        -11    1    3    3    0    0  0.55305379959E+01  0.11387701970E+02  0.71765602882E+01  0.14552306502E+02  0.51100000000E-03 0.  1.
        -12    1    3    3    0    0 -0.29303755082E+02 -0.15782218078E+02 -0.59575128916E+01  0.33812430099E+02  0.00000000000E+00 0.  1.
</event>
<event>
 7    1  0.3435518E-013  0.7246156E+02  0.7816164E-02  0.1226708E+00
        -11   -1    0    0    0    0  0.00000000000E+00  0.00000000000E+00  0.45593999997E+02  0.45594000000E+02  0.51100000000E-03 0.  1.
         11   -1    0    0    0    0 -0.00000000000E+00 -0.00000000000E+00 -0.45593999997E+02  0.45594000000E+02  0.51100000000E-03 0. -1.
    9900012    2    1    2    0    0 -0.18128616413E+02 -0.34233781036E+01  0.32114195628E+01  0.72461562370E+02  0.69999989677E+02 0.  0.
        -12    1    1    2    0    0  0.18128616413E+02  0.34233781036E+01 -0.32114195628E+01  0.18726437630E+02  0.00000000000E+00 0.  1.
         11    1    3    3    0    0 -0.11064165705E+02 -0.52154828716E+00  0.25871822793E+01  0.11374589565E+02  0.51100000000E-03 0. -1.
        -11    1    3    3    0    0 -0.23491557939E+02 -0.18299326442E+02  0.16017792831E+02  0.33812546932E+02  0.51100000000E-03 0.  1.
         12    1    3    3    0    0  0.16427107231E+02  0.15397496626E+02 -0.15393555547E+02  0.27274425873E+02  0.00000000000E+00 0. -1.
</event>
<event>
 7    1  0.3435518E-013  0.7246157E+02  0.7816164E-02  0.1226708E+00
        -11   -1    0    0    0    0  0.00000000000E+00  0.00000000000E+00  0.45593999997E+02  0.45594000000E+02  0.51100000000E-03 0.  1.
         11   -1    0    0    0    0 -0.00000000000E+00 -0.00000000000E+00 -0.45593999997E+02  0.45594000000E+02  0.51100000000E-03 0. -1.
    9900012    2    1    2    0    0 -0.28928867224E+01 -0.18143289165E+02 -0.36237353181E+01  0.72461569668E+02  0.69999999185E+02 0.  0.
        -12    1    1    2    0    0  0.28928867224E+01  0.18143289165E+02  0.36237353181E+01  0.18726430332E+02  0.00000000000E+00 0.  1.
         11    1    3    3    0    0 -0.33608333005E+01  0.60035989002E+01  0.13146802393E+02  0.14838356164E+02  0.51100000000E-03 0. -1.
        -11    1    3    3    0    0 -0.13686323069E+02 -0.56899970273E+01  0.13088693107E+02  0.19773856296E+02  0.51100000000E-03 0.  1.
         12    1    3    3    0    0  0.14154269647E+02 -0.18456891038E+02 -0.29859230818E+02  0.37849357208E+02  0.00000000000E+00 0. -1.
</event>
<event>
 7    1  0.3435518E-013  0.7246156E+02  0.7816164E-02  0.1226708E+00
        -11   -1    0    0    0    0  0.00000000000E+00  0.00000000000E+00  0.45593999997E+02  0.45594000000E+02  0.51100000000E-03 0.  1.
         11   -1    0    0    0    0 -0.00000000000E+00 -0.00000000000E+00 -0.45593999997E+02  0.45594000000E+02  0.51100000000E-03 0. -1.
    9900012    2    1    2    0    0 -0.32614867691E+01 -0.25078871260E+01 -0.18268897914E+02  0.72461563479E+02  0.69999991122E+02 0.  0.
        -12    1    1    2    0    0  0.32614867691E+01  0.25078871260E+01  0.18268897914E+02  0.18726436521E+02  0.00000000000E+00 0.  1.
         11    1    3    3    0    0  0.21082526439E+01  0.24271466870E+01  0.90430451200E+01  0.95975223654E+01  0.51100000000E-03 0. -1.
        -11    1    3    3    0    0  0.13423033874E+02  0.15575945690E+02  0.40344169583E+01  0.20953864631E+02  0.51100000000E-03 0.  1.
         12    1    3    3    0    0 -0.18792773287E+02 -0.20510979503E+02 -0.31346359992E+02  0.41910176482E+02  0.00000000000E+00 0. -1.
</event>
<event>
 7    1  0.3435518E-013  0.7246156E+02  0.7816164E-02  0.1226708E+00
        -11   -1    0    0    0    0  0.00000000000E+00  0.00000000000E+00  0.45593999997E+02  0.45594000000E+02  0.51100000000E-03 0. -1.
         11   -1    0    0    0    0 -0.00000000000E+00 -0.00000000000E+00 -0.45593999997E+02  0.45594000000E+02  0.51100000000E-03 0.  1.
    9900012    2    1    2    0    0  0.16606552644E+02  0.86292473456E+01  0.66196405481E+00  0.72461556214E+02  0.69999981658E+02 0.  0.
        -12    1    1    2    0    0 -0.16606552644E+02 -0.86292473456E+01 -0.66196405481E+00  0.18726443786E+02  0.00000000000E+00 0.  1.
         11    1    3    3    0    0 -0.12879694232E+02  0.12718501494E+02 -0.78067533286E+01  0.19712742112E+02  0.51100000000E-03 0.  1.
        -11    1    3    3    0    0  0.79517974718E+01 -0.22303030803E+02  0.60639135826E+01  0.24442326285E+02  0.51100000000E-03 0. -1.
        -12    1    3    3    0    0  0.21534449405E+02  0.18213776655E+02  0.24048038008E+01  0.28306487817E+02  0.00000000000E+00 0.  1.
</event>
<event>
 7    1  0.3435518E-013  0.7246157E+02  0.7816164E-02  0.1226708E+00
        -11   -1    0    0    0    0  0.00000000000E+00  0.00000000000E+00  0.45593999997E+02  0.45594000000E+02  0.51100000000E-03 0. -1.
         11   -1    0    0    0    0 -0.00000000000E+00 -0.00000000000E+00 -0.45593999997E+02  0.45594000000E+02  0.51100000000E-03 0.  1.
    9900012    2    1    2    0    0 -0.11142781643E+02 -0.43164013983E+01  0.14418267943E+02  0.72461565362E+02  0.69999993575E+02 0.  0.
        -12    1    1    2    0    0  0.11142781643E+02  0.43164013983E+01 -0.14418267943E+02  0.18726434638E+02  0.00000000000E+00 0.  1.
         11    1    3    3    0    0 -0.24965213206E+01  0.11647293774E+02  0.69469422944E+01  0.13789564115E+02  0.51100000000E-03 0. -1.
        -11    1    3    3    0    0 -0.17188788060E+02  0.13289234657E+02  0.16050705230E+02  0.27012651321E+02  0.51100000000E-03 0.  1.
        -12    1    3    3    0    0  0.85425277376E+01 -0.29252929830E+02 -0.85793795813E+01  0.31659349927E+02  0.00000000000E+00 0.  1.
</event>
<event>
 7    1  0.3435518E-013  0.7246159E+02  0.7816164E-02  0.1226708E+00
        -11   -1    0    0    0    0  0.00000000000E+00  0.00000000000E+00  0.45593999997E+02  0.45594000000E+02  0.51100000000E-03 0.  1.
         11   -1    0    0    0    0 -0.00000000000E+00 -0.00000000000E+00 -0.45593999997E+02  0.45594000000E+02  0.51100000000E-03 0. -1.
    9900012    2    1    2    0    0 -0.67065019970E+01 -0.14175395182E+02 -0.10235205251E+02  0.72461590196E+02  0.70000025926E+02 0.  0.
        -12    1    1    2    0    0  0.67065019970E+01  0.14175395182E+02  0.10235205251E+02  0.18726409804E+02  0.00000000000E+00 0.  1.
         11    1    3    3    0    0 -0.16002770449E+01 -0.52429674000E+01 -0.18673355298E+02  0.19461340965E+02  0.51100000000E-03 0. -1.
        -11    1    3    3    0    0  0.19628200287E+02  0.89700268082E+01  0.11627933332E+01  0.21612027116E+02  0.51100000000E-03 0.  1.
        -12    1    3    3    0    0 -0.24734425240E+02 -0.17902454590E+02  0.72753567139E+01  0.31388222116E+02  0.00000000000E+00 0.  1.
</event>
<event>
 7    1  0.3435518E-013  0.7246160E+02  0.7816164E-02  0.1226708E+00
        -11   -1    0    0    0    0  0.00000000000E+00  0.00000000000E+00  0.45593999997E+02  0.45594000000E+02  0.51100000000E-03 0. -1.
         11   -1    0    0    0    0 -0.00000000000E+00 -0.00000000000E+00 -0.45593999997E+02  0.45594000000E+02  0.51100000000E-03 0.  1.
    9900012    2    1    2    0    0  0.80664684925E+01  0.65494911162E+00  0.16887305468E+02  0.72461602635E+02  0.70000042130E+02 0.  0.
        -12    1    1    2    0    0 -0.80664684925E+01 -0.65494911162E+00 -0.16887305468E+02  0.18726397365E+02  0.00000000000E+00 0.  1.
         11    1    3    3    0    0 -0.85062877010E+01  0.14118742743E+02 -0.42561734374E-01  0.16483253285E+02  0.51100000000E-03 0. -1.
        -11    1    3    3    0    0 -0.12860050028E+02 -0.92375773540E+00 -0.82139817295E+01  0.15287370971E+02  0.51100000000E-03 0.  1.
         12    1    3    3    0    0  0.29432806222E+02 -0.12540035896E+02  0.25143848932E+02  0.40690978380E+02  0.00000000000E+00 0. -1.
</event>
<event>
 7    1  0.3435518E-013  0.7246151E+02  0.7816164E-02  0.1226708E+00
        -11   -1    0    0    0    0  0.00000000000E+00  0.00000000000E+00  0.45593999997E+02  0.45594000000E+02  0.51100000000E-03 0.  1.
         11   -1    0    0    0    0 -0.00000000000E+00 -0.00000000000E+00 -0.45593999997E+02  0.45594000000E+02  0.51100000000E-03 0. -1.
    9900012    2    1    2    0    0 -0.25491466405E+01  0.11818151112E+02 -0.14300858353E+02  0.72461510902E+02  0.69999922631E+02 0.  0.
        -12    1    1    2    0    0  0.25491466405E+01 -0.11818151112E+02  0.14300858353E+02  0.18726489098E+02  0.00000000000E+00 0.  1.
         11    1    3    3    0    0  0.38862898328E+01 -0.87559544998E+01  0.12972237299E+02  0.16126032639E+02  0.51100000000E-03 0. -1.
        -11    1    3    3    0    0 -0.15773088023E+02 -0.90824688159E+01 -0.99312334307E+01  0.20734293894E+02  0.51100000000E-03 0.  1.
         12    1    3    3    0    0  0.93376515496E+01  0.29656574428E+02 -0.17341862221E+02  0.35601184370E+02  0.00000000000E+00 0. -1.
</event>
<event>
 7    1  0.3435518E-013  0.7246163E+02  0.7816164E-02  0.1226708E+00
        -11   -1    0    0    0    0  0.00000000000E+00  0.00000000000E+00  0.45593999997E+02  0.45594000000E+02  0.51100000000E-03 0. -1.
         11   -1    0    0    0    0 -0.00000000000E+00 -0.00000000000E+00 -0.45593999997E+02  0.45594000000E+02  0.51100000000E-03 0.  1.
    9900012    2    1    2    0    0 -0.67301453702E+01 -0.15374020936E+02  0.83079149453E+01  0.72461632835E+02  0.70000081471E+02 0.  0.
        -12    1    1    2    0    0  0.67301453702E+01  0.15374020936E+02 -0.83079149453E+01  0.18726367165E+02  0.00000000000E+00 0.  1.
         11    1    3    3    0    0  0.12533099988E+02 -0.11777514024E+02  0.75369453640E+01  0.18777485923E+02  0.51100000000E-03 0. -1.
        -11    1    3    3    0    0  0.81493788574E+01 -0.11597558422E+01 -0.18391286024E+02  0.20149362552E+02  0.51100000000E-03 0.  1.
         12    1    3    3    0    0 -0.27412624216E+02 -0.24367510703E+01  0.19162255606E+02  0.33534784360E+02  0.00000000000E+00 0. -1.
</event>
<event>
 7    1  0.3435518E-013  0.7246152E+02  0.7816164E-02  0.1226708E+00
        -11   -1    0    0    0    0  0.00000000000E+00  0.00000000000E+00  0.45593999997E+02  0.45594000000E+02  0.51100000000E-03 0.  1.
         11   -1    0    0    0    0 -0.00000000000E+00 -0.00000000000E+00 -0.45593999997E+02  0.45594000000E+02  0.51100000000E-03 0. -1.
    9900012    2    1    2    0    0  0.10415989675E+02  0.87107588164E+01 -0.12896160116E+02  0.72461518595E+02  0.69999932652E+02 0.  0.
        -12    1    1    2    0    0 -0.10415989675E+02 -0.87107588164E+01  0.12896160116E+02  0.18726481405E+02  0.00000000000E+00 0.  1.
         11    1    3    3    0    0 -0.88261258654E+01 -0.81304659723E+01 -0.13613923714E+02  0.18147834413E+02  0.51100000000E-03 0. -1.
        -11    1    3    3    0    0  0.90984950632E+01  0.15797760500E+02 -0.22498051177E+02  0.28957108907E+02  0.51100000000E-03 0.  1.
        -12    1    3    3    0    0  0.10143620477E+02  0.10434642890E+01  0.23215814774E+02  0.25356575276E+02  0.00000000000E+00 0.  1.
</event>
<event>
 7    1  0.3435518E-013  0.7246153E+02  0.7816164E-02  0.1226708E+00
        -11   -1    0    0    0    0  0.00000000000E+00  0.00000000000E+00  0.45593999997E+02  0.45594000000E+02  0.51100000000E-03 0.  1.
         11   -1    0    0    0    0 -0.00000000000E+00 -0.00000000000E+00 -0.45593999997E+02  0.45594000000E+02  0.51100000000E-03 0. -1.
    9900012    2    1    2    0    0  0.59109034318E+01 -0.30226754567E+01 -0.17510144411E+02  0.72461534674E+02  0.69999953598E+02 0.  0.
        -12    1    1    2    0    0 -0.59109034318E+01  0.30226754567E+01  0.17510144411E+02  0.18726465326E+02  0.00000000000E+00 0.  1.
         11    1    3    3    0    0  0.15954428463E+02 -0.88712548608E+01 -0.51726302070E+01  0.18973641029E+02  0.51100000000E-03 0. -1.
        -11    1    3    3    0    0 -0.23342734078E+00  0.63641744730E+01 -0.31401991375E+02  0.32041258833E+02  0.51100000000E-03 0.  1.
         12    1    3    3    0    0 -0.98100976907E+01 -0.51559506898E+00  0.19064477170E+02  0.21446634812E+02  0.00000000000E+00 0. -1.
</event>
<event>
 7    1  0.3435518E-013  0.7246155E+02  0.7816164E-02  0.1226708E+00
        -11   -1    0    0    0    0  0.00000000000E+00  0.00000000000E+00  0.45593999997E+02  0.45594000000E+02  0.51100000000E-03 0.  1.
         11   -1    0    0    0    0 -0.00000000000E+00 -0.00000000000E+00 -0.45593999997E+02  0.45594000000E+02  0.51100000000E-03 0. -1.
    9900012    2    1    2    0    0 -0.71744084221E+01 -0.17268585730E+02 -0.10019069973E+01  0.72461547934E+02  0.69999970872E+02 0.  0.
        -12    1    1    2    0    0  0.71744084221E+01  0.17268585730E+02  0.10019069973E+01  0.18726452066E+02  0.00000000000E+00 0.  1.
         11    1    3    3    0    0 -0.11680133728E+02  0.58013605774E+01  0.12391320096E+02  0.17989611514E+02  0.51100000000E-03 0. -1.
        -11    1    3    3    0    0 -0.17588391811E+02 -0.23262065863E+01 -0.16214617127E+02  0.24034903212E+02  0.51100000000E-03 0.  1.
        -12    1    3    3    0    0  0.22094117117E+02 -0.20743739722E+02  0.28213900334E+01  0.30437033208E+02  0.00000000000E+00 0.  1.
</event>
<event>
 7    1  0.3435518E-013  0.7246157E+02  0.7816164E-02  0.1226708E+00
        -11   -1    0    0    0    0  0.00000000000E+00  0.00000000000E+00  0.45593999997E+02  0.45594000000E+02  0.51100000000E-03 0. -1.
         11   -1    0    0    0    0 -0.00000000000E+00 -0.00000000000E+00 -0.45593999997E+02  0.45594000000E+02  0.51100000000E-03 0.  1.
    9900012    2    1    2    0    0  0.78844232294E+00  0.12568347643E+02  0.13859798473E+02  0.72461574354E+02  0.70000005288E+02 0.  0.
        -12    1    1    2    0    0 -0.78844232294E+00 -0.12568347643E+02 -0.13859798473E+02  0.18726425646E+02  0.00000000000E+00 0.  1.
         11    1    3    3    0    0 -0.14159536630E+02 -0.97580761733E+00 -0.11065287833E+02  0.17996812861E+02  0.51100000000E-03 0. -1.
        -11    1    3    3    0    0 -0.82529197550E+01  0.13778748259E+02 -0.47937164525E+01  0.16761393312E+02  0.51100000000E-03 0.  1.
         12    1    3    3    0    0  0.23200898708E+02 -0.23459299823E+00  0.29718802759E+02  0.37703368181E+02  0.00000000000E+00 0. -1.
</event>
<event>
 7    1  0.3435518E-013  0.7246159E+02  0.7816164E-02  0.1226708E+00
        -11   -1    0    0    0    0  0.00000000000E+00  0.00000000000E+00  0.45593999997E+02  0.45594000000E+02  0.51100000000E-03 0.  1.
         11   -1    0    0    0    0 -0.00000000000E+00 -0.00000000000E+00 -0.45593999997E+02  0.45594000000E+02  0.51100000000E-03 0. -1.
    9900012    2    1    2    0    0 -0.44653902310E+01 -0.76517723268E+01 -0.16498155391E+02  0.72461589213E+02  0.70000024645E+02 0.  0.
        -12    1    1    2    0    0  0.44653902310E+01  0.76517723268E+01  0.16498155391E+02  0.18726410787E+02  0.00000000000E+00 0.  1.
         11    1    3    3    0    0 -0.36723770862E+01 -0.13083844314E+02  0.11130310843E+02  0.17565795035E+02  0.51100000000E-03 0. -1.
        -11    1    3    3    0    0  0.36155072725E+01 -0.15711115344E+02  0.39868848918E+01  0.16607416704E+02  0.51100000000E-03 0.  1.
        -12    1    3    3    0    0 -0.44085204174E+01  0.21143187331E+02 -0.31615351126E+02  0.38288377474E+02  0.00000000000E+00 0.  1.
</event>
<event>
 7    1  0.3435518E-013  0.7246155E+02  0.7816164E-02  0.1226708E+00
        -11   -1    0    0    0    0  0.00000000000E+00  0.00000000000E+00  0.45593999997E+02  0.45594000000E+02  0.51100000000E-03 0.  1.
         11   -1    0    0    0    0 -0.00000000000E+00 -0.00000000000E+00 -0.45593999997E+02  0.45594000000E+02  0.51100000000E-03 0. -1.
    9900012    2    1    2    0    0  0.14315363266E+02  0.11339668648E+02 -0.41427245948E+01  0.72461551390E+02  0.69999975373E+02 0.  0.
        -12    1    1    2    0    0 -0.14315363266E+02 -0.11339668648E+02  0.41427245948E+01  0.18726448610E+02  0.00000000000E+00 0.  1.
         11    1    3    3    0    0 -0.84418646292E+01  0.16654258631E+01 -0.17043176269E+02  0.19092107776E+02  0.51100000000E-03 0. -1.
        -11    1    3    3    0    0  0.25358177691E+02 -0.24858684986E+01  0.25230255833E+02  0.35857809856E+02  0.51100000000E-03 0.  1.
         12    1    3    3    0    0 -0.26009497961E+01  0.12160111283E+02 -0.12329804159E+02  0.17511633758E+02  0.00000000000E+00 0. -1.
</event>
<event>
 7    1  0.3435518E-013  0.7246153E+02  0.7816164E-02  0.1226708E+00
        -11   -1    0    0    0    0  0.00000000000E+00  0.00000000000E+00  0.45593999997E+02  0.45594000000E+02  0.51100000000E-03 0.  1.
         11   -1    0    0    0    0 -0.00000000000E+00 -0.00000000000E+00 -0.45593999997E+02  0.45594000000E+02  0.51100000000E-03 0. -1.
    9900012    2    1    2    0    0 -0.18372122829E+02  0.23909089919E+01 -0.27256687541E+01  0.72461531747E+02  0.69999949785E+02 0.  0.
        -12    1    1    2    0    0  0.18372122829E+02 -0.23909089919E+01  0.27256687541E+01  0.18726468253E+02  0.00000000000E+00 0.  1.
         11    1    3    3    0    0  0.95213288453E+01 -0.77486052698E+01 -0.58409282903E+01  0.13594595623E+02  0.51100000000E-03 0. -1.
        -11    1    3    3    0    0  0.10768978216E+02 -0.68662328416E+01 -0.81534382809E+01  0.15152379394E+02  0.51100000000E-03 0.  1.
        -12    1    3    3    0    0 -0.38662429890E+02  0.17005747103E+02  0.11268697817E+02  0.43714556730E+02  0.00000000000E+00 0.  1.
</event>
<event>
 7    1  0.3435518E-013  0.7246148E+02  0.7816164E-02  0.1226708E+00
        -11   -1    0    0    0    0  0.00000000000E+00  0.00000000000E+00  0.45593999997E+02  0.45594000000E+02  0.51100000000E-03 0.  1.
         11   -1    0    0    0    0 -0.00000000000E+00 -0.00000000000E+00 -0.45593999997E+02  0.45594000000E+02  0.51100000000E-03 0. -1.
    9900012    2    1    2    0    0  0.10085308914E+02  0.99845645729E+01  0.12217914874E+02  0.72461483253E+02  0.69999886612E+02 0.  0.
        -12    1    1    2    0    0 -0.10085308914E+02 -0.99845645729E+01 -0.12217914874E+02  0.18726516747E+02  0.00000000000E+00 0.  1.
         11    1    3    3    0    0  0.26957839866E+02  0.30404843252E+02  0.11095073329E+02  0.42122206446E+02  0.51100000000E-03 0. -1.
        -11    1    3    3    0    0 -0.53009531351E+01 -0.69872705520E+01 -0.66239950394E+01  0.10990876419E+02  0.51100000000E-03 0.  1.
        -12    1    3    3    0    0 -0.11571577817E+02 -0.13433008127E+02  0.77468365841E+01  0.19348400388E+02  0.00000000000E+00 0.  1.
</event>
<event>
 7    1  0.3435518E-013  0.7246156E+02  0.7816164E-02  0.1226708E+00
        -11   -1    0    0    0    0  0.00000000000E+00  0.00000000000E+00  0.45593999997E+02  0.45594000000E+02  0.51100000000E-03 0. -1.
         11   -1    0    0    0    0 -0.00000000000E+00 -0.00000000000E+00 -0.45593999997E+02  0.45594000000E+02  0.51100000000E-03 0.  1.
    9900012    2    1    2    0    0  0.44666550623E+01 -0.10429398628E+02  0.14898188856E+02  0.72461564290E+02  0.69999992179E+02 0.  0.
        -12    1    1    2    0    0 -0.44666550623E+01  0.10429398628E+02 -0.14898188856E+02  0.18726435710E+02  0.00000000000E+00 0.  1.
         11    1    3    3    0    0  0.12343240461E+02 -0.57686507996E+01  0.13488630788E+02  0.19172273676E+02  0.51100000000E-03 0. -1.
        -11    1    3    3    0    0  0.54323992649E+01 -0.25596582598E+02  0.84574642880E+01  0.27499540085E+02  0.51100000000E-03 0.  1.
        -12    1    3    3    0    0 -0.13308984663E+02  0.20935834769E+02 -0.70479062201E+01  0.25789750529E+02  0.00000000000E+00 0.  1.
</event>
<event>
 7    1  0.3435518E-013  0.7246166E+02  0.7816164E-02  0.1226708E+00
        -11   -1    0    0    0    0  0.00000000000E+00  0.00000000000E+00  0.45593999997E+02  0.45594000000E+02  0.51100000000E-03 0.  1.
         11   -1    0    0    0    0 -0.00000000000E+00 -0.00000000000E+00 -0.45593999997E+02  0.45594000000E+02  0.51100000000E-03 0. -1.
    9900012    2    1    2    0    0 -0.16992401929E+02  0.78501633513E+01  0.55583441413E+00  0.72461661868E+02  0.70000119291E+02 0.  0.
        -12    1    1    2    0    0  0.16992401929E+02 -0.78501633513E+01 -0.55583441413E+00  0.18726338132E+02  0.00000000000E+00 0.  1.
         11    1    3    3    0    0  0.32075713906E+01  0.25701727516E+02 -0.17140394428E+02  0.31058983128E+02  0.51100000000E-03 0. -1.
        -11    1    3    3    0    0 -0.44607922100E+01  0.29631341323E+01 -0.46150726845E+01  0.70694927096E+01  0.51100000000E-03 0.  1.
        -12    1    3    3    0    0 -0.15739181109E+02 -0.20814698297E+02  0.22311301527E+02  0.34333186030E+02  0.00000000000E+00 0.  1.
</event>
<event>
 7    1  0.3435518E-013  0.7246158E+02  0.7816164E-02  0.1226708E+00
        -11   -1    0    0    0    0  0.00000000000E+00  0.00000000000E+00  0.45593999997E+02  0.45594000000E+02  0.51100000000E-03 0. -1.
         11   -1    0    0    0    0 -0.00000000000E+00 -0.00000000000E+00 -0.45593999997E+02  0.45594000000E+02  0.51100000000E-03 0.  1.
    9900012    2    1    2    0    0  0.12432972783E+02  0.13806968558E+02  0.23383310410E+01  0.72461575221E+02  0.70000006417E+02 0.  0.
        -12    1    1    2    0    0 -0.12432972783E+02 -0.13806968558E+02 -0.23383310410E+01  0.18726424779E+02  0.00000000000E+00 0.  1.
         11    1    3    3    0    0 -0.14817348587E+02 -0.70616036798E+01  0.17497570862E+02  0.23991353693E+02  0.51100000000E-03 0. -1.
        -11    1    3    3    0    0 -0.25373836448E+01 -0.43708478255E+01 -0.69175150356E+01  0.85670672347E+01  0.51100000000E-03 0.  1.
        -12    1    3    3    0    0  0.29787705014E+02  0.25239420063E+02 -0.82417247852E+01  0.39903154293E+02  0.00000000000E+00 0.  1.
</event>
<event>
 7    1  0.3435518E-013  0.7246208E+02  0.7816164E-02  0.1226707E+00
        -11   -1    0    0    0    0  0.00000000000E+00  0.00000000000E+00  0.45593999997E+02  0.45594000000E+02  0.51100000000E-03 0.  1.
         11   -1    0    0    0    0 -0.00000000000E+00 -0.00000000000E+00 -0.45593999997E+02  0.45594000000E+02  0.51100000000E-03 0. -1.
    9900012    2    1    2    0    0 -0.14077681556E+02 -0.11711032639E+02  0.39154216840E+01  0.72462083989E+02  0.70000669180E+02 0.  0.
        -12    1    1    2    0    0  0.14077681556E+02  0.11711032639E+02 -0.39154216840E+01  0.18725916011E+02  0.00000000000E+00 0.  1.
         11    1    3    3    0    0  0.12866942271E+02 -0.23273077896E+02  0.17840339288E+02  0.32022992745E+02  0.51100000000E-03 0. -1.
        -11    1    3    3    0    0 -0.30658067357E+01 -0.33700630163E+01  0.48009849102E+01  0.66186065032E+01  0.51100000000E-03 0.  1.
        -12    1    3    3    0    0 -0.23878817092E+02  0.14932108273E+02 -0.18725902514E+02  0.33820484741E+02  0.00000000000E+00 0.  1.
</event>
<event>
 7    1  0.3435518E-013  0.7246157E+02  0.7816164E-02  0.1226708E+00
        -11   -1    0    0    0    0  0.00000000000E+00  0.00000000000E+00  0.45593999997E+02  0.45594000000E+02  0.51100000000E-03 0.  1.
         11   -1    0    0    0    0 -0.00000000000E+00 -0.00000000000E+00 -0.45593999997E+02  0.45594000000E+02  0.51100000000E-03 0. -1.
    9900012    2    1    2    0    0  0.93761705263E+01  0.30712719757E+01 -0.15916465152E+02  0.72461570863E+02  0.70000000741E+02 0.  0.
        -12    1    1    2    0    0 -0.93761705263E+01 -0.30712719757E+01  0.15916465152E+02  0.18726429137E+02  0.00000000000E+00 0.  1.
         11    1    3    3    0    0 -0.24467441163E+00 -0.65141274547E+01 -0.32042199773E+01  0.72636594074E+01  0.51100000000E-03 0. -1.
        -11    1    3    3    0    0 -0.14957485051E+01 -0.16568445461E+02  0.17206624741E+02  0.23933628723E+02  0.51100000000E-03 0.  1.
         12    1    3    3    0    0  0.11116593443E+02  0.26153844892E+02 -0.29918869916E+02  0.41264282733E+02  0.00000000000E+00 0. -1.
</event>
<event>
 7    1  0.3435518E-013  0.7246145E+02  0.7816164E-02  0.1226708E+00
        -11   -1    0    0    0    0  0.00000000000E+00  0.00000000000E+00  0.45593999997E+02  0.45594000000E+02  0.51100000000E-03 0. -1.
         11   -1    0    0    0    0 -0.00000000000E+00 -0.00000000000E+00 -0.45593999997E+02  0.45594000000E+02  0.51100000000E-03 0.  1.
    9900012    2    1    2    0    0  0.15293510957E+02 -0.40226064691E-01  0.10806966155E+02  0.72461451653E+02  0.69999845447E+02 0.  0.
        -12    1    1    2    0    0 -0.15293510957E+02  0.40226064691E-01 -0.10806966155E+02  0.18726548347E+02  0.00000000000E+00 0.  1.
         11    1    3    3    0    0  0.26485756363E+02 -0.18856334321E+02  0.22217610448E+02  0.39378659810E+02  0.51100000000E-03 0. -1.
        -11    1    3    3    0    0  0.21533646370E+01  0.26654246752E+01  0.52811331486E+01  0.62953820816E+01  0.51100000000E-03 0.  1.
        -12    1    3    3    0    0 -0.13345610043E+02  0.16150683581E+02 -0.16691777441E+02  0.26787409761E+02  0.00000000000E+00 0.  1.
</event>
<event>
 7    1  0.3435518E-013  0.7246152E+02  0.7816164E-02  0.1226708E+00
        -11   -1    0    0    0    0  0.00000000000E+00  0.00000000000E+00  0.45593999997E+02  0.45594000000E+02  0.51100000000E-03 0.  1.
         11   -1    0    0    0    0 -0.00000000000E+00 -0.00000000000E+00 -0.45593999997E+02  0.45594000000E+02  0.51100000000E-03 0. -1.
    9900012    2    1    2    0    0  0.64311357897E+01  0.10347181535E+02 -0.14221728138E+02  0.72461515426E+02  0.69999928524E+02 0.  0.
        -12    1    1    2    0    0 -0.64311357897E+01 -0.10347181535E+02  0.14221728138E+02  0.18726484574E+02  0.00000000000E+00 0.  1.
         11    1    3    3    0    0  0.17357372310E+02  0.30937971633E+00 -0.98420274317E+01  0.19955941309E+02  0.51100000000E-03 0. -1.
        -11    1    3    3    0    0 -0.56777187642E+01 -0.18949571833E+02 -0.10532675364E+02  0.22411158239E+02  0.51100000000E-03 0.  1.
        -12    1    3    3    0    0 -0.52485177561E+01  0.28987373652E+02  0.61529746579E+01  0.30094415878E+02  0.00000000000E+00 0.  1.
</event>
<event>
 7    1  0.3435518E-013  0.7246143E+02  0.7816164E-02  0.1226708E+00
        -11   -1    0    0    0    0  0.00000000000E+00  0.00000000000E+00  0.45593999997E+02  0.45594000000E+02  0.51100000000E-03 0.  1.
         11   -1    0    0    0    0 -0.00000000000E+00 -0.00000000000E+00 -0.45593999997E+02  0.45594000000E+02  0.51100000000E-03 0. -1.
    9900012    2    1    2    0    0 -0.16493387580E+02 -0.87463571232E+01  0.14675919362E+01  0.72461430029E+02  0.69999817278E+02 0.  0.
        -12    1    1    2    0    0  0.16493387580E+02  0.87463571232E+01 -0.14675919362E+01  0.18726569971E+02  0.00000000000E+00 0.  1.
         11    1    3    3    0    0 -0.36367278770E+01 -0.64752988023E+01 -0.87108518080E+01  0.11447018114E+02  0.51100000000E-03 0. -1.
        -11    1    3    3    0    0 -0.29379545934E+02  0.29359832672E+01 -0.12846932254E+02  0.32199710956E+02  0.51100000000E-03 0.  1.
        -12    1    3    3    0    0  0.16522886231E+02 -0.52070415882E+01  0.23025375998E+02  0.28814700959E+02  0.00000000000E+00 0.  1.
</event>
<event>
 7    1  0.3435518E-013  0.7246165E+02  0.7816164E-02  0.1226708E+00
        -11   -1    0    0    0    0  0.00000000000E+00  0.00000000000E+00  0.45593999997E+02  0.45594000000E+02  0.51100000000E-03 0.  1.
         11   -1    0    0    0    0 -0.00000000000E+00 -0.00000000000E+00 -0.45593999997E+02  0.45594000000E+02  0.51100000000E-03 0. -1.
    9900012    2    1    2    0    0 -0.92806227654E+01  0.14198170982E+02 -0.79346238104E+01  0.72461647628E+02  0.70000100741E+02 0.  0.
        -12    1    1    2    0    0  0.92806227654E+01 -0.14198170982E+02  0.79346238104E+01  0.18726352372E+02  0.00000000000E+00 0.  1.
         11    1    3    3    0    0 -0.58858037122E+01  0.29290364153E+00 -0.43765470333E+01  0.73404796899E+01  0.51100000000E-03 0. -1.
        -11    1    3    3    0    0 -0.32424811676E+02  0.15562924894E+00 -0.57246471280E+01  0.32926649050E+02  0.51100000000E-03 0.  1.
         12    1    3    3    0    0  0.29029992623E+02  0.13749638092E+02  0.21665703509E+01  0.32194518888E+02  0.00000000000E+00 0. -1.
</event>
<event>
 7    1  0.3435518E-013  0.7246157E+02  0.7816164E-02  0.1226708E+00
        -11   -1    0    0    0    0  0.00000000000E+00  0.00000000000E+00  0.45593999997E+02  0.45594000000E+02  0.51100000000E-03 0.  1.
         11   -1    0    0    0    0 -0.00000000000E+00 -0.00000000000E+00 -0.45593999997E+02  0.45594000000E+02  0.51100000000E-03 0. -1.
    9900012    2    1    2    0    0 -0.77913210155E+01 -0.36045790559E+01 -0.16642763617E+02  0.72461568034E+02  0.69999997056E+02 0.  0.
        -12    1    1    2    0    0  0.77913210155E+01  0.36045790559E+01  0.16642763617E+02  0.18726431966E+02  0.00000000000E+00 0.  1.
         11    1    3    3    0    0  0.21263449216E+02 -0.49600438148E+01 -0.28668965120E+01  0.22021703001E+02  0.51100000000E-03 0. -1.
        -11    1    3    3    0    0  0.67663220119E+01  0.36882786050E+00  0.63956583178E+01  0.93179178543E+01  0.51100000000E-03 0.  1.
        -12    1    3    3    0    0 -0.35821092243E+02  0.98663689843E+00 -0.20171525423E+02  0.41121947179E+02  0.00000000000E+00 0.  1.
</event>
<event>
 7    1  0.3435518E-013  0.7246156E+02  0.7816164E-02  0.1226708E+00
        -11   -1    0    0    0    0  0.00000000000E+00  0.00000000000E+00  0.45593999997E+02  0.45594000000E+02  0.51100000000E-03 0. -1.
         11   -1    0    0    0    0 -0.00000000000E+00 -0.00000000000E+00 -0.45593999997E+02  0.45594000000E+02  0.51100000000E-03 0.  1.
    9900012    2    1    2    0    0  0.18658425040E+02 -0.15903376589E+01  0.11635901548E+00  0.72461560448E+02  0.69999987174E+02 0.  0.
        -12    1    1    2    0    0 -0.18658425040E+02  0.15903376589E+01 -0.11635901548E+00  0.18726439552E+02  0.00000000000E+00 0.  1.
         11    1    3    3    0    0  0.19326966265E+01  0.44770810660E+01 -0.53401250570E+00  0.49055826095E+01  0.51100000000E-03 0. -1.
        -11    1    3    3    0    0  0.17348483101E+02  0.20358222212E+02  0.21155146671E+02  0.34102306497E+02  0.51100000000E-03 0.  1.
        -12    1    3    3    0    0 -0.62275468665E+00 -0.26425640937E+02 -0.20504775149E+02  0.33453671342E+02  0.00000000000E+00 0.  1.
</event>
<event>
 7    1  0.3435518E-013  0.7246157E+02  0.7816164E-02  0.1226708E+00
        -11   -1    0    0    0    0  0.00000000000E+00  0.00000000000E+00  0.45593999997E+02  0.45594000000E+02  0.51100000000E-03 0. -1.
         11   -1    0    0    0    0 -0.00000000000E+00 -0.00000000000E+00 -0.45593999997E+02  0.45594000000E+02  0.51100000000E-03 0.  1.
    9900012    2    1    2    0    0  0.15401434042E+02 -0.17992205177E+01  0.10499425417E+02  0.72461566834E+02  0.69999995492E+02 0.  0.
        -12    1    1    2    0    0 -0.15401434042E+02  0.17992205177E+01 -0.10499425417E+02  0.18726433166E+02  0.00000000000E+00 0.  1.
         11    1    3    3    0    0 -0.69235408319E+01 -0.58897528935E+01  0.61639984518E+01  0.10982690197E+02  0.51100000000E-03 0. -1.
        -11    1    3    3    0    0  0.13797080350E+02  0.29438031002E+02 -0.55218602948E+01  0.32976477023E+02  0.51100000000E-03 0.  1.
         12    1    3    3    0    0  0.85278945242E+01 -0.25347498626E+02  0.98572872605E+01  0.28502399614E+02  0.00000000000E+00 0. -1.
</event>
<event>
 7    1  0.3435518E-013  0.7246153E+02  0.7816164E-02  0.1226708E+00
        -11   -1    0    0    0    0  0.00000000000E+00  0.00000000000E+00  0.45593999997E+02  0.45594000000E+02  0.51100000000E-03 0.  1.
         11   -1    0    0    0    0 -0.00000000000E+00 -0.00000000000E+00 -0.45593999997E+02  0.45594000000E+02  0.51100000000E-03 0. -1.
    9900012    2    1    2    0    0  0.13687443904E+01 -0.11629771639E+02 -0.14613545864E+02  0.72461527500E+02  0.69999944252E+02 0.  0.
        -12    1    1    2    0    0 -0.13687443904E+01  0.11629771639E+02  0.14613545864E+02  0.18726472500E+02  0.00000000000E+00 0.  1.
         11    1    3    3    0    0 -0.37837277509E+01  0.64125030201E+01 -0.24953869608E+02  0.26040975392E+02  0.51100000000E-03 0. -1.
        -11    1    3    3    0    0  0.17180483810E+02  0.58373323901E+01  0.71100086769E+01  0.19488347724E+02  0.51100000000E-03 0.  1.
         12    1    3    3    0    0 -0.12028011668E+02 -0.23879607050E+02  0.32303150676E+01  0.26932204384E+02  0.00000000000E+00 0. -1.
</event>
<event>
 7    1  0.3435518E-013  0.7246160E+02  0.7816164E-02  0.1226708E+00
        -11   -1    0    0    0    0  0.00000000000E+00  0.00000000000E+00  0.45593999997E+02  0.45594000000E+02  0.51100000000E-03 0.  1.
         11   -1    0    0    0    0 -0.00000000000E+00 -0.00000000000E+00 -0.45593999997E+02  0.45594000000E+02  0.51100000000E-03 0. -1.
    9900012    2    1    2    0    0  0.60810564325E+01  0.92147246843E+01 -0.15125723498E+02  0.72461603932E+02  0.70000043820E+02 0.  0.
        -12    1    1    2    0    0 -0.60810564325E+01 -0.92147246843E+01  0.15125723498E+02  0.18726396068E+02  0.00000000000E+00 0.  1.
         11    1    3    3    0    0 -0.35609176563E+01 -0.11683356409E+02 -0.25295582202E+02  0.28089988087E+02  0.51100000000E-03 0. -1.
        -11    1    3    3    0    0 -0.92915365701E+01  0.11383749413E+01 -0.73290209630E+01  0.11888780336E+02  0.51100000000E-03 0.  1.
        -12    1    3    3    0    0  0.18933510659E+02  0.19759706152E+02  0.17498879667E+02  0.32482835509E+02  0.00000000000E+00 0.  1.
</event>
<event>
 7    1  0.3435518E-013  0.7246157E+02  0.7816164E-02  0.1226708E+00
        -11   -1    0    0    0    0  0.00000000000E+00  0.00000000000E+00  0.45593999997E+02  0.45594000000E+02  0.51100000000E-03 0.  1.
         11   -1    0    0    0    0 -0.00000000000E+00 -0.00000000000E+00 -0.45593999997E+02  0.45594000000E+02  0.51100000000E-03 0. -1.
    9900012    2    1    2    0    0 -0.15632113499E+01  0.94635991637E+01 -0.16083407897E+02  0.72461565517E+02  0.69999993777E+02 0.  0.
        -12    1    1    2    0    0  0.15632113499E+01 -0.94635991637E+01  0.16083407897E+02  0.18726434483E+02  0.00000000000E+00 0.  1.
         11    1    3    3    0    0 -0.44735445671E+01  0.24793970360E+01 -0.43574659106E+01  0.67191904333E+01  0.51100000000E-03 0. -1.
        -11    1    3    3    0    0  0.94033234252E+01 -0.71745300744E+01 -0.35444765481E+02  0.37366131369E+02  0.51100000000E-03 0.  1.
         12    1    3    3    0    0 -0.64929902080E+01  0.14158732202E+02  0.23718823494E+02  0.28376243715E+02  0.00000000000E+00 0. -1.
</event>
<event>
 7    1  0.3435518E-013  0.7246157E+02  0.7816164E-02  0.1226708E+00
        -11   -1    0    0    0    0  0.00000000000E+00  0.00000000000E+00  0.45593999997E+02  0.45594000000E+02  0.51100000000E-03 0. -1.
         11   -1    0    0    0    0 -0.00000000000E+00 -0.00000000000E+00 -0.45593999997E+02  0.45594000000E+02  0.51100000000E-03 0.  1.
    9900012    2    1    2    0    0  0.96117749271E+01 -0.13364554442E+02 -0.89264497589E+01  0.72461573806E+02  0.70000004575E+02 0.  0.
        -12    1    1    2    0    0 -0.96117749271E+01  0.13364554442E+02  0.89264497589E+01  0.18726426194E+02  0.00000000000E+00 0.  1.
         11    1    3    3    0    0 -0.27788718111E+00  0.32938459178E+01 -0.62271958062E+01  0.70501496499E+01  0.51100000000E-03 0. -1.
        -11    1    3    3    0    0  0.46575494358E+01  0.11532979216E+02  0.23489123530E+02  0.26578963501E+02  0.51100000000E-03 0.  1.
         12    1    3    3    0    0  0.52321126724E+01 -0.28191379576E+02 -0.26188377482E+02  0.38832460655E+02  0.00000000000E+00 0. -1.
</event>
<event>
 7    1  0.3513734E-013  0.7246158E+02  0.7816164E-02  0.1226708E+00
        -11   -1    0    0    0    0  0.00000000000E+00  0.00000000000E+00  0.45593999997E+02  0.45594000000E+02  0.51100000000E-03 0. -1.
         11   -1    0    0    0    0 -0.00000000000E+00 -0.00000000000E+00 -0.45593999997E+02  0.45594000000E+02  0.51100000000E-03 0.  1.
    9900012    2    1    2    0    0 -0.13871220409E+02  0.54764902314E+01  0.11325903379E+02  0.72461580474E+02  0.70000013261E+02 0.  0.
        -12    1    1    2    0    0  0.13871220409E+02 -0.54764902314E+01 -0.11325903379E+02  0.18726419526E+02  0.00000000000E+00 0.  1.
         11    1    3    3    0    0 -0.24857152232E+02 -0.62211778754E+01  0.82696815477E+01  0.26925242885E+02  0.51100000000E-03 0. -1.
        -11    1    3    3    0    0  0.16724392319E+02 -0.52759437621E+01 -0.12719235604E+02  0.21663790888E+02  0.51100000000E-03 0.  1.
         12    1    3    3    0    0 -0.57384604965E+01  0.16973611869E+02  0.15775457435E+02  0.23872546702E+02  0.00000000000E+00 0. -1.
</event>
<event>
 7    1  0.3435518E-013  0.7246159E+02  0.7816164E-02  0.1226708E+00
        -11   -1    0    0    0    0  0.00000000000E+00  0.00000000000E+00  0.45593999997E+02  0.45594000000E+02  0.51100000000E-03 0.  1.
         11   -1    0    0    0    0 -0.00000000000E+00 -0.00000000000E+00 -0.45593999997E+02  0.45594000000E+02  0.51100000000E-03 0. -1.
    9900012    2    1    2    0    0  0.11076246647E+02 -0.10418489442E+02  0.10929324972E+02  0.72461593340E+02  0.70000030022E+02 0.  0.
        -12    1    1    2    0    0 -0.11076246647E+02  0.10418489442E+02 -0.10929324972E+02  0.18726406660E+02  0.00000000000E+00 0.  1.
         11    1    3    3    0    0  0.24333118063E+02  0.26067057457E+01  0.42981324688E+01  0.24846921187E+02  0.51100000000E-03 0. -1.
        -11    1    3    3    0    0  0.52343380148E+00  0.85877480400E+01  0.17710991447E+02  0.19690165506E+02  0.51100000000E-03 0.  1.
         12    1    3    3    0    0 -0.13780305217E+02 -0.21612943228E+02 -0.11079798944E+02  0.27924506647E+02  0.00000000000E+00 0. -1.
</event>
<event>
 7    1  0.3435518E-013  0.7246157E+02  0.7816164E-02  0.1226708E+00
        -11   -1    0    0    0    0  0.00000000000E+00  0.00000000000E+00  0.45593999997E+02  0.45594000000E+02  0.51100000000E-03 0. -1.
         11   -1    0    0    0    0 -0.00000000000E+00 -0.00000000000E+00 -0.45593999997E+02  0.45594000000E+02  0.51100000000E-03 0.  1.
    9900012    2    1    2    0    0  0.78404961653E+01  0.24026750653E+01  0.16835466749E+02  0.72461570328E+02  0.70000000044E+02 0.  0.
        -12    1    1    2    0    0 -0.78404961653E+01 -0.24026750653E+01 -0.16835466749E+02  0.18726429672E+02  0.00000000000E+00 0.  1.
         11    1    3    3    0    0  0.24844633414E+01  0.74069100953E+01  0.18033678564E+02  0.19653204270E+02  0.51100000000E-03 0. -1.
        -11    1    3    3    0    0 -0.76811322552E+01  0.21618904402E+02 -0.28459012555E+01  0.23118736438E+02  0.51100000000E-03 0.  1.
        -12    1    3    3    0    0  0.13037165079E+02 -0.26623139432E+02  0.16476894410E+01  0.29689629621E+02  0.00000000000E+00 0.  1.
</event>
<event>
 7    1  0.3435518E-013  0.7246158E+02  0.7816164E-02  0.1226708E+00
        -11   -1    0    0    0    0  0.00000000000E+00  0.00000000000E+00  0.45593999997E+02  0.45594000000E+02  0.51100000000E-03 0.  1.
         11   -1    0    0    0    0 -0.00000000000E+00 -0.00000000000E+00 -0.45593999997E+02  0.45594000000E+02  0.51100000000E-03 0. -1.
    9900012    2    1    2    0    0 -0.27786675185E+01  0.17381249829E+02  0.63914100747E+01  0.72461575847E+02  0.70000007234E+02 0.  0.
        -12    1    1    2    0    0  0.27786675185E+01 -0.17381249829E+02 -0.63914100747E+01  0.18726424153E+02  0.00000000000E+00 0.  1.
         11    1    3    3    0    0 -0.64504512596E+00 -0.11431679542E+02 -0.80483439116E+01  0.13995542875E+02  0.51100000000E-03 0. -1.
        -11    1    3    3    0    0  0.12162784892E+01  0.58533160893E+01 -0.17781688750E+02  0.18759773391E+02  0.51100000000E-03 0.  1.
        -12    1    3    3    0    0 -0.33499008817E+01  0.22959613282E+02  0.32221442736E+02  0.39706259582E+02  0.00000000000E+00 0.  1.
</event>
<event>
 7    1  0.3435518E-013  0.7246157E+02  0.7816164E-02  0.1226708E+00
        -11   -1    0    0    0    0  0.00000000000E+00  0.00000000000E+00  0.45593999997E+02  0.45594000000E+02  0.51100000000E-03 0. -1.
         11   -1    0    0    0    0 -0.00000000000E+00 -0.00000000000E+00 -0.45593999997E+02  0.45594000000E+02  0.51100000000E-03 0.  1.
    9900012    2    1    2    0    0 -0.94120904385E+01 -0.16181084766E+02  0.51407043503E+00  0.72461568972E+02  0.69999998278E+02 0.  0.
        -12    1    1    2    0    0  0.94120904385E+01  0.16181084766E+02 -0.51407043503E+00  0.18726431028E+02  0.00000000000E+00 0.  1.
         11    1    3    3    0    0 -0.47113537045E+01 -0.12871919779E+02  0.12013890867E+02  0.18226813944E+02  0.51100000000E-03 0. -1.
        -11    1    3    3    0    0 -0.10882562572E+02 -0.26095212296E+02 -0.11764835048E+02  0.30623546771E+02  0.51100000000E-03 0.  1.
         12    1    3    3    0    0  0.61818258380E+01  0.22786047308E+02  0.26501461626E+00  0.23611208257E+02  0.00000000000E+00 0. -1.
</event>
<event>
 7    1  0.3435518E-013  0.7246153E+02  0.7816164E-02  0.1226708E+00
        -11   -1    0    0    0    0  0.00000000000E+00  0.00000000000E+00  0.45593999997E+02  0.45594000000E+02  0.51100000000E-03 0. -1.
         11   -1    0    0    0    0 -0.00000000000E+00 -0.00000000000E+00 -0.45593999997E+02  0.45594000000E+02  0.51100000000E-03 0.  1.
    9900012    2    1    2    0    0 -0.16437515487E+02 -0.51020059998E+01  0.73795941217E+01  0.72461527027E+02  0.69999943637E+02 0.  0.
        -12    1    1    2    0    0  0.16437515487E+02  0.51020059998E+01 -0.73795941217E+01  0.18726472973E+02  0.00000000000E+00 0.  1.
         11    1    3    3    0    0 -0.47071614819E+01 -0.89679896615E+00 -0.73180811020E+01  0.87473383883E+01  0.51100000000E-03 0. -1.
        -11    1    3    3    0    0  0.11981451417E+02  0.20594770078E+02 -0.47195218424E+01  0.24289372559E+02  0.51100000000E-03 0.  1.
         12    1    3    3    0    0 -0.23711805421E+02 -0.24799977111E+02  0.19417197066E+02  0.39424816080E+02  0.00000000000E+00 0. -1.
</event>
<event>
 7    1  0.3435518E-013  0.7246158E+02  0.7816164E-02  0.1226708E+00
        -11   -1    0    0    0    0  0.00000000000E+00  0.00000000000E+00  0.45593999997E+02  0.45594000000E+02  0.51100000000E-03 0.  1.
         11   -1    0    0    0    0 -0.00000000000E+00 -0.00000000000E+00 -0.45593999997E+02  0.45594000000E+02  0.51100000000E-03 0. -1.
    9900012    2    1    2    0    0 -0.35256044507E+00  0.33652331709E+01 -0.18418189476E+02  0.72461580247E+02  0.70000012966E+02 0.  0.
        -12    1    1    2    0    0  0.35256044507E+00 -0.33652331709E+01  0.18418189476E+02  0.18726419753E+02  0.00000000000E+00 0.  1.
         11    1    3    3    0    0  0.23443286515E+02  0.72944232678E+01  0.15806615358E+02  0.29200092171E+02  0.51100000000E-03 0. -1.
        -11    1    3    3    0    0 -0.72266370435E+00 -0.13426029336E+01  0.39682059506E+00  0.15755292167E+01  0.51100000000E-03 0.  1.
        -12    1    3    3    0    0 -0.23073183256E+02 -0.25865871632E+01 -0.34621625429E+02  0.41685958860E+02  0.00000000000E+00 0.  1.
</event>
<event>
 7    1  0.3435518E-013  0.7246159E+02  0.7816164E-02  0.1226708E+00
        -11   -1    0    0    0    0  0.00000000000E+00  0.00000000000E+00  0.45593999997E+02  0.45594000000E+02  0.51100000000E-03 0. -1.
         11   -1    0    0    0    0 -0.00000000000E+00 -0.00000000000E+00 -0.45593999997E+02  0.45594000000E+02  0.51100000000E-03 0.  1.
    9900012    2    1    2    0    0 -0.29307011793E+00 -0.16157312918E+02 -0.94622194299E+01  0.72461594916E+02  0.70000032074E+02 0.  0.
        -12    1    1    2    0    0  0.29307011793E+00  0.16157312918E+02  0.94622194299E+01  0.18726405084E+02  0.00000000000E+00 0.  1.
         11    1    3    3    0    0 -0.12048553878E+02 -0.19995592599E+02  0.13672858586E+02  0.27054360759E+02  0.51100000000E-03 0. -1.
        -11    1    3    3    0    0  0.22908579119E+01 -0.15575392279E+02 -0.33041030909E+01  0.16085955742E+02  0.51100000000E-03 0.  1.
        -12    1    3    3    0    0  0.94646258478E+01  0.19413671960E+02 -0.19830974925E+02  0.29321278415E+02  0.00000000000E+00 0.  1.
</event>
<event>
 7    1  0.3435518E-013  0.7246231E+02  0.7816164E-02  0.1226706E+00
        -11   -1    0    0    0    0  0.00000000000E+00  0.00000000000E+00  0.45593999997E+02  0.45594000000E+02  0.51100000000E-03 0.  1.
         11   -1    0    0    0    0 -0.00000000000E+00 -0.00000000000E+00 -0.45593999997E+02  0.45594000000E+02  0.51100000000E-03 0. -1.
    9900012    2    1    2    0    0  0.17285489431E+02  0.67111067960E+01 -0.26123595092E+01  0.72462308517E+02  0.70000961666E+02 0.  0.
        -12    1    1    2    0    0 -0.17285489431E+02 -0.67111067960E+01  0.26123595092E+01  0.18725691483E+02  0.00000000000E+00 0.  1.
         11    1    3    3    0    0 -0.27127225008E+01 -0.37755840464E+01 -0.27904017578E+01  0.54221988611E+01  0.51100000000E-03 0. -1.
        -11    1    3    3    0    0  0.26256433262E+02  0.19007517573E+02 -0.24211094152E+02  0.40458164717E+02  0.51100000000E-03 0.  1.
        -12    1    3    3    0    0 -0.62582213301E+01 -0.85208267307E+01  0.24389136401E+02  0.26581944939E+02  0.00000000000E+00 0.  1.
</event>
<event>
 7    1  0.3435518E-013  0.7246157E+02  0.7816164E-02  0.1226708E+00
        -11   -1    0    0    0    0  0.00000000000E+00  0.00000000000E+00  0.45593999997E+02  0.45594000000E+02  0.51100000000E-03 0. -1.
         11   -1    0    0    0    0 -0.00000000000E+00 -0.00000000000E+00 -0.45593999997E+02  0.45594000000E+02  0.51100000000E-03 0.  1.
    9900012    2    1    2    0    0 -0.14598841329E+02  0.20311077791E+01  0.11551081917E+02  0.72461573208E+02  0.70000003796E+02 0.  0.
        -12    1    1    2    0    0  0.14598841329E+02 -0.20311077791E+01 -0.11551081917E+02  0.18726426792E+02  0.00000000000E+00 0.  1.
         11    1    3    3    0    0 -0.11602806398E+02 -0.13782377338E+02 -0.10020863450E+02  0.20615449206E+02  0.51100000000E-03 0. -1.
        -11    1    3    3    0    0  0.18579368064E+01  0.27024958747E+02  0.38992880906E-01  0.27088777107E+02  0.51100000000E-03 0.  1.
        -12    1    3    3    0    0 -0.48539717370E+01 -0.11211473629E+02  0.21532952486E+02  0.24757346896E+02  0.00000000000E+00 0.  1.
</event>
<event>
 7    1  0.3435518E-013  0.7246155E+02  0.7816164E-02  0.1226708E+00
        -11   -1    0    0    0    0  0.00000000000E+00  0.00000000000E+00  0.45593999997E+02  0.45594000000E+02  0.51100000000E-03 0.  1.
         11   -1    0    0    0    0 -0.00000000000E+00 -0.00000000000E+00 -0.45593999997E+02  0.45594000000E+02  0.51100000000E-03 0. -1.
    9900012    2    1    2    0    0 -0.14207729548E+02 -0.11148184952E+02 -0.49536277373E+01  0.72461547202E+02  0.69999969918E+02 0.  0.
        -12    1    1    2    0    0  0.14207729548E+02  0.11148184952E+02  0.49536277373E+01  0.18726452798E+02  0.00000000000E+00 0.  1.
         11    1    3    3    0    0 -0.23800586473E+02 -0.19806873644E+02  0.33121759570E+01  0.31140819993E+02  0.51100000000E-03 0. -1.
        -11    1    3    3    0    0  0.70411349267E+01 -0.15024381208E+02 -0.21766636379E+01  0.16734619105E+02  0.51100000000E-03 0.  1.
        -12    1    3    3    0    0  0.25517219987E+01  0.23683069900E+02 -0.60891400564E+01  0.24586108104E+02  0.00000000000E+00 0.  1.
</event>
<event>
 7    1  0.3435518E-013  0.7246141E+02  0.7816164E-02  0.1226708E+00
        -11   -1    0    0    0    0  0.00000000000E+00  0.00000000000E+00  0.45593999997E+02  0.45594000000E+02  0.51100000000E-03 0.  1.
         11   -1    0    0    0    0 -0.00000000000E+00 -0.00000000000E+00 -0.45593999997E+02  0.45594000000E+02  0.51100000000E-03 0. -1.
    9900012    2    1    2    0    0 -0.50325851050E+01  0.16672994021E+02 -0.68825403254E+01  0.72461414518E+02  0.69999797073E+02 0.  0.
        -12    1    1    2    0    0  0.50325851050E+01 -0.16672994021E+02  0.68825403254E+01  0.18726585482E+02  0.00000000000E+00 0.  1.
         11    1    3    3    0    0  0.37725731130E+01  0.23821462733E+02 -0.29664818348E+02  0.38232131022E+02  0.51100000000E-03 0. -1.
        -11    1    3    3    0    0  0.37114802329E+01  0.46110008335E+01  0.28509000387E+00  0.59260181216E+01  0.51100000000E-03 0.  1.
        -12    1    3    3    0    0 -0.12516638451E+02 -0.11759469545E+02  0.22497188019E+02  0.28303265374E+02  0.00000000000E+00 0.  1.
</event>
<event>
 7    1  0.3435518E-013  0.7246158E+02  0.7816164E-02  0.1226708E+00
        -11   -1    0    0    0    0  0.00000000000E+00  0.00000000000E+00  0.45593999997E+02  0.45594000000E+02  0.51100000000E-03 0.  1.
         11   -1    0    0    0    0 -0.00000000000E+00 -0.00000000000E+00 -0.45593999997E+02  0.45594000000E+02  0.51100000000E-03 0. -1.
    9900012    2    1    2    0    0 -0.16303035162E+02 -0.91911291286E+01 -0.64267840331E+00  0.72461578941E+02  0.70000011264E+02 0.  0.
        -12    1    1    2    0    0  0.16303035162E+02  0.91911291286E+01  0.64267840331E+00  0.18726421059E+02  0.00000000000E+00 0.  1.
         11    1    3    3    0    0 -0.10215410118E+02 -0.36284947631E+02 -0.10328828428E+02  0.39084993609E+02  0.51100000000E-03 0. -1.
        -11    1    3    3    0    0 -0.42004111888E+01  0.10222259909E+02  0.11918246497E+02  0.16253696552E+02  0.51100000000E-03 0.  1.
        -12    1    3    3    0    0 -0.18872138552E+01  0.16871558593E+02 -0.22320964723E+01  0.17122888780E+02  0.00000000000E+00 0.  1.
</event>
<event>
 7    1  0.3435518E-013  0.7246135E+02  0.7816164E-02  0.1226709E+00
        -11   -1    0    0    0    0  0.00000000000E+00  0.00000000000E+00  0.45593999997E+02  0.45594000000E+02  0.51100000000E-03 0. -1.
         11   -1    0    0    0    0 -0.00000000000E+00 -0.00000000000E+00 -0.45593999997E+02  0.45594000000E+02  0.51100000000E-03 0.  1.
    9900012    2    1    2    0    0  0.15906878054E+02 -0.36573292733E+01  0.91805584409E+01  0.72461348401E+02  0.69999710942E+02 0.  0.
        -12    1    1    2    0    0 -0.15906878054E+02  0.36573292733E+01 -0.91805584409E+01  0.18726651599E+02  0.00000000000E+00 0.  1.
         11    1    3    3    0    0  0.18921124416E+02  0.41945538760E+01  0.25340995450E+02  0.31902496486E+02  0.51100000000E-03 0. -1.
        -11    1    3    3    0    0 -0.11771921778E+02 -0.17923814208E+01  0.78706856306E+01  0.14273698401E+02  0.51100000000E-03 0.  1.
        -12    1    3    3    0    0  0.87576754153E+01 -0.60595017285E+01 -0.24031122640E+02  0.26285153513E+02  0.00000000000E+00 0.  1.
</event>
<event>
 7    1  0.3435518E-013  0.7246152E+02  0.7816164E-02  0.1226708E+00
        -11   -1    0    0    0    0  0.00000000000E+00  0.00000000000E+00  0.45593999997E+02  0.45594000000E+02  0.51100000000E-03 0.  1.
         11   -1    0    0    0    0 -0.00000000000E+00 -0.00000000000E+00 -0.45593999997E+02  0.45594000000E+02  0.51100000000E-03 0. -1.
    9900012    2    1    2    0    0  0.68765640359E+01  0.10983133286E+02  0.13519054277E+02  0.72461516660E+02  0.69999930132E+02 0.  0.
        -12    1    1    2    0    0 -0.68765640359E+01 -0.10983133286E+02 -0.13519054277E+02  0.18726483340E+02  0.00000000000E+00 0.  1.
         11    1    3    3    0    0 -0.59507438515E+01  0.15089313025E+02 -0.35634877300E+00  0.16224232021E+02  0.51100000000E-03 0. -1.
        -11    1    3    3    0    0  0.37299354081E+00  0.23411084819E+02  0.11081104664E+02  0.25903839434E+02  0.51100000000E-03 0.  1.
        -12    1    3    3    0    0  0.12454314347E+02 -0.27517264558E+02  0.27942983861E+01  0.30333445206E+02  0.00000000000E+00 0.  1.
</event>
<event>
 7    1  0.3435518E-013  0.7246158E+02  0.7816164E-02  0.1226708E+00
        -11   -1    0    0    0    0  0.00000000000E+00  0.00000000000E+00  0.45593999997E+02  0.45594000000E+02  0.51100000000E-03 0. -1.
         11   -1    0    0    0    0 -0.00000000000E+00 -0.00000000000E+00 -0.45593999997E+02  0.45594000000E+02  0.51100000000E-03 0.  1.
    9900012    2    1    2    0    0 -0.58831902265E+01 -0.34611959306E+01  0.17438093632E+02  0.72461577116E+02  0.70000008886E+02 0.  0.
        -12    1    1    2    0    0  0.58831902265E+01  0.34611959306E+01 -0.17438093632E+02  0.18726422884E+02  0.00000000000E+00 0.  1.
         11    1    3    3    0    0  0.14096571737E+02 -0.78039322990E+01  0.24990480485E+01  0.16305211911E+02  0.51100000000E-03 0. -1.
        -11    1    3    3    0    0  0.73701714102E+01  0.20622180605E+02  0.27400628640E+01  0.22070380701E+02  0.51100000000E-03 0.  1.
        -12    1    3    3    0    0 -0.27349933373E+02 -0.16279444237E+02  0.12198982720E+02  0.34085984504E+02  0.00000000000E+00 0.  1.
</event>
<event>
 7    1  0.3435518E-013  0.7246169E+02  0.7816164E-02  0.1226708E+00
        -11   -1    0    0    0    0  0.00000000000E+00  0.00000000000E+00  0.45593999997E+02  0.45594000000E+02  0.51100000000E-03 0.  1.
         11   -1    0    0    0    0 -0.00000000000E+00 -0.00000000000E+00 -0.45593999997E+02  0.45594000000E+02  0.51100000000E-03 0. -1.
    9900012    2    1    2    0    0 -0.15234670103E+02  0.92567839894E+01 -0.57351008141E+01  0.72461692187E+02  0.70000158787E+02 0.  0.
        -12    1    1    2    0    0  0.15234670103E+02 -0.92567839894E+01  0.57351008141E+01  0.18726307813E+02  0.00000000000E+00 0.  1.
         11    1    3    3    0    0  0.26465205812E+00 -0.59019223803E+01  0.35086747633E+01  0.68712100354E+01  0.51100000000E-03 0. -1.
        -11    1    3    3    0    0  0.17291452808E+02 -0.65638011750E+01  0.10828094108E+02  0.21431879254E+02  0.51100000000E-03 0.  1.
         12    1    3    3    0    0 -0.32790774970E+02  0.21722507545E+02 -0.20071869686E+02  0.44158602897E+02  0.00000000000E+00 0. -1.
</event>
<event>
 7    1  0.3435518E-013  0.7246160E+02  0.7816164E-02  0.1226708E+00
        -11   -1    0    0    0    0  0.00000000000E+00  0.00000000000E+00  0.45593999997E+02  0.45594000000E+02  0.51100000000E-03 0. -1.
         11   -1    0    0    0    0 -0.00000000000E+00 -0.00000000000E+00 -0.45593999997E+02  0.45594000000E+02  0.51100000000E-03 0.  1.
    9900012    2    1    2    0    0 -0.31499819035E+01 -0.18044519621E+02  0.38924169798E+01  0.72461601941E+02  0.70000041225E+02 0.  0.
        -12    1    1    2    0    0  0.31499819035E+01  0.18044519621E+02 -0.38924169798E+01  0.18726398059E+02  0.00000000000E+00 0.  1.
         11    1    3    3    0    0 -0.11936588835E+02 -0.22243067527E+02  0.30990311116E+00  0.25245440107E+02  0.51100000000E-03 0. -1.
        -11    1    3    3    0    0  0.14323674765E+02 -0.13624602148E+02  0.15458102929E+02  0.25094827931E+02  0.51100000000E-03 0.  1.
        -12    1    3    3    0    0 -0.55370678333E+01  0.17823150054E+02 -0.11875589061E+02  0.22121333902E+02  0.00000000000E+00 0.  1.
</event>
<event>
 7    1  0.3435518E-013  0.7246158E+02  0.7816164E-02  0.1226708E+00
        -11   -1    0    0    0    0  0.00000000000E+00  0.00000000000E+00  0.45593999997E+02  0.45594000000E+02  0.51100000000E-03 0.  1.
         11   -1    0    0    0    0 -0.00000000000E+00 -0.00000000000E+00 -0.45593999997E+02  0.45594000000E+02  0.51100000000E-03 0. -1.
    9900012    2    1    2    0    0 -0.16576119661E+02  0.85671360387E+01 -0.15859175641E+01  0.72461582899E+02  0.70000016420E+02 0.  0.
        -12    1    1    2    0    0  0.16576119661E+02 -0.85671360387E+01  0.15859175641E+01  0.18726417101E+02  0.00000000000E+00 0.  1.
         11    1    3    3    0    0  0.50773648863E+01  0.87828189959E+01 -0.52281505546E+01  0.11412760498E+02  0.51100000000E-03 0. -1.
        -11    1    3    3    0    0  0.19365577132E+02  0.35407554946E+01 -0.11674415537E+00  0.19686953970E+02  0.51100000000E-03 0.  1.
        -12    1    3    3    0    0 -0.41019061680E+02 -0.37564384519E+01  0.37589771458E+01  0.41361868431E+02  0.00000000000E+00 0.  1.
</event>
<event>
 7    1  0.3435518E-013  0.7246154E+02  0.7816164E-02  0.1226708E+00
        -11   -1    0    0    0    0  0.00000000000E+00  0.00000000000E+00  0.45593999997E+02  0.45594000000E+02  0.51100000000E-03 0.  1.
         11   -1    0    0    0    0 -0.00000000000E+00 -0.00000000000E+00 -0.45593999997E+02  0.45594000000E+02  0.51100000000E-03 0. -1.
    9900012    2    1    2    0    0  0.15908187483E+02 -0.98136160528E+01 -0.11413857863E+01  0.72461541431E+02  0.69999962400E+02 0.  0.
        -12    1    1    2    0    0 -0.15908187483E+02  0.98136160528E+01  0.11413857863E+01  0.18726458569E+02  0.00000000000E+00 0.  1.
         11    1    3    3    0    0  0.19677234327E+01  0.87445477291E+01 -0.37546415878E+01  0.97178384535E+01  0.51100000000E-03 0. -1.
        -11    1    3    3    0    0  0.38849552491E+01  0.21032863163E+02  0.44809278318E+01  0.21852984341E+02  0.51100000000E-03 0.  1.
         12    1    3    3    0    0  0.10055508801E+02 -0.39591026945E+02 -0.18676720303E+01  0.40890718636E+02  0.00000000000E+00 0. -1.
</event>
<event>
 7    1  0.3435518E-013  0.7246157E+02  0.7816164E-02  0.1226708E+00
        -11   -1    0    0    0    0  0.00000000000E+00  0.00000000000E+00  0.45593999997E+02  0.45594000000E+02  0.51100000000E-03 0.  1.
         11   -1    0    0    0    0 -0.00000000000E+00 -0.00000000000E+00 -0.45593999997E+02  0.45594000000E+02  0.51100000000E-03 0. -1.
    9900012    2    1    2    0    0  0.15736062946E+02  0.73965828178E+01  0.69531418559E+01  0.72461566915E+02  0.69999995598E+02 0.  0.
        -12    1    1    2    0    0 -0.15736062946E+02 -0.73965828178E+01 -0.69531418559E+01  0.18726433085E+02  0.00000000000E+00 0.  1.
         11    1    3    3    0    0  0.10245064643E+02 -0.23057961230E+01 -0.14641191474E+02  0.18017839308E+02  0.51100000000E-03 0. -1.
        -11    1    3    3    0    0  0.62958093113E+01 -0.73043726910E+01 -0.12823644088E+02  0.16044841016E+02  0.51100000000E-03 0.  1.
        -12    1    3    3    0    0 -0.80481100836E+00  0.17006751632E+02  0.34417977418E+02  0.38398886590E+02  0.00000000000E+00 0.  1.
</event>
<event>
 7    1  0.3435518E-013  0.7246158E+02  0.7816164E-02  0.1226708E+00
        -11   -1    0    0    0    0  0.00000000000E+00  0.00000000000E+00  0.45593999997E+02  0.45594000000E+02  0.51100000000E-03 0. -1.
         11   -1    0    0    0    0 -0.00000000000E+00 -0.00000000000E+00 -0.45593999997E+02  0.45594000000E+02  0.51100000000E-03 0.  1.
    9900012    2    1    2    0    0  0.91380110518E+01 -0.10772446899E+02  0.12293494159E+02  0.72461578644E+02  0.70000010877E+02 0.  0.
        -12    1    1    2    0    0 -0.91380110518E+01  0.10772446899E+02 -0.12293494159E+02  0.18726421356E+02  0.00000000000E+00 0.  1.
         11    1    3    3    0    0 -0.58020503755E+01  0.13359424910E+02  0.65231833595E+01  0.15959008237E+02  0.51100000000E-03 0. -1.
        -11    1    3    3    0    0  0.68250545379E+01  0.14869452060E+02  0.21532346769E+01  0.16502072410E+02  0.51100000000E-03 0.  1.
         12    1    3    3    0    0  0.81150068894E+01 -0.39001323869E+02  0.36170761228E+01  0.40000497997E+02  0.00000000000E+00 0. -1.
</event>
<event>
 7    1  0.4751799E-013  0.7246158E+02  0.7816164E-02  0.1226708E+00
        -11   -1    0    0    0    0  0.00000000000E+00  0.00000000000E+00  0.45593999997E+02  0.45594000000E+02  0.51100000000E-03 0.  1.
         11   -1    0    0    0    0 -0.00000000000E+00 -0.00000000000E+00 -0.45593999997E+02  0.45594000000E+02  0.51100000000E-03 0. -1.
    9900012    2    1    2    0    0  0.31288178264E+01 -0.15568157252E+02 -0.99258205872E+01  0.72461576541E+02  0.70000008138E+02 0.  0.
        -12    1    1    2    0    0 -0.31288178264E+01  0.15568157252E+02  0.99258205872E+01  0.18726423459E+02  0.00000000000E+00 0.  1.
         11    1    3    3    0    0 -0.20356155352E+01 -0.58969048981E+01  0.57415399874E+01  0.84783547739E+01  0.51100000000E-03 0. -1.
        -11    1    3    3    0    0 -0.97402597800E+01  0.15796165033E+01  0.20794757471E+02  0.23017162888E+02  0.51100000000E-03 0.  1.
         12    1    3    3    0    0  0.14904693142E+02 -0.11250868858E+02 -0.36462118046E+02  0.40966058879E+02  0.00000000000E+00 0. -1.
</event>
<event>
 7    1  0.3435518E-013  0.7246159E+02  0.7816164E-02  0.1226708E+00
        -11   -1    0    0    0    0  0.00000000000E+00  0.00000000000E+00  0.45593999997E+02  0.45594000000E+02  0.51100000000E-03 0.  1.
         11   -1    0    0    0    0 -0.00000000000E+00 -0.00000000000E+00 -0.45593999997E+02  0.45594000000E+02  0.51100000000E-03 0. -1.
    9900012    2    1    2    0    0 -0.16234127541E+02  0.61541172702E+01  0.70184322691E+01  0.72461589561E+02  0.70000025099E+02 0.  0.
        -12    1    1    2    0    0  0.16234127541E+02 -0.61541172702E+01 -0.70184322691E+01  0.18726410439E+02  0.00000000000E+00 0.  1.
         11    1    3    3    0    0 -0.37368555083E+01 -0.20055929030E+02  0.85679872896E+01  0.22127240786E+02  0.51100000000E-03 0. -1.
        -11    1    3    3    0    0  0.13266921373E+02  0.50560587892E+01  0.71293298820E+01  0.15887173380E+02  0.51100000000E-03 0.  1.
        -12    1    3    3    0    0 -0.25764193406E+02  0.21153987511E+02 -0.86788849026E+01  0.34447175394E+02  0.00000000000E+00 0.  1.
</event>
<event>
 7    1  0.3435518E-013  0.7246182E+02  0.7816164E-02  0.1226707E+00
        -11   -1    0    0    0    0  0.00000000000E+00  0.00000000000E+00  0.45593999997E+02  0.45594000000E+02  0.51100000000E-03 0. -1.
         11   -1    0    0    0    0 -0.00000000000E+00 -0.00000000000E+00 -0.45593999997E+02  0.45594000000E+02  0.51100000000E-03 0.  1.
    9900012    2    1    2    0    0  0.14402351554E+02 -0.11381835062E+02  0.37008097520E+01  0.72461817995E+02  0.70000322676E+02 0.  0.
        -12    1    1    2    0    0 -0.14402351554E+02  0.11381835062E+02 -0.37008097520E+01  0.18726182005E+02  0.00000000000E+00 0.  1.
         11    1    3    3    0    0  0.80942293737E+01  0.70711194775E+01  0.39638874118E+01  0.11455552518E+02  0.51100000000E-03 0. -1.
        -11    1    3    3    0    0  0.31663226763E+02 -0.16131651416E+02 -0.66415930293E+00  0.35541964130E+02  0.51100000000E-03 0.  1.
         12    1    3    3    0    0 -0.25355104583E+02 -0.23213031241E+01  0.40108164321E+00  0.25464301347E+02  0.00000000000E+00 0. -1.
</event>
<event>
 7    1  0.3435518E-013  0.7246159E+02  0.7816164E-02  0.1226708E+00
        -11   -1    0    0    0    0  0.00000000000E+00  0.00000000000E+00  0.45593999997E+02  0.45594000000E+02  0.51100000000E-03 0.  1.
         11   -1    0    0    0    0 -0.00000000000E+00 -0.00000000000E+00 -0.45593999997E+02  0.45594000000E+02  0.51100000000E-03 0. -1.
    9900012    2    1    2    0    0  0.15647224953E+02 -0.51311698658E+01  0.89170558331E+01  0.72461589836E+02  0.70000025456E+02 0.  0.
        -12    1    1    2    0    0 -0.15647224953E+02  0.51311698658E+01 -0.89170558331E+01  0.18726410164E+02  0.00000000000E+00 0.  1.
         11    1    3    3    0    0 -0.79403170347E+01  0.73775078762E+01 -0.11812957220E+02  0.16031912413E+02  0.51100000000E-03 0. -1.
        -11    1    3    3    0    0  0.10070722772E+02 -0.28076651256E+02  0.44466692580E+01  0.30157763024E+02  0.51100000000E-03 0.  1.
         12    1    3    3    0    0  0.13516819216E+02  0.15567973514E+02  0.16283343795E+02  0.26271914399E+02  0.00000000000E+00 0. -1.
</event>
<event>
 7    1  0.3435518E-013  0.7246153E+02  0.7816164E-02  0.1226708E+00
        -11   -1    0    0    0    0  0.00000000000E+00  0.00000000000E+00  0.45593999997E+02  0.45594000000E+02  0.51100000000E-03 0.  1.
         11   -1    0    0    0    0 -0.00000000000E+00 -0.00000000000E+00 -0.45593999997E+02  0.45594000000E+02  0.51100000000E-03 0. -1.
    9900012    2    1    2    0    0 -0.14535679669E+02 -0.10703566875E+02 -0.49827909037E+01  0.72461533903E+02  0.69999952593E+02 0.  0.
        -12    1    1    2    0    0  0.14535679669E+02  0.10703566875E+02  0.49827909037E+01  0.18726466097E+02  0.00000000000E+00 0.  1.
         11    1    3    3    0    0 -0.19174435164E+02  0.18786366573E+02 -0.13419421959E+02  0.30011121586E+02  0.51100000000E-03 0. -1.
        -11    1    3    3    0    0  0.10488828935E+02 -0.31893836625E+01 -0.53342383273E+01  0.12191874317E+02  0.51100000000E-03 0.  1.
        -12    1    3    3    0    0 -0.58500734398E+01 -0.26300549786E+02  0.13770869382E+02  0.30258537999E+02  0.00000000000E+00 0.  1.
</event>
<event>
 7    1  0.3435518E-013  0.7246155E+02  0.7816164E-02  0.1226708E+00
        -11   -1    0    0    0    0  0.00000000000E+00  0.00000000000E+00  0.45593999997E+02  0.45594000000E+02  0.51100000000E-03 0. -1.
         11   -1    0    0    0    0 -0.00000000000E+00 -0.00000000000E+00 -0.45593999997E+02  0.45594000000E+02  0.51100000000E-03 0.  1.
    9900012    2    1    2    0    0 -0.15581089737E+02 -0.10056520890E+02 -0.26030697748E+01  0.72461549667E+02  0.69999973129E+02 0.  0.
        -12    1    1    2    0    0  0.15581089737E+02  0.10056520890E+02  0.26030697748E+01  0.18726450333E+02  0.00000000000E+00 0.  1.
         11    1    3    3    0    0 -0.31721491391E+02  0.10026376302E+02  0.15642907982E+02  0.36762505467E+02  0.51100000000E-03 0. -1.
        -11    1    3    3    0    0 -0.30347487742E+01 -0.60949176502E+01 -0.55356700102E+01  0.87750421086E+01  0.51100000000E-03 0.  1.
        -12    1    3    3    0    0  0.19175150428E+02 -0.13987979542E+02 -0.12710307747E+02  0.26924002091E+02  0.00000000000E+00 0.  1.
</event>
<event>
 7    1  0.3435518E-013  0.7246160E+02  0.7816164E-02  0.1226708E+00
        -11   -1    0    0    0    0  0.00000000000E+00  0.00000000000E+00  0.45593999997E+02  0.45594000000E+02  0.51100000000E-03 0.  1.
         11   -1    0    0    0    0 -0.00000000000E+00 -0.00000000000E+00 -0.45593999997E+02  0.45594000000E+02  0.51100000000E-03 0. -1.
    9900012    2    1    2    0    0 -0.13839986071E+02 -0.92030079148E+01 -0.86277142722E+01  0.72461600915E+02  0.70000039890E+02 0.  0.
        -12    1    1    2    0    0  0.13839986071E+02  0.92030079148E+01  0.86277142722E+01  0.18726399085E+02  0.00000000000E+00 0.  1.
         11    1    3    3    0    0  0.21435701549E+02 -0.91096151496E+01 -0.11872857308E+02  0.26142668762E+02  0.51100000000E-03 0. -1.
        -11    1    3    3    0    0 -0.86728127172E+01 -0.38678282335E+01 -0.12096188813E+02  0.15378412133E+02  0.51100000000E-03 0.  1.
        -12    1    3    3    0    0 -0.26602874902E+02  0.37744354682E+01  0.15341331850E+02  0.30940520020E+02  0.00000000000E+00 0.  1.
</event>
<event>
 7    1  0.3435518E-013  0.7246159E+02  0.7816164E-02  0.1226708E+00
        -11   -1    0    0    0    0  0.00000000000E+00  0.00000000000E+00  0.45593999997E+02  0.45594000000E+02  0.51100000000E-03 0.  1.
         11   -1    0    0    0    0 -0.00000000000E+00 -0.00000000000E+00 -0.45593999997E+02  0.45594000000E+02  0.51100000000E-03 0. -1.
    9900012    2    1    2    0    0 -0.10433199081E+02 -0.52282289554E+01 -0.14645561210E+02  0.72461588592E+02  0.70000023836E+02 0.  0.
        -12    1    1    2    0    0  0.10433199081E+02  0.52282289554E+01  0.14645561210E+02  0.18726411408E+02  0.00000000000E+00 0.  1.
         11    1    3    3    0    0  0.28661533188E+01  0.10607959271E+01 -0.36213437897E+01  0.47385919797E+01  0.51100000000E-03 0. -1.
        -11    1    3    3    0    0  0.16868335999E+02 -0.21456417044E+02 -0.18713626450E+02  0.33092573289E+02  0.51100000000E-03 0.  1.
        -12    1    3    3    0    0 -0.30167688399E+02  0.15167392161E+02  0.76894090304E+01  0.34630423323E+02  0.00000000000E+00 0.  1.
</event>
<event>
 7    1  0.3435518E-013  0.7246153E+02  0.7816164E-02  0.1226708E+00
        -11   -1    0    0    0    0  0.00000000000E+00  0.00000000000E+00  0.45593999997E+02  0.45594000000E+02  0.51100000000E-03 0.  1.
         11   -1    0    0    0    0 -0.00000000000E+00 -0.00000000000E+00 -0.45593999997E+02  0.45594000000E+02  0.51100000000E-03 0. -1.
    9900012    2    1    2    0    0  0.13675622116E+02  0.11917164747E+02 -0.46518142088E+01  0.72461525924E+02  0.69999942199E+02 0.  0.
        -12    1    1    2    0    0 -0.13675622116E+02 -0.11917164747E+02  0.46518142088E+01  0.18726474076E+02  0.00000000000E+00 0.  1.
         11    1    3    3    0    0 -0.65284593983E+01  0.37660309322E+01  0.16445123353E+02  0.18089937906E+02  0.51100000000E-03 0. -1.
        -11    1    3    3    0    0 -0.74422013627E+00  0.12099111725E+02  0.10647258813E+02  0.16134016507E+02  0.51100000000E-03 0.  1.
         12    1    3    3    0    0  0.20948301651E+02 -0.39479779093E+01 -0.31744196375E+02  0.38237571512E+02  0.00000000000E+00 0. -1.
</event>
<event>
 7    1  0.3435518E-013  0.7246159E+02  0.7816164E-02  0.1226708E+00
        -11   -1    0    0    0    0  0.00000000000E+00  0.00000000000E+00  0.45593999997E+02  0.45594000000E+02  0.51100000000E-03 0.  1.
         11   -1    0    0    0    0 -0.00000000000E+00 -0.00000000000E+00 -0.45593999997E+02  0.45594000000E+02  0.51100000000E-03 0. -1.
    9900012    2    1    2    0    0  0.16669424321E+02 -0.79052429167E+01 -0.32118473807E+01  0.72461587200E+02  0.70000022023E+02 0.  0.
        -12    1    1    2    0    0 -0.16669424321E+02  0.79052429167E+01  0.32118473807E+01  0.18726412800E+02  0.00000000000E+00 0.  1.
         11    1    3    3    0    0  0.28219588590E+02 -0.11839895768E+02  0.15153934011E+02  0.34149231737E+02  0.51100000000E-03 0. -1.
        -11    1    3    3    0    0 -0.16823043159E+01  0.10924511948E+02  0.49006736015E+01  0.12090976434E+02  0.51100000000E-03 0.  1.
        -12    1    3    3    0    0 -0.98678599534E+01 -0.69898590969E+01 -0.23266454993E+02  0.26221379029E+02  0.00000000000E+00 0.  1.
</event>
<event>
 7    1  0.3435518E-013  0.7246157E+02  0.7816164E-02  0.1226708E+00
        -11   -1    0    0    0    0  0.00000000000E+00  0.00000000000E+00  0.45593999997E+02  0.45594000000E+02  0.51100000000E-03 0. -1.
         11   -1    0    0    0    0 -0.00000000000E+00 -0.00000000000E+00 -0.45593999997E+02  0.45594000000E+02  0.51100000000E-03 0.  1.
    9900012    2    1    2    0    0 -0.11004340298E+02 -0.11345929657E+02  0.10042581067E+02  0.72461573227E+02  0.70000003820E+02 0.  0.
        -12    1    1    2    0    0  0.11004340298E+02  0.11345929657E+02 -0.10042581067E+02  0.18726426773E+02  0.00000000000E+00 0.  1.
         11    1    3    3    0    0 -0.38269209137E+01  0.62518227051E+01 -0.66406835617E+01  0.98908689832E+01  0.51100000000E-03 0. -1.
        -11    1    3    3    0    0  0.73487697221E+01 -0.66619738208E+01 -0.19610957827E+02  0.21976714467E+02  0.51100000000E-03 0.  1.
         12    1    3    3    0    0 -0.14526189107E+02 -0.10935778542E+02  0.36294222456E+02  0.40593989776E+02  0.00000000000E+00 0. -1.
</event>
<event>
 7    1  0.3435518E-013  0.7246157E+02  0.7816164E-02  0.1226708E+00
        -11   -1    0    0    0    0  0.00000000000E+00  0.00000000000E+00  0.45593999997E+02  0.45594000000E+02  0.51100000000E-03 0.  1.
         11   -1    0    0    0    0 -0.00000000000E+00 -0.00000000000E+00 -0.45593999997E+02  0.45594000000E+02  0.51100000000E-03 0. -1.
    9900012    2    1    2    0    0  0.13078860103E+02 -0.12234045941E+02 -0.54727134393E+01  0.72461573377E+02  0.70000004016E+02 0.  0.
        -12    1    1    2    0    0 -0.13078860103E+02  0.12234045941E+02  0.54727134393E+01  0.18726426623E+02  0.00000000000E+00 0.  1.
         11    1    3    3    0    0  0.10989812246E+02 -0.70459043366E+01  0.55878563214E+01  0.14200171818E+02  0.51100000000E-03 0. -1.
        -11    1    3    3    0    0  0.26337844351E+02  0.10321316777E+02 -0.74403672898E+01  0.29250140012E+02  0.51100000000E-03 0.  1.
         12    1    3    3    0    0 -0.24248796493E+02 -0.15509458381E+02 -0.36202024709E+01  0.29011261547E+02  0.00000000000E+00 0. -1.
</event>
<event>
 7    1  0.3435518E-013  0.7246168E+02  0.7816164E-02  0.1226708E+00
        -11   -1    0    0    0    0  0.00000000000E+00  0.00000000000E+00  0.45593999997E+02  0.45594000000E+02  0.51100000000E-03 0.  1.
         11   -1    0    0    0    0 -0.00000000000E+00 -0.00000000000E+00 -0.45593999997E+02  0.45594000000E+02  0.51100000000E-03 0. -1.
    9900012    2    1    2    0    0  0.93848766195E+01  0.63572160245E+01 -0.14905875611E+02  0.72461675415E+02  0.70000136939E+02 0.  0.
        -12    1    1    2    0    0 -0.93848766195E+01 -0.63572160245E+01  0.14905875611E+02  0.18726324585E+02  0.00000000000E+00 0.  1.
         11    1    3    3    0    0 -0.10219973750E+02 -0.16354954070E+01 -0.86029134536E+01  0.13458559686E+02  0.51100000000E-03 0. -1.
        -11    1    3    3    0    0  0.10523401073E+02 -0.16627177922E+02  0.15370051621E+02  0.24968850652E+02  0.51100000000E-03 0.  1.
        -12    1    3    3    0    0  0.90814492958E+01  0.24619889354E+02 -0.21673013778E+02  0.34034265077E+02  0.00000000000E+00 0.  1.
</event>
<event>
 7    1  0.3435518E-013  0.7246158E+02  0.7816164E-02  0.1226708E+00
        -11   -1    0    0    0    0  0.00000000000E+00  0.00000000000E+00  0.45593999997E+02  0.45594000000E+02  0.51100000000E-03 0. -1.
         11   -1    0    0    0    0 -0.00000000000E+00 -0.00000000000E+00 -0.45593999997E+02  0.45594000000E+02  0.51100000000E-03 0.  1.
    9900012    2    1    2    0    0 -0.10114056796E+02  0.14245449147E+02  0.67418107552E+01  0.72461575393E+02  0.70000006642E+02 0.  0.
        -12    1    1    2    0    0  0.10114056796E+02 -0.14245449147E+02 -0.67418107552E+01  0.18726424607E+02  0.00000000000E+00 0.  1.
         11    1    3    3    0    0 -0.22508478688E+02  0.67255930219E+01  0.24641582490E+02  0.34045158279E+02  0.51100000000E-03 0. -1.
        -11    1    3    3    0    0 -0.86958867537E+01  0.50425187833E+01  0.85015139368E+00  0.10088022590E+02  0.51100000000E-03 0.  1.
        -12    1    3    3    0    0  0.21090308646E+02  0.24773373420E+01 -0.18749923128E+02  0.28328394525E+02  0.00000000000E+00 0.  1.
</event>
<event>
 7    1  0.3435518E-013  0.7246155E+02  0.7816164E-02  0.1226708E+00
        -11   -1    0    0    0    0  0.00000000000E+00  0.00000000000E+00  0.45593999997E+02  0.45594000000E+02  0.51100000000E-03 0.  1.
         11   -1    0    0    0    0 -0.00000000000E+00 -0.00000000000E+00 -0.45593999997E+02  0.45594000000E+02  0.51100000000E-03 0. -1.
    9900012    2    1    2    0    0 -0.24713764094E+01 -0.15338904868E+02 -0.10454202344E+02  0.72461546771E+02  0.69999969356E+02 0.  0.
        -12    1    1    2    0    0  0.24713764094E+01  0.15338904868E+02  0.10454202344E+02  0.18726453229E+02  0.00000000000E+00 0.  1.
         11    1    3    3    0    0 -0.24972275938E+01 -0.14287738994E+02 -0.19121815820E+02  0.24000405657E+02  0.51100000000E-03 0. -1.
        -11    1    3    3    0    0 -0.75571231302E+01 -0.22230026982E+02 -0.20000249021E+01  0.23564471339E+02  0.51100000000E-03 0.  1.
        -12    1    3    3    0    0  0.75829743147E+01  0.21178861108E+02  0.10667638377E+02  0.24896669774E+02  0.00000000000E+00 0.  1.
</event>
<event>
 7    1  0.3435518E-013  0.7246154E+02  0.7816164E-02  0.1226708E+00
        -11   -1    0    0    0    0  0.00000000000E+00  0.00000000000E+00  0.45593999997E+02  0.45594000000E+02  0.51100000000E-03 0. -1.
         11   -1    0    0    0    0 -0.00000000000E+00 -0.00000000000E+00 -0.45593999997E+02  0.45594000000E+02  0.51100000000E-03 0.  1.
    9900012    2    1    2    0    0 -0.12002468256E+00  0.21212515231E+01  0.18605546758E+02  0.72461535195E+02  0.69999954276E+02 0.  0.
        -12    1    1    2    0    0  0.12002468256E+00 -0.21212515231E+01 -0.18605546758E+02  0.18726464805E+02  0.00000000000E+00 0.  1.
         11    1    3    3    0    0  0.21723633297E+01  0.47061129526E+01  0.58300639742E+01  0.78010452994E+01  0.51100000000E-03 0. -1.
        -11    1    3    3    0    0  0.26730849643E+01  0.30153069605E+02  0.58340562416E+01  0.30828383063E+02  0.51100000000E-03 0.  1.
         12    1    3    3    0    0 -0.49654729767E+01 -0.32737931034E+02  0.69414265417E+01  0.33832106832E+02  0.00000000000E+00 0. -1.
</event>
<event>
 7    1  0.3435518E-013  0.7246147E+02  0.7816164E-02  0.1226708E+00
        -11   -1    0    0    0    0  0.00000000000E+00  0.00000000000E+00  0.45593999997E+02  0.45594000000E+02  0.51100000000E-03 0.  1.
         11   -1    0    0    0    0 -0.00000000000E+00 -0.00000000000E+00 -0.45593999997E+02  0.45594000000E+02  0.51100000000E-03 0. -1.
    9900012    2    1    2    0    0 -0.94538505728E+01  0.23612966628E+01  0.15991619341E+02  0.72461470644E+02  0.69999870187E+02 0.  0.
        -12    1    1    2    0    0  0.94538505728E+01 -0.23612966628E+01 -0.15991619341E+02  0.18726529356E+02  0.00000000000E+00 0.  1.
         11    1    3    3    0    0  0.37620868405E+00  0.22130428208E+00 -0.14088369069E+02  0.14095128657E+02  0.51100000000E-03 0. -1.
        -11    1    3    3    0    0 -0.24353399160E+02 -0.10337817115E+02  0.51857051249E+01  0.26960156736E+02  0.51100000000E-03 0.  1.
        -12    1    3    3    0    0  0.14523339903E+02  0.12477809495E+02  0.24894283285E+02  0.31406185251E+02  0.00000000000E+00 0.  1.
</event>
<event>
 7    1  0.3435518E-013  0.7246160E+02  0.7816164E-02  0.1226708E+00
        -11   -1    0    0    0    0  0.00000000000E+00  0.00000000000E+00  0.45593999997E+02  0.45594000000E+02  0.51100000000E-03 0.  1.
         11   -1    0    0    0    0 -0.00000000000E+00 -0.00000000000E+00 -0.45593999997E+02  0.45594000000E+02  0.51100000000E-03 0. -1.
    9900012    2    1    2    0    0 -0.10152018617E+02  0.15616649436E+02 -0.19325349957E+01  0.72461603840E+02  0.70000043700E+02 0.  0.
        -12    1    1    2    0    0  0.10152018617E+02 -0.15616649436E+02  0.19325349957E+01  0.18726396160E+02  0.00000000000E+00 0.  1.
         11    1    3    3    0    0  0.20060768540E+02 -0.95207018253E+01 -0.14264432151E+02  0.26392275812E+02  0.51100000000E-03 0. -1.
        -11    1    3    3    0    0 -0.50996302150E+01 -0.33376672257E+01  0.37115421243E+01  0.71359509556E+01  0.51100000000E-03 0.  1.
        -12    1    3    3    0    0 -0.25113156942E+02  0.28475018487E+02  0.86203550313E+01  0.38933377073E+02  0.00000000000E+00 0.  1.
</event>
<event>
 7    1  0.3435518E-013  0.7246154E+02  0.7816164E-02  0.1226708E+00
        -11   -1    0    0    0    0  0.00000000000E+00  0.00000000000E+00  0.45593999997E+02  0.45594000000E+02  0.51100000000E-03 0. -1.
         11   -1    0    0    0    0 -0.00000000000E+00 -0.00000000000E+00 -0.45593999997E+02  0.45594000000E+02  0.51100000000E-03 0.  1.
    9900012    2    1    2    0    0 -0.18198973182E+02 -0.12512239164E+01 -0.42322521622E+01  0.72461544261E+02  0.69999966087E+02 0.  0.
        -12    1    1    2    0    0  0.18198973182E+02  0.12512239164E+01  0.42322521622E+01  0.18726455739E+02  0.00000000000E+00 0.  1.
         11    1    3    3    0    0  0.12752603205E+02 -0.15384232859E+02 -0.14857319836E+01  0.20037737121E+02  0.51100000000E-03 0. -1.
        -11    1    3    3    0    0  0.96028440486E+01  0.69993134595E+00 -0.31887680551E+00  0.96335974791E+01  0.51100000000E-03 0.  1.
         12    1    3    3    0    0 -0.40554420435E+02  0.13433077596E+02 -0.24276433731E+01  0.42790209661E+02  0.00000000000E+00 0. -1.
</event>
<event>
 7    1  0.3435518E-013  0.7246157E+02  0.7816164E-02  0.1226708E+00
        -11   -1    0    0    0    0  0.00000000000E+00  0.00000000000E+00  0.45593999997E+02  0.45594000000E+02  0.51100000000E-03 0.  1.
         11   -1    0    0    0    0 -0.00000000000E+00 -0.00000000000E+00 -0.45593999997E+02  0.45594000000E+02  0.51100000000E-03 0. -1.
    9900012    2    1    2    0    0  0.16708661240E+02 -0.67002788980E+01  0.51581176192E+01  0.72461567475E+02  0.69999996327E+02 0.  0.
        -12    1    1    2    0    0 -0.16708661240E+02  0.67002788980E+01 -0.51581176192E+01  0.18726432525E+02  0.00000000000E+00 0.  1.
         11    1    3    3    0    0 -0.50202668490E-01  0.18261368597E+02 -0.12097567139E+02  0.21905050429E+02  0.51100000000E-03 0. -1.
        -11    1    3    3    0    0 -0.91597880829E+01 -0.16749112324E+02  0.12852838385E+02  0.23013690191E+02  0.51100000000E-03 0.  1.
         12    1    3    3    0    0  0.25918651991E+02 -0.82125351710E+01  0.44028463728E+01  0.27542826855E+02  0.00000000000E+00 0. -1.
</event>
<event>
 7    1  0.3435518E-013  0.7246157E+02  0.7816164E-02  0.1226708E+00
        -11   -1    0    0    0    0  0.00000000000E+00  0.00000000000E+00  0.45593999997E+02  0.45594000000E+02  0.51100000000E-03 0. -1.
         11   -1    0    0    0    0 -0.00000000000E+00 -0.00000000000E+00 -0.45593999997E+02  0.45594000000E+02  0.51100000000E-03 0.  1.
    9900012    2    1    2    0    0  0.10642389764E+02  0.15042655851E+02  0.33372345876E+01  0.72461572428E+02  0.70000002779E+02 0.  0.
        -12    1    1    2    0    0 -0.10642389764E+02 -0.15042655851E+02 -0.33372345876E+01  0.18726427572E+02  0.00000000000E+00 0.  1.
         11    1    3    3    0    0 -0.21274287331E+02  0.12301585882E+02 -0.20065664972E+01  0.24656654802E+02  0.51100000000E-03 0. -1.
        -11    1    3    3    0    0 -0.31280234922E+01 -0.81495027565E+01  0.68197377714E+01  0.11077353009E+02  0.51100000000E-03 0.  1.
        -12    1    3    3    0    0  0.35044700588E+02  0.10890572725E+02 -0.14759366866E+01  0.36727564617E+02  0.00000000000E+00 0.  1.
</event>
<event>
 7    1  0.3435518E-013  0.7246156E+02  0.7816164E-02  0.1226708E+00
        -11   -1    0    0    0    0  0.00000000000E+00  0.00000000000E+00  0.45593999997E+02  0.45594000000E+02  0.51100000000E-03 0.  1.
         11   -1    0    0    0    0 -0.00000000000E+00 -0.00000000000E+00 -0.45593999997E+02  0.45594000000E+02  0.51100000000E-03 0. -1.
    9900012    2    1    2    0    0 -0.12236317088E+02 -0.96687218769E+01  0.10366681465E+02  0.72461555511E+02  0.69999980741E+02 0.  0.
        -12    1    1    2    0    0  0.12236317088E+02  0.96687218769E+01 -0.10366681465E+02  0.18726444489E+02  0.00000000000E+00 0.  1.
         11    1    3    3    0    0 -0.78247932687E+01  0.42487892834E+01  0.41515418495E+01  0.98241997161E+01  0.51100000000E-03 0. -1.
        -11    1    3    3    0    0  0.51766810960E+01  0.28062965894E+01  0.30821462520E+02  0.31378908200E+02  0.51100000000E-03 0.  1.
         12    1    3    3    0    0 -0.95882049153E+01 -0.16723807750E+02 -0.24606322904E+02  0.31258447594E+02  0.00000000000E+00 0. -1.
</event>
<event>
 7    1  0.3435518E-013  0.7246216E+02  0.7816164E-02  0.1226706E+00
        -11   -1    0    0    0    0  0.00000000000E+00  0.00000000000E+00  0.45593999997E+02  0.45594000000E+02  0.51100000000E-03 0.  1.
         11   -1    0    0    0    0 -0.00000000000E+00 -0.00000000000E+00 -0.45593999997E+02  0.45594000000E+02  0.51100000000E-03 0. -1.
    9900012    2    1    2    0    0 -0.58917087353E+01 -0.65673732880E+01 -0.16517099306E+02  0.72462157076E+02  0.70000764388E+02 0.  0.
        -12    1    1    2    0    0  0.58917087353E+01  0.65673732880E+01  0.16517099306E+02  0.18725842924E+02  0.00000000000E+00 0.  1.
         11    1    3    3    0    0 -0.50465395429E+01 -0.12271467248E+01  0.79479777283E+00  0.52540607346E+01  0.51100000000E-03 0. -1.
        -11    1    3    3    0    0 -0.91168574480E+01  0.15659563444E+02  0.17843671385E+02  0.25430997340E+02  0.51100000000E-03 0.  1.
         12    1    3    3    0    0  0.82716882556E+01 -0.20999790007E+02 -0.35155568464E+02  0.41777099001E+02  0.00000000000E+00 0. -1.
</event>
<event>
 7    1  0.3435518E-013  0.7246155E+02  0.7816164E-02  0.1226708E+00
        -11   -1    0    0    0    0  0.00000000000E+00  0.00000000000E+00  0.45593999997E+02  0.45594000000E+02  0.51100000000E-03 0.  1.
         11   -1    0    0    0    0 -0.00000000000E+00 -0.00000000000E+00 -0.45593999997E+02  0.45594000000E+02  0.51100000000E-03 0. -1.
    9900012    2    1    2    0    0  0.15659455331E+02  0.87831898418E+01 -0.53213566087E+01  0.72461553428E+02  0.69999978028E+02 0.  0.
        -12    1    1    2    0    0 -0.15659455331E+02 -0.87831898418E+01  0.53213566087E+01  0.18726446572E+02  0.00000000000E+00 0.  1.
         11    1    3    3    0    0  0.70443883923E+01  0.16479264182E+02 -0.12540934512E+02  0.21873833557E+02  0.51100000000E-03 0. -1.
        -11    1    3    3    0    0  0.13408714857E+02  0.16534708104E+02  0.13362943823E+02  0.25134806028E+02  0.51100000000E-03 0.  1.
         12    1    3    3    0    0 -0.47936479178E+01 -0.24230782444E+02 -0.61433659200E+01  0.25452913842E+02  0.00000000000E+00 0. -1.
</event>
<event>
 7    1  0.3435518E-013  0.7246125E+02  0.7816164E-02  0.1226709E+00
        -11   -1    0    0    0    0  0.00000000000E+00  0.00000000000E+00  0.45593999997E+02  0.45594000000E+02  0.51100000000E-03 0. -1.
         11   -1    0    0    0    0 -0.00000000000E+00 -0.00000000000E+00 -0.45593999997E+02  0.45594000000E+02  0.51100000000E-03 0.  1.
    9900012    2    1    2    0    0  0.52775150136E+01 -0.11458894276E+02  0.13839536233E+02  0.72461249457E+02  0.69999582049E+02 0.  0.
        -12    1    1    2    0    0 -0.52775150136E+01  0.11458894276E+02 -0.13839536233E+02  0.18726750543E+02  0.00000000000E+00 0.  1.
         11    1    3    3    0    0 -0.12110378797E+02 -0.18950944722E+02  0.11162561086E+02  0.25107814535E+02  0.51100000000E-03 0. -1.
        -11    1    3    3    0    0  0.54498185360E+01 -0.18170516844E+02  0.76973305046E+00  0.18985802424E+02  0.51100000000E-03 0.  1.
        -12    1    3    3    0    0  0.11938075275E+02  0.25662567290E+02  0.19072420959E+01  0.28367632499E+02  0.00000000000E+00 0.  1.
</event>
<event>
 7    1  0.3435518E-013  0.7246142E+02  0.7816164E-02  0.1226708E+00
        -11   -1    0    0    0    0  0.00000000000E+00  0.00000000000E+00  0.45593999997E+02  0.45594000000E+02  0.51100000000E-03 0. -1.
         11   -1    0    0    0    0 -0.00000000000E+00 -0.00000000000E+00 -0.45593999997E+02  0.45594000000E+02  0.51100000000E-03 0.  1.
    9900012    2    1    2    0    0  0.12155562116E+02 -0.99217279547E+01 -0.10221858274E+02  0.72461420960E+02  0.69999805464E+02 0.  0.
        -12    1    1    2    0    0 -0.12155562116E+02  0.99217279547E+01  0.10221858274E+02  0.18726579040E+02  0.00000000000E+00 0.  1.
         11    1    3    3    0    0 -0.56270889045E+01 -0.31913884103E+01 -0.79438601185E+01  0.10244706114E+02  0.51100000000E-03 0. -1.
        -11    1    3    3    0    0  0.11651923584E+02 -0.15648841968E+02 -0.28105369100E+02  0.34213525844E+02  0.51100000000E-03 0.  1.
         12    1    3    3    0    0  0.61307274365E+01  0.89185024237E+01  0.25827370944E+02  0.28003189002E+02  0.00000000000E+00 0. -1.
</event>
<event>
 7    1  0.3435518E-013  0.7246154E+02  0.7816164E-02  0.1226708E+00
        -11   -1    0    0    0    0  0.00000000000E+00  0.00000000000E+00  0.45593999997E+02  0.45594000000E+02  0.51100000000E-03 0.  1.
         11   -1    0    0    0    0 -0.00000000000E+00 -0.00000000000E+00 -0.45593999997E+02  0.45594000000E+02  0.51100000000E-03 0. -1.
    9900012    2    1    2    0    0  0.12353389979E+02  0.13961521331E+02  0.17748114072E+01  0.72461540714E+02  0.69999961467E+02 0.  0.
        -12    1    1    2    0    0 -0.12353389979E+02 -0.13961521331E+02 -0.17748114072E+01  0.18726459286E+02  0.00000000000E+00 0.  1.
         11    1    3    3    0    0  0.21113854947E+02 -0.91092207628E+01  0.27772591294E+02  0.36056755277E+02  0.51100000000E-03 0.  1.
        -11    1    3    3    0    0 -0.28783640254E+01  0.81484813206E+01 -0.13680037643E+02  0.16181043152E+02  0.51100000000E-03 0. -1.
        -12    1    3    3    0    0 -0.58821009423E+01  0.14922260773E+02 -0.12317742244E+02  0.20223742286E+02  0.00000000000E+00 0.  1.
</event>
<event>
 7    1  0.3444931E-013  0.7246159E+02  0.7816164E-02  0.1226708E+00
        -11   -1    0    0    0    0  0.00000000000E+00  0.00000000000E+00  0.45593999997E+02  0.45594000000E+02  0.51100000000E-03 0.  1.
         11   -1    0    0    0    0 -0.00000000000E+00 -0.00000000000E+00 -0.45593999997E+02  0.45594000000E+02  0.51100000000E-03 0. -1.
    9900012    2    1    2    0    0  0.34054473798E+01  0.16900481236E+02  0.73112958237E+01  0.72461591255E+02  0.70000027305E+02 0.  0.
        -12    1    1    2    0    0 -0.34054473798E+01 -0.16900481236E+02 -0.73112958237E+01  0.18726408745E+02  0.00000000000E+00 0.  1.
         11    1    3    3    0    0  0.12945915049E+02  0.31570828714E+02  0.18069446468E+02  0.38611123243E+02  0.51100000000E-03 0. -1.
        -11    1    3    3    0    0  0.48202960544E+00  0.72958928508E+01 -0.54752148836E+01  0.91345707788E+01  0.51100000000E-03 0.  1.
        -12    1    3    3    0    0 -0.10022497275E+02 -0.21966240328E+02 -0.52829357603E+01  0.24715897233E+02  0.00000000000E+00 0.  1.
</event>
<event>
 7    1  0.3435518E-013  0.7246161E+02  0.7816164E-02  0.1226708E+00
        -11   -1    0    0    0    0  0.00000000000E+00  0.00000000000E+00  0.45593999997E+02  0.45594000000E+02  0.51100000000E-03 0. -1.
         11   -1    0    0    0    0 -0.00000000000E+00 -0.00000000000E+00 -0.45593999997E+02  0.45594000000E+02  0.51100000000E-03 0.  1.
    9900012    2    1    2    0    0 -0.15779533650E+02 -0.30258106970E+00  0.10079315215E+02  0.72461605987E+02  0.70000046497E+02 0.  0.
        -12    1    1    2    0    0  0.15779533650E+02  0.30258106970E+00 -0.10079315215E+02  0.18726394013E+02  0.00000000000E+00 0.  1.
         11    1    3    3    0    0  0.65713761979E+01  0.58670787180E+01  0.19779054825E+02  0.21652173283E+02  0.51100000000E-03 0. -1.
        -11    1    3    3    0    0  0.56191122837E+01  0.11066230097E+02 -0.12775606659E+02  0.17811569195E+02  0.51100000000E-03 0.  1.
        -12    1    3    3    0    0 -0.27970022131E+02 -0.17235889885E+02  0.30758670486E+01  0.32997863510E+02  0.00000000000E+00 0.  1.
</event>
<event>
 7    1  0.3435518E-013  0.7246156E+02  0.7816164E-02  0.1226708E+00
        -11   -1    0    0    0    0  0.00000000000E+00  0.00000000000E+00  0.45593999997E+02  0.45594000000E+02  0.51100000000E-03 0.  1.
         11   -1    0    0    0    0 -0.00000000000E+00 -0.00000000000E+00 -0.45593999997E+02  0.45594000000E+02  0.51100000000E-03 0. -1.
    9900012    2    1    2    0    0  0.11194842330E+02  0.24295445242E+01 -0.14813928855E+02  0.72461556944E+02  0.69999982609E+02 0.  0.
        -12    1    1    2    0    0 -0.11194842330E+02 -0.24295445242E+01  0.14813928855E+02  0.18726443056E+02  0.00000000000E+00 0.  1.
         11    1    3    3    0    0 -0.37749110680E+01  0.44061260737E+01 -0.11956424802E+02  0.13289845554E+02  0.51100000000E-03 0. -1.
        -11    1    3    3    0    0  0.82554402102E+01  0.17388770099E+01  0.27029361916E+02  0.28315409094E+02  0.51100000000E-03 0.  1.
         12    1    3    3    0    0  0.67143131879E+01 -0.37154585594E+01 -0.29886865969E+02  0.30856302296E+02  0.00000000000E+00 0. -1.
</event>
<event>
 7    1  0.3435518E-013  0.7246130E+02  0.7816164E-02  0.1226709E+00
        -11   -1    0    0    0    0  0.00000000000E+00  0.00000000000E+00  0.45593999997E+02  0.45594000000E+02  0.51100000000E-03 0.  1.
         11   -1    0    0    0    0 -0.00000000000E+00 -0.00000000000E+00 -0.45593999997E+02  0.45594000000E+02  0.51100000000E-03 0. -1.
    9900012    2    1    2    0    0  0.94354694721E-01 -0.17573146754E+02  0.64703182067E+01  0.72461296944E+02  0.69999643909E+02 0.  0.
        -12    1    1    2    0    0 -0.94354694721E-01  0.17573146754E+02 -0.64703182067E+01  0.18726703056E+02  0.00000000000E+00 0.  1.
         11    1    3    3    0    0  0.17857357650E+01 -0.29977429197E+02 -0.14686686043E+02  0.33429535753E+02  0.51100000000E-03 0. -1.
        -11    1    3    3    0    0  0.10848293495E+02 -0.43574216904E+01  0.56742835540E+01  0.12995002487E+02  0.51100000000E-03 0.  1.
        -12    1    3    3    0    0 -0.12539674565E+02  0.16761704133E+02  0.15482720696E+02  0.26036758703E+02  0.00000000000E+00 0.  1.
</event>
<event>
 7    1  0.3435518E-013  0.7246157E+02  0.7816164E-02  0.1226708E+00
        -11   -1    0    0    0    0  0.00000000000E+00  0.00000000000E+00  0.45593999997E+02  0.45594000000E+02  0.51100000000E-03 0. -1.
         11   -1    0    0    0    0 -0.00000000000E+00 -0.00000000000E+00 -0.45593999997E+02  0.45594000000E+02  0.51100000000E-03 0.  1.
    9900012    2    1    2    0    0  0.82611717225E+01  0.16122713313E+02 -0.47423878091E+01  0.72461572553E+02  0.70000002942E+02 0.  0.
        -12    1    1    2    0    0 -0.82611717225E+01 -0.16122713313E+02  0.47423878091E+01  0.18726427447E+02  0.00000000000E+00 0.  1.
         11    1    3    3    0    0  0.15110981306E+02 -0.14647949726E+02  0.15917929466E+02  0.26387206483E+02  0.51100000000E-03 0. -1.
        -11    1    3    3    0    0  0.67961930310E+01 -0.16057978012E+00 -0.74962746758E+00  0.68392958104E+01  0.51100000000E-03 0.  1.
         12    1    3    3    0    0 -0.13646002615E+02  0.30931242819E+02 -0.19910689808E+02  0.39235070260E+02  0.00000000000E+00 0. -1.
</event>
<event>
 7    1  0.3435518E-013  0.7246165E+02  0.7816164E-02  0.1226708E+00
        -11   -1    0    0    0    0  0.00000000000E+00  0.00000000000E+00  0.45593999997E+02  0.45594000000E+02  0.51100000000E-03 0.  1.
         11   -1    0    0    0    0 -0.00000000000E+00 -0.00000000000E+00 -0.45593999997E+02  0.45594000000E+02  0.51100000000E-03 0. -1.
    9900012    2    1    2    0    0  0.11507051332E+02 -0.13392934040E+02 -0.62364512365E+01  0.72461648604E+02  0.70000102013E+02 0.  0.
        -12    1    1    2    0    0 -0.11507051332E+02  0.13392934040E+02  0.62364512365E+01  0.18726351396E+02  0.00000000000E+00 0.  1.
         11    1    3    3    0    0  0.21314660721E+02 -0.29344065319E+02 -0.16810890842E+02  0.39974929422E+02  0.51100000000E-03 0. -1.
        -11    1    3    3    0    0  0.53028749922E+01 -0.25368303559E+01  0.55539976797E+01  0.80872048277E+01  0.51100000000E-03 0.  1.
        -12    1    3    3    0    0 -0.15110484381E+02  0.18487961634E+02  0.50204419259E+01  0.24399514355E+02  0.00000000000E+00 0.  1.
</event>
<event>
 7    1  0.3435518E-013  0.7246158E+02  0.7816164E-02  0.1226708E+00
        -11   -1    0    0    0    0  0.00000000000E+00  0.00000000000E+00  0.45593999997E+02  0.45594000000E+02  0.51100000000E-03 0.  1.
         11   -1    0    0    0    0 -0.00000000000E+00 -0.00000000000E+00 -0.45593999997E+02  0.45594000000E+02  0.51100000000E-03 0. -1.
    9900012    2    1    2    0    0 -0.92579063555E+01 -0.50935283814E+01 -0.15460463594E+02  0.72461580268E+02  0.70000012992E+02 0.  0.
        -12    1    1    2    0    0  0.92579063555E+01  0.50935283814E+01  0.15460463594E+02  0.18726419732E+02  0.00000000000E+00 0.  1.
         11    1    3    3    0    0 -0.14222330614E+02  0.52695277529E+01 -0.23101370865E+02  0.27635411105E+02  0.51100000000E-03 0. -1.
        -11    1    3    3    0    0  0.24198647393E+01 -0.20916890441E+02  0.19534934378E+02  0.28722564518E+02  0.51100000000E-03 0.  1.
         12    1    3    3    0    0  0.25445595192E+01  0.10553834307E+02 -0.11894027107E+02  0.16103604645E+02  0.00000000000E+00 0. -1.
</event>
<event>
 7    1  0.3435518E-013  0.7246159E+02  0.7816164E-02  0.1226708E+00
        -11   -1    0    0    0    0  0.00000000000E+00  0.00000000000E+00  0.45593999997E+02  0.45594000000E+02  0.51100000000E-03 0. -1.
         11   -1    0    0    0    0 -0.00000000000E+00 -0.00000000000E+00 -0.45593999997E+02  0.45594000000E+02  0.51100000000E-03 0.  1.
    9900012    2    1    2    0    0  0.90117941691E+01 -0.14299514250E+02  0.80616292062E+01  0.72461590643E+02  0.70000026508E+02 0.  0.
        -12    1    1    2    0    0 -0.90117941691E+01  0.14299514250E+02 -0.80616292062E+01  0.18726409357E+02  0.00000000000E+00 0.  1.
         11    1    3    3    0    0 -0.59615459268E+01 -0.20890009553E+02 -0.12342433350E+01  0.21759041473E+02  0.51100000000E-03 0. -1.
        -11    1    3    3    0    0 -0.12573997177E+02 -0.10637397391E+02 -0.13164121876E+01  0.16522486785E+02  0.51100000000E-03 0.  1.
        -12    1    3    3    0    0  0.27547337273E+02  0.17227892694E+02  0.10612284729E+02  0.34180062385E+02  0.00000000000E+00 0.  1.
</event>
<event>
 7    1  0.3435518E-013  0.7246160E+02  0.7816164E-02  0.1226708E+00
        -11   -1    0    0    0    0  0.00000000000E+00  0.00000000000E+00  0.45593999997E+02  0.45594000000E+02  0.51100000000E-03 0. -1.
         11   -1    0    0    0    0 -0.00000000000E+00 -0.00000000000E+00 -0.45593999997E+02  0.45594000000E+02  0.51100000000E-03 0.  1.
    9900012    2    1    2    0    0  0.21159588992E+01 -0.89449426832E+01  0.16315297035E+02  0.72461596207E+02  0.70000033756E+02 0.  0.
        -12    1    1    2    0    0 -0.21159588992E+01  0.89449426832E+01 -0.16315297035E+02  0.18726403793E+02  0.00000000000E+00 0.  1.
         11    1    3    3    0    0 -0.11871980069E+02 -0.17916505815E+02  0.71283176413E+01  0.22644160485E+02  0.51100000000E-03 0. -1.
        -11    1    3    3    0    0 -0.10310817898E+02 -0.12619727771E+02  0.11728068438E+01  0.16338481291E+02  0.51100000000E-03 0.  1.
        -12    1    3    3    0    0  0.24298756867E+02  0.21591290903E+02  0.80141725499E+01  0.33478954431E+02  0.00000000000E+00 0.  1.
</event>
<event>
 7    1  0.3435518E-013  0.7246155E+02  0.7816164E-02  0.1226708E+00
        -11   -1    0    0    0    0  0.00000000000E+00  0.00000000000E+00  0.45593999997E+02  0.45594000000E+02  0.51100000000E-03 0. -1.
         11   -1    0    0    0    0 -0.00000000000E+00 -0.00000000000E+00 -0.45593999997E+02  0.45594000000E+02  0.51100000000E-03 0.  1.
    9900012    2    1    2    0    0 -0.89951145200E+01 -0.13047530682E+02  0.99764586608E+01  0.72461551604E+02  0.69999975652E+02 0.  0.
        -12    1    1    2    0    0  0.89951145200E+01  0.13047530682E+02 -0.99764586608E+01  0.18726448396E+02  0.00000000000E+00 0.  1.
         11    1    3    3    0    0 -0.24069562943E+00  0.24377134028E+01  0.16353654495E+02  0.16536093753E+02  0.51100000000E-03 0. -1.
        -11    1    3    3    0    0 -0.24600955365E+02  0.74651966323E+01  0.42923353320E+01  0.26064541210E+02  0.51100000000E-03 0.  1.
        -12    1    3    3    0    0  0.15846536474E+02 -0.22950440717E+02 -0.10669531166E+02  0.29860916641E+02  0.00000000000E+00 0.  1.
</event>
<event>
 7    1  0.3435518E-013  0.7246159E+02  0.7816164E-02  0.1226708E+00
        -11   -1    0    0    0    0  0.00000000000E+00  0.00000000000E+00  0.45593999997E+02  0.45594000000E+02  0.51100000000E-03 0. -1.
         11   -1    0    0    0    0 -0.00000000000E+00 -0.00000000000E+00 -0.45593999997E+02  0.45594000000E+02  0.51100000000E-03 0.  1.
    9900012    2    1    2    0    0 -0.18935231161E+01 -0.18874466388E+01  0.18534580795E+02  0.72461586306E+02  0.70000020858E+02 0.  0.
        -12    1    1    2    0    0  0.18935231161E+01  0.18874466388E+01 -0.18534580795E+02  0.18726413694E+02  0.00000000000E+00 0.  1.
         11    1    3    3    0    0  0.83722873955E+01 -0.11348690378E+02 -0.54321148114E+01  0.15112770796E+02  0.51100000000E-03 0. -1.
        -11    1    3    3    0    0  0.14066477641E+02  0.17782237689E+02  0.72230039084E+00  0.22684697233E+02  0.51100000000E-03 0.  1.
         12    1    3    3    0    0 -0.24332288152E+02 -0.83209939491E+01  0.23244395215E+02  0.34664118277E+02  0.00000000000E+00 0. -1.
</event>
<event>
 7    1  0.3435518E-013  0.7246166E+02  0.7816164E-02  0.1226708E+00
        -11   -1    0    0    0    0  0.00000000000E+00  0.00000000000E+00  0.45593999997E+02  0.45594000000E+02  0.51100000000E-03 0.  1.
         11   -1    0    0    0    0 -0.00000000000E+00 -0.00000000000E+00 -0.45593999997E+02  0.45594000000E+02  0.51100000000E-03 0. -1.
    9900012    2    1    2    0    0  0.64459947104E+01  0.15199251236E+02  0.88378523793E+01  0.72461662381E+02  0.70000119960E+02 0.  0.
        -12    1    1    2    0    0 -0.64459947104E+01 -0.15199251236E+02 -0.88378523793E+01  0.18726337619E+02  0.00000000000E+00 0.  1.
         11    1    3    3    0    0  0.16152257149E+02 -0.86858598476E+01 -0.58100108930E+00  0.18348763850E+02  0.51100000000E-03 0. -1.
        -11    1    3    3    0    0  0.18053558321E+02  0.29436029774E+01  0.56052273927E+01  0.19131501272E+02  0.51100000000E-03 0.  1.
         12    1    3    3    0    0 -0.27759820759E+02  0.20941508106E+02  0.38136260759E+01  0.34981397259E+02  0.00000000000E+00 0. -1.
</event>
<event>
 7    1  0.3435518E-013  0.7246163E+02  0.7816164E-02  0.1226708E+00
        -11   -1    0    0    0    0  0.00000000000E+00  0.00000000000E+00  0.45593999997E+02  0.45594000000E+02  0.51100000000E-03 0.  1.
         11   -1    0    0    0    0 -0.00000000000E+00 -0.00000000000E+00 -0.45593999997E+02  0.45594000000E+02  0.51100000000E-03 0. -1.
    9900012    2    1    2    0    0  0.11848205956E+02  0.14018630649E+02 -0.37114534152E+01  0.72461631529E+02  0.70000079769E+02 0.  0.
        -12    1    1    2    0    0 -0.11848205956E+02 -0.14018630649E+02  0.37114534152E+01  0.18726368471E+02  0.00000000000E+00 0.  1.
         11    1    3    3    0    0 -0.14346851113E+02 -0.34518756020E+01  0.11054790125E+01  0.14797623665E+02  0.51100000000E-03 0. -1.
        -11    1    3    3    0    0 -0.13558873443E+02  0.81536167349E+01  0.29673386666E+01  0.16097503345E+02  0.51100000000E-03 0.  1.
         12    1    3    3    0    0  0.39753930513E+02  0.93168895164E+01 -0.77842710944E+01  0.41566504519E+02  0.00000000000E+00 0. -1.
</event>
<event>
 7    1  0.3435518E-013  0.7246161E+02  0.7816164E-02  0.1226708E+00
        -11   -1    0    0    0    0  0.00000000000E+00  0.00000000000E+00  0.45593999997E+02  0.45594000000E+02  0.51100000000E-03 0. -1.
         11   -1    0    0    0    0 -0.00000000000E+00 -0.00000000000E+00 -0.45593999997E+02  0.45594000000E+02  0.51100000000E-03 0.  1.
    9900012    2    1    2    0    0  0.13683866443E+02 -0.10699864866E+02  0.69958838199E+01  0.72461609547E+02  0.70000051134E+02 0.  0.
        -12    1    1    2    0    0 -0.13683866443E+02  0.10699864866E+02 -0.69958838199E+01  0.18726390453E+02  0.00000000000E+00 0.  1.
         11    1    3    3    0    0  0.82349846985E+01  0.18150459434E+02  0.17404455931E+02  0.26460711199E+02  0.51100000000E-03 0. -1.
        -11    1    3    3    0    0  0.12641521140E+02 -0.99417228300E+01  0.86033011463E+01  0.18239043299E+02  0.51100000000E-03 0.  1.
        -12    1    3    3    0    0 -0.71926393960E+01 -0.18908601470E+02 -0.19011873257E+02  0.27761855049E+02  0.00000000000E+00 0.  1.
</event>
<event>
 7    1  0.3435518E-013  0.7246156E+02  0.7816164E-02  0.1226708E+00
        -11   -1    0    0    0    0  0.00000000000E+00  0.00000000000E+00  0.45593999997E+02  0.45594000000E+02  0.51100000000E-03 0.  1.
         11   -1    0    0    0    0 -0.00000000000E+00 -0.00000000000E+00 -0.45593999997E+02  0.45594000000E+02  0.51100000000E-03 0. -1.
    9900012    2    1    2    0    0  0.79840245998E+01 -0.91605155112E+01  0.14248505131E+02  0.72461559022E+02  0.69999985316E+02 0.  0.
        -12    1    1    2    0    0 -0.79840245998E+01  0.91605155112E+01 -0.14248505131E+02  0.18726440978E+02  0.00000000000E+00 0.  1.
         11    1    3    3    0    0  0.12716110961E+02  0.11142859544E+02 -0.11445470095E+02  0.20417188414E+02  0.51100000000E-03 0. -1.
        -11    1    3    3    0    0 -0.69750405930E+01 -0.18260485781E+02 -0.58117079748E+01  0.20392951774E+02  0.51100000000E-03 0.  1.
        -12    1    3    3    0    0  0.22429542318E+01 -0.20428892745E+01  0.31505683200E+02  0.31651418834E+02  0.00000000000E+00 0.  1.
</event>
<event>
 7    1  0.3435518E-013  0.7246148E+02  0.7816164E-02  0.1226708E+00
        -11   -1    0    0    0    0  0.00000000000E+00  0.00000000000E+00  0.45593999997E+02  0.45594000000E+02  0.51100000000E-03 0.  1.
         11   -1    0    0    0    0 -0.00000000000E+00 -0.00000000000E+00 -0.45593999997E+02  0.45594000000E+02  0.51100000000E-03 0. -1.
    9900012    2    1    2    0    0  0.37449756339E+01 -0.14167144332E+02  0.11659756289E+02  0.72461475022E+02  0.69999875891E+02 0.  0.
        -12    1    1    2    0    0 -0.37449756339E+01  0.14167144332E+02 -0.11659756289E+02  0.18726524978E+02  0.00000000000E+00 0.  1.
         11    1    3    3    0    0  0.10574076813E+02 -0.71931642550E+01 -0.51234707557E+01  0.13776888811E+02  0.51100000000E-03 0. -1.
        -11    1    3    3    0    0  0.22327519899E+02 -0.13702054511E+02  0.97000245195E+01  0.27934833427E+02  0.51100000000E-03 0.  1.
         12    1    3    3    0    0 -0.29156621078E+02  0.67280744348E+01  0.70832025254E+01  0.30749752785E+02  0.00000000000E+00 0. -1.
</event>
<event>
 7    1  0.3435518E-013  0.7246155E+02  0.7816164E-02  0.1226708E+00
        -11   -1    0    0    0    0  0.00000000000E+00  0.00000000000E+00  0.45593999997E+02  0.45594000000E+02  0.51100000000E-03 0.  1.
         11   -1    0    0    0    0 -0.00000000000E+00 -0.00000000000E+00 -0.45593999997E+02  0.45594000000E+02  0.51100000000E-03 0. -1.
    9900012    2    1    2    0    0  0.10289274323E+02  0.15237924361E+02  0.35519646220E+01  0.72461549252E+02  0.69999972589E+02 0.  0.
        -12    1    1    2    0    0 -0.10289274323E+02 -0.15237924361E+02 -0.35519646220E+01  0.18726450748E+02  0.00000000000E+00 0.  1.
         11    1    3    3    0    0  0.13482455256E+02 -0.15245652149E+02 -0.14486244968E+02  0.24981148947E+02  0.51100000000E-03 0. -1.
        -11    1    3    3    0    0 -0.30444655380E+01 -0.54445540643E+01 -0.17290188591E+01  0.64731326147E+01  0.51100000000E-03 0.  1.
        -12    1    3    3    0    0 -0.14871539520E+00  0.35928130575E+02  0.19767228449E+02  0.41007267691E+02  0.00000000000E+00 0.  1.
</event>
<event>
 7    1  0.3435518E-013  0.7246153E+02  0.7816164E-02  0.1226708E+00
        -11   -1    0    0    0    0  0.00000000000E+00  0.00000000000E+00  0.45593999997E+02  0.45594000000E+02  0.51100000000E-03 0.  1.
         11   -1    0    0    0    0 -0.00000000000E+00 -0.00000000000E+00 -0.45593999997E+02  0.45594000000E+02  0.51100000000E-03 0. -1.
    9900012    2    1    2    0    0  0.78876463957E+01  0.55105949021E+01 -0.16065466668E+02  0.72461525663E+02  0.69999941859E+02 0.  0.
        -12    1    1    2    0    0 -0.78876463957E+01 -0.55105949021E+01  0.16065466668E+02  0.18726474337E+02  0.00000000000E+00 0.  1.
         11    1    3    3    0    0 -0.96504133155E+01 -0.23033785934E+01  0.64530058367E+01  0.11835426257E+02  0.51100000000E-03 0. -1.
        -11    1    3    3    0    0  0.91698709400E+01 -0.13437610302E+02  0.11306954284E+02  0.19811691476E+02  0.51100000000E-03 0.  1.
        -12    1    3    3    0    0  0.83681887713E+01  0.21251583797E+02 -0.33825426789E+02  0.40814407930E+02  0.00000000000E+00 0.  1.
</event>
<event>
 7    1  0.3435518E-013  0.7246142E+02  0.7816164E-02  0.1226708E+00
        -11   -1    0    0    0    0  0.00000000000E+00  0.00000000000E+00  0.45593999997E+02  0.45594000000E+02  0.51100000000E-03 0. -1.
         11   -1    0    0    0    0 -0.00000000000E+00 -0.00000000000E+00 -0.45593999997E+02  0.45594000000E+02  0.51100000000E-03 0.  1.
    9900012    2    1    2    0    0  0.13497922352E+02  0.10698797745E+02  0.73502674509E+01  0.72461424963E+02  0.69999810679E+02 0.  0.
        -12    1    1    2    0    0 -0.13497922352E+02 -0.10698797745E+02 -0.73502674509E+01  0.18726575037E+02  0.00000000000E+00 0.  1.
         11    1    3    3    0    0 -0.99982747777E+00 -0.67699823313E+01  0.21248827095E+02  0.22323641480E+02  0.51100000000E-03 0. -1.
        -11    1    3    3    0    0  0.18876268864E+02  0.32744777512E+01  0.10294204780E+02  0.21748709918E+02  0.51100000000E-03 0.  1.
         12    1    3    3    0    0 -0.43785190348E+01  0.14194302325E+02 -0.24192764424E+02  0.28389073566E+02  0.00000000000E+00 0. -1.
</event>
<event>
 7    1  0.3435518E-013  0.7246164E+02  0.7816164E-02  0.1226708E+00
        -11   -1    0    0    0    0  0.00000000000E+00  0.00000000000E+00  0.45593999997E+02  0.45594000000E+02  0.51100000000E-03 0.  1.
         11   -1    0    0    0    0 -0.00000000000E+00 -0.00000000000E+00 -0.45593999997E+02  0.45594000000E+02  0.51100000000E-03 0. -1.
    9900012    2    1    2    0    0 -0.14418316050E+02 -0.38422589762E+01  0.11314839138E+02  0.72461644870E+02  0.70000097148E+02 0.  0.
        -12    1    1    2    0    0  0.14418316050E+02  0.38422589762E+01 -0.11314839138E+02  0.18726355130E+02  0.00000000000E+00 0.  1.
         11    1    3    3    0    0 -0.23616037267E+02 -0.13529894625E+02 -0.10534101354E+02  0.29184628768E+02  0.51100000000E-03 0. -1.
        -11    1    3    3    0    0  0.17425482221E+02 -0.68333968638E+01  0.88623456210E+01  0.20709512633E+02  0.51100000000E-03 0.  1.
         12    1    3    3    0    0 -0.82277610040E+01  0.16521032513E+02  0.12986594872E+02  0.22567503468E+02  0.00000000000E+00 0. -1.
</event>
<event>
 7    1  0.3435518E-013  0.7246158E+02  0.7816164E-02  0.1226708E+00
        -11   -1    0    0    0    0  0.00000000000E+00  0.00000000000E+00  0.45593999997E+02  0.45594000000E+02  0.51100000000E-03 0.  1.
         11   -1    0    0    0    0 -0.00000000000E+00 -0.00000000000E+00 -0.45593999997E+02  0.45594000000E+02  0.51100000000E-03 0. -1.
    9900012    2    1    2    0    0 -0.15109322562E+02  0.53711809321E+01 -0.96714824990E+01  0.72461580518E+02  0.70000013318E+02 0.  0.
        -12    1    1    2    0    0  0.15109322562E+02 -0.53711809321E+01  0.96714824990E+01  0.18726419482E+02  0.00000000000E+00 0.  1.
         11    1    3    3    0    0 -0.17946392092E+02  0.50959651043E+01  0.14107008838E+02  0.23389090365E+02  0.51100000000E-03 0. -1.
        -11    1    3    3    0    0  0.11362503713E+02 -0.81101499832E+01  0.73138472780E+01  0.15759866295E+02  0.51100000000E-03 0.  1.
         12    1    3    3    0    0 -0.85254341823E+01  0.83853658110E+01 -0.31092338615E+02  0.33312623858E+02  0.00000000000E+00 0. -1.
</event>
<event>
 7    1  0.3435518E-013  0.7246167E+02  0.7816164E-02  0.1226708E+00
        -11   -1    0    0    0    0  0.00000000000E+00  0.00000000000E+00  0.45593999997E+02  0.45594000000E+02  0.51100000000E-03 0.  1.
         11   -1    0    0    0    0 -0.00000000000E+00 -0.00000000000E+00 -0.45593999997E+02  0.45594000000E+02  0.51100000000E-03 0. -1.
    9900012    2    1    2    0    0  0.24648235693E+01 -0.64623325158E+01 -0.17402248519E+02  0.72461672269E+02  0.70000132841E+02 0.  0.
        -12    1    1    2    0    0 -0.24648235693E+01  0.64623325158E+01  0.17402248519E+02  0.18726327731E+02  0.00000000000E+00 0.  1.
         11    1    3    3    0    0  0.12515065660E+02 -0.46505408963E+01 -0.28535726768E+01  0.13652738787E+02  0.51100000000E-03 0. -1.
        -11    1    3    3    0    0  0.18484210102E+02 -0.85409629422E+01  0.79445630800E+01  0.21857039000E+02  0.51100000000E-03 0.  1.
         12    1    3    3    0    0 -0.28534452193E+02  0.67291713227E+01 -0.22493238922E+02  0.36951894482E+02  0.00000000000E+00 0. -1.
</event>
<event>
 7    1  0.3435518E-013  0.7246156E+02  0.7816164E-02  0.1226708E+00
        -11   -1    0    0    0    0  0.00000000000E+00  0.00000000000E+00  0.45593999997E+02  0.45594000000E+02  0.51100000000E-03 0. -1.
         11   -1    0    0    0    0 -0.00000000000E+00 -0.00000000000E+00 -0.45593999997E+02  0.45594000000E+02  0.51100000000E-03 0.  1.
    9900012    2    1    2    0    0 -0.92756316100E+01 -0.14400953369E+02  0.75666824662E+01  0.72461561918E+02  0.69999989088E+02 0.  0.
        -12    1    1    2    0    0  0.92756316100E+01  0.14400953369E+02 -0.75666824662E+01  0.18726438082E+02  0.00000000000E+00 0.  1.
         11    1    3    3    0    0  0.70821899537E+01 -0.93159260601E+01  0.12323721707E+02  0.16994646506E+02  0.51100000000E-03 0. -1.
        -11    1    3    3    0    0  0.17543345763E+02 -0.22693313487E+01  0.76287102391E+01  0.19264372959E+02  0.51100000000E-03 0.  1.
         12    1    3    3    0    0 -0.33901167327E+02 -0.28156959603E+01 -0.12385749479E+02  0.36202542453E+02  0.00000000000E+00 0. -1.
</event>
<event>
 7    1  0.3435518E-013  0.7246152E+02  0.7816164E-02  0.1226708E+00
        -11   -1    0    0    0    0  0.00000000000E+00  0.00000000000E+00  0.45593999997E+02  0.45594000000E+02  0.51100000000E-03 0. -1.
         11   -1    0    0    0    0 -0.00000000000E+00 -0.00000000000E+00 -0.45593999997E+02  0.45594000000E+02  0.51100000000E-03 0.  1.
    9900012    2    1    2    0    0  0.15504704967E+02 -0.85941118875E+01  0.60354242537E+01  0.72461521923E+02  0.69999936987E+02 0.  0.
        -12    1    1    2    0    0 -0.15504704967E+02  0.85941118875E+01 -0.60354242537E+01  0.18726478077E+02  0.00000000000E+00 0.  1.
         11    1    3    3    0    0 -0.12929009506E+02  0.19779265056E+01  0.92806817232E+01  0.16037535146E+02  0.51100000000E-03 0. -1.
        -11    1    3    3    0    0 -0.26049776485E+01 -0.20247731634E+01 -0.19903768188E+02  0.20175371205E+02  0.51100000000E-03 0.  1.
         12    1    3    3    0    0  0.31038692121E+02 -0.85472652296E+01  0.16658510719E+02  0.36248615572E+02  0.00000000000E+00 0. -1.
</event>
<event>
 7    1  0.3435518E-013  0.7246147E+02  0.7816164E-02  0.1226708E+00
        -11   -1    0    0    0    0  0.00000000000E+00  0.00000000000E+00  0.45593999997E+02  0.45594000000E+02  0.51100000000E-03 0. -1.
         11   -1    0    0    0    0 -0.00000000000E+00 -0.00000000000E+00 -0.45593999997E+02  0.45594000000E+02  0.51100000000E-03 0.  1.
    9900012    2    1    2    0    0 -0.62196176917E+01 -0.68079451005E+01  0.16298812455E+02  0.72461466733E+02  0.69999865093E+02 0.  0.
        -12    1    1    2    0    0  0.62196176917E+01  0.68079451005E+01 -0.16298812455E+02  0.18726533267E+02  0.00000000000E+00 0.  1.
         11    1    3    3    0    0 -0.52053399432E+01 -0.63837530881E+01  0.86477052090E+00  0.82822518514E+01  0.51100000000E-03 0. -1.
        -11    1    3    3    0    0  0.21212726563E+02 -0.22530883918E+02  0.74410254068E+01  0.31827493739E+02  0.51100000000E-03 0.  1.
         12    1    3    3    0    0 -0.22227004311E+02  0.22106691906E+02  0.79930165278E+01  0.32351721143E+02  0.00000000000E+00 0. -1.
</event>
<event>
 7    1  0.3435518E-013  0.7246123E+02  0.7816164E-02  0.1226709E+00
        -11   -1    0    0    0    0  0.00000000000E+00  0.00000000000E+00  0.45593999997E+02  0.45594000000E+02  0.51100000000E-03 0. -1.
         11   -1    0    0    0    0 -0.00000000000E+00 -0.00000000000E+00 -0.45593999997E+02  0.45594000000E+02  0.51100000000E-03 0.  1.
    9900012    2    1    2    0    0  0.98895040548E+01 -0.11424716354E+02  0.11061893950E+02  0.72461229537E+02  0.69999556099E+02 0.  0.
        -12    1    1    2    0    0 -0.98895040548E+01  0.11424716354E+02 -0.11061893950E+02  0.18726770463E+02  0.00000000000E+00 0.  1.
         11    1    3    3    0    0  0.16630601394E+02  0.15969581140E+02 -0.57506400445E+01  0.23762876208E+02  0.51100000000E-03 0. -1.
        -11    1    3    3    0    0  0.13741890940E+02 -0.16010925825E+02  0.25185937081E+01  0.21249297092E+02  0.51100000000E-03 0.  1.
         12    1    3    3    0    0 -0.20482988278E+02 -0.11383371669E+02  0.14293940286E+02  0.27449056236E+02  0.00000000000E+00 0. -1.
</event>
<event>
 7    1  0.3435518E-013  0.7246157E+02  0.7816164E-02  0.1226708E+00
        -11   -1    0    0    0    0  0.00000000000E+00  0.00000000000E+00  0.45593999997E+02  0.45594000000E+02  0.51100000000E-03 0.  1.
         11   -1    0    0    0    0 -0.00000000000E+00 -0.00000000000E+00 -0.45593999997E+02  0.45594000000E+02  0.51100000000E-03 0. -1.
    9900012    2    1    2    0    0  0.17695111010E+02  0.14871345682E+01 -0.59456422044E+01  0.72461569905E+02  0.69999999493E+02 0.  0.
        -12    1    1    2    0    0 -0.17695111010E+02 -0.14871345682E+01  0.59456422044E+01  0.18726430095E+02  0.00000000000E+00 0.  1.
         11    1    3    3    0    0  0.47467494811E+01  0.70275371827E+01 -0.33712061860E+02  0.34762350677E+02  0.51100000000E-03 0. -1.
        -11    1    3    3    0    0  0.59439826345E+01  0.39849721167E+01 -0.38413681930E+00  0.71664840534E+01  0.51100000000E-03 0.  1.
         12    1    3    3    0    0  0.70043788939E+01 -0.95253747312E+01  0.28150556474E+02  0.30532735175E+02  0.00000000000E+00 0. -1.
</event>
<event>
 7    1  0.3435518E-013  0.7246145E+02  0.7816164E-02  0.1226708E+00
        -11   -1    0    0    0    0  0.00000000000E+00  0.00000000000E+00  0.45593999997E+02  0.45594000000E+02  0.51100000000E-03 0.  1.
         11   -1    0    0    0    0 -0.00000000000E+00 -0.00000000000E+00 -0.45593999997E+02  0.45594000000E+02  0.51100000000E-03 0. -1.
    9900012    2    1    2    0    0  0.89572200651E+01  0.13178428861E+02  0.98377231760E+01  0.72461452645E+02  0.69999846740E+02 0.  0.
        -12    1    1    2    0    0 -0.89572200651E+01 -0.13178428861E+02 -0.98377231760E+01  0.18726547355E+02  0.00000000000E+00 0.  1.
         11    1    3    3    0    0  0.22101868335E+02 -0.10497086726E+02 -0.16115747176E+02  0.29298442296E+02  0.51100000000E-03 0. -1.
        -11    1    3    3    0    0 -0.10774373663E+02  0.27392789027E+01  0.20599351634E+01  0.11306374745E+02  0.51100000000E-03 0.  1.
        -12    1    3    3    0    0 -0.23702746075E+01  0.20936236685E+02  0.23893535189E+02  0.31856635605E+02  0.00000000000E+00 0.  1.
</event>
<event>
 7    1  0.3435518E-013  0.7246157E+02  0.7816164E-02  0.1226708E+00
        -11   -1    0    0    0    0  0.00000000000E+00  0.00000000000E+00  0.45593999997E+02  0.45594000000E+02  0.51100000000E-03 0. -1.
         11   -1    0    0    0    0 -0.00000000000E+00 -0.00000000000E+00 -0.45593999997E+02  0.45594000000E+02  0.51100000000E-03 0.  1.
    9900012    2    1    2    0    0  0.23785297093E+01 -0.18471015229E+02 -0.19604772100E+01  0.72461567396E+02  0.69999996224E+02 0.  0.
        -12    1    1    2    0    0 -0.23785297093E+01  0.18471015229E+02  0.19604772100E+01  0.18726432604E+02  0.00000000000E+00 0.  1.
         11    1    3    3    0    0 -0.21217867012E+01 -0.17194231156E+02 -0.67292433133E+01  0.18585647142E+02  0.51100000000E-03 0. -1.
        -11    1    3    3    0    0  0.15624522102E+02 -0.42428202492E+01 -0.20491548089E+02  0.26115718599E+02  0.51100000000E-03 0.  1.
         12    1    3    3    0    0 -0.11124205692E+02  0.29660361762E+01  0.25260314192E+02  0.27760201655E+02  0.00000000000E+00 0. -1.
</event>
<event>
 7    1  0.3435518E-013  0.7246162E+02  0.7816164E-02  0.1226708E+00
        -11   -1    0    0    0    0  0.00000000000E+00  0.00000000000E+00  0.45593999997E+02  0.45594000000E+02  0.51100000000E-03 0. -1.
         11   -1    0    0    0    0 -0.00000000000E+00 -0.00000000000E+00 -0.45593999997E+02  0.45594000000E+02  0.51100000000E-03 0.  1.
    9900012    2    1    2    0    0 -0.81707204111E+00  0.18641029456E+02 -0.15879876463E+01  0.72461620461E+02  0.70000065351E+02 0.  0.
        -12    1    1    2    0    0  0.81707204111E+00 -0.18641029456E+02  0.15879876463E+01  0.18726379539E+02  0.00000000000E+00 0.  1.
         11    1    3    3    0    0  0.12672754716E+02  0.49066437061E+01  0.18953247433E+02  0.23321652023E+02  0.51100000000E-03 0. -1.
        -11    1    3    3    0    0  0.95383580861E+01  0.11605602737E+02 -0.21225242646E+02  0.26003484680E+02  0.51100000000E-03 0.  1.
        -12    1    3    3    0    0 -0.23028184843E+02  0.21287830127E+01  0.68400756675E+00  0.23136483757E+02  0.00000000000E+00 0.  1.
</event>
<event>
 7    1  0.3435518E-013  0.7246162E+02  0.7816164E-02  0.1226708E+00
        -11   -1    0    0    0    0  0.00000000000E+00  0.00000000000E+00  0.45593999997E+02  0.45594000000E+02  0.51100000000E-03 0. -1.
         11   -1    0    0    0    0 -0.00000000000E+00 -0.00000000000E+00 -0.45593999997E+02  0.45594000000E+02  0.51100000000E-03 0.  1.
    9900012    2    1    2    0    0 -0.87422674083E+01 -0.12559454973E+02  0.10793988541E+02  0.72461619216E+02  0.70000063729E+02 0.  0.
        -12    1    1    2    0    0  0.87422674083E+01  0.12559454973E+02 -0.10793988541E+02  0.18726380784E+02  0.00000000000E+00 0.  1.
         11    1    3    3    0    0  0.11046189254E+02  0.10185555530E+02  0.17665998384E+02  0.23191622144E+02  0.51100000000E-03 0. -1.
        -11    1    3    3    0    0 -0.17701699870E+02 -0.96839106857E+01  0.14000886389E+02  0.24559175971E+02  0.51100000000E-03 0.  1.
        -12    1    3    3    0    0 -0.20867567921E+01 -0.13061099817E+02 -0.20872896233E+02  0.24710821101E+02  0.00000000000E+00 0.  1.
</event>
<event>
 7    1  0.3435518E-013  0.7246157E+02  0.7816164E-02  0.1226708E+00
        -11   -1    0    0    0    0  0.00000000000E+00  0.00000000000E+00  0.45593999997E+02  0.45594000000E+02  0.51100000000E-03 0.  1.
         11   -1    0    0    0    0 -0.00000000000E+00 -0.00000000000E+00 -0.45593999997E+02  0.45594000000E+02  0.51100000000E-03 0. -1.
    9900012    2    1    2    0    0  0.11764907993E+02  0.12984813089E+02  0.66076235201E+01  0.72461571627E+02  0.70000001736E+02 0.  0.
        -12    1    1    2    0    0 -0.11764907993E+02 -0.12984813089E+02 -0.66076235201E+01  0.18726428373E+02  0.00000000000E+00 0.  1.
         11    1    3    3    0    0  0.70583563133E+01 -0.25067855162E+02  0.13633865619E+02  0.29395578719E+02  0.51100000000E-03 0. -1.
        -11    1    3    3    0    0  0.10058172303E+01  0.39978670748E+01  0.52520199349E+01  0.66767000162E+01  0.51100000000E-03 0.  1.
         12    1    3    3    0    0  0.37007344497E+01  0.34054801176E+02 -0.12278262033E+02  0.36389292891E+02  0.00000000000E+00 0. -1.
</event>
<event>
 7    1  0.3435518E-013  0.7246157E+02  0.7816164E-02  0.1226708E+00
        -11   -1    0    0    0    0  0.00000000000E+00  0.00000000000E+00  0.45593999997E+02  0.45594000000E+02  0.51100000000E-03 0.  1.
         11   -1    0    0    0    0 -0.00000000000E+00 -0.00000000000E+00 -0.45593999997E+02  0.45594000000E+02  0.51100000000E-03 0. -1.
    9900012    2    1    2    0    0 -0.25989966241E+01  0.14342879153E+02 -0.11756113124E+02  0.72461570505E+02  0.70000000274E+02 0.  0.
        -12    1    1    2    0    0  0.25989966241E+01 -0.14342879153E+02  0.11756113124E+02  0.18726429495E+02  0.00000000000E+00 0.  1.
         11    1    3    3    0    0 -0.25233188139E+02  0.19084989442E+01 -0.14368549580E+02  0.29100023525E+02  0.51100000000E-03 0. -1.
        -11    1    3    3    0    0  0.37756377128E+01 -0.11530768796E+02  0.41608458005E+01  0.12826796452E+02  0.51100000000E-03 0.  1.
         12    1    3    3    0    0  0.18858553802E+02  0.23965149005E+02 -0.15484093444E+01  0.30534750529E+02  0.00000000000E+00 0. -1.
</event>
<event>
 7    1  0.3435518E-013  0.7246152E+02  0.7816164E-02  0.1226708E+00
        -11   -1    0    0    0    0  0.00000000000E+00  0.00000000000E+00  0.45593999997E+02  0.45594000000E+02  0.51100000000E-03 0.  1.
         11   -1    0    0    0    0 -0.00000000000E+00 -0.00000000000E+00 -0.45593999997E+02  0.45594000000E+02  0.51100000000E-03 0. -1.
    9900012    2    1    2    0    0 -0.65080485334E+01  0.60596019773E+01 -0.16480518307E+02  0.72461522608E+02  0.69999937880E+02 0.  0.
        -12    1    1    2    0    0  0.65080485334E+01 -0.60596019773E+01  0.16480518307E+02  0.18726477392E+02  0.00000000000E+00 0.  1.
         11    1    3    3    0    0 -0.21350648512E+02  0.70220789838E+01 -0.24722833034E+01  0.22611323936E+02  0.51100000000E-03 0. -1.
        -11    1    3    3    0    0 -0.10020447860E+02  0.90825548808E+01 -0.18235798423E+02  0.22703447378E+02  0.51100000000E-03 0.  1.
         12    1    3    3    0    0  0.24863047838E+02 -0.10045031887E+02  0.42275634191E+01  0.27146751295E+02  0.00000000000E+00 0. -1.
</event>
<event>
 7    1  0.3435518E-013  0.7246156E+02  0.7816164E-02  0.1226708E+00
        -11   -1    0    0    0    0  0.00000000000E+00  0.00000000000E+00  0.45593999997E+02  0.45594000000E+02  0.51100000000E-03 0. -1.
         11   -1    0    0    0    0 -0.00000000000E+00 -0.00000000000E+00 -0.45593999997E+02  0.45594000000E+02  0.51100000000E-03 0.  1.
    9900012    2    1    2    0    0 -0.11047782197E+02  0.65169110506E+01  0.13643894082E+02  0.72461562356E+02  0.69999989659E+02 0.  0.
        -12    1    1    2    0    0  0.11047782197E+02 -0.65169110506E+01 -0.13643894082E+02  0.18726437644E+02  0.00000000000E+00 0.  1.
         11    1    3    3    0    0 -0.18130937641E+02  0.19584478436E+01 -0.79874211954E+01  0.19908925519E+02  0.51100000000E-03 0. -1.
        -11    1    3    3    0    0 -0.12078405555E+02  0.18470530680E+02  0.26957104309E+01  0.22233201284E+02  0.51100000000E-03 0.  1.
         12    1    3    3    0    0  0.19161561000E+02 -0.13912067473E+02  0.18935604847E+02  0.30319435553E+02  0.00000000000E+00 0. -1.
</event>
<event>
 7    1  0.3435518E-013  0.7246157E+02  0.7816164E-02  0.1226708E+00
        -11   -1    0    0    0    0  0.00000000000E+00  0.00000000000E+00  0.45593999997E+02  0.45594000000E+02  0.51100000000E-03 0. -1.
         11   -1    0    0    0    0 -0.00000000000E+00 -0.00000000000E+00 -0.45593999997E+02  0.45594000000E+02  0.51100000000E-03 0.  1.
    9900012    2    1    2    0    0  0.13160526771E+02  0.13232604832E+02  0.15420377862E+01  0.72461570119E+02  0.69999999772E+02 0.  0.
        -12    1    1    2    0    0 -0.13160526771E+02 -0.13232604832E+02 -0.15420377862E+01  0.18726429881E+02  0.00000000000E+00 0.  1.
         11    1    3    3    0    0  0.19794772589E+02  0.20165928282E+02 -0.16743506433E+02  0.32845740869E+02  0.51100000000E-03 0. -1.
        -11    1    3    3    0    0  0.10094167573E+02 -0.11032862705E+02  0.65420518387E+00  0.14968108202E+02  0.51100000000E-03 0.  1.
         12    1    3    3    0    0 -0.16728413391E+02  0.40995392560E+01  0.17631339036E+02  0.24647721048E+02  0.00000000000E+00 0. -1.
</event>
<event>
 7    1  0.3435518E-013  0.7246161E+02  0.7816164E-02  0.1226708E+00
        -11   -1    0    0    0    0  0.00000000000E+00  0.00000000000E+00  0.45593999997E+02  0.45594000000E+02  0.51100000000E-03 0.  1.
         11   -1    0    0    0    0 -0.00000000000E+00 -0.00000000000E+00 -0.45593999997E+02  0.45594000000E+02  0.51100000000E-03 0. -1.
    9900012    2    1    2    0    0 -0.61638401483E+01 -0.17682738733E+02  0.73882896410E-01  0.72461611316E+02  0.70000053438E+02 0.  0.
        -12    1    1    2    0    0  0.61638401483E+01  0.17682738733E+02 -0.73882896410E-01  0.18726388684E+02  0.00000000000E+00 0.  1.
         11    1    3    3    0    0  0.24751684614E+02 -0.15558258598E+02 -0.78429388265E+00  0.29245861570E+02  0.51100000000E-03 0. -1.
        -11    1    3    3    0    0 -0.10128011442E+02 -0.15244320692E+02 -0.22445333270E+01  0.18439193563E+02  0.51100000000E-03 0.  1.
        -12    1    3    3    0    0 -0.20787513320E+02  0.13119840558E+02  0.31027101061E+01  0.24776556183E+02  0.00000000000E+00 0.  1.
</event>
<event>
 7    1  0.3435518E-013  0.7246155E+02  0.7816164E-02  0.1226708E+00
        -11   -1    0    0    0    0  0.00000000000E+00  0.00000000000E+00  0.45593999997E+02  0.45594000000E+02  0.51100000000E-03 0.  1.
         11   -1    0    0    0    0 -0.00000000000E+00 -0.00000000000E+00 -0.45593999997E+02  0.45594000000E+02  0.51100000000E-03 0. -1.
    9900012    2    1    2    0    0  0.31122636158E+01 -0.39628386649E+01 -0.18035786786E+02  0.72461551323E+02  0.69999975286E+02 0.  0.
        -12    1    1    2    0    0 -0.31122636158E+01  0.39628386649E+01  0.18035786786E+02  0.18726448677E+02  0.00000000000E+00 0.  1.
         11    1    3    3    0    0  0.19211012833E+00 -0.24011750508E+02 -0.13275578925E+02  0.27437967578E+02  0.51100000000E-03 0. -1.
        -11    1    3    3    0    0  0.12551925056E+02  0.13591112326E+01  0.12540519513E+02  0.17795017164E+02  0.51100000000E-03 0.  1.
        -12    1    3    3    0    0 -0.96317715683E+01  0.18689800611E+02 -0.17300727373E+02  0.27228566581E+02  0.00000000000E+00 0.  1.
</event>
<event>
 7    1  0.3435518E-013  0.7246155E+02  0.7816164E-02  0.1226708E+00
        -11   -1    0    0    0    0  0.00000000000E+00  0.00000000000E+00  0.45593999997E+02  0.45594000000E+02  0.51100000000E-03 0.  1.
         11   -1    0    0    0    0 -0.00000000000E+00 -0.00000000000E+00 -0.45593999997E+02  0.45594000000E+02  0.51100000000E-03 0. -1.
    9900012    2    1    2    0    0  0.17626637896E+02  0.62543960531E+01 -0.92956140272E+00  0.72461550312E+02  0.69999973969E+02 0.  0.
        -12    1    1    2    0    0 -0.17626637896E+02 -0.62543960531E+01  0.92956140272E+00  0.18726449688E+02  0.00000000000E+00 0.  1.
         11    1    3    3    0    0 -0.30677572090E+01  0.19678274641E+02  0.21785447808E+01  0.20034761909E+02  0.51100000000E-03 0. -1.
        -11    1    3    3    0    0  0.26522841524E+02 -0.11537516850E+01 -0.18149799414E+02  0.32159096450E+02  0.51100000000E-03 0.  1.
        -12    1    3    3    0    0 -0.58284464192E+01 -0.12270126903E+02  0.15041693230E+02  0.20267691953E+02  0.00000000000E+00 0.  1.
</event>
<event>
 7    1  0.3435518E-013  0.7246161E+02  0.7816164E-02  0.1226708E+00
        -11   -1    0    0    0    0  0.00000000000E+00  0.00000000000E+00  0.45593999997E+02  0.45594000000E+02  0.51100000000E-03 0. -1.
         11   -1    0    0    0    0 -0.00000000000E+00 -0.00000000000E+00 -0.45593999997E+02  0.45594000000E+02  0.51100000000E-03 0.  1.
    9900012    2    1    2    0    0 -0.79892925546E+01  0.14453890046E+02  0.88280103968E+01  0.72461614857E+02  0.70000058051E+02 0.  0.
        -12    1    1    2    0    0  0.79892925546E+01 -0.14453890046E+02 -0.88280103968E+01  0.18726385143E+02  0.00000000000E+00 0.  1.
         11    1    3    3    0    0  0.37247184970E+01  0.36634039789E+01 -0.34155707100E+01  0.62418090431E+01  0.51100000000E-03 0. -1.
        -11    1    3    3    0    0 -0.23466375686E+02  0.87153700997E+01 -0.19870224543E+02  0.31960198489E+02  0.51100000000E-03 0.  1.
         12    1    3    3    0    0  0.11752364634E+02  0.20751159670E+01  0.32113805649E+02  0.34259607325E+02  0.00000000000E+00 0. -1.
</event>
<event>
 7    1  0.3435518E-013  0.7246153E+02  0.7816164E-02  0.1226708E+00
        -11   -1    0    0    0    0  0.00000000000E+00  0.00000000000E+00  0.45593999997E+02  0.45594000000E+02  0.51100000000E-03 0.  1.
         11   -1    0    0    0    0 -0.00000000000E+00 -0.00000000000E+00 -0.45593999997E+02  0.45594000000E+02  0.51100000000E-03 0. -1.
    9900012    2    1    2    0    0 -0.89842889676E+00 -0.13096214099E+02 -0.13355250855E+02  0.72461528800E+02  0.69999945946E+02 0.  0.
        -12    1    1    2    0    0  0.89842889676E+00  0.13096214099E+02  0.13355250855E+02  0.18726471200E+02  0.00000000000E+00 0.  1.
         11    1    3    3    0    0  0.43537056434E+01 -0.28238018594E+02  0.80199061175E+01  0.29675905064E+02  0.51100000000E-03 0. -1.
        -11    1    3    3    0    0  0.11911436064E+02 -0.17469505809E+01 -0.11844609339E+02  0.16888721565E+02  0.51100000000E-03 0.  1.
        -12    1    3    3    0    0 -0.17163570604E+02  0.16888755076E+02 -0.95305476332E+01  0.25896902172E+02  0.00000000000E+00 0.  1.
</event>
<event>
 7    1  0.3435518E-013  0.7246162E+02  0.7816164E-02  0.1226708E+00
        -11   -1    0    0    0    0  0.00000000000E+00  0.00000000000E+00  0.45593999997E+02  0.45594000000E+02  0.51100000000E-03 0. -1.
         11   -1    0    0    0    0 -0.00000000000E+00 -0.00000000000E+00 -0.45593999997E+02  0.45594000000E+02  0.51100000000E-03 0.  1.
    9900012    2    1    2    0    0 -0.35938638296E+01  0.13375782608E+02 -0.12603560325E+02  0.72461624204E+02  0.70000070227E+02 0.  0.
        -12    1    1    2    0    0  0.35938638296E+01 -0.13375782608E+02  0.12603560325E+02  0.18726375796E+02  0.00000000000E+00 0.  1.
         11    1    3    3    0    0  0.17752108797E+02  0.59964250359E+01  0.12406849060E+02  0.22472747580E+02  0.51100000000E-03 0. -1.
        -11    1    3    3    0    0  0.85538743256E+01  0.68669625799E+01  0.54686288646E-01  0.10969363332E+02  0.51100000000E-03 0.  1.
        -12    1    3    3    0    0 -0.29899846952E+02  0.51239499225E+00 -0.25065095674E+02  0.39019513292E+02  0.00000000000E+00 0.  1.
</event>
<event>
 7    1  0.3435518E-013  0.7246156E+02  0.7816164E-02  0.1226708E+00
        -11   -1    0    0    0    0  0.00000000000E+00  0.00000000000E+00  0.45593999997E+02  0.45594000000E+02  0.51100000000E-03 0.  1.
         11   -1    0    0    0    0 -0.00000000000E+00 -0.00000000000E+00 -0.45593999997E+02  0.45594000000E+02  0.51100000000E-03 0. -1.
    9900012    2    1    2    0    0  0.17504271121E+02  0.39866216147E+01 -0.53279409137E+01  0.72461558433E+02  0.69999984548E+02 0.  0.
        -12    1    1    2    0    0 -0.17504271121E+02 -0.39866216147E+01  0.53279409137E+01  0.18726441567E+02  0.00000000000E+00 0.  1.
         11    1    3    3    0    0 -0.27053913865E+01  0.37254514872E+01 -0.86925800329E+01  0.98366192987E+01  0.51100000000E-03 0. -1.
        -11    1    3    3    0    0 -0.48906343368E+01  0.21983415567E+02  0.15436532402E+02  0.27303395339E+02  0.51100000000E-03 0.  1.
         12    1    3    3    0    0  0.25100296845E+02 -0.21722245440E+02 -0.12071893282E+02  0.35321543795E+02  0.00000000000E+00 0. -1.
</event>
<event>
 7    1  0.3435518E-013  0.7246163E+02  0.7816164E-02  0.1226708E+00
        -11   -1    0    0    0    0  0.00000000000E+00  0.00000000000E+00  0.45593999997E+02  0.45594000000E+02  0.51100000000E-03 0.  1.
         11   -1    0    0    0    0 -0.00000000000E+00 -0.00000000000E+00 -0.45593999997E+02  0.45594000000E+02  0.51100000000E-03 0. -1.
    9900012    2    1    2    0    0  0.21019686527E+01  0.69908136772E+01 -0.17244922416E+02  0.72461625625E+02  0.70000072078E+02 0.  0.
        -12    1    1    2    0    0 -0.21019686527E+01 -0.69908136772E+01  0.17244922416E+02  0.18726374375E+02  0.00000000000E+00 0.  1.
         11    1    3    3    0    0  0.92047255760E+01 -0.18406821617E+02 -0.17781283252E+02  0.27197648599E+02  0.51100000000E-03 0. -1.
        -11    1    3    3    0    0  0.11413175823E+02  0.46667300795E+01 -0.96528748856E+01  0.15659404389E+02  0.51100000000E-03 0.  1.
        -12    1    3    3    0    0 -0.18515932746E+02  0.20730905214E+02  0.10189235721E+02  0.29604572637E+02  0.00000000000E+00 0.  1.
</event>
<event>
 7    1  0.3435518E-013  0.7246156E+02  0.7816164E-02  0.1226708E+00
        -11   -1    0    0    0    0  0.00000000000E+00  0.00000000000E+00  0.45593999997E+02  0.45594000000E+02  0.51100000000E-03 0. -1.
         11   -1    0    0    0    0 -0.00000000000E+00 -0.00000000000E+00 -0.45593999997E+02  0.45594000000E+02  0.51100000000E-03 0.  1.
    9900012    2    1    2    0    0  0.61150741316E+01  0.13396509334E+02  0.11568017785E+02  0.72461558014E+02  0.69999984003E+02 0.  0.
        -12    1    1    2    0    0 -0.61150741316E+01 -0.13396509334E+02 -0.11568017785E+02  0.18726441986E+02  0.00000000000E+00 0.  1.
         11    1    3    3    0    0 -0.19716983117E+02  0.99722723471E+01  0.14512086981E+01  0.22142981867E+02  0.51100000000E-03 0. -1.
        -11    1    3    3    0    0 -0.61535764808E+01  0.14095152760E+02  0.11216664346E+01  0.15420699423E+02  0.51100000000E-03 0.  1.
        -12    1    3    3    0    0  0.31985633730E+02 -0.10670915773E+02  0.89951426520E+01  0.34897876724E+02  0.00000000000E+00 0.  1.
</event>
<event>
 7    1  0.3435518E-013  0.7246156E+02  0.7816164E-02  0.1226708E+00
        -11   -1    0    0    0    0  0.00000000000E+00  0.00000000000E+00  0.45593999997E+02  0.45594000000E+02  0.51100000000E-03 0. -1.
         11   -1    0    0    0    0 -0.00000000000E+00 -0.00000000000E+00 -0.45593999997E+02  0.45594000000E+02  0.51100000000E-03 0.  1.
    9900012    2    1    2    0    0 -0.15129160826E+02  0.10000312824E+02  0.46670866968E+01  0.72461562482E+02  0.69999989823E+02 0.  0.
        -12    1    1    2    0    0  0.15129160826E+02 -0.10000312824E+02 -0.46670866968E+01  0.18726437518E+02  0.00000000000E+00 0.  1.
         11    1    3    3    0    0 -0.14177595145E+02  0.20546010860E+02  0.26412213285E+02  0.36342093738E+02  0.51100000000E-03 0. -1.
        -11    1    3    3    0    0 -0.49252858196E+01  0.75912541717E+01 -0.25225839866E+01  0.93940944500E+01  0.51100000000E-03 0.  1.
        -12    1    3    3    0    0  0.39737201387E+01 -0.18136952207E+02 -0.19222542602E+02  0.26725374294E+02  0.00000000000E+00 0.  1.
</event>
<event>
 7    1  0.3435518E-013  0.7246160E+02  0.7816164E-02  0.1226708E+00
        -11   -1    0    0    0    0  0.00000000000E+00  0.00000000000E+00  0.45593999997E+02  0.45594000000E+02  0.51100000000E-03 0.  1.
         11   -1    0    0    0    0 -0.00000000000E+00 -0.00000000000E+00 -0.45593999997E+02  0.45594000000E+02  0.51100000000E-03 0. -1.
    9900012    2    1    2    0    0 -0.23448200751E+00 -0.18025456172E+02  0.50701011810E+01  0.72461602108E+02  0.70000041443E+02 0.  0.
        -12    1    1    2    0    0  0.23448200751E+00  0.18025456172E+02 -0.50701011810E+01  0.18726397892E+02  0.00000000000E+00 0.  1.
         11    1    3    3    0    0 -0.64243315560E+01 -0.22216468394E+01  0.24264360953E+02  0.25198550818E+02  0.51100000000E-03 0. -1.
        -11    1    3    3    0    0  0.10377340849E+02  0.10510658133E+02 -0.62170350529E+00  0.14783424942E+02  0.51100000000E-03 0.  1.
         12    1    3    3    0    0 -0.41874913009E+01 -0.26314467466E+02 -0.18572556267E+02  0.32479626348E+02  0.00000000000E+00 0. -1.
</event>
<event>
 7    1  0.3435518E-013  0.7246157E+02  0.7816164E-02  0.1226708E+00
        -11   -1    0    0    0    0  0.00000000000E+00  0.00000000000E+00  0.45593999997E+02  0.45594000000E+02  0.51100000000E-03 0. -1.
         11   -1    0    0    0    0 -0.00000000000E+00 -0.00000000000E+00 -0.45593999997E+02  0.45594000000E+02  0.51100000000E-03 0.  1.
    9900012    2    1    2    0    0  0.93876060881E+00  0.16905984478E+02  0.79990906614E+01  0.72461573911E+02  0.70000004712E+02 0.  0.
        -12    1    1    2    0    0 -0.93876060881E+00 -0.16905984478E+02 -0.79990906614E+01  0.18726426089E+02  0.00000000000E+00 0.  1.
         11    1    3    3    0    0  0.98519366757E+01 -0.51634363497E+01  0.15498489171E+02  0.19076815721E+02  0.51100000000E-03 0. -1.
        -11    1    3    3    0    0 -0.69127764941E+01 -0.11526497944E+02 -0.13667357556E+02  0.19168810515E+02  0.51100000000E-03 0.  1.
        -12    1    3    3    0    0 -0.20003995728E+01  0.33595918772E+02  0.61679590468E+01  0.34215947676E+02  0.00000000000E+00 0.  1.
</event>
<event>
 7    1  0.3994947E-013  0.7246153E+02  0.7816164E-02  0.1226708E+00
        -11   -1    0    0    0    0  0.00000000000E+00  0.00000000000E+00  0.45593999997E+02  0.45594000000E+02  0.51100000000E-03 0.  1.
         11   -1    0    0    0    0 -0.00000000000E+00 -0.00000000000E+00 -0.45593999997E+02  0.45594000000E+02  0.51100000000E-03 0. -1.
    9900012    2    1    2    0    0 -0.15886843529E+02  0.27369565616E+01 -0.95287885493E+01  0.72461533709E+02  0.69999952341E+02 0.  0.
        -12    1    1    2    0    0  0.15886843529E+02 -0.27369565616E+01  0.95287885493E+01  0.18726466291E+02  0.00000000000E+00 0.  1.
         11    1    3    3    0    0  0.56742290852E+01  0.96022280588E+01 -0.48554675599E+00  0.11164023259E+02  0.51100000000E-03 0. -1.
        -11    1    3    3    0    0  0.14273099556E+02 -0.13067023164E+02  0.82401661151E+01  0.21032565302E+02  0.51100000000E-03 0.  1.
         12    1    3    3    0    0 -0.35834172170E+02  0.62017516671E+01 -0.17283407908E+02  0.40264945148E+02  0.00000000000E+00 0. -1.
</event>
<event>
 7    1  0.3435518E-013  0.7246162E+02  0.7816164E-02  0.1226708E+00
        -11   -1    0    0    0    0  0.00000000000E+00  0.00000000000E+00  0.45593999997E+02  0.45594000000E+02  0.51100000000E-03 0.  1.
         11   -1    0    0    0    0 -0.00000000000E+00 -0.00000000000E+00 -0.45593999997E+02  0.45594000000E+02  0.51100000000E-03 0. -1.
    9900012    2    1    2    0    0 -0.10730261444E+02  0.12039543766E+02 -0.95177834788E+01  0.72461619488E+02  0.70000064083E+02 0.  0.
        -12    1    1    2    0    0  0.10730261444E+02 -0.12039543766E+02  0.95177834788E+01  0.18726380512E+02  0.00000000000E+00 0.  1.
         11    1    3    3    0    0  0.17108442282E+02  0.79149527725E+01  0.47962250102E+01  0.19451196604E+02  0.51100000000E-03 0. -1.
        -11    1    3    3    0    0  0.86964790761E+01  0.83275508791E+01  0.29302924825E+01  0.12392072718E+02  0.51100000000E-03 0.  1.
         12    1    3    3    0    0 -0.36535182802E+02 -0.42029598859E+01 -0.17244300972E+02  0.40618350166E+02  0.00000000000E+00 0. -1.
</event>
<event>
 7    1  0.3435518E-013  0.7246161E+02  0.7816164E-02  0.1226708E+00
        -11   -1    0    0    0    0  0.00000000000E+00  0.00000000000E+00  0.45593999997E+02  0.45594000000E+02  0.51100000000E-03 0.  1.
         11   -1    0    0    0    0 -0.00000000000E+00 -0.00000000000E+00 -0.45593999997E+02  0.45594000000E+02  0.51100000000E-03 0. -1.
    9900012    2    1    2    0    0  0.43011304950E+01 -0.22896025764E+01 -0.18081360726E+02  0.72461611956E+02  0.70000054272E+02 0.  0.
        -12    1    1    2    0    0 -0.43011304950E+01  0.22896025764E+01  0.18081360726E+02  0.18726388044E+02  0.00000000000E+00 0.  1.
         11    1    3    3    0    0  0.20226893986E+02  0.17268646003E+02 -0.20287921093E+02  0.33450457660E+02  0.51100000000E-03 0. -1.
        -11    1    3    3    0    0  0.61271219538E+01  0.17430234065E+01  0.51747674614E+01  0.82071902971E+01  0.51100000000E-03 0.  1.
        -12    1    3    3    0    0 -0.22052885445E+02 -0.21301271986E+02 -0.29682070943E+01  0.30803963999E+02  0.00000000000E+00 0.  1.
</event>
<event>
 7    1  0.3435518E-013  0.7246159E+02  0.7816164E-02  0.1226708E+00
        -11   -1    0    0    0    0  0.00000000000E+00  0.00000000000E+00  0.45593999997E+02  0.45594000000E+02  0.51100000000E-03 0.  1.
         11   -1    0    0    0    0 -0.00000000000E+00 -0.00000000000E+00 -0.45593999997E+02  0.45594000000E+02  0.51100000000E-03 0. -1.
    9900012    2    1    2    0    0  0.78481135052E+01 -0.16808087248E+02  0.25639090964E+01  0.72461593180E+02  0.70000029813E+02 0.  0.
        -12    1    1    2    0    0 -0.78481135052E+01  0.16808087248E+02 -0.25639090964E+01  0.18726406820E+02  0.00000000000E+00 0.  1.
         11    1    3    3    0    0  0.22048576936E+02 -0.15927284753E+02  0.19542377695E+02  0.33492128489E+02  0.51100000000E-03 0. -1.
        -11    1    3    3    0    0  0.43306486413E+00  0.10650358442E+02 -0.17318097003E+02  0.20335539437E+02  0.51100000000E-03 0.  1.
        -12    1    3    3    0    0 -0.14633528295E+02 -0.11531160937E+02  0.33962840480E+00  0.18633925254E+02  0.00000000000E+00 0.  1.
</event>
<event>
 7    1  0.3435518E-013  0.7246155E+02  0.7816164E-02  0.1226708E+00
        -11   -1    0    0    0    0  0.00000000000E+00  0.00000000000E+00  0.45593999997E+02  0.45594000000E+02  0.51100000000E-03 0.  1.
         11   -1    0    0    0    0 -0.00000000000E+00 -0.00000000000E+00 -0.45593999997E+02  0.45594000000E+02  0.51100000000E-03 0. -1.
    9900012    2    1    2    0    0 -0.21839737864E+01  0.34581550457E+01 -0.18274332028E+02  0.72461553757E+02  0.69999978457E+02 0.  0.
        -12    1    1    2    0    0  0.21839737864E+01 -0.34581550457E+01  0.18274332028E+02  0.18726446243E+02  0.00000000000E+00 0.  1.
         11    1    3    3    0    0  0.13504444401E+02  0.10938275566E+02 -0.20445272551E+02  0.26833282708E+02  0.51100000000E-03 0. -1.
        -11    1    3    3    0    0  0.10418416579E+02  0.47672248761E+01  0.10575075403E+02  0.15591730406E+02  0.51100000000E-03 0.  1.
         12    1    3    3    0    0 -0.26106834766E+02 -0.12247345397E+02 -0.84041348791E+01  0.30036540643E+02  0.00000000000E+00 0. -1.
</event>
<event>
 7    1  0.3435518E-013  0.7246155E+02  0.7816164E-02  0.1226708E+00
        -11   -1    0    0    0    0  0.00000000000E+00  0.00000000000E+00  0.45593999997E+02  0.45594000000E+02  0.51100000000E-03 0. -1.
         11   -1    0    0    0    0 -0.00000000000E+00 -0.00000000000E+00 -0.45593999997E+02  0.45594000000E+02  0.51100000000E-03 0.  1.
    9900012    2    1    2    0    0  0.60200328771E+01  0.16975989972E+02  0.51239676949E+01  0.72461546083E+02  0.69999968461E+02 0.  0.
        -12    1    1    2    0    0 -0.60200328771E+01 -0.16975989972E+02 -0.51239676949E+01  0.18726453917E+02  0.00000000000E+00 0.  1.
         11    1    3    3    0    0  0.13086426315E+02  0.20930441946E+02  0.28964182209E+02  0.38056035067E+02  0.51100000000E-03 0. -1.
        -11    1    3    3    0    0  0.50230598540E+01  0.60706472359E+01 -0.32839884811E+01  0.85363029916E+01  0.51100000000E-03 0.  1.
        -12    1    3    3    0    0 -0.12089453292E+02 -0.10025099210E+02 -0.20556226033E+02  0.25869208024E+02  0.00000000000E+00 0.  1.
</event>
<event>
 7    1  0.3435518E-013  0.7246166E+02  0.7816164E-02  0.1226708E+00
        -11   -1    0    0    0    0  0.00000000000E+00  0.00000000000E+00  0.45593999997E+02  0.45594000000E+02  0.51100000000E-03 0.  1.
         11   -1    0    0    0    0 -0.00000000000E+00 -0.00000000000E+00 -0.45593999997E+02  0.45594000000E+02  0.51100000000E-03 0. -1.
    9900012    2    1    2    0    0 -0.11440187246E+02 -0.73641902942E+01 -0.12867266363E+02  0.72461662222E+02  0.70000119753E+02 0.  0.
        -12    1    1    2    0    0  0.11440187246E+02  0.73641902942E+01  0.12867266363E+02  0.18726337778E+02  0.00000000000E+00 0.  1.
         11    1    3    3    0    0  0.12042025754E+01  0.23187138831E+01 -0.87964331533E+01  0.91762614608E+01  0.51100000000E-03 0. -1.
        -11    1    3    3    0    0  0.17062286674E+01  0.23954891151E+02 -0.10399943215E+02  0.26170724971E+02  0.51100000000E-03 0.  1.
         12    1    3    3    0    0 -0.14350618489E+02 -0.33637795329E+02  0.63291100060E+01  0.37114675791E+02  0.00000000000E+00 0. -1.
</event>
<event>
 7    1  0.3435518E-013  0.7246151E+02  0.7816164E-02  0.1226708E+00
        -11   -1    0    0    0    0  0.00000000000E+00  0.00000000000E+00  0.45593999997E+02  0.45594000000E+02  0.51100000000E-03 0. -1.
         11   -1    0    0    0    0 -0.00000000000E+00 -0.00000000000E+00 -0.45593999997E+02  0.45594000000E+02  0.51100000000E-03 0.  1.
    9900012    2    1    2    0    0  0.16596205179E+02 -0.43679129993E+01  0.74945910200E+01  0.72461505804E+02  0.69999915990E+02 0.  0.
        -12    1    1    2    0    0 -0.16596205179E+02  0.43679129993E+01 -0.74945910200E+01  0.18726494196E+02  0.00000000000E+00 0.  1.
         11    1    3    3    0    0  0.22248938161E+02  0.24919493734E+01  0.14481848869E+02  0.26663627058E+02  0.51100000000E-03 0. -1.
        -11    1    3    3    0    0 -0.32532883545E+00 -0.23811172507E+02  0.50405733960E+01  0.24341017962E+02  0.51100000000E-03 0.  1.
         12    1    3    3    0    0 -0.53274041465E+01  0.16951310135E+02 -0.12027831245E+02  0.21456860784E+02  0.00000000000E+00 0. -1.
</event>
<event>
 7    1  0.3435518E-013  0.7246137E+02  0.7816164E-02  0.1226709E+00
        -11   -1    0    0    0    0  0.00000000000E+00  0.00000000000E+00  0.45593999997E+02  0.45594000000E+02  0.51100000000E-03 0.  1.
         11   -1    0    0    0    0 -0.00000000000E+00 -0.00000000000E+00 -0.45593999997E+02  0.45594000000E+02  0.51100000000E-03 0. -1.
    9900012    2    1    2    0    0  0.53391530885E+01 -0.14038127190E+02  0.11185311772E+02  0.72461367357E+02  0.69999735636E+02 0.  0.
        -12    1    1    2    0    0 -0.53391530885E+01  0.14038127190E+02 -0.11185311772E+02  0.18726632643E+02  0.00000000000E+00 0.  1.
         11    1    3    3    0    0  0.26846512845E+01 -0.16862762561E+01  0.15648863161E+02  0.15966771703E+02  0.51100000000E-03 0. -1.
        -11    1    3    3    0    0 -0.36203060524E+01  0.15204600916E+02  0.15406772511E+02  0.21946643124E+02  0.51100000000E-03 0.  1.
         12    1    3    3    0    0  0.62748078564E+01 -0.27556451850E+02 -0.19870323899E+02  0.34547952531E+02  0.00000000000E+00 0. -1.
</event>
<event>
 7    1  0.3435518E-013  0.7246151E+02  0.7816164E-02  0.1226708E+00
        -11   -1    0    0    0    0  0.00000000000E+00  0.00000000000E+00  0.45593999997E+02  0.45594000000E+02  0.51100000000E-03 0.  1.
         11   -1    0    0    0    0 -0.00000000000E+00 -0.00000000000E+00 -0.45593999997E+02  0.45594000000E+02  0.51100000000E-03 0. -1.
    9900012    2    1    2    0    0  0.14894633650E+02  0.11066696552E+02 -0.25218007601E+01  0.72461511722E+02  0.69999923699E+02 0.  0.
        -12    1    1    2    0    0 -0.14894633650E+02 -0.11066696552E+02  0.25218007601E+01  0.18726488278E+02  0.00000000000E+00 0.  1.
         11    1    3    3    0    0  0.19076183638E+02  0.60136434155E+01 -0.21757003786E+02  0.29553881358E+02  0.51100000000E-03 0. -1.
        -11    1    3    3    0    0  0.12100766459E+02 -0.10351611601E+02  0.73888039938E+01  0.17555023109E+02  0.51100000000E-03 0.  1.
        -12    1    3    3    0    0 -0.16282316447E+02  0.15404664738E+02  0.11846399032E+02  0.25352607255E+02  0.00000000000E+00 0.  1.
</event>
<event>
 7    1  0.3435518E-013  0.7246153E+02  0.7816164E-02  0.1226708E+00
        -11   -1    0    0    0    0  0.00000000000E+00  0.00000000000E+00  0.45593999997E+02  0.45594000000E+02  0.51100000000E-03 0.  1.
         11   -1    0    0    0    0 -0.00000000000E+00 -0.00000000000E+00 -0.45593999997E+02  0.45594000000E+02  0.51100000000E-03 0. -1.
    9900012    2    1    2    0    0  0.69544921085E+01  0.17352990028E+02  0.10905692579E+01  0.72461533043E+02  0.69999951473E+02 0.  0.
        -12    1    1    2    0    0 -0.69544921085E+01 -0.17352990028E+02 -0.10905692579E+01  0.18726466957E+02  0.00000000000E+00 0.  1.
         11    1    3    3    0    0 -0.37602402698E+01 -0.19478096489E+01  0.11490344096E+02  0.12245871836E+02  0.51100000000E-03 0. -1.
        -11    1    3    3    0    0 -0.11025108261E+02  0.14968245640E+02  0.16848505504E+02  0.25089311025E+02  0.51100000000E-03 0.  1.
         12    1    3    3    0    0  0.21739840640E+02  0.43325540369E+01 -0.27248280342E+02  0.35126350182E+02  0.00000000000E+00 0. -1.
</event>
<event>
 7    1  0.3435518E-013  0.7246153E+02  0.7816164E-02  0.1226708E+00
        -11   -1    0    0    0    0  0.00000000000E+00  0.00000000000E+00  0.45593999997E+02  0.45594000000E+02  0.51100000000E-03 0. -1.
         11   -1    0    0    0    0 -0.00000000000E+00 -0.00000000000E+00 -0.45593999997E+02  0.45594000000E+02  0.51100000000E-03 0.  1.
    9900012    2    1    2    0    0 -0.56311858342E+01 -0.15163380121E+02 -0.94362206517E+01  0.72461531812E+02  0.69999949870E+02 0.  0.
        -12    1    1    2    0    0  0.56311858342E+01  0.15163380121E+02  0.94362206517E+01  0.18726468188E+02  0.00000000000E+00 0.  1.
         11    1    3    3    0    0 -0.10961555012E+01  0.19241423351E+01 -0.19226401160E+01  0.29326482717E+01  0.51100000000E-03 0. -1.
        -11    1    3    3    0    0 -0.11049753609E+02 -0.28343369943E+02 -0.30525770910E+02  0.43096013325E+02  0.51100000000E-03 0.  1.
         12    1    3    3    0    0  0.65147232762E+01  0.11255847487E+02  0.23012190375E+02  0.26432870216E+02  0.00000000000E+00 0. -1.
</event>
<event>
 7    1  0.3435518E-013  0.7246158E+02  0.7816164E-02  0.1226708E+00
        -11   -1    0    0    0    0  0.00000000000E+00  0.00000000000E+00  0.45593999997E+02  0.45594000000E+02  0.51100000000E-03 0. -1.
         11   -1    0    0    0    0 -0.00000000000E+00 -0.00000000000E+00 -0.45593999997E+02  0.45594000000E+02  0.51100000000E-03 0.  1.
    9900012    2    1    2    0    0  0.13694307652E+02  0.95409619500E+01  0.84920402784E+01  0.72461581093E+02  0.70000014067E+02 0.  0.
        -12    1    1    2    0    0 -0.13694307652E+02 -0.95409619500E+01 -0.84920402784E+01  0.18726418907E+02  0.00000000000E+00 0.  1.
         11    1    3    3    0    0  0.18383955139E+01 -0.17674755102E+01  0.12478310478E+02  0.12736243574E+02  0.51100000000E-03 0. -1.
        -11    1    3    3    0    0 -0.12754271121E+02  0.24646126748E+02 -0.12544313169E+02  0.30454273734E+02  0.51100000000E-03 0.  1.
         12    1    3    3    0    0  0.24610183259E+02 -0.13337689288E+02  0.85580429703E+01  0.29271063784E+02  0.00000000000E+00 0. -1.
</event>
<event>
 7    1  0.3435518E-013  0.7246156E+02  0.7816164E-02  0.1226708E+00
        -11   -1    0    0    0    0  0.00000000000E+00  0.00000000000E+00  0.45593999997E+02  0.45594000000E+02  0.51100000000E-03 0.  1.
         11   -1    0    0    0    0 -0.00000000000E+00 -0.00000000000E+00 -0.45593999997E+02  0.45594000000E+02  0.51100000000E-03 0. -1.
    9900012    2    1    2    0    0 -0.45936732379E+01 -0.10993719819E+02 -0.14447007008E+02  0.72461555576E+02  0.69999980827E+02 0.  0.
        -12    1    1    2    0    0  0.45936732379E+01  0.10993719819E+02  0.14447007008E+02  0.18726444424E+02  0.00000000000E+00 0.  1.
         11    1    3    3    0    0  0.37305896777E+01 -0.28491402080E+02 -0.36998329280E+01  0.28971814852E+02  0.51100000000E-03 0. -1.
        -11    1    3    3    0    0 -0.13641542921E+02 -0.45507832358E+01  0.57045114757E+01  0.15470706925E+02  0.51100000000E-03 0.  1.
        -12    1    3    3    0    0  0.53172800057E+01  0.22048465497E+02 -0.16451685555E+02  0.28019033799E+02  0.00000000000E+00 0.  1.
</event>
<event>
 7    1  0.3435518E-013  0.7246141E+02  0.7816164E-02  0.1226708E+00
        -11   -1    0    0    0    0  0.00000000000E+00  0.00000000000E+00  0.45593999997E+02  0.45594000000E+02  0.51100000000E-03 0. -1.
         11   -1    0    0    0    0 -0.00000000000E+00 -0.00000000000E+00 -0.45593999997E+02  0.45594000000E+02  0.51100000000E-03 0.  1.
    9900012    2    1    2    0    0 -0.18139700486E+02 -0.46386983739E+01  0.34463501391E+00  0.72461413829E+02  0.69999796175E+02 0.  0.
        -12    1    1    2    0    0  0.18139700486E+02  0.46386983739E+01 -0.34463501391E+00  0.18726586171E+02  0.00000000000E+00 0.  1.
         11    1    3    3    0    0 -0.37559660622E+01 -0.23292783858E+02 -0.65620780011E-02  0.23593666613E+02  0.51100000000E-03 0. -1.
        -11    1    3    3    0    0  0.22073323664E+01  0.15299491438E+01  0.18631012022E+02  0.18823593434E+02  0.51100000000E-03 0.  1.
         12    1    3    3    0    0 -0.16591066790E+02  0.17124136341E+02 -0.18279814930E+02  0.30044153782E+02  0.00000000000E+00 0. -1.
</event>
<event>
 7    1  0.3435518E-013  0.7246158E+02  0.7816164E-02  0.1226708E+00
        -11   -1    0    0    0    0  0.00000000000E+00  0.00000000000E+00  0.45593999997E+02  0.45594000000E+02  0.51100000000E-03 0.  1.
         11   -1    0    0    0    0 -0.00000000000E+00 -0.00000000000E+00 -0.45593999997E+02  0.45594000000E+02  0.51100000000E-03 0. -1.
    9900012    2    1    2    0    0 -0.11821247208E+02 -0.44498233417E+01  0.13825196370E+02  0.72461578345E+02  0.70000010487E+02 0.  0.
        -12    1    1    2    0    0  0.11821247208E+02  0.44498233417E+01 -0.13825196370E+02  0.18726421655E+02  0.00000000000E+00 0.  1.
         11    1    3    3    0    0 -0.32153791412E+02 -0.16373056591E+02  0.15446116402E+01  0.36115496808E+02  0.51100000000E-03 0. -1.
        -11    1    3    3    0    0 -0.31439713915E+01  0.70029408667E+01 -0.26164607870E+01  0.81099694330E+01  0.51100000000E-03 0.  1.
        -12    1    3    3    0    0  0.23476515595E+02  0.49202923824E+01  0.14897045517E+02  0.28236112104E+02  0.00000000000E+00 0.  1.
</event>
<event>
 7    1  0.3435518E-013  0.7246159E+02  0.7816164E-02  0.1226708E+00
        -11   -1    0    0    0    0  0.00000000000E+00  0.00000000000E+00  0.45593999997E+02  0.45594000000E+02  0.51100000000E-03 0. -1.
         11   -1    0    0    0    0 -0.00000000000E+00 -0.00000000000E+00 -0.45593999997E+02  0.45594000000E+02  0.51100000000E-03 0.  1.
    9900012    2    1    2    0    0 -0.10331324191E+02 -0.11884787122E+02  0.10133806727E+02  0.72461589151E+02  0.70000024565E+02 0.  0.
        -12    1    1    2    0    0  0.10331324191E+02  0.11884787122E+02 -0.10133806727E+02  0.18726410849E+02  0.00000000000E+00 0.  1.
         11    1    3    3    0    0  0.41155274457E+01 -0.98612621753E+01  0.63001558756E+01  0.12404596816E+02  0.51100000000E-03 0. -1.
        -11    1    3    3    0    0  0.16222235188E+02  0.11416383400E+02  0.14879933738E+02  0.24797321483E+02  0.51100000000E-03 0.  1.
        -12    1    3    3    0    0 -0.30669086825E+02 -0.13439908347E+02 -0.11046282886E+02  0.35259670853E+02  0.00000000000E+00 0.  1.
</event>
<event>
 7    1  0.3435518E-013  0.7246155E+02  0.7816164E-02  0.1226708E+00
        -11   -1    0    0    0    0  0.00000000000E+00  0.00000000000E+00  0.45593999997E+02  0.45594000000E+02  0.51100000000E-03 0.  1.
         11   -1    0    0    0    0 -0.00000000000E+00 -0.00000000000E+00 -0.45593999997E+02  0.45594000000E+02  0.51100000000E-03 0. -1.
    9900012    2    1    2    0    0  0.10504297628E+02  0.15470806820E+02 -0.99690392736E+00  0.72461549462E+02  0.69999972862E+02 0.  0.
        -12    1    1    2    0    0 -0.10504297628E+02 -0.15470806820E+02  0.99690392736E+00  0.18726450538E+02  0.00000000000E+00 0.  1.
         11    1    3    3    0    0  0.23187034433E+02 -0.11722904809E+02 -0.13944859309E+02  0.29487695135E+02  0.51100000000E-03 0. -1.
        -11    1    3    3    0    0  0.57689548028E+01 -0.14190674648E+01  0.55563292598E+01  0.81343338443E+01  0.51100000000E-03 0.  1.
        -12    1    3    3    0    0 -0.18451691608E+02  0.28612779094E+02  0.73916261222E+01  0.34839520482E+02  0.00000000000E+00 0.  1.
</event>
<event>
 7    1  0.3435518E-013  0.7246159E+02  0.7816164E-02  0.1226708E+00
        -11   -1    0    0    0    0  0.00000000000E+00  0.00000000000E+00  0.45593999997E+02  0.45594000000E+02  0.51100000000E-03 0.  1.
         11   -1    0    0    0    0 -0.00000000000E+00 -0.00000000000E+00 -0.45593999997E+02  0.45594000000E+02  0.51100000000E-03 0. -1.
    9900012    2    1    2    0    0 -0.82484882911E+01  0.15919085942E+02  0.54058665178E+01  0.72461594869E+02  0.70000032013E+02 0.  0.
        -12    1    1    2    0    0  0.82484882911E+01 -0.15919085942E+02 -0.54058665178E+01  0.18726405131E+02  0.00000000000E+00 0.  1.
         11    1    3    3    0    0  0.90654528073E+01  0.12321933288E+01  0.11504499843E+02  0.14698784028E+02  0.51100000000E-03 0. -1.
        -11    1    3    3    0    0  0.91346148946E+01 -0.76431227631E+01 -0.17631757805E+02  0.21277626710E+02  0.51100000000E-03 0.  1.
        -12    1    3    3    0    0 -0.26448555993E+02  0.22330015376E+02  0.11533124480E+02  0.36485184131E+02  0.00000000000E+00 0.  1.
</event>
<event>
 7    1  0.3435518E-013  0.7246157E+02  0.7816164E-02  0.1226708E+00
        -11   -1    0    0    0    0  0.00000000000E+00  0.00000000000E+00  0.45593999997E+02  0.45594000000E+02  0.51100000000E-03 0.  1.
         11   -1    0    0    0    0 -0.00000000000E+00 -0.00000000000E+00 -0.45593999997E+02  0.45594000000E+02  0.51100000000E-03 0. -1.
    9900012    2    1    2    0    0 -0.15168970009E+02 -0.55478696304E+01 -0.94764222639E+01  0.72461572485E+02  0.70000002854E+02 0.  0.
        -12    1    1    2    0    0  0.15168970009E+02  0.55478696304E+01  0.94764222639E+01  0.18726427515E+02  0.00000000000E+00 0.  1.
         11    1    3    3    0    0 -0.11603020924E+01 -0.20188490539E+01 -0.29467395832E+01  0.37557059097E+01  0.51100000000E-03 0. -1.
        -11    1    3    3    0    0  0.21117527458E+02  0.14729068691E+02 -0.12584195210E+02  0.28657588870E+02  0.51100000000E-03 0.  1.
         12    1    3    3    0    0 -0.35126195375E+02 -0.18258089268E+02  0.60545125294E+01  0.40048277706E+02  0.00000000000E+00 0. -1.
</event>
<event>
 7    1  0.3435518E-013  0.7246184E+02  0.7816164E-02  0.1226707E+00
        -11   -1    0    0    0    0  0.00000000000E+00  0.00000000000E+00  0.45593999997E+02  0.45594000000E+02  0.51100000000E-03 0. -1.
         11   -1    0    0    0    0 -0.00000000000E+00 -0.00000000000E+00 -0.45593999997E+02  0.45594000000E+02  0.51100000000E-03 0.  1.
    9900012    2    1    2    0    0  0.59073984413E+01  0.17471464992E+02  0.32433751589E+01  0.72461843754E+02  0.70000356231E+02 0.  0.
        -12    1    1    2    0    0 -0.59073984413E+01 -0.17471464992E+02 -0.32433751589E+01  0.18726156246E+02  0.00000000000E+00 0.  1.
         11    1    3    3    0    0  0.14607013625E+02 -0.86861058802E+01  0.15731183669E+01  0.17067160984E+02  0.51100000000E-03 0. -1.
        -11    1    3    3    0    0  0.15323795508E+02  0.55337036007E+01 -0.12667819139E+02  0.20637689461E+02  0.51100000000E-03 0.  1.
         12    1    3    3    0    0 -0.24023410691E+02  0.20623867272E+02  0.14338075931E+02  0.34756993309E+02  0.00000000000E+00 0. -1.
</event>
<event>
 7    1  0.3435518E-013  0.7246150E+02  0.7816164E-02  0.1226708E+00
        -11   -1    0    0    0    0  0.00000000000E+00  0.00000000000E+00  0.45593999997E+02  0.45594000000E+02  0.51100000000E-03 0. -1.
         11   -1    0    0    0    0 -0.00000000000E+00 -0.00000000000E+00 -0.45593999997E+02  0.45594000000E+02  0.51100000000E-03 0.  1.
    9900012    2    1    2    0    0 -0.72890867244E+00 -0.61910018713E+01  0.17658486452E+02  0.72461495900E+02  0.69999903088E+02 0.  0.
        -12    1    1    2    0    0  0.72890867244E+00  0.61910018713E+01 -0.17658486452E+02  0.18726504100E+02  0.00000000000E+00 0.  1.
         11    1    3    3    0    0 -0.64432521291E+01  0.15593665170E+02 -0.52262779252E+01  0.17663291670E+02  0.51100000000E-03 0. -1.
        -11    1    3    3    0    0 -0.16658678046E+02  0.34732147854E+00  0.14576670718E+01  0.16725937343E+02  0.51100000000E-03 0.  1.
        -12    1    3    3    0    0  0.22373021502E+02 -0.22131988519E+02  0.21427097306E+02  0.38072266887E+02  0.00000000000E+00 0.  1.
</event>
<event>
 7    1  0.3435518E-013  0.7246158E+02  0.7816164E-02  0.1226708E+00
        -11   -1    0    0    0    0  0.00000000000E+00  0.00000000000E+00  0.45593999997E+02  0.45594000000E+02  0.51100000000E-03 0. -1.
         11   -1    0    0    0    0 -0.00000000000E+00 -0.00000000000E+00 -0.45593999997E+02  0.45594000000E+02  0.51100000000E-03 0.  1.
    9900012    2    1    2    0    0 -0.14306510794E+02 -0.33165862697E+01  0.11619073728E+02  0.72461578295E+02  0.70000010422E+02 0.  0.
        -12    1    1    2    0    0  0.14306510794E+02  0.33165862697E+01 -0.11619073728E+02  0.18726421705E+02  0.00000000000E+00 0.  1.
         11    1    3    3    0    0  0.11725548114E+02  0.90259151912E+01 -0.10978415712E+02  0.18425016565E+02  0.51100000000E-03 0. -1.
        -11    1    3    3    0    0 -0.18483909405E+02  0.92145467252E+01 -0.16578947874E+01  0.20719830927E+02  0.51100000000E-03 0.  1.
         12    1    3    3    0    0 -0.75481495027E+01 -0.21557048186E+02  0.24255384227E+02  0.33316730803E+02  0.00000000000E+00 0. -1.
</event>
<event>
 7    1  0.3435518E-013  0.7246157E+02  0.7816164E-02  0.1226708E+00
        -11   -1    0    0    0    0  0.00000000000E+00  0.00000000000E+00  0.45593999997E+02  0.45594000000E+02  0.51100000000E-03 0. -1.
         11   -1    0    0    0    0 -0.00000000000E+00 -0.00000000000E+00 -0.45593999997E+02  0.45594000000E+02  0.51100000000E-03 0.  1.
    9900012    2    1    2    0    0  0.16703008370E+02 -0.62202944708E+00  0.84440295105E+01  0.72461573656E+02  0.70000004379E+02 0.  0.
        -12    1    1    2    0    0 -0.16703008370E+02  0.62202944708E+00 -0.84440295105E+01  0.18726426344E+02  0.00000000000E+00 0.  1.
         11    1    3    3    0    0  0.68421198014E+01  0.92709794046E+01  0.18908474980E+02  0.22142630576E+02  0.51100000000E-03 0. -1.
        -11    1    3    3    0    0  0.28086703188E+02  0.67027194657E+00 -0.71915028340E+01  0.29000515060E+02  0.51100000000E-03 0.  1.
        -12    1    3    3    0    0 -0.18225814619E+02 -0.10563280798E+02 -0.32729426354E+01  0.21318428020E+02  0.00000000000E+00 0.  1.
</event>
<event>
 7    1  0.3435518E-013  0.7246153E+02  0.7816164E-02  0.1226708E+00
        -11   -1    0    0    0    0  0.00000000000E+00  0.00000000000E+00  0.45593999997E+02  0.45594000000E+02  0.51100000000E-03 0.  1.
         11   -1    0    0    0    0 -0.00000000000E+00 -0.00000000000E+00 -0.45593999997E+02  0.45594000000E+02  0.51100000000E-03 0. -1.
    9900012    2    1    2    0    0 -0.15163270214E+02  0.93500883902E+01  0.57733727751E+01  0.72461528104E+02  0.69999945039E+02 0.  0.
        -12    1    1    2    0    0  0.15163270214E+02 -0.93500883902E+01 -0.57733727751E+01  0.18726471896E+02  0.00000000000E+00 0.  1.
         11    1    3    3    0    0 -0.32495514726E+02  0.18177083635E+02 -0.36738413883E+00  0.37235733082E+02  0.51100000000E-03 0. -1.
        -11    1    3    3    0    0  0.85467808599E+01  0.10003529518E+02 -0.11430947613E+01  0.13206995562E+02  0.51100000000E-03 0.  1.
        -12    1    3    3    0    0  0.87854636523E+01 -0.18830524763E+02  0.72838516752E+01  0.22018799460E+02  0.00000000000E+00 0.  1.
</event>
<event>
 7    1  0.3435518E-013  0.7246158E+02  0.7816164E-02  0.1226708E+00
        -11   -1    0    0    0    0  0.00000000000E+00  0.00000000000E+00  0.45593999997E+02  0.45594000000E+02  0.51100000000E-03 0.  1.
         11   -1    0    0    0    0 -0.00000000000E+00 -0.00000000000E+00 -0.45593999997E+02  0.45594000000E+02  0.51100000000E-03 0. -1.
    9900012    2    1    2    0    0 -0.37755625382E+01 -0.11777036541E+02 -0.14061482846E+02  0.72461581175E+02  0.70000014174E+02 0.  0.
        -12    1    1    2    0    0  0.37755625382E+01  0.11777036541E+02  0.14061482846E+02  0.18726418825E+02  0.00000000000E+00 0.  1.
         11    1    3    3    0    0  0.70399619684E+00  0.49707274049E+01  0.58859648773E+01  0.77361698777E+01  0.51100000000E-03 0. -1.
        -11    1    3    3    0    0 -0.83520294415E+00  0.20381574537E+02 -0.18263043844E+02  0.27379644177E+02  0.51100000000E-03 0.  1.
         12    1    3    3    0    0 -0.36443557909E+01 -0.37129338483E+02 -0.16844038793E+01  0.37345767120E+02  0.00000000000E+00 0. -1.
</event>
<event>
 7    1  0.3435518E-013  0.7246153E+02  0.7816164E-02  0.1226708E+00
        -11   -1    0    0    0    0  0.00000000000E+00  0.00000000000E+00  0.45593999997E+02  0.45594000000E+02  0.51100000000E-03 0.  1.
         11   -1    0    0    0    0 -0.00000000000E+00 -0.00000000000E+00 -0.45593999997E+02  0.45594000000E+02  0.51100000000E-03 0. -1.
    9900012    2    1    2    0    0 -0.11819735122E+01  0.88730725050E+01 -0.16448472220E+02  0.72461529019E+02  0.69999946231E+02 0.  0.
        -12    1    1    2    0    0  0.11819735122E+01 -0.88730725050E+01  0.16448472220E+02  0.18726470981E+02  0.00000000000E+00 0.  1.
         11    1    3    3    0    0 -0.76585172083E+01 -0.11442240754E+02 -0.73770426960E+01  0.15620451930E+02  0.51100000000E-03 0. -1.
        -11    1    3    3    0    0  0.17579769547E+02  0.11776868385E+02 -0.26864049333E+02  0.34196784543E+02  0.51100000000E-03 0.  1.
        -12    1    3    3    0    0 -0.11103225851E+02  0.85384448744E+01  0.17792619809E+02  0.22644292545E+02  0.00000000000E+00 0.  1.
</event>
<event>
 7    1  0.3435518E-013  0.7246164E+02  0.7816164E-02  0.1226708E+00
        -11   -1    0    0    0    0  0.00000000000E+00  0.00000000000E+00  0.45593999997E+02  0.45594000000E+02  0.51100000000E-03 0.  1.
         11   -1    0    0    0    0 -0.00000000000E+00 -0.00000000000E+00 -0.45593999997E+02  0.45594000000E+02  0.51100000000E-03 0. -1.
    9900012    2    1    2    0    0  0.69565783678E+01  0.81144641746E+01 -0.15376540496E+02  0.72461641330E+02  0.70000092537E+02 0.  0.
        -12    1    1    2    0    0 -0.69565783678E+01 -0.81144641746E+01  0.15376540496E+02  0.18726358670E+02  0.00000000000E+00 0.  1.
         11    1    3    3    0    0  0.17645469376E+02  0.16051927155E+02 -0.24827733914E+02  0.34430267592E+02  0.51100000000E-03 0. -1.
        -11    1    3    3    0    0 -0.17884255797E+02  0.55098417510E+01 -0.21947444154E+01  0.18842023905E+02  0.51100000000E-03 0.  1.
        -12    1    3    3    0    0  0.71953647888E+01 -0.13447304731E+02  0.11645937834E+02  0.19189349833E+02  0.00000000000E+00 0.  1.
</event>
<event>
 7    1  0.3435518E-013  0.7246158E+02  0.7816164E-02  0.1226708E+00
        -11   -1    0    0    0    0  0.00000000000E+00  0.00000000000E+00  0.45593999997E+02  0.45594000000E+02  0.51100000000E-03 0.  1.
         11   -1    0    0    0    0 -0.00000000000E+00 -0.00000000000E+00 -0.45593999997E+02  0.45594000000E+02  0.51100000000E-03 0. -1.
    9900012    2    1    2    0    0 -0.13628094519E+02 -0.88649471643E+01 -0.92933598656E+01  0.72461580534E+02  0.70000013339E+02 0.  0.
        -12    1    1    2    0    0  0.13628094519E+02  0.88649471643E+01  0.92933598656E+01  0.18726419466E+02  0.00000000000E+00 0.  1.
         11    1    3    3    0    0 -0.21120331214E+02 -0.69738118541E+01  0.85886293925E+01  0.23842545952E+02  0.51100000000E-03 0. -1.
        -11    1    3    3    0    0 -0.26610194183E+01  0.20471923446E+02 -0.85911267662E+01  0.22360414426E+02  0.51100000000E-03 0.  1.
         12    1    3    3    0    0  0.10153256114E+02 -0.22363058756E+02 -0.92908624919E+01  0.26258620156E+02  0.00000000000E+00 0. -1.
</event>
<event>
 7    1  0.3435518E-013  0.7246155E+02  0.7816164E-02  0.1226708E+00
        -11   -1    0    0    0    0  0.00000000000E+00  0.00000000000E+00  0.45593999997E+02  0.45594000000E+02  0.51100000000E-03 0. -1.
         11   -1    0    0    0    0 -0.00000000000E+00 -0.00000000000E+00 -0.45593999997E+02  0.45594000000E+02  0.51100000000E-03 0.  1.
    9900012    2    1    2    0    0 -0.17151216021E+02 -0.37700952603E+01 -0.65039942396E+01  0.72461554252E+02  0.69999979102E+02 0.  0.
        -12    1    1    2    0    0  0.17151216021E+02  0.37700952603E+01  0.65039942396E+01  0.18726445748E+02  0.00000000000E+00 0.  1.
         11    1    3    3    0    0 -0.20705627335E+02 -0.12501494900E+01 -0.47408754980E+01  0.21278199591E+02  0.51100000000E-03 0. -1.
        -11    1    3    3    0    0 -0.14178654241E+02  0.11409096949E+02 -0.16236132633E+02  0.24388803423E+02  0.51100000000E-03 0.  1.
         12    1    3    3    0    0  0.17733065554E+02 -0.13929042719E+02  0.14473013891E+02  0.26794551239E+02  0.00000000000E+00 0. -1.
</event>
<event>
 7    1  0.3435518E-013  0.7246158E+02  0.7816164E-02  0.1226708E+00
        -11   -1    0    0    0    0  0.00000000000E+00  0.00000000000E+00  0.45593999997E+02  0.45594000000E+02  0.51100000000E-03 0. -1.
         11   -1    0    0    0    0 -0.00000000000E+00 -0.00000000000E+00 -0.45593999997E+02  0.45594000000E+02  0.51100000000E-03 0.  1.
    9900012    2    1    2    0    0 -0.79207328192E+01 -0.16659303119E+02  0.32262161783E+01  0.72461578569E+02  0.70000010779E+02 0.  0.
        -12    1    1    2    0    0  0.79207328192E+01  0.16659303119E+02 -0.32262161783E+01  0.18726421431E+02  0.00000000000E+00 0.  1.
         11    1    3    3    0    0 -0.72651016983E+01 -0.20595170098E+02 -0.17413004385E+02  0.27931263059E+02  0.51100000000E-03 0. -1.
        -11    1    3    3    0    0  0.14321066452E+02 -0.46605313372E+01 -0.28992320361E+01  0.15336852458E+02  0.51100000000E-03 0.  1.
         12    1    3    3    0    0 -0.14976697573E+02  0.85963983169E+01  0.23538452600E+02  0.29193463052E+02  0.00000000000E+00 0. -1.
</event>
<event>
 7    1  0.3435518E-013  0.7246161E+02  0.7816164E-02  0.1226708E+00
        -11   -1    0    0    0    0  0.00000000000E+00  0.00000000000E+00  0.45593999997E+02  0.45594000000E+02  0.51100000000E-03 0.  1.
         11   -1    0    0    0    0 -0.00000000000E+00 -0.00000000000E+00 -0.45593999997E+02  0.45594000000E+02  0.51100000000E-03 0. -1.
    9900012    2    1    2    0    0 -0.16288800535E+02 -0.56425806943E+00 -0.92213999724E+01  0.72461611467E+02  0.70000053634E+02 0.  0.
        -12    1    1    2    0    0  0.16288800535E+02  0.56425806943E+00  0.92213999724E+01  0.18726388533E+02  0.00000000000E+00 0.  1.
         11    1    3    3    0    0 -0.21749408527E+02 -0.17684980630E+02 -0.10926107529E+02  0.30086128650E+02  0.51100000000E-03 0. -1.
        -11    1    3    3    0    0 -0.62740895885E+01 -0.10455886685E+02  0.22565396805E+01  0.12400876506E+02  0.51100000000E-03 0.  1.
         12    1    3    3    0    0  0.11734697580E+02  0.27576609245E+02 -0.55183212360E+00  0.29974606310E+02  0.00000000000E+00 0. -1.
</event>
<event>
 7    1  0.3435518E-013  0.7246155E+02  0.7816164E-02  0.1226708E+00
        -11   -1    0    0    0    0  0.00000000000E+00  0.00000000000E+00  0.45593999997E+02  0.45594000000E+02  0.51100000000E-03 0.  1.
         11   -1    0    0    0    0 -0.00000000000E+00 -0.00000000000E+00 -0.45593999997E+02  0.45594000000E+02  0.51100000000E-03 0. -1.
    9900012    2    1    2    0    0 -0.11778920947E+01 -0.18688740669E+02 -0.15291784220E+00  0.72461552353E+02  0.69999976629E+02 0.  0.
        -12    1    1    2    0    0  0.11778920947E+01  0.18688740669E+02  0.15291784220E+00  0.18726447647E+02  0.00000000000E+00 0.  1.
         11    1    3    3    0    0  0.10656823984E+02 -0.19791775034E+02 -0.19810684654E+02  0.29962401157E+02  0.51100000000E-03 0. -1.
        -11    1    3    3    0    0 -0.16861139022E+02 -0.10104195166E+02  0.40385477659E+00  0.19661024084E+02  0.51100000000E-03 0.  1.
        -12    1    3    3    0    0  0.50264229438E+01  0.11207229530E+02  0.19253912035E+02  0.22838127112E+02  0.00000000000E+00 0.  1.
</event>
<event>
 7    1  0.3435518E-013  0.7246160E+02  0.7816164E-02  0.1226708E+00
        -11   -1    0    0    0    0  0.00000000000E+00  0.00000000000E+00  0.45593999997E+02  0.45594000000E+02  0.51100000000E-03 0. -1.
         11   -1    0    0    0    0 -0.00000000000E+00 -0.00000000000E+00 -0.45593999997E+02  0.45594000000E+02  0.51100000000E-03 0.  1.
    9900012    2    1    2    0    0 -0.18037023582E+02 -0.27293121786E+01  0.42302118208E+01  0.72461600007E+02  0.70000038706E+02 0.  0.
        -12    1    1    2    0    0  0.18037023582E+02  0.27293121786E+01 -0.42302118208E+01  0.18726399993E+02  0.00000000000E+00 0.  1.
         11    1    3    3    0    0 -0.14162680058E+02 -0.30123651866E+01 -0.12687029542E+02  0.19251404346E+02  0.51100000000E-03 0. -1.
        -11    1    3    3    0    0 -0.39678450368E+01 -0.51760111906E+01 -0.17337218388E+02  0.18523337382E+02  0.51100000000E-03 0.  1.
         12    1    3    3    0    0  0.93501512484E-01  0.54590641985E+01  0.34254459750E+02  0.34686858279E+02  0.00000000000E+00 0. -1.
</event>
<event>
 7    1  0.3435518E-013  0.7246159E+02  0.7816164E-02  0.1226708E+00
        -11   -1    0    0    0    0  0.00000000000E+00  0.00000000000E+00  0.45593999997E+02  0.45594000000E+02  0.51100000000E-03 0. -1.
         11   -1    0    0    0    0 -0.00000000000E+00 -0.00000000000E+00 -0.45593999997E+02  0.45594000000E+02  0.51100000000E-03 0.  1.
    9900012    2    1    2    0    0 -0.15020038911E+02  0.21628735961E+01  0.10972648618E+02  0.72461585267E+02  0.70000019504E+02 0.  0.
        -12    1    1    2    0    0  0.15020038911E+02 -0.21628735961E+01 -0.10972648618E+02  0.18726414733E+02  0.00000000000E+00 0.  1.
         11    1    3    3    0    0  0.77419439347E+01 -0.13580189994E+02  0.16021261770E+02  0.22383924703E+02  0.51100000000E-03 0. -1.
        -11    1    3    3    0    0  0.10141095110E+02  0.13377588335E+02 -0.66975904762E+00  0.16800305269E+02  0.51100000000E-03 0.  1.
        -12    1    3    3    0    0 -0.32903077955E+02  0.23654752541E+01 -0.43788541041E+01  0.33277355294E+02  0.00000000000E+00 0.  1.
</event>
<event>
 7    1  0.3435518E-013  0.7246158E+02  0.7816164E-02  0.1226708E+00
        -11   -1    0    0    0    0  0.00000000000E+00  0.00000000000E+00  0.45593999997E+02  0.45594000000E+02  0.51100000000E-03 0.  1.
         11   -1    0    0    0    0 -0.00000000000E+00 -0.00000000000E+00 -0.45593999997E+02  0.45594000000E+02  0.51100000000E-03 0. -1.
    9900012    2    1    2    0    0 -0.77665537694E+01 -0.49811067316E+01 -0.16295641014E+02  0.72461582890E+02  0.70000016408E+02 0.  0.
        -12    1    1    2    0    0  0.77665537694E+01  0.49811067316E+01  0.16295641014E+02  0.18726417110E+02  0.00000000000E+00 0.  1.
         11    1    3    3    0    0 -0.65438208492E+01  0.13888891436E+02 -0.65495561899E+01  0.16691901724E+02  0.51100000000E-03 0.  1.
        -11    1    3    3    0    0  0.11738367922E+02 -0.29876357492E+02 -0.18071599605E+02  0.36837056493E+02  0.51100000000E-03 0. -1.
         12    1    3    3    0    0 -0.12961100843E+02  0.11006359325E+02  0.83255147812E+01  0.18932624673E+02  0.00000000000E+00 0. -1.
</event>
<event>
 7    1  0.3435518E-013  0.7246157E+02  0.7816164E-02  0.1226708E+00
        -11   -1    0    0    0    0  0.00000000000E+00  0.00000000000E+00  0.45593999997E+02  0.45594000000E+02  0.51100000000E-03 0.  1.
         11   -1    0    0    0    0 -0.00000000000E+00 -0.00000000000E+00 -0.45593999997E+02  0.45594000000E+02  0.51100000000E-03 0. -1.
    9900012    2    1    2    0    0  0.37977135317E+01  0.12471202109E+02 -0.13443423343E+02  0.72461571048E+02  0.70000000982E+02 0.  0.
        -12    1    1    2    0    0 -0.37977135317E+01 -0.12471202109E+02  0.13443423343E+02  0.18726428952E+02  0.00000000000E+00 0.  1.
         11    1    3    3    0    0  0.14318210156E+02  0.42843142654E+01  0.10513121709E+02  0.18272717892E+02  0.51100000000E-03 0. -1.
        -11    1    3    3    0    0  0.13309629482E+02 -0.11497455877E+02 -0.69587618609E+01  0.18914600062E+02  0.51100000000E-03 0.  1.
         12    1    3    3    0    0 -0.23830126107E+02  0.19684343720E+02 -0.16997783192E+02  0.35274253095E+02  0.00000000000E+00 0. -1.
</event>
<event>
 7    1  0.3435518E-013  0.7246155E+02  0.7816164E-02  0.1226708E+00
        -11   -1    0    0    0    0  0.00000000000E+00  0.00000000000E+00  0.45593999997E+02  0.45594000000E+02  0.51100000000E-03 0.  1.
         11   -1    0    0    0    0 -0.00000000000E+00 -0.00000000000E+00 -0.45593999997E+02  0.45594000000E+02  0.51100000000E-03 0. -1.
    9900012    2    1    2    0    0 -0.67148253041E+01  0.13252129040E+02 -0.11400525294E+02  0.72461553996E+02  0.69999978769E+02 0.  0.
        -12    1    1    2    0    0  0.67148253041E+01 -0.13252129040E+02  0.11400525294E+02  0.18726446004E+02  0.00000000000E+00 0.  1.
         11    1    3    3    0    0  0.20622357290E+02 -0.28989541976E+01  0.25815545004E+01  0.20984517615E+02  0.51100000000E-03 0. -1.
        -11    1    3    3    0    0  0.15603613011E+01 -0.85062516502E+01 -0.10092409178E+02  0.13290890407E+02  0.51100000000E-03 0.  1.
         12    1    3    3    0    0 -0.28897543895E+02  0.24657334888E+02 -0.38896706164E+01  0.38186145975E+02  0.00000000000E+00 0. -1.
</event>
<event>
 7    1  0.3435518E-013  0.7246159E+02  0.7816164E-02  0.1226708E+00
        -11   -1    0    0    0    0  0.00000000000E+00  0.00000000000E+00  0.45593999997E+02  0.45594000000E+02  0.51100000000E-03 0. -1.
         11   -1    0    0    0    0 -0.00000000000E+00 -0.00000000000E+00 -0.45593999997E+02  0.45594000000E+02  0.51100000000E-03 0.  1.
    9900012    2    1    2    0    0 -0.15888369597E+02 -0.71147937838E-01 -0.99112603104E+01  0.72461590002E+02  0.70000025673E+02 0.  0.
        -12    1    1    2    0    0  0.15888369597E+02  0.71147937838E-01  0.99112603104E+01  0.18726409998E+02  0.00000000000E+00 0.  1.
         11    1    3    3    0    0  0.25563161569E+01  0.27013078531E+00  0.12111482684E+02  0.12381265525E+02  0.51100000000E-03 0. -1.
        -11    1    3    3    0    0  0.12614401855E+02  0.24544234176E+01 -0.25646264560E+02  0.28685853911E+02  0.51100000000E-03 0.  1.
         12    1    3    3    0    0 -0.31059087609E+02 -0.27957021407E+01  0.36235215653E+01  0.31394470566E+02  0.00000000000E+00 0. -1.
</event>
<event>
 7    1  0.3435518E-013  0.7246165E+02  0.7816164E-02  0.1226708E+00
        -11   -1    0    0    0    0  0.00000000000E+00  0.00000000000E+00  0.45593999997E+02  0.45594000000E+02  0.51100000000E-03 0.  1.
         11   -1    0    0    0    0 -0.00000000000E+00 -0.00000000000E+00 -0.45593999997E+02  0.45594000000E+02  0.51100000000E-03 0. -1.
    9900012    2    1    2    0    0  0.28427652766E+01 -0.22788400989E+01 -0.18368501280E+02  0.72461647822E+02  0.70000100994E+02 0.  0.
        -12    1    1    2    0    0 -0.28427652766E+01  0.22788400989E+01  0.18368501280E+02  0.18726352178E+02  0.00000000000E+00 0.  1.
         11    1    3    3    0    0 -0.63048380558E+01  0.19946490911E+02 -0.26153576262E+02  0.33490640993E+02  0.51100000000E-03 0. -1.
        -11    1    3    3    0    0 -0.87287781062E+01  0.90397254837E+00  0.23147264708E+00  0.87785143073E+01  0.51100000000E-03 0.  1.
        -12    1    3    3    0    0  0.17876381439E+02 -0.23129303559E+02  0.75536023348E+01  0.30192492522E+02  0.00000000000E+00 0.  1.
</event>
<event>
 7    1  0.3435518E-013  0.7246151E+02  0.7816164E-02  0.1226708E+00
        -11   -1    0    0    0    0  0.00000000000E+00  0.00000000000E+00  0.45593999997E+02  0.45594000000E+02  0.51100000000E-03 0. -1.
         11   -1    0    0    0    0 -0.00000000000E+00 -0.00000000000E+00 -0.45593999997E+02  0.45594000000E+02  0.51100000000E-03 0.  1.
    9900012    2    1    2    0    0  0.22415485271E+01  0.15830634452E+02 -0.97492465875E+01  0.72461512450E+02  0.69999924647E+02 0.  0.
        -12    1    1    2    0    0 -0.22415485271E+01 -0.15830634452E+02  0.97492465875E+01  0.18726487550E+02  0.00000000000E+00 0.  1.
         11    1    3    3    0    0  0.22593186505E+01  0.24068309160E+02  0.73675933839E+01  0.25271910477E+02  0.51100000000E-03 0. -1.
        -11    1    3    3    0    0 -0.14287704235E+02  0.11993954706E+02 -0.36574907108E+01  0.19009752243E+02  0.51100000000E-03 0.  1.
        -12    1    3    3    0    0  0.14269934111E+02 -0.20231629414E+02 -0.13459349261E+02  0.28179849730E+02  0.00000000000E+00 0.  1.
</event>
<event>
 7    1  0.3435518E-013  0.7246163E+02  0.7816164E-02  0.1226708E+00
        -11   -1    0    0    0    0  0.00000000000E+00  0.00000000000E+00  0.45593999997E+02  0.45594000000E+02  0.51100000000E-03 0.  1.
         11   -1    0    0    0    0 -0.00000000000E+00 -0.00000000000E+00 -0.45593999997E+02  0.45594000000E+02  0.51100000000E-03 0. -1.
    9900012    2    1    2    0    0  0.12884544230E+02  0.13412345062E+02 -0.21850580888E+01  0.72461629318E+02  0.70000076889E+02 0.  0.
        -12    1    1    2    0    0 -0.12884544230E+02 -0.13412345062E+02  0.21850580888E+01  0.18726370682E+02  0.00000000000E+00 0.  1.
         11    1    3    3    0    0  0.18698764258E+02 -0.21224121523E+02 -0.79523641381E+01  0.29382770714E+02  0.51100000000E-03 0. -1.
        -11    1    3    3    0    0 -0.49297627499E+01 -0.62273543184E-01 -0.47136910404E+01  0.68209473132E+01  0.51100000000E-03 0.  1.
        -12    1    3    3    0    0 -0.88445727756E+00  0.34698740128E+02  0.10480997090E+02  0.36257911290E+02  0.00000000000E+00 0.  1.
</event>
<event>
 7    1  0.3435518E-013  0.7246148E+02  0.7816164E-02  0.1226708E+00
        -11   -1    0    0    0    0  0.00000000000E+00  0.00000000000E+00  0.45593999997E+02  0.45594000000E+02  0.51100000000E-03 0.  1.
         11   -1    0    0    0    0 -0.00000000000E+00 -0.00000000000E+00 -0.45593999997E+02  0.45594000000E+02  0.51100000000E-03 0. -1.
    9900012    2    1    2    0    0  0.17565066816E+02  0.57682936162E+01  0.29795710539E+01  0.72461477975E+02  0.69999879736E+02 0.  0.
        -12    1    1    2    0    0 -0.17565066816E+02 -0.57682936162E+01 -0.29795710539E+01  0.18726522025E+02  0.00000000000E+00 0.  1.
         11    1    3    3    0    0 -0.53227677901E+01 -0.84017645605E+00  0.56804917865E+01  0.78297982491E+01  0.51100000000E-03 0. -1.
        -11    1    3    3    0    0 -0.13946575207E+02 -0.77878681150E+01  0.14436242446E+02  0.21530511977E+02  0.51100000000E-03 0.  1.
         12    1    3    3    0    0  0.36834409813E+02  0.14396338187E+02 -0.17137163179E+02  0.43101167749E+02  0.00000000000E+00 0. -1.
</event>
<event>
 7    1  0.3435518E-013  0.7246182E+02  0.7816164E-02  0.1226707E+00
        -11   -1    0    0    0    0  0.00000000000E+00  0.00000000000E+00  0.45593999997E+02  0.45594000000E+02  0.51100000000E-03 0. -1.
         11   -1    0    0    0    0 -0.00000000000E+00 -0.00000000000E+00 -0.45593999997E+02  0.45594000000E+02  0.51100000000E-03 0.  1.
    9900012    2    1    2    0    0 -0.11497547786E+02  0.13441643049E+02 -0.61480292257E+01  0.72461824835E+02  0.70000331586E+02 0.  0.
        -12    1    1    2    0    0  0.11497547786E+02 -0.13441643049E+02  0.61480292257E+01  0.18726175165E+02  0.00000000000E+00 0.  1.
         11    1    3    3    0    0 -0.37199638068E+02 -0.21394586990E+01 -0.56607215725E+01  0.37688647162E+02  0.51100000000E-03 0. -1.
        -11    1    3    3    0    0 -0.14988477439E+00  0.62655954882E+01 -0.34169173458E+01  0.71383104917E+01  0.51100000000E-03 0.  1.
        -12    1    3    3    0    0  0.25851975057E+02  0.93155062596E+01  0.29296096925E+01  0.27634867182E+02  0.00000000000E+00 0.  1.
</event>
<event>
 7    1  0.3435518E-013  0.7246158E+02  0.7816164E-02  0.1226708E+00
        -11   -1    0    0    0    0  0.00000000000E+00  0.00000000000E+00  0.45593999997E+02  0.45594000000E+02  0.51100000000E-03 0.  1.
         11   -1    0    0    0    0 -0.00000000000E+00 -0.00000000000E+00 -0.45593999997E+02  0.45594000000E+02  0.51100000000E-03 0. -1.
    9900012    2    1    2    0    0 -0.72238021561E+01 -0.15168382851E+02 -0.82713687482E+01  0.72461582914E+02  0.70000016440E+02 0.  0.
        -12    1    1    2    0    0  0.72238021561E+01  0.15168382851E+02  0.82713687482E+01  0.18726417086E+02  0.00000000000E+00 0.  1.
         11    1    3    3    0    0  0.19328980273E+02 -0.20073226898E+02  0.15832339312E+02  0.32050068406E+02  0.51100000000E-03 0.  1.
        -11    1    3    3    0    0 -0.22422834404E+01 -0.40977216411E+01  0.46605979276E+00  0.46942911783E+01  0.51100000000E-03 0. -1.
         12    1    3    3    0    0 -0.24310498989E+02  0.90025656878E+01 -0.24569767853E+02  0.35717223330E+02  0.00000000000E+00 0. -1.
</event>
<event>
 7    1  0.3435518E-013  0.7246121E+02  0.7816164E-02  0.1226709E+00
        -11   -1    0    0    0    0  0.00000000000E+00  0.00000000000E+00  0.45593999997E+02  0.45594000000E+02  0.51100000000E-03 0.  1.
         11   -1    0    0    0    0 -0.00000000000E+00 -0.00000000000E+00 -0.45593999997E+02  0.45594000000E+02  0.51100000000E-03 0. -1.
    9900012    2    1    2    0    0 -0.69207797008E+01  0.15194359646E+02  0.84809766303E+01  0.72461208462E+02  0.69999528644E+02 0.  0.
        -12    1    1    2    0    0  0.69207797008E+01 -0.15194359646E+02 -0.84809766303E+01  0.18726791538E+02  0.00000000000E+00 0.  1.
         11    1    3    3    0    0 -0.60339685428E+01  0.23417323146E+01  0.15366598813E+00  0.64742644451E+01  0.51100000000E-03 0. -1.
        -11    1    3    3    0    0 -0.24564007661E+02  0.10848725717E+02  0.25214533517E+02  0.36835553787E+02  0.51100000000E-03 0.  1.
         12    1    3    3    0    0  0.23677196503E+02  0.20039016143E+01 -0.16887222874E+02  0.29151390230E+02  0.00000000000E+00 0. -1.
</event>
<event>
 7    1  0.3435518E-013  0.7246157E+02  0.7816164E-02  0.1226708E+00
        -11   -1    0    0    0    0  0.00000000000E+00  0.00000000000E+00  0.45593999997E+02  0.45594000000E+02  0.51100000000E-03 0. -1.
         11   -1    0    0    0    0 -0.00000000000E+00 -0.00000000000E+00 -0.45593999997E+02  0.45594000000E+02  0.51100000000E-03 0.  1.
    9900012    2    1    2    0    0 -0.99933822078E+01 -0.79846004532E+00  0.15816886119E+02  0.72461571806E+02  0.70000001969E+02 0.  0.
        -12    1    1    2    0    0  0.99933822078E+01  0.79846004532E+00 -0.15816886119E+02  0.18726428194E+02  0.00000000000E+00 0.  1.
         11    1    3    3    0    0  0.95835698994E+01  0.14659221294E+02  0.10596361266E+02  0.20469989089E+02  0.51100000000E-03 0. -1.
        -11    1    3    3    0    0  0.14082453370E+02 -0.27598438197E+01  0.70125749310E+01  0.15972114395E+02  0.51100000000E-03 0.  1.
        -12    1    3    3    0    0 -0.33659405477E+02 -0.12697837520E+02 -0.17920500775E+01  0.36019468322E+02  0.00000000000E+00 0.  1.
</event>
<event>
 7    1  0.3435518E-013  0.7246151E+02  0.7816164E-02  0.1226708E+00
        -11   -1    0    0    0    0  0.00000000000E+00  0.00000000000E+00  0.45593999997E+02  0.45594000000E+02  0.51100000000E-03 0. -1.
         11   -1    0    0    0    0 -0.00000000000E+00 -0.00000000000E+00 -0.45593999997E+02  0.45594000000E+02  0.51100000000E-03 0.  1.
    9900012    2    1    2    0    0 -0.16429840752E+02  0.46985660142E+01  0.76593230364E+01  0.72461510230E+02  0.69999921755E+02 0.  0.
        -12    1    1    2    0    0  0.16429840752E+02 -0.46985660142E+01 -0.76593230364E+01  0.18726489770E+02  0.00000000000E+00 0.  1.
         11    1    3    3    0    0 -0.63229006953E+01 -0.15968613128E+02  0.18357034822E+02  0.25138743130E+02  0.51100000000E-03 0. -1.
        -11    1    3    3    0    0 -0.62877362176E+01  0.68851671013E+01  0.15145920390E+02  0.17785951126E+02  0.51100000000E-03 0.  1.
        -12    1    3    3    0    0 -0.38192038392E+01  0.13782012041E+02 -0.25843632175E+02  0.29536815974E+02  0.00000000000E+00 0.  1.
</event>
<event>
 7    1  0.3435518E-013  0.7246150E+02  0.7816164E-02  0.1226708E+00
        -11   -1    0    0    0    0  0.00000000000E+00  0.00000000000E+00  0.45593999997E+02  0.45594000000E+02  0.51100000000E-03 0.  1.
         11   -1    0    0    0    0 -0.00000000000E+00 -0.00000000000E+00 -0.45593999997E+02  0.45594000000E+02  0.51100000000E-03 0. -1.
    9900012    2    1    2    0    0 -0.18660800988E+02  0.15642695233E+01  0.96146249632E-01  0.72461503350E+02  0.69999912793E+02 0.  0.
        -12    1    1    2    0    0  0.18660800988E+02 -0.15642695233E+01 -0.96146249632E-01  0.18726496650E+02  0.00000000000E+00 0.  1.
         11    1    3    3    0    0 -0.32932985010E+01  0.38123672953E+01 -0.65702552665E+01  0.82793848768E+01  0.51100000000E-03 0. -1.
        -11    1    3    3    0    0 -0.37158515650E+02  0.98206399483E+01  0.15267641905E+00  0.38434666183E+02  0.51100000000E-03 0.  1.
        -12    1    3    3    0    0  0.21791013162E+02 -0.12068737720E+02  0.65137250971E+01  0.25747452290E+02  0.00000000000E+00 0.  1.
</event>
<event>
 7    1  0.3435518E-013  0.7246159E+02  0.7816164E-02  0.1226708E+00
        -11   -1    0    0    0    0  0.00000000000E+00  0.00000000000E+00  0.45593999997E+02  0.45594000000E+02  0.51100000000E-03 0.  1.
         11   -1    0    0    0    0 -0.00000000000E+00 -0.00000000000E+00 -0.45593999997E+02  0.45594000000E+02  0.51100000000E-03 0. -1.
    9900012    2    1    2    0    0 -0.97193669983E+01 -0.15955270324E+02  0.12812162855E+01  0.72461594549E+02  0.70000031596E+02 0.  0.
        -12    1    1    2    0    0  0.97193669983E+01  0.15955270324E+02 -0.12812162855E+01  0.18726405451E+02  0.00000000000E+00 0.  1.
         11    1    3    3    0    0 -0.12637607324E+02 -0.15407095747E+02 -0.90726808718E+01  0.21895233652E+02  0.51100000000E-03 0. -1.
        -11    1    3    3    0    0 -0.74732203384E+01 -0.22064607602E+02  0.12742206153E+02  0.26552961205E+02  0.51100000000E-03 0.  1.
         12    1    3    3    0    0  0.10391460664E+02  0.21516433025E+02 -0.23883089959E+01  0.24013399691E+02  0.00000000000E+00 0. -1.
</event>
<event>
 7    1  0.3435518E-013  0.7246160E+02  0.7816164E-02  0.1226708E+00
        -11   -1    0    0    0    0  0.00000000000E+00  0.00000000000E+00  0.45593999997E+02  0.45594000000E+02  0.51100000000E-03 0. -1.
         11   -1    0    0    0    0 -0.00000000000E+00 -0.00000000000E+00 -0.45593999997E+02  0.45594000000E+02  0.51100000000E-03 0.  1.
    9900012    2    1    2    0    0  0.93157509047E+01  0.15191670997E+02  0.57539378083E+01  0.72461604647E+02  0.70000044751E+02 0.  0.
        -12    1    1    2    0    0 -0.93157509047E+01 -0.15191670997E+02 -0.57539378083E+01  0.18726395353E+02  0.00000000000E+00 0.  1.
         11    1    3    3    0    0  0.13353255665E+02 -0.50895565774E+00  0.48565850252E+01  0.14218118408E+02  0.51100000000E-03 0. -1.
        -11    1    3    3    0    0  0.14745173152E+02  0.36604247727E+01  0.22525711970E+02  0.27170324636E+02  0.51100000000E-03 0.  1.
        -12    1    3    3    0    0 -0.18782677912E+02  0.12040201882E+02 -0.21628359187E+02  0.31073161603E+02  0.00000000000E+00 0.  1.
</event>
<event>
 7    1  0.3435518E-013  0.7246161E+02  0.7816164E-02  0.1226708E+00
        -11   -1    0    0    0    0  0.00000000000E+00  0.00000000000E+00  0.45593999997E+02  0.45594000000E+02  0.51100000000E-03 0.  1.
         11   -1    0    0    0    0 -0.00000000000E+00 -0.00000000000E+00 -0.45593999997E+02  0.45594000000E+02  0.51100000000E-03 0. -1.
    9900012    2    1    2    0    0  0.45919214278E+01  0.15788075615E+00 -0.18153985208E+02  0.72461605588E+02  0.70000045977E+02 0.  0.
        -12    1    1    2    0    0 -0.45919214278E+01 -0.15788075615E+00  0.18153985208E+02  0.18726394412E+02  0.00000000000E+00 0.  1.
         11    1    3    3    0    0 -0.17670072220E+02  0.10259029382E+02 -0.10442520980E+02  0.22946140869E+02  0.51100000000E-03 0. -1.
        -11    1    3    3    0    0 -0.49035045292E+01 -0.96472150613E+01  0.11841591893E+02  0.16041708572E+02  0.51100000000E-03 0.  1.
        -12    1    3    3    0    0  0.27165498177E+02 -0.45393356452E+00 -0.19553056121E+02  0.33473756147E+02  0.00000000000E+00 0.  1.
</event>
<event>
 7    1  0.3435518E-013  0.7246160E+02  0.7816164E-02  0.1226708E+00
        -11   -1    0    0    0    0  0.00000000000E+00  0.00000000000E+00  0.45593999997E+02  0.45594000000E+02  0.51100000000E-03 0.  1.
         11   -1    0    0    0    0 -0.00000000000E+00 -0.00000000000E+00 -0.45593999997E+02  0.45594000000E+02  0.51100000000E-03 0. -1.
    9900012    2    1    2    0    0  0.15577141052E+02 -0.46817692729E+01  0.92796432484E+01  0.72461599767E+02  0.70000038393E+02 0.  0.
        -12    1    1    2    0    0 -0.15577141052E+02  0.46817692729E+01 -0.92796432484E+01  0.18726400233E+02  0.00000000000E+00 0.  1.
         11    1    3    3    0    0 -0.14803838129E+02  0.17104515191E+02  0.17697367947E+01  0.22690307002E+02  0.51100000000E-03 0. -1.
        -11    1    3    3    0    0  0.34441107858E+01  0.54446404944E+01  0.94295239024E+01  0.11420242139E+02  0.51100000000E-03 0.  1.
         12    1    3    3    0    0  0.26936868395E+02 -0.27230924958E+02 -0.19196174487E+01  0.38351050626E+02  0.00000000000E+00 0. -1.
</event>
<event>
 7    1  0.3435518E-013  0.7246156E+02  0.7816164E-02  0.1226708E+00
        -11   -1    0    0    0    0  0.00000000000E+00  0.00000000000E+00  0.45593999997E+02  0.45594000000E+02  0.51100000000E-03 0.  1.
         11   -1    0    0    0    0 -0.00000000000E+00 -0.00000000000E+00 -0.45593999997E+02  0.45594000000E+02  0.51100000000E-03 0. -1.
    9900012    2    1    2    0    0  0.67570541430E+01 -0.10492477738E+02 -0.13961725525E+02  0.72461557481E+02  0.69999983308E+02 0.  0.
        -12    1    1    2    0    0 -0.67570541430E+01  0.10492477738E+02  0.13961725525E+02  0.18726442519E+02  0.00000000000E+00 0.  1.
         11    1    3    3    0    0 -0.72513213879E+01 -0.14179295115E+02 -0.11983301596E+02  0.19930719737E+02  0.51100000000E-03 0. -1.
        -11    1    3    3    0    0  0.13367308533E+02 -0.67700529450E+01 -0.23914761396E+02  0.28221168778E+02  0.51100000000E-03 0.  1.
        -12    1    3    3    0    0  0.64106699799E+00  0.10456870322E+02  0.21936337466E+02  0.24309668966E+02  0.00000000000E+00 0.  1.
</event>
<event>
 7    1  0.3435518E-013  0.7246153E+02  0.7816164E-02  0.1226708E+00
        -11   -1    0    0    0    0  0.00000000000E+00  0.00000000000E+00  0.45593999997E+02  0.45594000000E+02  0.51100000000E-03 0. -1.
         11   -1    0    0    0    0 -0.00000000000E+00 -0.00000000000E+00 -0.45593999997E+02  0.45594000000E+02  0.51100000000E-03 0.  1.
    9900012    2    1    2    0    0 -0.51738858829E+00 -0.76178543402E+01  0.17099157047E+02  0.72461532970E+02  0.69999951378E+02 0.  0.
        -12    1    1    2    0    0  0.51738858829E+00  0.76178543402E+01 -0.17099157047E+02  0.18726467030E+02  0.00000000000E+00 0.  1.
         11    1    3    3    0    0  0.35745722043E+01 -0.34291765026E+02 -0.18861081147E+01  0.34529119872E+02  0.51100000000E-03 0. -1.
        -11    1    3    3    0    0 -0.19700283875E+01 -0.60837036076E+00 -0.24280687260E+01  0.31853797800E+01  0.51100000000E-03 0.  1.
        -12    1    3    3    0    0 -0.21219324051E+01  0.27282281047E+02  0.21413333888E+02  0.34747033318E+02  0.00000000000E+00 0.  1.
</event>
<event>
 7    1  0.3435518E-013  0.7246157E+02  0.7816164E-02  0.1226708E+00
        -11   -1    0    0    0    0  0.00000000000E+00  0.00000000000E+00  0.45593999997E+02  0.45594000000E+02  0.51100000000E-03 0. -1.
         11   -1    0    0    0    0 -0.00000000000E+00 -0.00000000000E+00 -0.45593999997E+02  0.45594000000E+02  0.51100000000E-03 0.  1.
    9900012    2    1    2    0    0  0.53013390893E+01 -0.11093996921E+02  0.14124389933E+02  0.72461565347E+02  0.69999993556E+02 0.  0.
        -12    1    1    2    0    0 -0.53013390893E+01  0.11093996921E+02 -0.14124389933E+02  0.18726434653E+02  0.00000000000E+00 0.  1.
         11    1    3    3    0    0  0.34664171615E+01  0.34444413335E+01  0.56808469530E+00  0.49196488207E+01  0.51100000000E-03 0. -1.
        -11    1    3    3    0    0 -0.15166683261E+02  0.11265140169E+02 -0.16017961811E+02  0.24769068715E+02  0.51100000000E-03 0.  1.
         12    1    3    3    0    0  0.17001605188E+02 -0.25803578424E+02  0.29574267049E+02  0.42772847812E+02  0.00000000000E+00 0. -1.
</event>
<event>
 7    1  0.3435518E-013  0.7246156E+02  0.7816164E-02  0.1226708E+00
        -11   -1    0    0    0    0  0.00000000000E+00  0.00000000000E+00  0.45593999997E+02  0.45594000000E+02  0.51100000000E-03 0. -1.
         11   -1    0    0    0    0 -0.00000000000E+00 -0.00000000000E+00 -0.45593999997E+02  0.45594000000E+02  0.51100000000E-03 0.  1.
    9900012    2    1    2    0    0  0.15577610795E+02  0.85509450791E+01  0.59075224083E+01  0.72461563051E+02  0.69999990564E+02 0.  0.
        -12    1    1    2    0    0 -0.15577610795E+02 -0.85509450791E+01 -0.59075224083E+01  0.18726436949E+02  0.00000000000E+00 0.  1.
         11    1    3    3    0    0 -0.94396690128E+01 -0.12959748700E+02  0.42385908049E+01  0.16583970867E+02  0.51100000000E-03 0. -1.
        -11    1    3    3    0    0  0.23120402568E+02 -0.40059234444E+01  0.14157996375E+02  0.27405278673E+02  0.51100000000E-03 0.  1.
        -12    1    3    3    0    0  0.18968772394E+01  0.25516617224E+02 -0.12489064771E+02  0.28472313511E+02  0.00000000000E+00 0.  1.
</event>
<event>
 7    1  0.3435518E-013  0.7246160E+02  0.7816164E-02  0.1226708E+00
        -11   -1    0    0    0    0  0.00000000000E+00  0.00000000000E+00  0.45593999997E+02  0.45594000000E+02  0.51100000000E-03 0.  1.
         11   -1    0    0    0    0 -0.00000000000E+00 -0.00000000000E+00 -0.45593999997E+02  0.45594000000E+02  0.51100000000E-03 0. -1.
    9900012    2    1    2    0    0 -0.31449140773E+01 -0.15894380411E+02 -0.93891628944E+01  0.72461596366E+02  0.70000033963E+02 0.  0.
        -12    1    1    2    0    0  0.31449140773E+01  0.15894380411E+02  0.93891628944E+01  0.18726403634E+02  0.00000000000E+00 0.  1.
         11    1    3    3    0    0 -0.28886340575E+00 -0.18500301973E+02  0.65529219884E+00  0.18514157374E+02  0.51100000000E-03 0. -1.
        -11    1    3    3    0    0  0.18031670058E+02 -0.16634013390E+02 -0.60716746404E+01  0.25272450608E+02  0.51100000000E-03 0.  1.
         12    1    3    3    0    0 -0.20887720730E+02  0.19239934952E+02 -0.39727804528E+01  0.28674988383E+02  0.00000000000E+00 0. -1.
</event>
<event>
 7    1  0.3435518E-013  0.7246153E+02  0.7816164E-02  0.1226708E+00
        -11   -1    0    0    0    0  0.00000000000E+00  0.00000000000E+00  0.45593999997E+02  0.45594000000E+02  0.51100000000E-03 0.  1.
         11   -1    0    0    0    0 -0.00000000000E+00 -0.00000000000E+00 -0.45593999997E+02  0.45594000000E+02  0.51100000000E-03 0. -1.
    9900012    2    1    2    0    0 -0.11419626669E+02  0.41984695006E+01  0.14235369579E+02  0.72461527655E+02  0.69999944455E+02 0.  0.
        -12    1    1    2    0    0  0.11419626669E+02 -0.41984695006E+01 -0.14235369579E+02  0.18726472345E+02  0.00000000000E+00 0.  1.
         11    1    3    3    0    0 -0.19718813531E+02 -0.17959507656E+01  0.14587296429E+02  0.24593622417E+02  0.51100000000E-03 0. -1.
        -11    1    3    3    0    0 -0.55217638970E+01  0.24577483992E+01 -0.21513597332E+02  0.22346482367E+02  0.51100000000E-03 0.  1.
        -12    1    3    3    0    0  0.13820950759E+02  0.35366718671E+01  0.21161670483E+02  0.25521422871E+02  0.00000000000E+00 0.  1.
</event>
<event>
 7    1  0.3435518E-013  0.7246150E+02  0.7816164E-02  0.1226708E+00
        -11   -1    0    0    0    0  0.00000000000E+00  0.00000000000E+00  0.45593999997E+02  0.45594000000E+02  0.51100000000E-03 0. -1.
         11   -1    0    0    0    0 -0.00000000000E+00 -0.00000000000E+00 -0.45593999997E+02  0.45594000000E+02  0.51100000000E-03 0.  1.
    9900012    2    1    2    0    0  0.74757584613E+01  0.10232618514E+01  0.17139074906E+02  0.72461496909E+02  0.69999904402E+02 0.  0.
        -12    1    1    2    0    0 -0.74757584613E+01 -0.10232618514E+01 -0.17139074906E+02  0.18726503091E+02  0.00000000000E+00 0.  1.
         11    1    3    3    0    0  0.17452648122E+02 -0.10739891376E+02  0.21299478887E+02  0.29556860360E+02  0.51100000000E-03 0. -1.
        -11    1    3    3    0    0 -0.12069372634E+02 -0.12835142259E+02  0.11384996851E+01  0.17655220598E+02  0.51100000000E-03 0.  1.
        -12    1    3    3    0    0  0.20924829731E+01  0.24598295486E+02 -0.52989036662E+01  0.25249415951E+02  0.00000000000E+00 0.  1.
</event>
<event>
 7    1  0.3435518E-013  0.7246165E+02  0.7816164E-02  0.1226708E+00
        -11   -1    0    0    0    0  0.00000000000E+00  0.00000000000E+00  0.45593999997E+02  0.45594000000E+02  0.51100000000E-03 0. -1.
         11   -1    0    0    0    0 -0.00000000000E+00 -0.00000000000E+00 -0.45593999997E+02  0.45594000000E+02  0.51100000000E-03 0.  1.
    9900012    2    1    2    0    0  0.14214867384E+02  0.11860031237E+02 -0.28201437903E+01  0.72461654743E+02  0.70000110010E+02 0.  0.
        -12    1    1    2    0    0 -0.14214867384E+02 -0.11860031237E+02  0.28201437903E+01  0.18726345257E+02  0.00000000000E+00 0.  1.
         11    1    3    3    0    0  0.50672237158E+01  0.18243543423E+02 -0.12562386180E+01  0.18975820629E+02  0.51100000000E-03 0. -1.
        -11    1    3    3    0    0  0.28491987484E+02  0.76079985256E+01 -0.24796405629E+01  0.29594317190E+02  0.51100000000E-03 0.  1.
         12    1    3    3    0    0 -0.19344343815E+02 -0.13991510712E+02  0.91573539059E+00  0.23891516924E+02  0.00000000000E+00 0. -1.
</event>
<event>
 7    1  0.3435518E-013  0.7246114E+02  0.7816164E-02  0.1226709E+00
        -11   -1    0    0    0    0  0.00000000000E+00  0.00000000000E+00  0.45593999997E+02  0.45594000000E+02  0.51100000000E-03 0. -1.
         11   -1    0    0    0    0 -0.00000000000E+00 -0.00000000000E+00 -0.45593999997E+02  0.45594000000E+02  0.51100000000E-03 0.  1.
    9900012    2    1    2    0    0  0.71502391186E+01  0.59568646069E+01  0.16250699045E+02  0.72461137614E+02  0.69999436351E+02 0.  0.
        -12    1    1    2    0    0 -0.71502391186E+01 -0.59568646069E+01 -0.16250699045E+02  0.18726862386E+02  0.00000000000E+00 0.  1.
         11    1    3    3    0    0  0.47941349235E+00 -0.17796098068E+01  0.26498316834E+01  0.32277634010E+01  0.51100000000E-03 0. -1.
        -11    1    3    3    0    0 -0.22067350979E+02  0.24409998569E+02  0.14585892476E+02  0.35993947671E+02  0.51100000000E-03 0.  1.
         12    1    3    3    0    0  0.28738176605E+02 -0.16673524155E+02 -0.98502511449E+00  0.33239426542E+02  0.00000000000E+00 0. -1.
</event>
<event>
 7    1  0.3445003E-013  0.7246155E+02  0.7816164E-02  0.1226708E+00
        -11   -1    0    0    0    0  0.00000000000E+00  0.00000000000E+00  0.45593999997E+02  0.45594000000E+02  0.51100000000E-03 0. -1.
         11   -1    0    0    0    0 -0.00000000000E+00 -0.00000000000E+00 -0.45593999997E+02  0.45594000000E+02  0.51100000000E-03 0.  1.
    9900012    2    1    2    0    0  0.17092033910E+02 -0.39353170870E+01  0.65616717657E+01  0.72461551321E+02  0.69999975284E+02 0.  0.
        -12    1    1    2    0    0 -0.17092033910E+02  0.39353170870E+01 -0.65616717657E+01  0.18726448679E+02  0.00000000000E+00 0.  1.
         11    1    3    3    0    0 -0.10443900636E+02  0.59444665576E+00 -0.68683665586E+01  0.12514107510E+02  0.51100000000E-03 0. -1.
        -11    1    3    3    0    0  0.14725536691E+02 -0.14977463214E+02 -0.15856822969E+02  0.26317383421E+02  0.51100000000E-03 0.  1.
         12    1    3    3    0    0  0.12810397855E+02  0.10447699472E+02  0.29286861293E+02  0.33630060390E+02  0.00000000000E+00 0. -1.
</event>
<event>
 7    1  0.3435518E-013  0.7246158E+02  0.7816164E-02  0.1226708E+00
        -11   -1    0    0    0    0  0.00000000000E+00  0.00000000000E+00  0.45593999997E+02  0.45594000000E+02  0.51100000000E-03 0.  1.
         11   -1    0    0    0    0 -0.00000000000E+00 -0.00000000000E+00 -0.45593999997E+02  0.45594000000E+02  0.51100000000E-03 0. -1.
    9900012    2    1    2    0    0 -0.99820064864E+01 -0.70839888151E+01 -0.14172350499E+02  0.72461578300E+02  0.70000010429E+02 0.  0.
        -12    1    1    2    0    0  0.99820064864E+01  0.70839888151E+01  0.14172350499E+02  0.18726421700E+02  0.00000000000E+00 0.  1.
         11    1    3    3    0    0  0.13315627876E+02 -0.26694506039E+02 -0.10612194182E+02  0.31662616190E+02  0.51100000000E-03 0. -1.
        -11    1    3    3    0    0 -0.12691278768E+02  0.49918662148E+01 -0.14320654413E+02  0.19775450138E+02  0.51100000000E-03 0.  1.
        -12    1    3    3    0    0 -0.10606355594E+02  0.14618651009E+02  0.10760498097E+02  0.21023511971E+02  0.00000000000E+00 0.  1.
</event>
<event>
 7    1  0.3435518E-013  0.7246160E+02  0.7816164E-02  0.1226708E+00
        -11   -1    0    0    0    0  0.00000000000E+00  0.00000000000E+00  0.45593999997E+02  0.45594000000E+02  0.51100000000E-03 0. -1.
         11   -1    0    0    0    0 -0.00000000000E+00 -0.00000000000E+00 -0.45593999997E+02  0.45594000000E+02  0.51100000000E-03 0.  1.
    9900012    2    1    2    0    0 -0.10760562298E+02  0.10092902922E+02  0.11533503035E+02  0.72461599315E+02  0.70000037804E+02 0.  0.
        -12    1    1    2    0    0  0.10760562298E+02 -0.10092902922E+02 -0.11533503035E+02  0.18726400685E+02  0.00000000000E+00 0.  1.
         11    1    3    3    0    0 -0.86721970789E+01  0.86268143950E+01  0.26268829498E+02  0.28977238175E+02  0.51100000000E-03 0. -1.
        -11    1    3    3    0    0 -0.69257731837E+01  0.13040958437E+02  0.85297303395E+01  0.17052543244E+02  0.51100000000E-03 0.  1.
        -12    1    3    3    0    0  0.48374079643E+01 -0.11574869911E+02 -0.23265056803E+02  0.26431817896E+02  0.00000000000E+00 0.  1.
</event>
<event>
 7    1  0.3435518E-013  0.7246157E+02  0.7816164E-02  0.1226708E+00
        -11   -1    0    0    0    0  0.00000000000E+00  0.00000000000E+00  0.45593999997E+02  0.45594000000E+02  0.51100000000E-03 0. -1.
         11   -1    0    0    0    0 -0.00000000000E+00 -0.00000000000E+00 -0.45593999997E+02  0.45594000000E+02  0.51100000000E-03 0.  1.
    9900012    2    1    2    0    0  0.17992915121E+02 -0.21670765329E+01 -0.47157195017E+01  0.72461568795E+02  0.69999998047E+02 0.  0.
        -12    1    1    2    0    0 -0.17992915121E+02  0.21670765329E+01  0.47157195017E+01  0.18726431205E+02  0.00000000000E+00 0.  1.
         11    1    3    3    0    0 -0.29236218882E+01 -0.11132000055E+02 -0.70299367126E+00  0.11530966591E+02  0.51100000000E-03 0. -1.
        -11    1    3    3    0    0 -0.34905960439E+01 -0.16044489250E+02 -0.17014050520E+02  0.23645037775E+02  0.51100000000E-03 0.  1.
         12    1    3    3    0    0  0.24407133053E+02  0.25009412772E+02  0.13001324690E+02  0.37285564429E+02  0.00000000000E+00 0. -1.
</event>
<event>
 7    1  0.3435518E-013  0.7246156E+02  0.7816164E-02  0.1226708E+00
        -11   -1    0    0    0    0  0.00000000000E+00  0.00000000000E+00  0.45593999997E+02  0.45594000000E+02  0.51100000000E-03 0.  1.
         11   -1    0    0    0    0 -0.00000000000E+00 -0.00000000000E+00 -0.45593999997E+02  0.45594000000E+02  0.51100000000E-03 0. -1.
    9900012    2    1    2    0    0  0.13511046398E+02  0.49568534153E+01 -0.11981688751E+02  0.72461557843E+02  0.69999983779E+02 0.  0.
        -12    1    1    2    0    0 -0.13511046398E+02 -0.49568534153E+01  0.11981688751E+02  0.18726442157E+02  0.00000000000E+00 0.  1.
         11    1    3    3    0    0 -0.57403395716E+01 -0.30818028345E+01 -0.22855096222E+01  0.69045319611E+01  0.51100000000E-03 0. -1.
        -11    1    3    3    0    0  0.19609326955E+02  0.31001882834E+02 -0.18347552742E+02  0.41015547476E+02  0.51100000000E-03 0.  1.
         12    1    3    3    0    0 -0.35794098525E+00 -0.22963226585E+02  0.86513736133E+01  0.24541478405E+02  0.00000000000E+00 0. -1.
</event>
<event>
 7    1  0.3435518E-013  0.7246157E+02  0.7816164E-02  0.1226708E+00
        -11   -1    0    0    0    0  0.00000000000E+00  0.00000000000E+00  0.45593999997E+02  0.45594000000E+02  0.51100000000E-03 0.  1.
         11   -1    0    0    0    0 -0.00000000000E+00 -0.00000000000E+00 -0.45593999997E+02  0.45594000000E+02  0.51100000000E-03 0. -1.
    9900012    2    1    2    0    0 -0.10061222874E+01  0.17019192191E+02 -0.77468634088E+01  0.72461572749E+02  0.70000003198E+02 0.  0.
        -12    1    1    2    0    0  0.10061222874E+01 -0.17019192191E+02  0.77468634088E+01  0.18726427251E+02  0.00000000000E+00 0.  1.
         11    1    3    3    0    0  0.20774631300E+02  0.12357379052E+01 -0.28196321530E+02  0.35044898372E+02  0.51100000000E-03 0. -1.
        -11    1    3    3    0    0  0.14314948688E+01  0.59583588089E+01  0.40581406307E+01  0.73498110789E+01  0.51100000000E-03 0.  1.
        -12    1    3    3    0    0 -0.23212248456E+02  0.98250954773E+01  0.16391317491E+02  0.30066863298E+02  0.00000000000E+00 0.  1.
</event>
<event>
 7    1  0.3435518E-013  0.7246152E+02  0.7816164E-02  0.1226708E+00
        -11   -1    0    0    0    0  0.00000000000E+00  0.00000000000E+00  0.45593999997E+02  0.45594000000E+02  0.51100000000E-03 0. -1.
         11   -1    0    0    0    0 -0.00000000000E+00 -0.00000000000E+00 -0.45593999997E+02  0.45594000000E+02  0.51100000000E-03 0.  1.
    9900012    2    1    2    0    0 -0.13990699905E+02  0.92033410308E+01  0.83809199446E+01  0.72461521712E+02  0.69999936712E+02 0.  0.
        -12    1    1    2    0    0  0.13990699905E+02 -0.92033410308E+01 -0.83809199446E+01  0.18726478288E+02  0.00000000000E+00 0.  1.
         11    1    3    3    0    0  0.37793193992E+01  0.49161852843E+01  0.63286344123E+01  0.88602340068E+01  0.51100000000E-03 0. -1.
        -11    1    3    3    0    0  0.13153723354E+02 -0.10962856061E+02  0.18663903652E+02  0.25328757390E+02  0.51100000000E-03 0.  1.
         12    1    3    3    0    0 -0.30923742659E+02  0.15250011807E+02 -0.16611618120E+02  0.38272530315E+02  0.00000000000E+00 0. -1.
</event>
<event>
 7    1  0.3435518E-013  0.7246155E+02  0.7816164E-02  0.1226708E+00
        -11   -1    0    0    0    0  0.00000000000E+00  0.00000000000E+00  0.45593999997E+02  0.45594000000E+02  0.51100000000E-03 0.  1.
         11   -1    0    0    0    0 -0.00000000000E+00 -0.00000000000E+00 -0.45593999997E+02  0.45594000000E+02  0.51100000000E-03 0. -1.
    9900012    2    1    2    0    0  0.15813488725E+02 -0.90095069993E+01 -0.44093286392E+01  0.72461552897E+02  0.69999977337E+02 0.  0.
        -12    1    1    2    0    0 -0.15813488725E+02  0.90095069993E+01  0.44093286392E+01  0.18726447103E+02  0.00000000000E+00 0.  1.
         11    1    3    3    0    0  0.13689960790E+02 -0.29773568752E+02  0.98358681079E+00  0.32784872517E+02  0.51100000000E-03 0. -1.
        -11    1    3    3    0    0 -0.58472714611E+01 -0.56777410206E+01  0.56675082289E+01  0.99271333436E+01  0.51100000000E-03 0.  1.
         12    1    3    3    0    0  0.79707993967E+01  0.26441802774E+02 -0.11060423679E+02  0.29749547037E+02  0.00000000000E+00 0. -1.
</event>
<event>
 7    1  0.3435518E-013  0.7246159E+02  0.7816164E-02  0.1226708E+00
        -11   -1    0    0    0    0  0.00000000000E+00  0.00000000000E+00  0.45593999997E+02  0.45594000000E+02  0.51100000000E-03 0.  1.
         11   -1    0    0    0    0 -0.00000000000E+00 -0.00000000000E+00 -0.45593999997E+02  0.45594000000E+02  0.51100000000E-03 0. -1.
    9900012    2    1    2    0    0 -0.18107034625E+02 -0.44589268814E+01 -0.17122557917E+01  0.72461586789E+02  0.70000021487E+02 0.  0.
        -12    1    1    2    0    0  0.18107034625E+02  0.44589268814E+01  0.17122557917E+01  0.18726413211E+02  0.00000000000E+00 0.  1.
         11    1    3    3    0    0 -0.62284984298E+00 -0.11140972071E+02 -0.20509289702E+02  0.23348236870E+02  0.51100000000E-03 0. -1.
        -11    1    3    3    0    0  0.46374167037E+00 -0.16006494951E+02  0.99875176888E+01  0.18872558035E+02  0.51100000000E-03 0.  1.
         12    1    3    3    0    0 -0.17947926453E+02  0.22688540141E+02  0.88095162213E+01  0.30240791883E+02  0.00000000000E+00 0. -1.
</event>
<event>
 7    1  0.3435518E-013  0.7246158E+02  0.7816164E-02  0.1226708E+00
        -11   -1    0    0    0    0  0.00000000000E+00  0.00000000000E+00  0.45593999997E+02  0.45594000000E+02  0.51100000000E-03 0.  1.
         11   -1    0    0    0    0 -0.00000000000E+00 -0.00000000000E+00 -0.45593999997E+02  0.45594000000E+02  0.51100000000E-03 0. -1.
    9900012    2    1    2    0    0  0.24911896435E+01 -0.74514254733E+01 -0.16998496121E+02  0.72461584492E+02  0.70000018495E+02 0.  0.
        -12    1    1    2    0    0 -0.24911896435E+01  0.74514254733E+01  0.16998496121E+02  0.18726415508E+02  0.00000000000E+00 0.  1.
         11    1    3    3    0    0 -0.24913101192E+00 -0.15259558362E+02 -0.33734572315E+02  0.37026173948E+02  0.51100000000E-03 0. -1.
        -11    1    3    3    0    0  0.13732470342E+02  0.86784160511E+01  0.10728972602E+01  0.16280256621E+02  0.51100000000E-03 0.  1.
        -12    1    3    3    0    0 -0.10992149686E+02 -0.87028316195E+00  0.15663178934E+02  0.19155153923E+02  0.00000000000E+00 0.  1.
</event>
<event>
 7    1  0.3435518E-013  0.7246157E+02  0.7816164E-02  0.1226708E+00
        -11   -1    0    0    0    0  0.00000000000E+00  0.00000000000E+00  0.45593999997E+02  0.45594000000E+02  0.51100000000E-03 0.  1.
         11   -1    0    0    0    0 -0.00000000000E+00 -0.00000000000E+00 -0.45593999997E+02  0.45594000000E+02  0.51100000000E-03 0. -1.
    9900012    2    1    2    0    0  0.17102476275E+02  0.17980109850E+01  0.74129463163E+01  0.72461566508E+02  0.69999995068E+02 0.  0.
        -12    1    1    2    0    0 -0.17102476275E+02 -0.17980109850E+01 -0.74129463163E+01  0.18726433492E+02  0.00000000000E+00 0.  1.
         11    1    3    3    0    0  0.18038693685E+02 -0.11438768434E+02  0.24874909431E+01  0.21504127618E+02  0.51100000000E-03 0. -1.
        -11    1    3    3    0    0 -0.93376856594E+00 -0.81201798379E+01  0.22092600517E+02  0.23556150835E+02  0.51100000000E-03 0.  1.
        -12    1    3    3    0    0 -0.24488437089E-02  0.21356959257E+02 -0.17167145143E+02  0.27401288055E+02  0.00000000000E+00 0.  1.
</event>
<event>
 7    1  0.3435518E-013  0.7246152E+02  0.7816164E-02  0.1226708E+00
        -11   -1    0    0    0    0  0.00000000000E+00  0.00000000000E+00  0.45593999997E+02  0.45594000000E+02  0.51100000000E-03 0. -1.
         11   -1    0    0    0    0 -0.00000000000E+00 -0.00000000000E+00 -0.45593999997E+02  0.45594000000E+02  0.51100000000E-03 0.  1.
    9900012    2    1    2    0    0 -0.17835922941E+02 -0.50415075883E+00  0.56838874324E+01  0.72461524318E+02  0.69999940107E+02 0.  0.
        -12    1    1    2    0    0  0.17835922941E+02  0.50415075883E+00 -0.56838874324E+01  0.18726475682E+02  0.00000000000E+00 0.  1.
         11    1    3    3    0    0  0.19545299012E+01 -0.16629947858E+02 -0.48317471787E+01  0.17427596907E+02  0.51100000000E-03 0. -1.
        -11    1    3    3    0    0 -0.12480691150E+02 -0.16248689847E+02  0.10256658355E+01  0.20514374569E+02  0.51100000000E-03 0.  1.
         12    1    3    3    0    0 -0.73097616924E+01  0.32374486946E+02  0.94899687756E+01  0.34519552841E+02  0.00000000000E+00 0. -1.
</event>
<event>
 7    1  0.3435518E-013  0.7246156E+02  0.7816164E-02  0.1226708E+00
        -11   -1    0    0    0    0  0.00000000000E+00  0.00000000000E+00  0.45593999997E+02  0.45594000000E+02  0.51100000000E-03 0.  1.
         11   -1    0    0    0    0 -0.00000000000E+00 -0.00000000000E+00 -0.45593999997E+02  0.45594000000E+02  0.51100000000E-03 0. -1.
    9900012    2    1    2    0    0 -0.10501725597E+02  0.39056151284E+01 -0.15004646259E+02  0.72461562021E+02  0.69999989222E+02 0.  0.
        -12    1    1    2    0    0  0.10501725597E+02 -0.39056151284E+01  0.15004646259E+02  0.18726437979E+02  0.00000000000E+00 0.  1.
         11    1    3    3    0    0 -0.31069241410E+01  0.17899190212E+02 -0.26015181663E+02  0.31730484791E+02  0.51100000000E-03 0. -1.
        -11    1    3    3    0    0  0.39282461330E+01  0.88525149609E+01 -0.47170285927E+01  0.10772580834E+02  0.51100000000E-03 0.  1.
        -12    1    3    3    0    0 -0.11323047589E+02 -0.22846090045E+02  0.15727563997E+02  0.29958496396E+02  0.00000000000E+00 0.  1.
</event>
<event>
 7    1  0.4081467E-013  0.7246149E+02  0.7816164E-02  0.1226708E+00
        -11   -1    0    0    0    0  0.00000000000E+00  0.00000000000E+00  0.45593999997E+02  0.45594000000E+02  0.51100000000E-03 0. -1.
         11   -1    0    0    0    0 -0.00000000000E+00 -0.00000000000E+00 -0.45593999997E+02  0.45594000000E+02  0.51100000000E-03 0.  1.
    9900012    2    1    2    0    0 -0.77236075825E+01  0.44626152631E+01  0.16465512459E+02  0.72461490726E+02  0.69999896347E+02 0.  0.
        -12    1    1    2    0    0  0.77236075825E+01 -0.44626152631E+01 -0.16465512459E+02  0.18726509274E+02  0.00000000000E+00 0.  1.
         11    1    3    3    0    0 -0.67034235732E+01  0.72013165793E+01  0.23578755080E+02  0.25549022280E+02  0.51100000000E-03 0. -1.
        -11    1    3    3    0    0 -0.62971199069E+01 -0.20721113404E+02 -0.15244084234E+02  0.26483964284E+02  0.51100000000E-03 0.  1.
         12    1    3    3    0    0  0.52769358976E+01  0.17982412087E+02  0.81308416133E+01  0.20428504162E+02  0.00000000000E+00 0. -1.
</event>
<event>
 7    1  0.3435518E-013  0.7246160E+02  0.7816164E-02  0.1226708E+00
        -11   -1    0    0    0    0  0.00000000000E+00  0.00000000000E+00  0.45593999997E+02  0.45594000000E+02  0.51100000000E-03 0.  1.
         11   -1    0    0    0    0 -0.00000000000E+00 -0.00000000000E+00 -0.45593999997E+02  0.45594000000E+02  0.51100000000E-03 0. -1.
    9900012    2    1    2    0    0 -0.13984113504E+00 -0.13916521795E+02 -0.12529515342E+02  0.72461604481E+02  0.70000044534E+02 0.  0.
        -12    1    1    2    0    0  0.13984113504E+00  0.13916521795E+02  0.12529515342E+02  0.18726395519E+02  0.00000000000E+00 0.  1.
         11    1    3    3    0    0 -0.11139614423E+01  0.84615546331E+01 -0.13063044191E+02  0.15603907867E+02  0.51100000000E-03 0. -1.
        -11    1    3    3    0    0  0.20914952057E+02  0.13839332517E+01  0.11558396481E+02  0.23936311752E+02  0.51100000000E-03 0.  1.
        -12    1    3    3    0    0 -0.19940831750E+02 -0.23762009680E+02 -0.11024867632E+02  0.32921384862E+02  0.00000000000E+00 0.  1.
</event>
<event>
 7    1  0.3435518E-013  0.7246160E+02  0.7816164E-02  0.1226708E+00
        -11   -1    0    0    0    0  0.00000000000E+00  0.00000000000E+00  0.45593999997E+02  0.45594000000E+02  0.51100000000E-03 0.  1.
         11   -1    0    0    0    0 -0.00000000000E+00 -0.00000000000E+00 -0.45593999997E+02  0.45594000000E+02  0.51100000000E-03 0. -1.
    9900012    2    1    2    0    0 -0.10416060375E+02  0.11391419498E+02 -0.10602791821E+02  0.72461602954E+02  0.70000042546E+02 0.  0.
        -12    1    1    2    0    0  0.10416060375E+02 -0.11391419498E+02  0.10602791821E+02  0.18726397046E+02  0.00000000000E+00 0.  1.
         11    1    3    3    0    0  0.99490930009E+01  0.23938133174E+02  0.43091032207E+01  0.26279022855E+02  0.51100000000E-03 0.  1.
        -11    1    3    3    0    0  0.93341020638E+01  0.32459459401E+01 -0.16188726786E+01  0.10014108817E+02  0.51100000000E-03 0. -1.
        -12    1    3    3    0    0 -0.29699255439E+02 -0.15792659616E+02 -0.13293022363E+02  0.36168471283E+02  0.00000000000E+00 0.  1.
</event>
<event>
 7    1  0.3435518E-013  0.7246154E+02  0.7816164E-02  0.1226708E+00
        -11   -1    0    0    0    0  0.00000000000E+00  0.00000000000E+00  0.45593999997E+02  0.45594000000E+02  0.51100000000E-03 0.  1.
         11   -1    0    0    0    0 -0.00000000000E+00 -0.00000000000E+00 -0.45593999997E+02  0.45594000000E+02  0.51100000000E-03 0. -1.
    9900012    2    1    2    0    0  0.13112044305E+02 -0.32883824521E+01 -0.12959206623E+02  0.72461542745E+02  0.69999964112E+02 0.  0.
        -12    1    1    2    0    0 -0.13112044305E+02  0.32883824521E+01  0.12959206623E+02  0.18726457255E+02  0.00000000000E+00 0.  1.
         11    1    3    3    0    0  0.16310661892E+02  0.27629527181E+02 -0.13995769275E+01  0.32115218813E+02  0.51100000000E-03 0. -1.
        -11    1    3    3    0    0  0.82878115840E+01 -0.15930227569E+02 -0.11754573377E+02  0.21462291741E+02  0.51100000000E-03 0.  1.
        -12    1    3    3    0    0 -0.11486429171E+02 -0.14987682064E+02  0.19494368075E+00  0.18884032191E+02  0.00000000000E+00 0.  1.
</event>
<event>
 7    1  0.3435518E-013  0.7246159E+02  0.7816164E-02  0.1226708E+00
        -11   -1    0    0    0    0  0.00000000000E+00  0.00000000000E+00  0.45593999997E+02  0.45594000000E+02  0.51100000000E-03 0.  1.
         11   -1    0    0    0    0 -0.00000000000E+00 -0.00000000000E+00 -0.45593999997E+02  0.45594000000E+02  0.51100000000E-03 0. -1.
    9900012    2    1    2    0    0  0.65016649063E+01  0.12565264710E+02 -0.12268701831E+02  0.72461586344E+02  0.70000020908E+02 0.  0.
        -12    1    1    2    0    0 -0.65016649063E+01 -0.12565264710E+02  0.12268701831E+02  0.18726413656E+02  0.00000000000E+00 0.  1.
         11    1    3    3    0    0  0.13178895255E+02  0.21818257571E+01  0.12557377427E+02  0.18333885892E+02  0.51100000000E-03 0. -1.
        -11    1    3    3    0    0  0.92655789476E+01  0.18489540988E+02  0.31533942478E+01  0.20920276641E+02  0.51100000000E-03 0.  1.
         12    1    3    3    0    0 -0.15942809297E+02 -0.81061020360E+01 -0.27979473506E+02  0.33207423811E+02  0.00000000000E+00 0. -1.
</event>
<event>
 7    1  0.3435518E-013  0.7246158E+02  0.7816164E-02  0.1226708E+00
        -11   -1    0    0    0    0  0.00000000000E+00  0.00000000000E+00  0.45593999997E+02  0.45594000000E+02  0.51100000000E-03 0.  1.
         11   -1    0    0    0    0 -0.00000000000E+00 -0.00000000000E+00 -0.45593999997E+02  0.45594000000E+02  0.51100000000E-03 0. -1.
    9900012    2    1    2    0    0  0.17820604279E+00  0.42778376057E+01 -0.18230395311E+02  0.72461575751E+02  0.70000007108E+02 0.  0.
        -12    1    1    2    0    0 -0.17820604279E+00 -0.42778376057E+01  0.18230395311E+02  0.18726424249E+02  0.00000000000E+00 0.  1.
         11    1    3    3    0    0 -0.46643605288E+00  0.71853075827E+01 -0.77054473250E+00  0.72415431433E+01  0.51100000000E-03 0. -1.
        -11    1    3    3    0    0 -0.28592584894E+02 -0.26634588743E+01  0.39422765499E+01  0.28985711459E+02  0.51100000000E-03 0.  1.
         12    1    3    3    0    0  0.29237226990E+02 -0.24401110278E+00 -0.21402127128E+02  0.36234321149E+02  0.00000000000E+00 0. -1.
</event>
<event>
 7    1  0.3435518E-013  0.7246154E+02  0.7816164E-02  0.1226708E+00
        -11   -1    0    0    0    0  0.00000000000E+00  0.00000000000E+00  0.45593999997E+02  0.45594000000E+02  0.51100000000E-03 0. -1.
         11   -1    0    0    0    0 -0.00000000000E+00 -0.00000000000E+00 -0.45593999997E+02  0.45594000000E+02  0.51100000000E-03 0.  1.
    9900012    2    1    2    0    0 -0.14940264244E+02 -0.87393792892E+01  0.71478652844E+01  0.72461542135E+02  0.69999963317E+02 0.  0.
        -12    1    1    2    0    0  0.14940264244E+02  0.87393792892E+01 -0.71478652844E+01  0.18726457865E+02  0.00000000000E+00 0.  1.
         11    1    3    3    0    0 -0.17535409516E+02 -0.28921328995E+02 -0.21695463203E+01  0.33891603522E+02  0.51100000000E-03 0.  1.
        -11    1    3    3    0    0 -0.14141226612E+02  0.10927741072E+02  0.15858072563E+01  0.17941700029E+02  0.51100000000E-03 0. -1.
        -12    1    3    3    0    0  0.16736371884E+02  0.92542086340E+01  0.77316043484E+01  0.20628238584E+02  0.00000000000E+00 0.  1.
</event>
<event>
 7    1  0.3435518E-013  0.7246158E+02  0.7816164E-02  0.1226708E+00
        -11   -1    0    0    0    0  0.00000000000E+00  0.00000000000E+00  0.45593999997E+02  0.45594000000E+02  0.51100000000E-03 0. -1.
         11   -1    0    0    0    0 -0.00000000000E+00 -0.00000000000E+00 -0.45593999997E+02  0.45594000000E+02  0.51100000000E-03 0.  1.
    9900012    2    1    2    0    0  0.16240742492E+02  0.19709911496E+01  0.91122080903E+01  0.72461578583E+02  0.70000010797E+02 0.  0.
        -12    1    1    2    0    0 -0.16240742492E+02 -0.19709911496E+01 -0.91122080903E+01  0.18726421417E+02  0.00000000000E+00 0.  1.
         11    1    3    3    0    0  0.24745962718E+02  0.68841173433E+01  0.25983403626E+02  0.36536160262E+02  0.51100000000E-03 0. -1.
        -11    1    3    3    0    0  0.19740136122E+01  0.11635788309E+02 -0.88827709335E+01  0.14771320829E+02  0.51100000000E-03 0.  1.
        -12    1    3    3    0    0 -0.10479233839E+02 -0.16548914503E+02 -0.79884246024E+01  0.21154097492E+02  0.00000000000E+00 0.  1.
</event>
<event>
 7    1  0.3435518E-013  0.7246157E+02  0.7816164E-02  0.1226708E+00
        -11   -1    0    0    0    0  0.00000000000E+00  0.00000000000E+00  0.45593999997E+02  0.45594000000E+02  0.51100000000E-03 0. -1.
         11   -1    0    0    0    0 -0.00000000000E+00 -0.00000000000E+00 -0.45593999997E+02  0.45594000000E+02  0.51100000000E-03 0.  1.
    9900012    2    1    2    0    0 -0.96979148627E+01 -0.15744972819E+02  0.29539090728E+01  0.72461566796E+02  0.69999995443E+02 0.  0.
        -12    1    1    2    0    0  0.96979148627E+01  0.15744972819E+02 -0.29539090728E+01  0.18726433204E+02  0.00000000000E+00 0.  1.
         11    1    3    3    0    0 -0.28210699616E+02 -0.16561671827E+02  0.49649318427E+01  0.33087506630E+02  0.51100000000E-03 0. -1.
        -11    1    3    3    0    0 -0.12758634789E+01 -0.11093247695E+02 -0.99450979170E+01  0.14953024607E+02  0.51100000000E-03 0.  1.
        -12    1    3    3    0    0  0.19788648232E+02  0.11909946704E+02  0.79340751471E+01  0.24421035559E+02  0.00000000000E+00 0.  1.
</event>
<event>
 7    1  0.3435518E-013  0.7246180E+02  0.7816164E-02  0.1226707E+00
        -11   -1    0    0    0    0  0.00000000000E+00  0.00000000000E+00  0.45593999997E+02  0.45594000000E+02  0.51100000000E-03 0. -1.
         11   -1    0    0    0    0 -0.00000000000E+00 -0.00000000000E+00 -0.45593999997E+02  0.45594000000E+02  0.51100000000E-03 0.  1.
    9900012    2    1    2    0    0  0.51134786873E+00 -0.18661808361E+02  0.14648684233E+01  0.72461804245E+02  0.70000304764E+02 0.  0.
        -12    1    1    2    0    0 -0.51134786873E+00  0.18661808361E+02 -0.14648684233E+01  0.18726195755E+02  0.00000000000E+00 0.  1.
         11    1    3    3    0    0  0.10341682185E+02  0.21477457540E+01  0.51733399631E+01  0.11761235006E+02  0.51100000000E-03 0. -1.
        -11    1    3    3    0    0  0.44456603510E+01  0.13856102127E+02  0.13132557087E+02  0.19601518258E+02  0.51100000000E-03 0.  1.
        -12    1    3    3    0    0 -0.14275994667E+02 -0.34665656242E+02 -0.16841028627E+02  0.41099050982E+02  0.00000000000E+00 0.  1.
</event>
<event>
 7    1  0.3435518E-013  0.7246156E+02  0.7816164E-02  0.1226708E+00
        -11   -1    0    0    0    0  0.00000000000E+00  0.00000000000E+00  0.45593999997E+02  0.45594000000E+02  0.51100000000E-03 0. -1.
         11   -1    0    0    0    0 -0.00000000000E+00 -0.00000000000E+00 -0.45593999997E+02  0.45594000000E+02  0.51100000000E-03 0.  1.
    9900012    2    1    2    0    0  0.16241906396E+02 -0.92829700463E-01  0.93204751447E+01  0.72461564203E+02  0.69999992065E+02 0.  0.
        -12    1    1    2    0    0 -0.16241906396E+02  0.92829700463E-01 -0.93204751447E+01  0.18726435797E+02  0.00000000000E+00 0.  1.
         11    1    3    3    0    0  0.12303072685E+01  0.91754264231E+01  0.26789495504E+01  0.96373687786E+01  0.51100000000E-03 0. -1.
        -11    1    3    3    0    0 -0.13393710780E+02  0.12561736449E+02 -0.12493116581E+02  0.22209607678E+02  0.51100000000E-03 0.  1.
         12    1    3    3    0    0  0.28405309907E+02 -0.21829992573E+02  0.19134642175E+02  0.40614587746E+02  0.00000000000E+00 0. -1.
</event>
<event>
 7    1  0.3435518E-013  0.7246167E+02  0.7816164E-02  0.1226708E+00
        -11   -1    0    0    0    0  0.00000000000E+00  0.00000000000E+00  0.45593999997E+02  0.45594000000E+02  0.51100000000E-03 0.  1.
         11   -1    0    0    0    0 -0.00000000000E+00 -0.00000000000E+00 -0.45593999997E+02  0.45594000000E+02  0.51100000000E-03 0. -1.
    9900012    2    1    2    0    0  0.15534229276E+02  0.61000850399E+01 -0.84942494948E+01  0.72461665837E+02  0.70000124462E+02 0.  0.
        -12    1    1    2    0    0 -0.15534229276E+02 -0.61000850399E+01  0.84942494948E+01  0.18726334163E+02  0.00000000000E+00 0.  1.
         11    1    3    3    0    0 -0.60389738045E+01  0.49090307916E+01 -0.32764803454E+01  0.84441169840E+01  0.51100000000E-03 0. -1.
        -11    1    3    3    0    0  0.12165271972E+02 -0.28744914878E+02  0.36066828790E+01  0.31420886925E+02  0.51100000000E-03 0.  1.
         12    1    3    3    0    0  0.94079311086E+01  0.29935969126E+02 -0.88244520284E+01  0.32596661928E+02  0.00000000000E+00 0. -1.
</event>
<event>
 7    1  0.3435518E-013  0.7246158E+02  0.7816164E-02  0.1226708E+00
        -11   -1    0    0    0    0  0.00000000000E+00  0.00000000000E+00  0.45593999997E+02  0.45594000000E+02  0.51100000000E-03 0.  1.
         11   -1    0    0    0    0 -0.00000000000E+00 -0.00000000000E+00 -0.45593999997E+02  0.45594000000E+02  0.51100000000E-03 0. -1.
    9900012    2    1    2    0    0  0.66144103602E+01 -0.37183445945E+01 -0.17120226036E+02  0.72461584153E+02  0.70000018054E+02 0.  0.
        -12    1    1    2    0    0 -0.66144103602E+01  0.37183445945E+01  0.17120226036E+02  0.18726415847E+02  0.00000000000E+00 0.  1.
         11    1    3    3    0    0 -0.44389264479E+01  0.22201148311E+02  0.10883613975E+01  0.22666706535E+02  0.51100000000E-03 0. -1.
        -11    1    3    3    0    0  0.91674240837E+01 -0.57642272341E+00 -0.22241587875E+02  0.24063710415E+02  0.51100000000E-03 0.  1.
        -12    1    3    3    0    0  0.18859127244E+01 -0.25343070182E+02  0.40330004414E+01  0.25731167203E+02  0.00000000000E+00 0.  1.
</event>
<event>
 7    1  0.3435518E-013  0.7246190E+02  0.7816164E-02  0.1226707E+00
        -11   -1    0    0    0    0  0.00000000000E+00  0.00000000000E+00  0.45593999997E+02  0.45594000000E+02  0.51100000000E-03 0.  1.
         11   -1    0    0    0    0 -0.00000000000E+00 -0.00000000000E+00 -0.45593999997E+02  0.45594000000E+02  0.51100000000E-03 0. -1.
    9900012    2    1    2    0    0  0.17650259156E+02  0.33302147629E+01 -0.52957537773E+01  0.72461895581E+02  0.70000423745E+02 0.  0.
        -12    1    1    2    0    0 -0.17650259156E+02 -0.33302147629E+01  0.52957537773E+01  0.18726104419E+02  0.00000000000E+00 0.  1.
         11    1    3    3    0    0  0.10721377340E+02  0.12869370705E+02 -0.78758968934E+01  0.18509413458E+02  0.51100000000E-03 0. -1.
        -11    1    3    3    0    0  0.20832066743E+02 -0.11779001907E+01  0.20864957796E+02  0.29507777241E+02  0.51100000000E-03 0.  1.
         12    1    3    3    0    0 -0.13903184927E+02 -0.83612557515E+01 -0.18284814680E+02  0.24444704882E+02  0.00000000000E+00 0. -1.
</event>
<event>
 7    1  0.3435518E-013  0.7246158E+02  0.7816164E-02  0.1226708E+00
        -11   -1    0    0    0    0  0.00000000000E+00  0.00000000000E+00  0.45593999997E+02  0.45594000000E+02  0.51100000000E-03 0.  1.
         11   -1    0    0    0    0 -0.00000000000E+00 -0.00000000000E+00 -0.45593999997E+02  0.45594000000E+02  0.51100000000E-03 0. -1.
    9900012    2    1    2    0    0 -0.10116830883E+02 -0.13083132453E+02  0.87840828962E+01  0.72461581916E+02  0.70000015140E+02 0.  0.
        -12    1    1    2    0    0  0.10116830883E+02  0.13083132453E+02 -0.87840828962E+01  0.18726418084E+02  0.00000000000E+00 0.  1.
         11    1    3    3    0    0 -0.18156920230E+02 -0.88867691138E+01 -0.22988379815E+02  0.30612318179E+02  0.51100000000E-03 0. -1.
        -11    1    3    3    0    0  0.42576482422E+01  0.70494741297E+01  0.32933625673E+00  0.82420335288E+01  0.51100000000E-03 0.  1.
         12    1    3    3    0    0  0.37824411041E+01 -0.11245837469E+02  0.31443126454E+02  0.33607230209E+02  0.00000000000E+00 0. -1.
</event>
<event>
 7    1  0.3435518E-013  0.7246180E+02  0.7816164E-02  0.1226707E+00
        -11   -1    0    0    0    0  0.00000000000E+00  0.00000000000E+00  0.45593999997E+02  0.45594000000E+02  0.51100000000E-03 0.  1.
         11   -1    0    0    0    0 -0.00000000000E+00 -0.00000000000E+00 -0.45593999997E+02  0.45594000000E+02  0.51100000000E-03 0. -1.
    9900012    2    1    2    0    0 -0.18595464578E+02  0.54590591371E+00 -0.21403627111E+01  0.72461802611E+02  0.70000302634E+02 0.  0.
        -12    1    1    2    0    0  0.18595464578E+02 -0.54590591371E+00  0.21403627111E+01  0.18726197389E+02  0.00000000000E+00 0.  1.
         11    1    3    3    0    0 -0.47109834955E+01  0.96536453969E-01  0.21168216773E+01  0.51656189422E+01  0.51100000000E-03 0. -1.
        -11    1    3    3    0    0 -0.35273122679E+02 -0.82068696426E+01 -0.17997743098E+02  0.40440878449E+02  0.51100000000E-03 0.  1.
        -12    1    3    3    0    0  0.21388641596E+02  0.86562391023E+01  0.13740558710E+02  0.26855305219E+02  0.00000000000E+00 0.  1.
</event>
<event>
 7    1  0.3435518E-013  0.7246158E+02  0.7816164E-02  0.1226708E+00
        -11   -1    0    0    0    0  0.00000000000E+00  0.00000000000E+00  0.45593999997E+02  0.45594000000E+02  0.51100000000E-03 0.  1.
         11   -1    0    0    0    0 -0.00000000000E+00 -0.00000000000E+00 -0.45593999997E+02  0.45594000000E+02  0.51100000000E-03 0. -1.
    9900012    2    1    2    0    0  0.18228839937E+02  0.42455698840E+01 -0.60264148083E+00  0.72461584277E+02  0.70000018215E+02 0.  0.
        -12    1    1    2    0    0 -0.18228839937E+02 -0.42455698840E+01  0.60264148083E+00  0.18726415723E+02  0.00000000000E+00 0.  1.
         11    1    3    3    0    0  0.22619217656E+02 -0.10539066197E+02 -0.19257970274E+02  0.31520950858E+02  0.51100000000E-03 0. -1.
        -11    1    3    3    0    0 -0.17512606147E+01 -0.61003279169E+01 -0.58523701016E+01  0.86331425624E+01  0.51100000000E-03 0.  1.
        -12    1    3    3    0    0 -0.26391171046E+01  0.20884963998E+02  0.24507698895E+02  0.32307490856E+02  0.00000000000E+00 0.  1.
</event>
<event>
 7    1  0.3435518E-013  0.7246156E+02  0.7816164E-02  0.1226708E+00
        -11   -1    0    0    0    0  0.00000000000E+00  0.00000000000E+00  0.45593999997E+02  0.45594000000E+02  0.51100000000E-03 0. -1.
         11   -1    0    0    0    0 -0.00000000000E+00 -0.00000000000E+00 -0.45593999997E+02  0.45594000000E+02  0.51100000000E-03 0.  1.
    9900012    2    1    2    0    0  0.16994678202E+02  0.62050503556E+01  0.48330019242E+01  0.72461557607E+02  0.69999983473E+02 0.  0.
        -12    1    1    2    0    0 -0.16994678202E+02 -0.62050503556E+01 -0.48330019242E+01  0.18726442393E+02  0.00000000000E+00 0.  1.
         11    1    3    3    0    0 -0.11992075319E+02  0.85314348336E+01 -0.60181770703E+01  0.15900116550E+02  0.51100000000E-03 0. -1.
        -11    1    3    3    0    0 -0.52311428487E+01  0.43746428329E+01 -0.12748562090E+02  0.14457807269E+02  0.51100000000E-03 0.  1.
         12    1    3    3    0    0  0.34217896369E+02 -0.67010273108E+01  0.23599741084E+02  0.42103633789E+02  0.00000000000E+00 0. -1.
</event>
<event>
 7    1  0.3435518E-013  0.7246155E+02  0.7816164E-02  0.1226708E+00
        -11   -1    0    0    0    0  0.00000000000E+00  0.00000000000E+00  0.45593999997E+02  0.45594000000E+02  0.51100000000E-03 0.  1.
         11   -1    0    0    0    0 -0.00000000000E+00 -0.00000000000E+00 -0.45593999997E+02  0.45594000000E+02  0.51100000000E-03 0. -1.
    9900012    2    1    2    0    0 -0.16412239773E+02 -0.30787201121E+01 -0.84758268970E+01  0.72461554168E+02  0.69999978993E+02 0.  0.
        -12    1    1    2    0    0  0.16412239773E+02  0.30787201121E+01  0.84758268970E+01  0.18726445832E+02  0.00000000000E+00 0.  1.
         11    1    3    3    0    0  0.59347732424E+00  0.10251889246E+00  0.12404373503E+02  0.12418985776E+02  0.51100000000E-03 0. -1.
        -11    1    3    3    0    0  0.16225338808E+02  0.77234445751E+01 -0.17200395762E+02  0.24875024225E+02  0.51100000000E-03 0.  1.
         12    1    3    3    0    0 -0.33231055906E+02 -0.10904683580E+02 -0.36798046377E+01  0.35167544167E+02  0.00000000000E+00 0. -1.
</event>
<event>
 7    1  0.3435518E-013  0.7246163E+02  0.7816164E-02  0.1226708E+00
        -11   -1    0    0    0    0  0.00000000000E+00  0.00000000000E+00  0.45593999997E+02  0.45594000000E+02  0.51100000000E-03 0.  1.
         11   -1    0    0    0    0 -0.00000000000E+00 -0.00000000000E+00 -0.45593999997E+02  0.45594000000E+02  0.51100000000E-03 0. -1.
    9900012    2    1    2    0    0  0.12777163655E+02 -0.76128949202E+01 -0.11378259521E+02  0.72461631696E+02  0.70000079987E+02 0.  0.
        -12    1    1    2    0    0 -0.12777163655E+02  0.76128949202E+01  0.11378259521E+02  0.18726368304E+02  0.00000000000E+00 0.  1.
         11    1    3    3    0    0  0.10982870411E+02 -0.40779006706E+00  0.40363563686E+01  0.11708198333E+02  0.51100000000E-03 0.  1.
        -11    1    3    3    0    0  0.44683621910E+01  0.37147392287E+01  0.21444529623E+02  0.22217862166E+02  0.51100000000E-03 0. -1.
         12    1    3    3    0    0 -0.26740689471E+01 -0.10919844082E+02 -0.36859145513E+02  0.38535571197E+02  0.00000000000E+00 0. -1.
</event>
<event>
 7    1  0.3435518E-013  0.7246161E+02  0.7816164E-02  0.1226708E+00
        -11   -1    0    0    0    0  0.00000000000E+00  0.00000000000E+00  0.45593999997E+02  0.45594000000E+02  0.51100000000E-03 0.  1.
         11   -1    0    0    0    0 -0.00000000000E+00 -0.00000000000E+00 -0.45593999997E+02  0.45594000000E+02  0.51100000000E-03 0. -1.
    9900012    2    1    2    0    0  0.18323180430E+02  0.29549426729E+01 -0.24913971328E+01  0.72461609880E+02  0.70000051567E+02 0.  0.
        -12    1    1    2    0    0 -0.18323180430E+02 -0.29549426729E+01  0.24913971328E+01  0.18726390120E+02  0.00000000000E+00 0.  1.
         11    1    3    3    0    0  0.51151859531E+01 -0.10324310778E+02 -0.11111710891E+01  0.11575457737E+02  0.51100000000E-03 0. -1.
        -11    1    3    3    0    0  0.36131234172E+01 -0.22723134339E+02 -0.46854891742E+01  0.23480828436E+02  0.51100000000E-03 0.  1.
         12    1    3    3    0    0  0.95948710593E+01  0.36002387790E+02  0.33052631305E+01  0.37405323706E+02  0.00000000000E+00 0. -1.
</event>
<event>
 7    1  0.3435518E-013  0.7246163E+02  0.7816164E-02  0.1226708E+00
        -11   -1    0    0    0    0  0.00000000000E+00  0.00000000000E+00  0.45593999997E+02  0.45594000000E+02  0.51100000000E-03 0. -1.
         11   -1    0    0    0    0 -0.00000000000E+00 -0.00000000000E+00 -0.45593999997E+02  0.45594000000E+02  0.51100000000E-03 0.  1.
    9900012    2    1    2    0    0  0.41211191487E+01  0.18196270897E+02 -0.16089985294E+01  0.72461634259E+02  0.70000083326E+02 0.  0.
        -12    1    1    2    0    0 -0.41211191487E+01 -0.18196270897E+02  0.16089985294E+01  0.18726365741E+02  0.00000000000E+00 0.  1.
         11    1    3    3    0    0  0.28419497984E+01  0.61536583650E+01  0.42719310090E+01  0.80120899106E+01  0.51100000000E-03 0. -1.
        -11    1    3    3    0    0  0.15661993524E+02 -0.25069146115E+01  0.23678924187E+02  0.28500423030E+02  0.51100000000E-03 0.  1.
        -12    1    3    3    0    0 -0.14382824173E+02  0.14549527144E+02 -0.29559853725E+02  0.35949121318E+02  0.00000000000E+00 0.  1.
</event>
<event>
 7    1  0.3807499E-013  0.7246157E+02  0.7816164E-02  0.1226708E+00
        -11   -1    0    0    0    0  0.00000000000E+00  0.00000000000E+00  0.45593999997E+02  0.45594000000E+02  0.51100000000E-03 0. -1.
         11   -1    0    0    0    0 -0.00000000000E+00 -0.00000000000E+00 -0.45593999997E+02  0.45594000000E+02  0.51100000000E-03 0.  1.
    9900012    2    1    2    0    0  0.52281539079E+01 -0.11967206213E+02  0.13421314437E+02  0.72461566836E+02  0.69999995495E+02 0.  0.
        -12    1    1    2    0    0 -0.52281539079E+01  0.11967206213E+02 -0.13421314437E+02  0.18726433164E+02  0.00000000000E+00 0.  1.
         11    1    3    3    0    0  0.54300513542E+01 -0.76652888570E+01 -0.79595833950E+01  0.12312476561E+02  0.51100000000E-03 0. -1.
        -11    1    3    3    0    0  0.10198300739E+02  0.51980065558E+00 -0.17144025380E+02  0.19954777302E+02  0.51100000000E-03 0.  1.
         12    1    3    3    0    0 -0.10400198185E+02 -0.48217180115E+01  0.38524923212E+02  0.40194312973E+02  0.00000000000E+00 0. -1.
</event>
<event>
 7    1  0.3435518E-013  0.7246156E+02  0.7816164E-02  0.1226708E+00
        -11   -1    0    0    0    0  0.00000000000E+00  0.00000000000E+00  0.45593999997E+02  0.45594000000E+02  0.51100000000E-03 0. -1.
         11   -1    0    0    0    0 -0.00000000000E+00 -0.00000000000E+00 -0.45593999997E+02  0.45594000000E+02  0.51100000000E-03 0.  1.
    9900012    2    1    2    0    0 -0.18051154776E+02  0.23372432554E+01  0.44014269908E+01  0.72461562690E+02  0.69999990094E+02 0.  0.
        -12    1    1    2    0    0  0.18051154776E+02 -0.23372432554E+01 -0.44014269908E+01  0.18726437310E+02  0.00000000000E+00 0.  1.
         11    1    3    3    0    0 -0.33555064601E+02 -0.29509265235E+00  0.17077009803E+02  0.37651742378E+02  0.51100000000E-03 0. -1.
        -11    1    3    3    0    0 -0.82291554370E+01  0.67477362349E+00 -0.10931486686E+01  0.83288230214E+01  0.51100000000E-03 0.  1.
        -12    1    3    3    0    0  0.23733065262E+02  0.19575622843E+01 -0.11582434144E+02  0.26480997291E+02  0.00000000000E+00 0.  1.
</event>
<event>
 7    1  0.3435518E-013  0.7246160E+02  0.7816164E-02  0.1226708E+00
        -11   -1    0    0    0    0  0.00000000000E+00  0.00000000000E+00  0.45593999997E+02  0.45594000000E+02  0.51100000000E-03 0.  1.
         11   -1    0    0    0    0 -0.00000000000E+00 -0.00000000000E+00 -0.45593999997E+02  0.45594000000E+02  0.51100000000E-03 0. -1.
    9900012    2    1    2    0    0  0.11729851802E+02  0.14029825432E+02  0.40314451904E+01  0.72461602181E+02  0.70000041539E+02 0.  0.
        -12    1    1    2    0    0 -0.11729851802E+02 -0.14029825432E+02 -0.40314451904E+01  0.18726397819E+02  0.00000000000E+00 0.  1.
         11    1    3    3    0    0  0.13536212071E+02 -0.45200654631E+01  0.49105340226E+01  0.15092162657E+02  0.51100000000E-03 0. -1.
        -11    1    3    3    0    0  0.17826880652E+02 -0.10295385028E+02 -0.73934887457E+01  0.21873644021E+02  0.51100000000E-03 0.  1.
         12    1    3    3    0    0 -0.19633240921E+02  0.28845275923E+02  0.65143999135E+01  0.35495795503E+02  0.00000000000E+00 0. -1.
</event>
<event>
 7    1  0.3435518E-013  0.7246157E+02  0.7816164E-02  0.1226708E+00
        -11   -1    0    0    0    0  0.00000000000E+00  0.00000000000E+00  0.45593999997E+02  0.45594000000E+02  0.51100000000E-03 0. -1.
         11   -1    0    0    0    0 -0.00000000000E+00 -0.00000000000E+00 -0.45593999997E+02  0.45594000000E+02  0.51100000000E-03 0.  1.
    9900012    2    1    2    0    0  0.40432495735E+01  0.10993564896E+02  0.14610711190E+02  0.72461569008E+02  0.69999998324E+02 0.  0.
        -12    1    1    2    0    0 -0.40432495735E+01 -0.10993564896E+02 -0.14610711190E+02  0.18726430992E+02  0.00000000000E+00 0.  1.
         11    1    3    3    0    0 -0.77920552521E+01 -0.12301743773E+02  0.11572997372E+02  0.18600626155E+02  0.51100000000E-03 0. -1.
        -11    1    3    3    0    0 -0.15521994486E+02  0.65877376464E+01 -0.96008094147E+01  0.19403766176E+02  0.51100000000E-03 0.  1.
        -12    1    3    3    0    0  0.27357299312E+02  0.16707571022E+02  0.12638523232E+02  0.34457176677E+02  0.00000000000E+00 0.  1.
</event>
<event>
 7    1  0.3435518E-013  0.7246133E+02  0.7816164E-02  0.1226709E+00
        -11   -1    0    0    0    0  0.00000000000E+00  0.00000000000E+00  0.45593999997E+02  0.45594000000E+02  0.51100000000E-03 0.  1.
         11   -1    0    0    0    0 -0.00000000000E+00 -0.00000000000E+00 -0.45593999997E+02  0.45594000000E+02  0.51100000000E-03 0. -1.
    9900012    2    1    2    0    0 -0.11050421261E+02 -0.10505907549E+02 -0.10872088538E+02  0.72461328842E+02  0.69999685463E+02 0.  0.
        -12    1    1    2    0    0  0.11050421261E+02  0.10505907549E+02  0.10872088538E+02  0.18726671158E+02  0.00000000000E+00 0.  1.
         11    1    3    3    0    0 -0.14314928055E+02 -0.19468344528E+02  0.53189935270E+01  0.24743186865E+02  0.51100000000E-03 0. -1.
        -11    1    3    3    0    0  0.60562088778E+01 -0.59093750653E+01  0.12608946130E+02  0.15184989378E+02  0.51100000000E-03 0.  1.
         12    1    3    3    0    0 -0.27917020836E+01  0.14871812044E+02 -0.28800028195E+02  0.32533152599E+02  0.00000000000E+00 0. -1.
</event>
<event>
 7    1  0.3435518E-013  0.7246158E+02  0.7816164E-02  0.1226708E+00
        -11   -1    0    0    0    0  0.00000000000E+00  0.00000000000E+00  0.45593999997E+02  0.45594000000E+02  0.51100000000E-03 0.  1.
         11   -1    0    0    0    0 -0.00000000000E+00 -0.00000000000E+00 -0.45593999997E+02  0.45594000000E+02  0.51100000000E-03 0. -1.
    9900012    2    1    2    0    0 -0.64206390042E+01  0.27701224729E+01 -0.17371834878E+02  0.72461579339E+02  0.70000011782E+02 0.  0.
        -12    1    1    2    0    0  0.64206390042E+01 -0.27701224729E+01  0.17371834878E+02  0.18726420661E+02  0.00000000000E+00 0.  1.
         11    1    3    3    0    0  0.12045215128E+02 -0.23154624454E+02  0.18328506697E+01  0.26164540564E+02  0.51100000000E-03 0. -1.
        -11    1    3    3    0    0  0.50514403690E+01  0.24990032308E+01 -0.10601588697E+02  0.12006487834E+02  0.51100000000E-03 0.  1.
        -12    1    3    3    0    0 -0.23517294502E+02  0.23425743696E+02 -0.86030968513E+01  0.34290550941E+02  0.00000000000E+00 0.  1.
</event>
<event>
 7    1  0.3435518E-013  0.7246163E+02  0.7816164E-02  0.1226708E+00
        -11   -1    0    0    0    0  0.00000000000E+00  0.00000000000E+00  0.45593999997E+02  0.45594000000E+02  0.51100000000E-03 0. -1.
         11   -1    0    0    0    0 -0.00000000000E+00 -0.00000000000E+00 -0.45593999997E+02  0.45594000000E+02  0.51100000000E-03 0.  1.
    9900012    2    1    2    0    0  0.34158859293E+01  0.15050543336E+02  0.10606113972E+02  0.72461633963E+02  0.70000082940E+02 0.  0.
        -12    1    1    2    0    0 -0.34158859293E+01 -0.15050543336E+02 -0.10606113972E+02  0.18726366037E+02  0.00000000000E+00 0.  1.
         11    1    3    3    0    0  0.32233777796E+01  0.13428315677E+02  0.12463722777E+01  0.13865903156E+02  0.51100000000E-03 0. -1.
        -11    1    3    3    0    0 -0.53583565041E+01  0.77983631233E+01 -0.23167530266E+02  0.25025205508E+02  0.51100000000E-03 0.  1.
         12    1    3    3    0    0  0.55508646538E+01 -0.61761354640E+01  0.32527271960E+02  0.33570525299E+02  0.00000000000E+00 0. -1.
</event>
<event>
 7    1  0.3435518E-013  0.7246156E+02  0.7816164E-02  0.1226708E+00
        -11   -1    0    0    0    0  0.00000000000E+00  0.00000000000E+00  0.45593999997E+02  0.45594000000E+02  0.51100000000E-03 0. -1.
         11   -1    0    0    0    0 -0.00000000000E+00 -0.00000000000E+00 -0.45593999997E+02  0.45594000000E+02  0.51100000000E-03 0.  1.
    9900012    2    1    2    0    0  0.74337019007E+01 -0.17171208698E+02 -0.75447497646E+00  0.72461559746E+02  0.69999986259E+02 0.  0.
        -12    1    1    2    0    0 -0.74337019007E+01  0.17171208698E+02  0.75447497646E+00  0.18726440254E+02  0.00000000000E+00 0.  1.
         11    1    3    3    0    0  0.15348567627E+02 -0.12293981180E+02 -0.20113691515E+02  0.28129718947E+02  0.51100000000E-03 0. -1.
        -11    1    3    3    0    0  0.34131147854E+01 -0.19304684806E+02  0.31550468692E+01  0.19856347323E+02  0.51100000000E-03 0.  1.
        -12    1    3    3    0    0 -0.11327980511E+02  0.14427457288E+02  0.16204169669E+02  0.24475493476E+02  0.00000000000E+00 0.  1.
</event>
<event>
 7    1  0.3435518E-013  0.7246161E+02  0.7816164E-02  0.1226708E+00
        -11   -1    0    0    0    0  0.00000000000E+00  0.00000000000E+00  0.45593999997E+02  0.45594000000E+02  0.51100000000E-03 0. -1.
         11   -1    0    0    0    0 -0.00000000000E+00 -0.00000000000E+00 -0.45593999997E+02  0.45594000000E+02  0.51100000000E-03 0.  1.
    9900012    2    1    2    0    0 -0.17097552939E+02  0.68812649675E+01 -0.33165697995E+01  0.72461607948E+02  0.70000049051E+02 0.  0.
        -12    1    1    2    0    0  0.17097552939E+02 -0.68812649675E+01  0.33165697995E+01  0.18726392052E+02  0.00000000000E+00 0.  1.
         11    1    3    3    0    0 -0.24531453196E+02 -0.10915478481E+02  0.11491006902E+02  0.29205874516E+02  0.51100000000E-03 0. -1.
        -11    1    3    3    0    0 -0.80184331188E+01  0.39209584602E+01  0.82988902650E+01  0.12187730093E+02  0.51100000000E-03 0.  1.
        -12    1    3    3    0    0  0.15452333376E+02  0.13875784988E+02 -0.23106466966E+02  0.31068003339E+02  0.00000000000E+00 0.  1.
</event>
<event>
 7    1  0.3435518E-013  0.7246153E+02  0.7816164E-02  0.1226708E+00
        -11   -1    0    0    0    0  0.00000000000E+00  0.00000000000E+00  0.45593999997E+02  0.45594000000E+02  0.51100000000E-03 0.  1.
         11   -1    0    0    0    0 -0.00000000000E+00 -0.00000000000E+00 -0.45593999997E+02  0.45594000000E+02  0.51100000000E-03 0. -1.
    9900012    2    1    2    0    0 -0.12702575657E+01  0.15627042660E+02 -0.10240243677E+02  0.72461531909E+02  0.69999949996E+02 0.  0.
        -12    1    1    2    0    0  0.12702575657E+01 -0.15627042660E+02  0.10240243677E+02  0.18726468091E+02  0.00000000000E+00 0.  1.
         11    1    3    3    0    0 -0.92504656292E+01  0.31073112036E+02 -0.12862493780E+02  0.34879122014E+02  0.51100000000E-03 0. -1.
        -11    1    3    3    0    0  0.89561445861E+01  0.87566148245E+01 -0.26262193945E+01  0.12797963025E+02  0.51100000000E-03 0.  1.
        -12    1    3    3    0    0 -0.97593652255E+00 -0.24202684200E+02  0.52484694983E+01  0.24784446870E+02  0.00000000000E+00 0.  1.
</event>
<event>
 7    1  0.3435518E-013  0.7246157E+02  0.7816164E-02  0.1226708E+00
        -11   -1    0    0    0    0  0.00000000000E+00  0.00000000000E+00  0.45593999997E+02  0.45594000000E+02  0.51100000000E-03 0. -1.
         11   -1    0    0    0    0 -0.00000000000E+00 -0.00000000000E+00 -0.45593999997E+02  0.45594000000E+02  0.51100000000E-03 0.  1.
    9900012    2    1    2    0    0  0.18985774141E+01 -0.18620750059E+02  0.58518060192E+00  0.72461565067E+02  0.69999993191E+02 0.  0.
        -12    1    1    2    0    0 -0.18985774141E+01  0.18620750059E+02 -0.58518060192E+00  0.18726434933E+02  0.00000000000E+00 0.  1.
         11    1    3    3    0    0  0.17608621063E+02  0.10220380799E+02  0.40492519300E+01  0.20758520199E+02  0.51100000000E-03 0. -1.
        -11    1    3    3    0    0 -0.28490298464E+02 -0.14411529021E+02  0.89617998967E+00  0.31940451064E+02  0.51100000000E-03 0.  1.
         12    1    3    3    0    0  0.12780254816E+02 -0.14429601837E+02 -0.43602513178E+01  0.19762593804E+02  0.00000000000E+00 0. -1.
</event>
<event>
 7    1  0.3435518E-013  0.7246163E+02  0.7816164E-02  0.1226708E+00
        -11   -1    0    0    0    0  0.00000000000E+00  0.00000000000E+00  0.45593999997E+02  0.45594000000E+02  0.51100000000E-03 0.  1.
         11   -1    0    0    0    0 -0.00000000000E+00 -0.00000000000E+00 -0.45593999997E+02  0.45594000000E+02  0.51100000000E-03 0. -1.
    9900012    2    1    2    0    0  0.45687660680E+01 -0.17540289109E+02 -0.47054703232E+01  0.72461633124E+02  0.70000081847E+02 0.  0.
        -12    1    1    2    0    0 -0.45687660680E+01  0.17540289109E+02  0.47054703232E+01  0.18726366876E+02  0.00000000000E+00 0.  1.
         11    1    3    3    0    0 -0.16842356454E+02 -0.13373213586E+02 -0.31276107673E+01  0.21732228646E+02  0.51100000000E-03 0. -1.
        -11    1    3    3    0    0 -0.78000190882E+01 -0.53330323852E+01  0.14544339959E+02  0.17344144755E+02  0.51100000000E-03 0.  1.
         12    1    3    3    0    0  0.29211141610E+02  0.11659568622E+01 -0.16122199515E+02  0.33385259723E+02  0.00000000000E+00 0. -1.
</event>
<event>
 7    1  0.3435518E-013  0.7246157E+02  0.7816164E-02  0.1226708E+00
        -11   -1    0    0    0    0  0.00000000000E+00  0.00000000000E+00  0.45593999997E+02  0.45594000000E+02  0.51100000000E-03 0.  1.
         11   -1    0    0    0    0 -0.00000000000E+00 -0.00000000000E+00 -0.45593999997E+02  0.45594000000E+02  0.51100000000E-03 0. -1.
    9900012    2    1    2    0    0  0.99027990193E+01  0.12909723465E+02  0.92710636681E+01  0.72461574557E+02  0.70000005552E+02 0.  0.
        -12    1    1    2    0    0 -0.99027990193E+01 -0.12909723465E+02 -0.92710636681E+01  0.18726425443E+02  0.00000000000E+00 0.  1.
         11    1    3    3    0    0 -0.60974798591E+01 -0.11102560543E+02  0.14796326011E+02  0.19477612146E+02  0.51100000000E-03 0. -1.
        -11    1    3    3    0    0  0.23731056763E+02  0.19669623406E+02  0.12211838057E+02  0.33153976066E+02  0.51100000000E-03 0.  1.
         12    1    3    3    0    0 -0.77307778841E+01  0.43426606016E+01 -0.17737100400E+02  0.19829986344E+02  0.00000000000E+00 0. -1.
</event>
<event>
 7    1  0.3435518E-013  0.7246154E+02  0.7816164E-02  0.1226708E+00
        -11   -1    0    0    0    0  0.00000000000E+00  0.00000000000E+00  0.45593999997E+02  0.45594000000E+02  0.51100000000E-03 0. -1.
         11   -1    0    0    0    0 -0.00000000000E+00 -0.00000000000E+00 -0.45593999997E+02  0.45594000000E+02  0.51100000000E-03 0.  1.
    9900012    2    1    2    0    0 -0.59352883457E+01 -0.14112078438E+02 -0.10784327442E+02  0.72461544810E+02  0.69999966802E+02 0.  0.
        -12    1    1    2    0    0  0.59352883457E+01  0.14112078438E+02  0.10784327442E+02  0.18726455190E+02  0.00000000000E+00 0.  1.
         11    1    3    3    0    0 -0.10261450420E+01 -0.44681468372E+01  0.19869209167E+02  0.20391242801E+02  0.51100000000E-03 0. -1.
        -11    1    3    3    0    0 -0.12481288201E+02  0.98874851170E+01 -0.12556479897E+01  0.15972525449E+02  0.51100000000E-03 0.  1.
         12    1    3    3    0    0  0.75721448969E+01 -0.19531416718E+02 -0.29397888619E+02  0.36097776560E+02  0.00000000000E+00 0. -1.
</event>
<event>
 7    1  0.3435518E-013  0.7246156E+02  0.7816164E-02  0.1226708E+00
        -11   -1    0    0    0    0  0.00000000000E+00  0.00000000000E+00  0.45593999997E+02  0.45594000000E+02  0.51100000000E-03 0. -1.
         11   -1    0    0    0    0 -0.00000000000E+00 -0.00000000000E+00 -0.45593999997E+02  0.45594000000E+02  0.51100000000E-03 0.  1.
    9900012    2    1    2    0    0  0.81759387331E+01 -0.12230072348E+02  0.11587015607E+02  0.72461559482E+02  0.69999985915E+02 0.  0.
        -12    1    1    2    0    0 -0.81759387331E+01  0.12230072348E+02 -0.11587015607E+02  0.18726440518E+02  0.00000000000E+00 0.  1.
         11    1    3    3    0    0  0.11046579671E+02  0.14437791534E+02 -0.31224778320E+01  0.18445232850E+02  0.51100000000E-03 0. -1.
        -11    1    3    3    0    0 -0.55458930134E+01 -0.42925230822E+01 -0.15099140762E+02  0.16648325314E+02  0.51100000000E-03 0.  1.
         12    1    3    3    0    0  0.26752520754E+01 -0.22375340800E+02  0.29808634201E+02  0.37368001318E+02  0.00000000000E+00 0. -1.
</event>
<event>
 7    1  0.3435518E-013  0.7246160E+02  0.7816164E-02  0.1226708E+00
        -11   -1    0    0    0    0  0.00000000000E+00  0.00000000000E+00  0.45593999997E+02  0.45594000000E+02  0.51100000000E-03 0. -1.
         11   -1    0    0    0    0 -0.00000000000E+00 -0.00000000000E+00 -0.45593999997E+02  0.45594000000E+02  0.51100000000E-03 0.  1.
    9900012    2    1    2    0    0 -0.66094872676E+01 -0.13710486017E+02  0.10909409091E+02  0.72461602709E+02  0.70000042226E+02 0.  0.
        -12    1    1    2    0    0  0.66094872676E+01  0.13710486017E+02 -0.10909409091E+02  0.18726397291E+02  0.00000000000E+00 0.  1.
         11    1    3    3    0    0  0.20153032860E+02  0.12115058415E+01  0.15646089602E+02  0.25542368723E+02  0.51100000000E-03 0. -1.
        -11    1    3    3    0    0  0.88082811596E+00  0.67545534487E+01  0.71102915183E+01  0.98466286716E+01  0.51100000000E-03 0.  1.
        -12    1    3    3    0    0 -0.27643348243E+02 -0.21676545308E+02 -0.11846972030E+02  0.37072605315E+02  0.00000000000E+00 0.  1.
</event>
<event>
 7    1  0.3435518E-013  0.7246160E+02  0.7816164E-02  0.1226708E+00
        -11   -1    0    0    0    0  0.00000000000E+00  0.00000000000E+00  0.45593999997E+02  0.45594000000E+02  0.51100000000E-03 0.  1.
         11   -1    0    0    0    0 -0.00000000000E+00 -0.00000000000E+00 -0.45593999997E+02  0.45594000000E+02  0.51100000000E-03 0. -1.
    9900012    2    1    2    0    0 -0.20295665645E+01 -0.39152334801E+01 -0.18199724348E+02  0.72461597249E+02  0.70000035114E+02 0.  0.
        -12    1    1    2    0    0  0.20295665645E+01  0.39152334801E+01  0.18199724348E+02  0.18726402751E+02  0.00000000000E+00 0.  1.
         11    1    3    3    0    0 -0.98697357052E+01 -0.13607929663E+02 -0.23545150476E+02  0.28930287654E+02  0.51100000000E-03 0. -1.
        -11    1    3    3    0    0  0.10131750096E+02  0.45750480462E+01 -0.17100090541E+02  0.20395992778E+02  0.51100000000E-03 0.  1.
        -12    1    3    3    0    0 -0.22915809553E+01  0.51176481362E+01  0.22445516669E+02  0.23135316817E+02  0.00000000000E+00 0.  1.
</event>
<event>
 7    1  0.4628842E-013  0.7246150E+02  0.7816164E-02  0.1226708E+00
        -11   -1    0    0    0    0  0.00000000000E+00  0.00000000000E+00  0.45593999997E+02  0.45594000000E+02  0.51100000000E-03 0.  1.
         11   -1    0    0    0    0 -0.00000000000E+00 -0.00000000000E+00 -0.45593999997E+02  0.45594000000E+02  0.51100000000E-03 0. -1.
    9900012    2    1    2    0    0  0.17812900505E+02 -0.55494729787E+01 -0.16079969091E+01  0.72461501961E+02  0.69999910983E+02 0.  0.
        -12    1    1    2    0    0 -0.17812900505E+02  0.55494729787E+01  0.16079969091E+01  0.18726498039E+02  0.00000000000E+00 0.  1.
         11    1    3    3    0    0 -0.42423981216E+01 -0.91399430023E+01 -0.15445706022E+02  0.18441972094E+02  0.51100000000E-03 0. -1.
        -11    1    3    3    0    0 -0.97495870884E+01  0.66259625529E+01  0.18291783980E+02  0.21761139437E+02  0.51100000000E-03 0.  1.
         12    1    3    3    0    0  0.31804885715E+02 -0.30354925293E+01 -0.44540748670E+01  0.32258390431E+02  0.00000000000E+00 0. -1.
</event>
<event>
 7    1  0.3435518E-013  0.7246116E+02  0.7816164E-02  0.1226709E+00
        -11   -1    0    0    0    0  0.00000000000E+00  0.00000000000E+00  0.45593999997E+02  0.45594000000E+02  0.51100000000E-03 0.  1.
         11   -1    0    0    0    0 -0.00000000000E+00 -0.00000000000E+00 -0.45593999997E+02  0.45594000000E+02  0.51100000000E-03 0. -1.
    9900012    2    1    2    0    0  0.94429694667E+01  0.13153060165E+02 -0.94086012323E+01  0.72461162541E+02  0.69999468824E+02 0.  0.
        -12    1    1    2    0    0 -0.94429694667E+01 -0.13153060165E+02  0.94086012323E+01  0.18726837459E+02  0.00000000000E+00 0.  1.
         11    1    3    3    0    0  0.53585535775E-01 -0.10030142884E+02 -0.44422397867E+01  0.10969965007E+02  0.51100000000E-03 0. -1.
        -11    1    3    3    0    0  0.51204434318E+01  0.78927145925E+01 -0.30226422898E+02  0.31656761142E+02  0.51100000000E-03 0.  1.
        -12    1    3    3    0    0  0.42689404991E+01  0.15290488457E+02  0.25260061452E+02  0.29834436391E+02  0.00000000000E+00 0.  1.
</event>
<event>
 7    1  0.3435518E-013  0.7246156E+02  0.7816164E-02  0.1226708E+00
        -11   -1    0    0    0    0  0.00000000000E+00  0.00000000000E+00  0.45593999997E+02  0.45594000000E+02  0.51100000000E-03 0.  1.
         11   -1    0    0    0    0 -0.00000000000E+00 -0.00000000000E+00 -0.45593999997E+02  0.45594000000E+02  0.51100000000E-03 0. -1.
    9900012    2    1    2    0    0  0.92306791649E+00 -0.11747908357E+02 -0.14553832029E+02  0.72461563289E+02  0.69999990875E+02 0.  0.
        -12    1    1    2    0    0 -0.92306791649E+00  0.11747908357E+02  0.14553832029E+02  0.18726436711E+02  0.00000000000E+00 0.  1.
         11    1    3    3    0    0 -0.85105253368E+01 -0.78295365015E+01 -0.22547035062E+02  0.25339681799E+02  0.51100000000E-03 0. -1.
        -11    1    3    3    0    0 -0.14115318612E+02  0.16432023078E+01  0.16220247005E+02  0.21564757048E+02  0.51100000000E-03 0.  1.
         12    1    3    3    0    0  0.23548911866E+02 -0.55615741638E+01 -0.82270439723E+01  0.25557124442E+02  0.00000000000E+00 0. -1.
</event>
<event>
 7    1  0.3435518E-013  0.7246154E+02  0.7816164E-02  0.1226708E+00
        -11   -1    0    0    0    0  0.00000000000E+00  0.00000000000E+00  0.45593999997E+02  0.45594000000E+02  0.51100000000E-03 0. -1.
         11   -1    0    0    0    0 -0.00000000000E+00 -0.00000000000E+00 -0.45593999997E+02  0.45594000000E+02  0.51100000000E-03 0.  1.
    9900012    2    1    2    0    0  0.65792743953E+01 -0.53490507548E+01  0.16696734380E+02  0.72461544529E+02  0.69999966436E+02 0.  0.
        -12    1    1    2    0    0 -0.65792743953E+01  0.53490507548E+01 -0.16696734380E+02  0.18726455471E+02  0.00000000000E+00 0.  1.
         11    1    3    3    0    0  0.27979937560E+02 -0.53426391509E+01  0.20745243370E+02  0.35238981564E+02  0.51100000000E-03 0. -1.
        -11    1    3    3    0    0  0.53267885263E+01 -0.44078407026E+01  0.51441455349E+01  0.86177705475E+01  0.51100000000E-03 0.  1.
        -12    1    3    3    0    0 -0.26727451691E+02  0.44014290987E+01 -0.91926545247E+01  0.28604792417E+02  0.00000000000E+00 0.  1.
</event>
<event>
 7    1  0.3435518E-013  0.7246157E+02  0.7816164E-02  0.1226708E+00
        -11   -1    0    0    0    0  0.00000000000E+00  0.00000000000E+00  0.45593999997E+02  0.45594000000E+02  0.51100000000E-03 0. -1.
         11   -1    0    0    0    0 -0.00000000000E+00 -0.00000000000E+00 -0.45593999997E+02  0.45594000000E+02  0.51100000000E-03 0.  1.
    9900012    2    1    2    0    0  0.15726237224E+02  0.10062991889E+02  0.14494171373E+01  0.72461570735E+02  0.70000000574E+02 0.  0.
        -12    1    1    2    0    0 -0.15726237224E+02 -0.10062991889E+02 -0.14494171373E+01  0.18726429265E+02  0.00000000000E+00 0.  1.
         11    1    3    3    0    0  0.36450972126E+01 -0.13026084169E+01 -0.32014029024E+02  0.32247194870E+02  0.51100000000E-03 0.  1.
        -11    1    3    3    0    0  0.10405238015E+02  0.78672797645E+00  0.10144875490E+02  0.14553570628E+02  0.51100000000E-03 0. -1.
        -12    1    3    3    0    0  0.16759019964E+01  0.10578872330E+02  0.23318570671E+02  0.25660805237E+02  0.00000000000E+00 0.  1.
</event>
<event>
 7    1  0.3435518E-013  0.7246159E+02  0.7816164E-02  0.1226708E+00
        -11   -1    0    0    0    0  0.00000000000E+00  0.00000000000E+00  0.45593999997E+02  0.45594000000E+02  0.51100000000E-03 0.  1.
         11   -1    0    0    0    0 -0.00000000000E+00 -0.00000000000E+00 -0.45593999997E+02  0.45594000000E+02  0.51100000000E-03 0. -1.
    9900012    2    1    2    0    0 -0.80258726265E+01 -0.45805402407E+01 -0.16287493929E+02  0.72461589805E+02  0.70000025416E+02 0.  0.
        -12    1    1    2    0    0  0.80258726265E+01  0.45805402407E+01  0.16287493929E+02  0.18726410195E+02  0.00000000000E+00 0.  1.
         11    1    3    3    0    0 -0.24147030273E+02  0.40851384162E+00 -0.60764668451E+01  0.24903200680E+02  0.51100000000E-03 0. -1.
        -11    1    3    3    0    0 -0.23671623712E+01 -0.92511132832E+00  0.15457312649E+02  0.15664858865E+02  0.51100000000E-03 0.  1.
        -12    1    3    3    0    0  0.18488320017E+02 -0.40639427540E+01 -0.25668339733E+02  0.31893530260E+02  0.00000000000E+00 0.  1.
</event>
<event>
 7    1  0.3435518E-013  0.7246160E+02  0.7816164E-02  0.1226708E+00
        -11   -1    0    0    0    0  0.00000000000E+00  0.00000000000E+00  0.45593999997E+02  0.45594000000E+02  0.51100000000E-03 0. -1.
         11   -1    0    0    0    0 -0.00000000000E+00 -0.00000000000E+00 -0.45593999997E+02  0.45594000000E+02  0.51100000000E-03 0.  1.
    9900012    2    1    2    0    0 -0.46860780488E+01 -0.11401784747E+02  0.14096737423E+02  0.72461600750E+02  0.70000039674E+02 0.  0.
        -12    1    1    2    0    0  0.46860780488E+01  0.11401784747E+02 -0.14096737423E+02  0.18726399250E+02  0.00000000000E+00 0.  1.
         11    1    3    3    0    0 -0.17269642921E+02 -0.19159868357E+02  0.16229074553E+02  0.30474973063E+02  0.51100000000E-03 0. -1.
        -11    1    3    3    0    0 -0.13935823031E+02 -0.71837386380E+00  0.88565769920E+00  0.13982403741E+02  0.51100000000E-03 0.  1.
        -12    1    3    3    0    0  0.26519387903E+02  0.84764574742E+01 -0.30179948291E+01  0.28004223946E+02  0.00000000000E+00 0.  1.
</event>
<event>
 7    1  0.3435518E-013  0.7246143E+02  0.7816164E-02  0.1226708E+00
        -11   -1    0    0    0    0  0.00000000000E+00  0.00000000000E+00  0.45593999997E+02  0.45594000000E+02  0.51100000000E-03 0.  1.
         11   -1    0    0    0    0 -0.00000000000E+00 -0.00000000000E+00 -0.45593999997E+02  0.45594000000E+02  0.51100000000E-03 0. -1.
    9900012    2    1    2    0    0  0.80895751401E+01  0.85075494792E+01 -0.14589887089E+02  0.72461429856E+02  0.69999817053E+02 0.  0.
        -12    1    1    2    0    0 -0.80895751401E+01 -0.85075494792E+01  0.14589887089E+02  0.18726570144E+02  0.00000000000E+00 0.  1.
         11    1    3    3    0    0 -0.13451478094E+02  0.10951503696E+02 -0.36632562474E+01  0.17728427530E+02  0.51100000000E-03 0. -1.
        -11    1    3    3    0    0  0.12167705230E+02 -0.38291146186E+01 -0.30459847701E+02  0.33022984292E+02  0.51100000000E-03 0.  1.
        -12    1    3    3    0    0  0.93733480041E+01  0.13851604016E+01  0.19533216860E+02  0.21710018034E+02  0.00000000000E+00 0.  1.
</event>
<event>
 7    1  0.3435518E-013  0.7246142E+02  0.7816164E-02  0.1226708E+00
        -11   -1    0    0    0    0  0.00000000000E+00  0.00000000000E+00  0.45593999997E+02  0.45594000000E+02  0.51100000000E-03 0. -1.
         11   -1    0    0    0    0 -0.00000000000E+00 -0.00000000000E+00 -0.45593999997E+02  0.45594000000E+02  0.51100000000E-03 0.  1.
    9900012    2    1    2    0    0 -0.72908388923E+01  0.17248800924E+02  0.85303545860E-01  0.72461421515E+02  0.69999806186E+02 0.  0.
        -12    1    1    2    0    0  0.72908388923E+01 -0.17248800924E+02 -0.85303545860E-01  0.18726578485E+02  0.00000000000E+00 0.  1.
         11    1    3    3    0    0 -0.21137218341E+02  0.34595160918E+02  0.14364187807E+02  0.43010894547E+02  0.51100000000E-03 0. -1.
        -11    1    3    3    0    0  0.30365928268E+01  0.11717145219E+01  0.65523735492E+00  0.33201125235E+01  0.51100000000E-03 0.  1.
        -12    1    3    3    0    0  0.10809786622E+02 -0.18518074515E+02 -0.14934121616E+02  0.26130414444E+02  0.00000000000E+00 0.  1.
</event>
<event>
 7    1  0.3435518E-013  0.7246161E+02  0.7816164E-02  0.1226708E+00
        -11   -1    0    0    0    0  0.00000000000E+00  0.00000000000E+00  0.45593999997E+02  0.45594000000E+02  0.51100000000E-03 0.  1.
         11   -1    0    0    0    0 -0.00000000000E+00 -0.00000000000E+00 -0.45593999997E+02  0.45594000000E+02  0.51100000000E-03 0. -1.
    9900012    2    1    2    0    0 -0.67998271957E+01  0.17347611082E+02 -0.18709587261E+01  0.72461608284E+02  0.70000049488E+02 0.  0.
        -12    1    1    2    0    0  0.67998271957E+01 -0.17347611082E+02  0.18709587261E+01  0.18726391716E+02  0.00000000000E+00 0.  1.
         11    1    3    3    0    0 -0.72996905227E+01  0.13443552606E+02 -0.20393700784E+02  0.25493481919E+02  0.51100000000E-03 0. -1.
        -11    1    3    3    0    0 -0.44689223346E+01 -0.17444180742E+02 -0.39880510374E+00  0.18011933666E+02  0.51100000000E-03 0.  1.
        -12    1    3    3    0    0  0.49687856616E+01  0.21348239218E+02  0.18921547162E+02  0.28956192700E+02  0.00000000000E+00 0.  1.
</event>
<event>
 7    1  0.3435518E-013  0.7246159E+02  0.7816164E-02  0.1226708E+00
        -11   -1    0    0    0    0  0.00000000000E+00  0.00000000000E+00  0.45593999997E+02  0.45594000000E+02  0.51100000000E-03 0.  1.
         11   -1    0    0    0    0 -0.00000000000E+00 -0.00000000000E+00 -0.45593999997E+02  0.45594000000E+02  0.51100000000E-03 0. -1.
    9900012    2    1    2    0    0 -0.77488709651E+01 -0.10163124305E+02 -0.13687372226E+02  0.72461594703E+02  0.70000031797E+02 0.  0.
        -12    1    1    2    0    0  0.77488709651E+01  0.10163124305E+02  0.13687372226E+02  0.18726405297E+02  0.00000000000E+00 0.  1.
         11    1    3    3    0    0  0.25654913020E+01 -0.81679615032E+01 -0.24383475120E+01  0.89018469763E+01  0.51100000000E-03 0. -1.
        -11    1    3    3    0    0 -0.22515496830E+02 -0.16009741462E+02  0.14971237899E+02  0.31422879940E+02  0.51100000000E-03 0.  1.
         12    1    3    3    0    0  0.12201134563E+02  0.14014578660E+02 -0.26220262614E+02  0.32136867787E+02  0.00000000000E+00 0. -1.
</event>
<event>
 7    1  0.3435518E-013  0.7246154E+02  0.7816164E-02  0.1226708E+00
        -11   -1    0    0    0    0  0.00000000000E+00  0.00000000000E+00  0.45593999997E+02  0.45594000000E+02  0.51100000000E-03 0.  1.
         11   -1    0    0    0    0 -0.00000000000E+00 -0.00000000000E+00 -0.45593999997E+02  0.45594000000E+02  0.51100000000E-03 0. -1.
    9900012    2    1    2    0    0  0.10518249704E+02  0.27376094195E+01 -0.15249663330E+02  0.72461539740E+02  0.69999960198E+02 0.  0.
        -12    1    1    2    0    0 -0.10518249704E+02 -0.27376094195E+01  0.15249663330E+02  0.18726460260E+02  0.00000000000E+00 0.  1.
         11    1    3    3    0    0 -0.15102071957E+02  0.11474843118E+02  0.64090485511E+01  0.20020502131E+02  0.51100000000E-03 0. -1.
        -11    1    3    3    0    0  0.15952914118E+02 -0.22021218228E+01  0.98248212866E+01  0.18864567924E+02  0.51100000000E-03 0.  1.
         12    1    3    3    0    0  0.96674075432E+01 -0.65351118757E+01 -0.31483533168E+02  0.33576469686E+02  0.00000000000E+00 0. -1.
</event>
<event>
 7    1  0.3435518E-013  0.7246156E+02  0.7816164E-02  0.1226708E+00
        -11   -1    0    0    0    0  0.00000000000E+00  0.00000000000E+00  0.45593999997E+02  0.45594000000E+02  0.51100000000E-03 0.  1.
         11   -1    0    0    0    0 -0.00000000000E+00 -0.00000000000E+00 -0.45593999997E+02  0.45594000000E+02  0.51100000000E-03 0. -1.
    9900012    2    1    2    0    0 -0.16868763948E+02  0.34440560643E+01 -0.73663251017E+01  0.72461562410E+02  0.69999989729E+02 0.  0.
        -12    1    1    2    0    0  0.16868763948E+02 -0.34440560643E+01  0.73663251017E+01  0.18726437590E+02  0.00000000000E+00 0.  1.
         11    1    3    3    0    0  0.38323366922E+01  0.18223703702E+02  0.65131380645E+01  0.19728435033E+02  0.51100000000E-03 0. -1.
        -11    1    3    3    0    0  0.53782899957E+01  0.46788537834E+01  0.10065024643E+02  0.12333790874E+02  0.51100000000E-03 0.  1.
        -12    1    3    3    0    0 -0.26079390636E+02 -0.19458501421E+02 -0.23944487809E+02  0.40399336503E+02  0.00000000000E+00 0.  1.
</event>
<event>
 7    1  0.3435518E-013  0.7246156E+02  0.7816164E-02  0.1226708E+00
        -11   -1    0    0    0    0  0.00000000000E+00  0.00000000000E+00  0.45593999997E+02  0.45594000000E+02  0.51100000000E-03 0.  1.
         11   -1    0    0    0    0 -0.00000000000E+00 -0.00000000000E+00 -0.45593999997E+02  0.45594000000E+02  0.51100000000E-03 0. -1.
    9900012    2    1    2    0    0  0.18327722109E+02  0.35533160893E+01  0.14656649595E+01  0.72461558087E+02  0.69999984098E+02 0.  0.
        -12    1    1    2    0    0 -0.18327722109E+02 -0.35533160893E+01 -0.14656649595E+01  0.18726441913E+02  0.00000000000E+00 0.  1.
         11    1    3    3    0    0  0.22795363733E+02  0.53626194664E+01 -0.72137507736E+01  0.24503560879E+02  0.51100000000E-03 0. -1.
        -11    1    3    3    0    0  0.20148294650E+02  0.62504682099E+01  0.59147646840E+01  0.21909052277E+02  0.51100000000E-03 0.  1.
         12    1    3    3    0    0 -0.24615936273E+02 -0.80597715870E+01  0.27646510491E+01  0.26048944932E+02  0.00000000000E+00 0. -1.
</event>
<event>
 7    1  0.3435518E-013  0.7246156E+02  0.7816164E-02  0.1226708E+00
        -11   -1    0    0    0    0  0.00000000000E+00  0.00000000000E+00  0.45593999997E+02  0.45594000000E+02  0.51100000000E-03 0.  1.
         11   -1    0    0    0    0 -0.00000000000E+00 -0.00000000000E+00 -0.45593999997E+02  0.45594000000E+02  0.51100000000E-03 0. -1.
    9900012    2    1    2    0    0  0.11585030518E+01  0.45672567811E+01 -0.18123950047E+02  0.72461560693E+02  0.69999987492E+02 0.  0.
        -12    1    1    2    0    0 -0.11585030518E+01 -0.45672567811E+01  0.18123950047E+02  0.18726439307E+02  0.00000000000E+00 0.  1.
         11    1    3    3    0    0 -0.24455779690E+01  0.32014404237E+00 -0.24654811771E+02  0.24777874960E+02  0.51100000000E-03 0. -1.
        -11    1    3    3    0    0  0.10353994373E+02  0.19919718781E+02 -0.94003112181E+01  0.24338575288E+02  0.51100000000E-03 0.  1.
        -12    1    3    3    0    0 -0.67499133521E+01 -0.15672606042E+02  0.15931172942E+02  0.23345110445E+02  0.00000000000E+00 0.  1.
</event>
<event>
 7    1  0.3435518E-013  0.7246139E+02  0.7816164E-02  0.1226709E+00
        -11   -1    0    0    0    0  0.00000000000E+00  0.00000000000E+00  0.45593999997E+02  0.45594000000E+02  0.51100000000E-03 0.  1.
         11   -1    0    0    0    0 -0.00000000000E+00 -0.00000000000E+00 -0.45593999997E+02  0.45594000000E+02  0.51100000000E-03 0. -1.
    9900012    2    1    2    0    0  0.30685657991E+01  0.14360657559E+02 -0.11620736702E+02  0.72461385168E+02  0.69999758838E+02 0.  0.
        -12    1    1    2    0    0 -0.30685657991E+01 -0.14360657559E+02  0.11620736702E+02  0.18726614832E+02  0.00000000000E+00 0.  1.
         11    1    3    3    0    0  0.76611820853E+01  0.30006583878E+02 -0.21514578377E+02  0.37708962727E+02  0.51100000000E-03 0. -1.
        -11    1    3    3    0    0 -0.83163734855E+01 -0.63921581029E+01 -0.87160188339E+01  0.13637842122E+02  0.51100000000E-03 0.  1.
         12    1    3    3    0    0  0.37237571993E+01 -0.92537682166E+01  0.18609860509E+02  0.21114580319E+02  0.00000000000E+00 0. -1.
</event>
<event>
 7    1  0.3435518E-013  0.7246157E+02  0.7816164E-02  0.1226708E+00
        -11   -1    0    0    0    0  0.00000000000E+00  0.00000000000E+00  0.45593999997E+02  0.45594000000E+02  0.51100000000E-03 0. -1.
         11   -1    0    0    0    0 -0.00000000000E+00 -0.00000000000E+00 -0.45593999997E+02  0.45594000000E+02  0.51100000000E-03 0.  1.
    9900012    2    1    2    0    0  0.18441221765E+02  0.26005362980E+01  0.19590011153E+01  0.72461571227E+02  0.70000001215E+02 0.  0.
        -12    1    1    2    0    0 -0.18441221765E+02 -0.26005362980E+01 -0.19590011153E+01  0.18726428773E+02  0.00000000000E+00 0.  1.
         11    1    3    3    0    0  0.10976153431E+02 -0.22156464055E+02 -0.10116941826E+02  0.26715863372E+02  0.51100000000E-03 0. -1.
        -11    1    3    3    0    0 -0.12220123856E+01 -0.90180773182E+01  0.40429547750E+01  0.99581381975E+01  0.51100000000E-03 0.  1.
        -12    1    3    3    0    0  0.86870807192E+01  0.33775077671E+02  0.80329881662E+01  0.35787569657E+02  0.00000000000E+00 0.  1.
</event>
<event>
 7    1  0.3435518E-013  0.7246188E+02  0.7816164E-02  0.1226707E+00
        -11   -1    0    0    0    0  0.00000000000E+00  0.00000000000E+00  0.45593999997E+02  0.45594000000E+02  0.51100000000E-03 0. -1.
         11   -1    0    0    0    0 -0.00000000000E+00 -0.00000000000E+00 -0.45593999997E+02  0.45594000000E+02  0.51100000000E-03 0.  1.
    9900012    2    1    2    0    0  0.15014488037E+02  0.66133388306E+01  0.90275339617E+01  0.72461882652E+02  0.70000406903E+02 0.  0.
        -12    1    1    2    0    0 -0.15014488037E+02 -0.66133388306E+01 -0.90275339617E+01  0.18726117348E+02  0.00000000000E+00 0.  1.
         11    1    3    3    0    0  0.37710397583E+01 -0.15804230045E+02  0.89378088442E+01  0.18543970863E+02  0.51100000000E-03 0. -1.
        -11    1    3    3    0    0  0.76016661628E+00 -0.13132634260E+02  0.88226728334E+01  0.15839302134E+02  0.51100000000E-03 0.  1.
         12    1    3    3    0    0  0.10483281662E+02  0.35550203136E+02 -0.87329477159E+01  0.38078609655E+02  0.00000000000E+00 0. -1.
</event>
<event>
 7    1  0.3435518E-013  0.7246137E+02  0.7816164E-02  0.1226709E+00
        -11   -1    0    0    0    0  0.00000000000E+00  0.00000000000E+00  0.45593999997E+02  0.45594000000E+02  0.51100000000E-03 0.  1.
         11   -1    0    0    0    0 -0.00000000000E+00 -0.00000000000E+00 -0.45593999997E+02  0.45594000000E+02  0.51100000000E-03 0. -1.
    9900012    2    1    2    0    0 -0.14212762172E+02 -0.11553258020E+01 -0.12138757717E+02  0.72461365887E+02  0.69999733721E+02 0.  0.
        -12    1    1    2    0    0  0.14212762172E+02  0.11553258020E+01  0.12138757717E+02  0.18726634113E+02  0.00000000000E+00 0.  1.
         11    1    3    3    0    0 -0.27540641202E+02 -0.11842465229E+02  0.54840645170E+01  0.30476316451E+02  0.51100000000E-03 0. -1.
        -11    1    3    3    0    0 -0.21839512147E+01  0.60980395588E+01  0.88463444604E+01  0.10964193538E+02  0.51100000000E-03 0.  1.
         12    1    3    3    0    0  0.15511830245E+02  0.45890998679E+01 -0.26469166695E+02  0.31020855898E+02  0.00000000000E+00 0. -1.
</event>
<event>
 7    1  0.3435518E-013  0.7246160E+02  0.7816164E-02  0.1226708E+00
        -11   -1    0    0    0    0  0.00000000000E+00  0.00000000000E+00  0.45593999997E+02  0.45594000000E+02  0.51100000000E-03 0. -1.
         11   -1    0    0    0    0 -0.00000000000E+00 -0.00000000000E+00 -0.45593999997E+02  0.45594000000E+02  0.51100000000E-03 0.  1.
    9900012    2    1    2    0    0 -0.16878893951E+02 -0.79173639753E+01  0.17595910475E+01  0.72461604886E+02  0.70000045061E+02 0.  0.
        -12    1    1    2    0    0  0.16878893951E+02  0.79173639753E+01 -0.17595910475E+01  0.18726395114E+02  0.00000000000E+00 0.  1.
         11    1    3    3    0    0 -0.71097166503E+01 -0.18198071601E+02  0.16699792801E+02  0.25702158678E+02  0.51100000000E-03 0. -1.
        -11    1    3    3    0    0 -0.15487774062E+02  0.24582637146E+01  0.10942726048E+02  0.19122171935E+02  0.51100000000E-03 0.  1.
        -12    1    3    3    0    0  0.57185967609E+01  0.78224439114E+01 -0.25882927801E+02  0.27637274273E+02  0.00000000000E+00 0.  1.
</event>
<event>
 7    1  0.3435518E-013  0.7246157E+02  0.7816164E-02  0.1226708E+00
        -11   -1    0    0    0    0  0.00000000000E+00  0.00000000000E+00  0.45593999997E+02  0.45594000000E+02  0.51100000000E-03 0.  1.
         11   -1    0    0    0    0 -0.00000000000E+00 -0.00000000000E+00 -0.45593999997E+02  0.45594000000E+02  0.51100000000E-03 0. -1.
    9900012    2    1    2    0    0  0.14857478070E+02 -0.92157795789E+01 -0.67085042059E+01  0.72461567437E+02  0.69999996278E+02 0.  0.
        -12    1    1    2    0    0 -0.14857478070E+02  0.92157795789E+01  0.67085042059E+01  0.18726432563E+02  0.00000000000E+00 0.  1.
         11    1    3    3    0    0  0.65538592805E+01  0.13258749348E+02  0.47985792392E+01  0.15549079353E+02  0.51100000000E-03 0. -1.
        -11    1    3    3    0    0  0.16910979640E+02  0.77275347286E+01  0.76730835270E+01  0.20113981119E+02  0.51100000000E-03 0.  1.
         12    1    3    3    0    0 -0.86073608506E+01 -0.30202063655E+02 -0.19180166972E+02  0.36798506966E+02  0.00000000000E+00 0. -1.
</event>
<event>
 7    1  0.3435518E-013  0.7246162E+02  0.7816164E-02  0.1226708E+00
        -11   -1    0    0    0    0  0.00000000000E+00  0.00000000000E+00  0.45593999997E+02  0.45594000000E+02  0.51100000000E-03 0. -1.
         11   -1    0    0    0    0 -0.00000000000E+00 -0.00000000000E+00 -0.45593999997E+02  0.45594000000E+02  0.51100000000E-03 0.  1.
    9900012    2    1    2    0    0 -0.22596296445E+01  0.14710889144E+02  0.11364911537E+02  0.72461617547E+02  0.70000061555E+02 0.  0.
        -12    1    1    2    0    0  0.22596296445E+01 -0.14710889144E+02 -0.11364911537E+02  0.18726382453E+02  0.00000000000E+00 0.  1.
         11    1    3    3    0    0  0.12734516265E+02  0.22653073749E+02 -0.14919769609E+02  0.29965466461E+02  0.51100000000E-03 0. -1.
        -11    1    3    3    0    0 -0.66337936608E+01  0.10135732249E+02  0.43578736682E+01  0.12873668853E+02  0.51100000000E-03 0.  1.
        -12    1    3    3    0    0 -0.83603522483E+01 -0.18077916853E+02  0.21926807478E+02  0.29622482233E+02  0.00000000000E+00 0.  1.
</event>
<event>
 7    1  0.3435518E-013  0.7246158E+02  0.7816164E-02  0.1226708E+00
        -11   -1    0    0    0    0  0.00000000000E+00  0.00000000000E+00  0.45593999997E+02  0.45594000000E+02  0.51100000000E-03 0. -1.
         11   -1    0    0    0    0 -0.00000000000E+00 -0.00000000000E+00 -0.45593999997E+02  0.45594000000E+02  0.51100000000E-03 0.  1.
    9900012    2    1    2    0    0 -0.10842879830E+02 -0.14857123300E+02  0.35180468129E+01  0.72461579917E+02  0.70000012535E+02 0.  0.
        -12    1    1    2    0    0  0.10842879830E+02  0.14857123300E+02 -0.35180468129E+01  0.18726420083E+02  0.00000000000E+00 0.  1.
         11    1    3    3    0    0  0.68579113789E+01  0.25523065852E+01 -0.35013549710E+01  0.81120098791E+01  0.51100000000E-03 0. -1.
        -11    1    3    3    0    0  0.13600950157E+02 -0.19115119102E+02 -0.13323317435E+02  0.26979333038E+02  0.51100000000E-03 0.  1.
         12    1    3    3    0    0 -0.31301741365E+02  0.17056892172E+01  0.20342719219E+02  0.37370237000E+02  0.00000000000E+00 0. -1.
</event>
<event>
 7    1  0.3435518E-013  0.7246156E+02  0.7816164E-02  0.1226708E+00
        -11   -1    0    0    0    0  0.00000000000E+00  0.00000000000E+00  0.45593999997E+02  0.45594000000E+02  0.51100000000E-03 0.  1.
         11   -1    0    0    0    0 -0.00000000000E+00 -0.00000000000E+00 -0.45593999997E+02  0.45594000000E+02  0.51100000000E-03 0. -1.
    9900012    2    1    2    0    0 -0.61651992471E+01 -0.11269857732E+02 -0.13625720739E+02  0.72461557714E+02  0.69999983611E+02 0.  0.
        -12    1    1    2    0    0  0.61651992471E+01  0.11269857732E+02  0.13625720739E+02  0.18726442286E+02  0.00000000000E+00 0.  1.
         11    1    3    3    0    0  0.14977179144E+02  0.11842264591E+02  0.97929243387E+01  0.21458250002E+02  0.51100000000E-03 0. -1.
        -11    1    3    3    0    0 -0.90353909639E+01  0.33797774461E+01  0.45106743145E+01  0.10649289577E+02  0.51100000000E-03 0.  1.
         12    1    3    3    0    0 -0.12106987428E+02 -0.26491899769E+02 -0.27929319392E+02  0.40354018135E+02  0.00000000000E+00 0. -1.
</event>
<event>
 7    1  0.3435518E-013  0.7246137E+02  0.7816164E-02  0.1226709E+00
        -11   -1    0    0    0    0  0.00000000000E+00  0.00000000000E+00  0.45593999997E+02  0.45594000000E+02  0.51100000000E-03 0.  1.
         11   -1    0    0    0    0 -0.00000000000E+00 -0.00000000000E+00 -0.45593999997E+02  0.45594000000E+02  0.51100000000E-03 0. -1.
    9900012    2    1    2    0    0 -0.24540158947E+01  0.12680215326E+02 -0.13560107904E+02  0.72461372404E+02  0.69999742211E+02 0.  0.
        -12    1    1    2    0    0  0.24540158947E+01 -0.12680215326E+02  0.13560107904E+02  0.18726627596E+02  0.00000000000E+00 0.  1.
         11    1    3    3    0    0 -0.59603693873E+01  0.11208672505E+02 -0.20527161892E+02  0.24135548847E+02  0.51100000000E-03 0. -1.
        -11    1    3    3    0    0 -0.10135069311E+02 -0.67109987923E+01 -0.16181479510E+02  0.20238513140E+02  0.51100000000E-03 0.  1.
        -12    1    3    3    0    0  0.13641422804E+02  0.81825416137E+01  0.23148533498E+02  0.28087310417E+02  0.00000000000E+00 0.  1.
</event>
<event>
 7    1  0.3435518E-013  0.7246164E+02  0.7816164E-02  0.1226708E+00
        -11   -1    0    0    0    0  0.00000000000E+00  0.00000000000E+00  0.45593999997E+02  0.45594000000E+02  0.51100000000E-03 0. -1.
         11   -1    0    0    0    0 -0.00000000000E+00 -0.00000000000E+00 -0.45593999997E+02  0.45594000000E+02  0.51100000000E-03 0.  1.
    9900012    2    1    2    0    0  0.69857576232E+01  0.13374596286E+01  0.17323021804E+02  0.72461636438E+02  0.70000086165E+02 0.  0.
        -12    1    1    2    0    0 -0.69857576232E+01 -0.13374596286E+01 -0.17323021804E+02  0.18726363562E+02  0.00000000000E+00 0.  1.
         11    1    3    3    0    0 -0.38917311645E+01  0.20542896488E+01 -0.21715052639E+01  0.49072510421E+01  0.51100000000E-03 0. -1.
        -11    1    3    3    0    0 -0.25735512352E+02 -0.81811442222E+01  0.49344025273E+01  0.27451703870E+02  0.51100000000E-03 0.  1.
         12    1    3    3    0    0  0.36613001140E+02  0.74643142019E+01  0.14560124540E+02  0.40102681526E+02  0.00000000000E+00 0. -1.
</event>
<event>
 7    1  0.3435518E-013  0.7246157E+02  0.7816164E-02  0.1226708E+00
        -11   -1    0    0    0    0  0.00000000000E+00  0.00000000000E+00  0.45593999997E+02  0.45594000000E+02  0.51100000000E-03 0.  1.
         11   -1    0    0    0    0 -0.00000000000E+00 -0.00000000000E+00 -0.45593999997E+02  0.45594000000E+02  0.51100000000E-03 0. -1.
    9900012    2    1    2    0    0  0.17969132574E+02  0.31321759794E+01 -0.42401476681E+01  0.72461572042E+02  0.70000002277E+02 0.  0.
        -12    1    1    2    0    0 -0.17969132574E+02 -0.31321759794E+01  0.42401476681E+01  0.18726427958E+02  0.00000000000E+00 0.  1.
         11    1    3    3    0    0  0.18182353126E+02 -0.97564062653E+01 -0.90988284920E+01  0.22551587718E+02  0.51100000000E-03 0. -1.
        -11    1    3    3    0    0  0.20270017185E+02 -0.22302588124E+01  0.11749788831E+02  0.23535190436E+02  0.51100000000E-03 0.  1.
        -12    1    3    3    0    0 -0.20483237736E+02  0.15118841057E+02 -0.68911080070E+01  0.26374793888E+02  0.00000000000E+00 0.  1.
</event>
<event>
 7    1  0.3435518E-013  0.7246160E+02  0.7816164E-02  0.1226708E+00
        -11   -1    0    0    0    0  0.00000000000E+00  0.00000000000E+00  0.45593999997E+02  0.45594000000E+02  0.51100000000E-03 0. -1.
         11   -1    0    0    0    0 -0.00000000000E+00 -0.00000000000E+00 -0.45593999997E+02  0.45594000000E+02  0.51100000000E-03 0.  1.
    9900012    2    1    2    0    0 -0.79255634148E+00  0.57915325006E+01  0.17790670785E+02  0.72461602556E+02  0.70000042027E+02 0.  0.
        -12    1    1    2    0    0  0.79255634148E+00 -0.57915325006E+01 -0.17790670785E+02  0.18726397444E+02  0.00000000000E+00 0.  1.
         11    1    3    3    0    0  0.17324126290E+02 -0.14644414056E+02  0.17034308044E+02  0.28368148786E+02  0.51100000000E-03 0. -1.
        -11    1    3    3    0    0 -0.11106007464E+02  0.11610373318E+02  0.17597314183E+02  0.23828756516E+02  0.51100000000E-03 0.  1.
        -12    1    3    3    0    0 -0.70106751679E+01  0.88255732387E+01 -0.16840951443E+02  0.20264697254E+02  0.00000000000E+00 0.  1.
</event>
<event>
 7    1  0.3435518E-013  0.7246153E+02  0.7816164E-02  0.1226708E+00
        -11   -1    0    0    0    0  0.00000000000E+00  0.00000000000E+00  0.45593999997E+02  0.45594000000E+02  0.51100000000E-03 0. -1.
         11   -1    0    0    0    0 -0.00000000000E+00 -0.00000000000E+00 -0.45593999997E+02  0.45594000000E+02  0.51100000000E-03 0.  1.
    9900012    2    1    2    0    0 -0.89415663102E+01 -0.20694510438E+01  0.16323185032E+02  0.72461531959E+02  0.69999950062E+02 0.  0.
        -12    1    1    2    0    0  0.89415663102E+01  0.20694510438E+01 -0.16323185032E+02  0.18726468041E+02  0.00000000000E+00 0.  1.
         11    1    3    3    0    0 -0.17582464241E+02 -0.11209819274E+02  0.38120964010E+00  0.20855416994E+02  0.51100000000E-03 0. -1.
        -11    1    3    3    0    0 -0.67808690201E+01  0.24997295568E+02  0.32494918906E+01  0.26103719432E+02  0.51100000000E-03 0.  1.
         12    1    3    3    0    0  0.15421766951E+02 -0.15856927338E+02  0.12692483501E+02  0.25502395533E+02  0.00000000000E+00 0. -1.
</event>
<event>
 7    1  0.3435518E-013  0.7246163E+02  0.7816164E-02  0.1226708E+00
        -11   -1    0    0    0    0  0.00000000000E+00  0.00000000000E+00  0.45593999997E+02  0.45594000000E+02  0.51100000000E-03 0.  1.
         11   -1    0    0    0    0 -0.00000000000E+00 -0.00000000000E+00 -0.45593999997E+02  0.45594000000E+02  0.51100000000E-03 0. -1.
    9900012    2    1    2    0    0 -0.16019880904E+02 -0.59132582426E+01 -0.76859343496E+01  0.72461633720E+02  0.70000082623E+02 0.  0.
        -12    1    1    2    0    0  0.16019880904E+02  0.59132582426E+01  0.76859343496E+01  0.18726366280E+02  0.00000000000E+00 0.  1.
         11    1    3    3    0    0 -0.13084081657E+00 -0.14120176042E+01  0.25338627838E+01  0.29036828170E+01  0.51100000000E-03 0. -1.
        -11    1    3    3    0    0  0.10310743102E+02  0.87021896646E+01  0.22109310975E+02  0.25900987632E+02  0.51100000000E-03 0.  1.
         12    1    3    3    0    0 -0.26199783189E+02 -0.13203430303E+02 -0.32329108108E+02  0.43656963271E+02  0.00000000000E+00 0. -1.
</event>
<event>
 7    1  0.3435518E-013  0.7246154E+02  0.7816164E-02  0.1226708E+00
        -11   -1    0    0    0    0  0.00000000000E+00  0.00000000000E+00  0.45593999997E+02  0.45594000000E+02  0.51100000000E-03 0. -1.
         11   -1    0    0    0    0 -0.00000000000E+00 -0.00000000000E+00 -0.45593999997E+02  0.45594000000E+02  0.51100000000E-03 0.  1.
    9900012    2    1    2    0    0 -0.84501698905E+01 -0.22484920568E+01  0.16559564136E+02  0.72461541390E+02  0.69999962347E+02 0.  0.
        -12    1    1    2    0    0  0.84501698905E+01  0.22484920568E+01 -0.16559564136E+02  0.18726458610E+02  0.00000000000E+00 0.  1.
         11    1    3    3    0    0  0.84456823386E+00  0.11223378663E+02  0.25652569149E+02  0.28013065315E+02  0.51100000000E-03 0. -1.
        -11    1    3    3    0    0 -0.12704938438E+02  0.87622372997E+01  0.68419225041E+01  0.16882066432E+02  0.51100000000E-03 0.  1.
        -12    1    3    3    0    0  0.34102003136E+01 -0.22234108020E+02 -0.15934927518E+02  0.27566409643E+02  0.00000000000E+00 0.  1.
</event>
<event>
 7    1  0.3435518E-013  0.7246148E+02  0.7816164E-02  0.1226708E+00
        -11   -1    0    0    0    0  0.00000000000E+00  0.00000000000E+00  0.45593999997E+02  0.45594000000E+02  0.51100000000E-03 0.  1.
         11   -1    0    0    0    0 -0.00000000000E+00 -0.00000000000E+00 -0.45593999997E+02  0.45594000000E+02  0.51100000000E-03 0. -1.
    9900012    2    1    2    0    0  0.17743655924E+02 -0.34380841010E+01  0.49014993094E+01  0.72461482884E+02  0.69999886131E+02 0.  0.
        -12    1    1    2    0    0 -0.17743655924E+02  0.34380841010E+01 -0.49014993094E+01  0.18726517116E+02  0.00000000000E+00 0.  1.
         11    1    3    3    0    0  0.14008336054E+02 -0.28533502997E+02  0.14504648066E+01  0.31819775623E+02  0.51100000000E-03 0. -1.
        -11    1    3    3    0    0  0.64097442790E+01  0.26517936767E+00 -0.10298403105E+02  0.12133105480E+02  0.51100000000E-03 0.  1.
        -12    1    3    3    0    0 -0.26744244095E+01  0.24830239528E+02  0.13749437608E+02  0.28508601780E+02  0.00000000000E+00 0.  1.
</event>
<event>
 7    1  0.3435518E-013  0.7246156E+02  0.7816164E-02  0.1226708E+00
        -11   -1    0    0    0    0  0.00000000000E+00  0.00000000000E+00  0.45593999997E+02  0.45594000000E+02  0.51100000000E-03 0.  1.
         11   -1    0    0    0    0 -0.00000000000E+00 -0.00000000000E+00 -0.45593999997E+02  0.45594000000E+02  0.51100000000E-03 0. -1.
    9900012    2    1    2    0    0  0.38928743101E+01  0.66929463071E+01 -0.17050795509E+02  0.72461558049E+02  0.69999984048E+02 0.  0.
        -12    1    1    2    0    0 -0.38928743101E+01 -0.66929463071E+01  0.17050795509E+02  0.18726441951E+02  0.00000000000E+00 0.  1.
         11    1    3    3    0    0  0.21909087514E+02  0.17873660058E+01 -0.22869535097E+02  0.31720946215E+02  0.51100000000E-03 0. -1.
        -11    1    3    3    0    0 -0.13852185748E+02 -0.11659634979E+02 -0.69716677188E+01  0.19401914568E+02  0.51100000000E-03 0.  1.
        -12    1    3    3    0    0 -0.41640274565E+01  0.16565215281E+02  0.12790407307E+02  0.21338697266E+02  0.00000000000E+00 0.  1.
</event>
<event>
 7    1  0.3435518E-013  0.7246145E+02  0.7816164E-02  0.1226708E+00
        -11   -1    0    0    0    0  0.00000000000E+00  0.00000000000E+00  0.45593999997E+02  0.45594000000E+02  0.51100000000E-03 0. -1.
         11   -1    0    0    0    0 -0.00000000000E+00 -0.00000000000E+00 -0.45593999997E+02  0.45594000000E+02  0.51100000000E-03 0.  1.
    9900012    2    1    2    0    0  0.12073847073E+02 -0.65821460593E+01  0.12711456540E+02  0.72461453141E+02  0.69999847386E+02 0.  0.
        -12    1    1    2    0    0 -0.12073847073E+02  0.65821460593E+01 -0.12711456540E+02  0.18726546859E+02  0.00000000000E+00 0.  1.
         11    1    3    3    0    0 -0.21844374678E+00 -0.24890952762E+01  0.53749027826E+01  0.59273006629E+01  0.51100000000E-03 0. -1.
        -11    1    3    3    0    0  0.38077207550E+02 -0.87900026335E+01 -0.81322685597E+00  0.39087072278E+02  0.51100000000E-03 0.  1.
         12    1    3    3    0    0 -0.25784916730E+02  0.46969518504E+01  0.81497806132E+01  0.27447080200E+02  0.00000000000E+00 0. -1.
</event>
<event>
 7    1  0.3435518E-013  0.7246159E+02  0.7816164E-02  0.1226708E+00
        -11   -1    0    0    0    0  0.00000000000E+00  0.00000000000E+00  0.45593999997E+02  0.45594000000E+02  0.51100000000E-03 0.  1.
         11   -1    0    0    0    0 -0.00000000000E+00 -0.00000000000E+00 -0.45593999997E+02  0.45594000000E+02  0.51100000000E-03 0. -1.
    9900012    2    1    2    0    0  0.11916899320E+02 -0.13981434259E+02 -0.36311867404E+01  0.72461587891E+02  0.70000022923E+02 0.  0.
        -12    1    1    2    0    0 -0.11916899320E+02  0.13981434259E+02  0.36311867404E+01  0.18726412109E+02  0.00000000000E+00 0.  1.
         11    1    3    3    0    0  0.17398471086E+01  0.71309146187E+00 -0.25354102727E+02  0.25423730898E+02  0.51100000000E-03 0. -1.
        -11    1    3    3    0    0 -0.66600512944E+01  0.76069426167E+01  0.15343849911E+02  0.18375407194E+02  0.51100000000E-03 0.  1.
        -12    1    3    3    0    0  0.16837103506E+02 -0.22301468338E+02  0.63790660761E+01  0.28662449799E+02  0.00000000000E+00 0.  1.
</event>
<event>
 7    1  0.3435518E-013  0.7246157E+02  0.7816164E-02  0.1226708E+00
        -11   -1    0    0    0    0  0.00000000000E+00  0.00000000000E+00  0.45593999997E+02  0.45594000000E+02  0.51100000000E-03 0.  1.
         11   -1    0    0    0    0 -0.00000000000E+00 -0.00000000000E+00 -0.45593999997E+02  0.45594000000E+02  0.51100000000E-03 0. -1.
    9900012    2    1    2    0    0  0.61121330066E+01 -0.17607706797E+02 -0.18137749265E+01  0.72461567131E+02  0.69999995879E+02 0.  0.
        -12    1    1    2    0    0 -0.61121330066E+01  0.17607706797E+02  0.18137749265E+01  0.18726432869E+02  0.00000000000E+00 0.  1.
         11    1    3    3    0    0  0.25385717633E+01  0.21600091842E+02 -0.14642060292E+02  0.26218280723E+02  0.51100000000E-03 0. -1.
        -11    1    3    3    0    0 -0.30339029057E+01 -0.86870616928E+01  0.11846204051E+02  0.15000071946E+02  0.51100000000E-03 0.  1.
        -12    1    3    3    0    0  0.66074641489E+01 -0.30520736946E+02  0.98208131443E+00  0.31243214462E+02  0.00000000000E+00 0.  1.
</event>
<event>
 7    1  0.3435518E-013  0.7246158E+02  0.7816164E-02  0.1226708E+00
        -11   -1    0    0    0    0  0.00000000000E+00  0.00000000000E+00  0.45593999997E+02  0.45594000000E+02  0.51100000000E-03 0.  1.
         11   -1    0    0    0    0 -0.00000000000E+00 -0.00000000000E+00 -0.45593999997E+02  0.45594000000E+02  0.51100000000E-03 0. -1.
    9900012    2    1    2    0    0  0.29329030343E+01 -0.28258289288E+01 -0.18278167401E+02  0.72461584623E+02  0.70000018666E+02 0.  0.
        -12    1    1    2    0    0 -0.29329030343E+01  0.28258289288E+01  0.18278167401E+02  0.18726415377E+02  0.00000000000E+00 0.  1.
         11    1    3    3    0    0 -0.12682762090E+02 -0.23994535800E+02 -0.20702456292E+02  0.34134760865E+02  0.51100000000E-03 0. -1.
        -11    1    3    3    0    0  0.12642561835E+02 -0.10401070822E+01 -0.64446810166E+01  0.14228496272E+02  0.51100000000E-03 0.  1.
        -12    1    3    3    0    0  0.29731032896E+01  0.22208813954E+02  0.88689699081E+01  0.24098327486E+02  0.00000000000E+00 0.  1.
</event>
<event>
 7    1  0.3435518E-013  0.7246155E+02  0.7816164E-02  0.1226708E+00
        -11   -1    0    0    0    0  0.00000000000E+00  0.00000000000E+00  0.45593999997E+02  0.45594000000E+02  0.51100000000E-03 0.  1.
         11   -1    0    0    0    0 -0.00000000000E+00 -0.00000000000E+00 -0.45593999997E+02  0.45594000000E+02  0.51100000000E-03 0. -1.
    9900012    2    1    2    0    0 -0.17663030399E+02 -0.50872584855E+01 -0.35800728641E+01  0.72461554436E+02  0.69999979341E+02 0.  0.
        -12    1    1    2    0    0  0.17663030399E+02  0.50872584855E+01  0.35800728641E+01  0.18726445564E+02  0.00000000000E+00 0.  1.
         11    1    3    3    0    0 -0.23058868381E+02  0.11302050014E+02 -0.22399998973E+02  0.34076497763E+02  0.51100000000E-03 0. -1.
        -11    1    3    3    0    0 -0.95059760997E+01 -0.98049088671E+01  0.21894075777E+00  0.13658248600E+02  0.51100000000E-03 0.  1.
         12    1    3    3    0    0  0.14901814082E+02 -0.65843996325E+01  0.18600985351E+02  0.24726808073E+02  0.00000000000E+00 0. -1.
</event>
<event>
 7    1  0.3435518E-013  0.7246156E+02  0.7816164E-02  0.1226708E+00
        -11   -1    0    0    0    0  0.00000000000E+00  0.00000000000E+00  0.45593999997E+02  0.45594000000E+02  0.51100000000E-03 0. -1.
         11   -1    0    0    0    0 -0.00000000000E+00 -0.00000000000E+00 -0.45593999997E+02  0.45594000000E+02  0.51100000000E-03 0.  1.
    9900012    2    1    2    0    0  0.10507080750E+02 -0.42025522570E+01 -0.14920431202E+02  0.72461562576E+02  0.69999989945E+02 0.  0.
        -12    1    1    2    0    0 -0.10507080750E+02  0.42025522570E+01  0.14920431202E+02  0.18726437424E+02  0.00000000000E+00 0.  1.
         11    1    3    3    0    0  0.11990881373E+02 -0.28949212134E+01  0.16948412537E+02  0.20962120425E+02  0.51100000000E-03 0. -1.
        -11    1    3    3    0    0  0.10108278857E+02 -0.28686264591E+01 -0.37192455590E+02  0.38648222111E+02  0.51100000000E-03 0.  1.
         12    1    3    3    0    0 -0.11592079480E+02  0.15609954156E+01  0.53236118511E+01  0.12851220040E+02  0.00000000000E+00 0. -1.
</event>
<event>
 7    1  0.3435518E-013  0.7246155E+02  0.7816164E-02  0.1226708E+00
        -11   -1    0    0    0    0  0.00000000000E+00  0.00000000000E+00  0.45593999997E+02  0.45594000000E+02  0.51100000000E-03 0. -1.
         11   -1    0    0    0    0 -0.00000000000E+00 -0.00000000000E+00 -0.45593999997E+02  0.45594000000E+02  0.51100000000E-03 0.  1.
    9900012    2    1    2    0    0  0.89726664100E+01 -0.94971830276E+01  0.13415464135E+02  0.72461550632E+02  0.69999974387E+02 0.  0.
        -12    1    1    2    0    0 -0.89726664100E+01  0.94971830276E+01 -0.13415464135E+02  0.18726449368E+02  0.00000000000E+00 0.  1.
         11    1    3    3    0    0 -0.10840952472E+01 -0.84524779055E+01 -0.83955887200E+01  0.11962673425E+02  0.51100000000E-03 0. -1.
        -11    1    3    3    0    0  0.20224353354E+02 -0.16120230240E+02 -0.66690295431E+01  0.26708842110E+02  0.51100000000E-03 0.  1.
         12    1    3    3    0    0 -0.10167591696E+02  0.15075525118E+02  0.28480082398E+02  0.33790035097E+02  0.00000000000E+00 0. -1.
</event>
<event>
 7    1  0.3435518E-013  0.7246162E+02  0.7816164E-02  0.1226708E+00
        -11   -1    0    0    0    0  0.00000000000E+00  0.00000000000E+00  0.45593999997E+02  0.45594000000E+02  0.51100000000E-03 0.  1.
         11   -1    0    0    0    0 -0.00000000000E+00 -0.00000000000E+00 -0.45593999997E+02  0.45594000000E+02  0.51100000000E-03 0. -1.
    9900012    2    1    2    0    0  0.71905004178E+01 -0.16105318822E+02 -0.62922885400E+01  0.72461615253E+02  0.70000058567E+02 0.  0.
        -12    1    1    2    0    0 -0.71905004178E+01  0.16105318822E+02  0.62922885400E+01  0.18726384747E+02  0.00000000000E+00 0.  1.
         11    1    3    3    0    0 -0.94799548746E+01  0.16633644474E+02 -0.19330050506E+01  0.19242769596E+02  0.51100000000E-03 0. -1.
        -11    1    3    3    0    0  0.19587242794E+02  0.45847157234E+00 -0.33593713343E+01  0.19878522392E+02  0.51100000000E-03 0.  1.
        -12    1    3    3    0    0 -0.29167875015E+01 -0.33197434868E+02 -0.99991215511E+00  0.33340323266E+02  0.00000000000E+00 0.  1.
</event>
<event>
 7    1  0.3435518E-013  0.7246162E+02  0.7816164E-02  0.1226708E+00
        -11   -1    0    0    0    0  0.00000000000E+00  0.00000000000E+00  0.45593999997E+02  0.45594000000E+02  0.51100000000E-03 0. -1.
         11   -1    0    0    0    0 -0.00000000000E+00 -0.00000000000E+00 -0.45593999997E+02  0.45594000000E+02  0.51100000000E-03 0.  1.
    9900012    2    1    2    0    0  0.13178682427E+02 -0.29254586280E+01  0.12978501675E+02  0.72461615287E+02  0.70000058611E+02 0.  0.
        -12    1    1    2    0    0 -0.13178682427E+02  0.29254586280E+01 -0.12978501675E+02  0.18726384713E+02  0.00000000000E+00 0.  1.
         11    1    3    3    0    0 -0.90738075921E+01  0.15050548486E+02  0.20201832458E+02  0.26776240007E+02  0.51100000000E-03 0. -1.
        -11    1    3    3    0    0  0.18709593469E+02  0.11034095981E+01 -0.15757597731E+02  0.24486083538E+02  0.51100000000E-03 0.  1.
        -12    1    3    3    0    0  0.35428965503E+01 -0.19079416712E+02  0.85342669478E+01  0.21199291742E+02  0.00000000000E+00 0.  1.
</event>
<event>
 7    1  0.3435518E-013  0.7246147E+02  0.7816164E-02  0.1226708E+00
        -11   -1    0    0    0    0  0.00000000000E+00  0.00000000000E+00  0.45593999997E+02  0.45594000000E+02  0.51100000000E-03 0. -1.
         11   -1    0    0    0    0 -0.00000000000E+00 -0.00000000000E+00 -0.45593999997E+02  0.45594000000E+02  0.51100000000E-03 0.  1.
    9900012    2    1    2    0    0 -0.42099056616E+01  0.35213235510E+01  0.17904187517E+02  0.72461469199E+02  0.69999868304E+02 0.  0.
        -12    1    1    2    0    0  0.42099056616E+01 -0.35213235510E+01 -0.17904187517E+02  0.18726530801E+02  0.00000000000E+00 0.  1.
         11    1    3    3    0    0  0.47654732089E+01  0.61743858772E+01  0.12944118657E+02  0.15112345414E+02  0.51100000000E-03 0.  1.
        -11    1    3    3    0    0  0.15374078785E+02  0.16667422640E+02  0.11741116099E+02  0.25534664350E+02  0.51100000000E-03 0. -1.
        -12    1    3    3    0    0 -0.24349457655E+02 -0.19320484967E+02 -0.67810472391E+01  0.31814459434E+02  0.00000000000E+00 0.  1.
</event>
<event>
 7    1  0.3435518E-013  0.7246158E+02  0.7816164E-02  0.1226708E+00
        -11   -1    0    0    0    0  0.00000000000E+00  0.00000000000E+00  0.45593999997E+02  0.45594000000E+02  0.51100000000E-03 0. -1.
         11   -1    0    0    0    0 -0.00000000000E+00 -0.00000000000E+00 -0.45593999997E+02  0.45594000000E+02  0.51100000000E-03 0.  1.
    9900012    2    1    2    0    0  0.17398715479E+02  0.42337170958E+01 -0.54807825198E+01  0.72461584492E+02  0.70000018495E+02 0.  0.
        -12    1    1    2    0    0 -0.17398715479E+02 -0.42337170958E+01  0.54807825198E+01  0.18726415508E+02  0.00000000000E+00 0.  1.
         11    1    3    3    0    0  0.18296325312E+02  0.18383557570E+02  0.14300925368E+02  0.29618021127E+02  0.51100000000E-03 0. -1.
        -11    1    3    3    0    0 -0.32829541874E+01  0.37696140440E+01  0.81567531744E+01  0.95666295448E+01  0.51100000000E-03 0.  1.
        -12    1    3    3    0    0  0.23853443545E+01 -0.17919454519E+02 -0.27938461062E+02  0.33276933820E+02  0.00000000000E+00 0.  1.
</event>
<event>
 7    1  0.3435518E-013  0.7246157E+02  0.7816164E-02  0.1226708E+00
        -11   -1    0    0    0    0  0.00000000000E+00  0.00000000000E+00  0.45593999997E+02  0.45594000000E+02  0.51100000000E-03 0.  1.
         11   -1    0    0    0    0 -0.00000000000E+00 -0.00000000000E+00 -0.45593999997E+02  0.45594000000E+02  0.51100000000E-03 0. -1.
    9900012    2    1    2    0    0 -0.36307544146E+01 -0.18358122450E+02 -0.69010869156E+00  0.72461567144E+02  0.69999995896E+02 0.  0.
        -12    1    1    2    0    0  0.36307544146E+01  0.18358122450E+02  0.69010869156E+00  0.18726432856E+02  0.00000000000E+00 0.  1.
         11    1    3    3    0    0  0.12760108033E+02  0.77022319463E+01  0.11288925232E+02  0.18697180727E+02  0.51100000000E-03 0.  1.
        -11    1    3    3    0    0  0.72241127625E+01  0.76243305894E+01 -0.62696606023E+01  0.12232206116E+02  0.51100000000E-03 0. -1.
         12    1    3    3    0    0 -0.23614975211E+02 -0.33684684986E+02 -0.57093733210E+01  0.41532180301E+02  0.00000000000E+00 0. -1.
</event>
<event>
 7    1  0.3435518E-013  0.7246156E+02  0.7816164E-02  0.1226708E+00
        -11   -1    0    0    0    0  0.00000000000E+00  0.00000000000E+00  0.45593999997E+02  0.45594000000E+02  0.51100000000E-03 0. -1.
         11   -1    0    0    0    0 -0.00000000000E+00 -0.00000000000E+00 -0.45593999997E+02  0.45594000000E+02  0.51100000000E-03 0.  1.
    9900012    2    1    2    0    0 -0.75397433679E+00  0.92308387520E+01  0.16275837042E+02  0.72461555255E+02  0.69999980409E+02 0.  0.
        -12    1    1    2    0    0  0.75397433679E+00 -0.92308387520E+01 -0.16275837042E+02  0.18726444745E+02  0.00000000000E+00 0.  1.
         11    1    3    3    0    0  0.25275472285E+00 -0.11081215353E+01 -0.42871161103E+01  0.44352207488E+01  0.51100000000E-03 0. -1.
        -11    1    3    3    0    0  0.10798780459E+02 -0.69703081683E+01 -0.19186101465E+02  0.23093404796E+02  0.51100000000E-03 0.  1.
         12    1    3    3    0    0 -0.11805509519E+02  0.17309268456E+02  0.39749054617E+02  0.44932929711E+02  0.00000000000E+00 0. -1.
</event>
<event>
 7    1  0.3435518E-013  0.7246156E+02  0.7816164E-02  0.1226708E+00
        -11   -1    0    0    0    0  0.00000000000E+00  0.00000000000E+00  0.45593999997E+02  0.45594000000E+02  0.51100000000E-03 0.  1.
         11   -1    0    0    0    0 -0.00000000000E+00 -0.00000000000E+00 -0.45593999997E+02  0.45594000000E+02  0.51100000000E-03 0. -1.
    9900012    2    1    2    0    0  0.14254259681E+02 -0.82058974477E+01  0.89531560641E+01  0.72461556785E+02  0.69999982401E+02 0.  0.
        -12    1    1    2    0    0 -0.14254259681E+02  0.82058974477E+01 -0.89531560641E+01  0.18726443215E+02  0.00000000000E+00 0.  1.
         11    1    3    3    0    0 -0.32049441748E+01  0.10606090459E+02  0.81370086444E+01  0.13746698946E+02  0.51100000000E-03 0. -1.
        -11    1    3    3    0    0 -0.18179888806E+02 -0.71893030402E+01  0.69126287940E+01  0.20735931913E+02  0.51100000000E-03 0.  1.
        -12    1    3    3    0    0  0.35639092662E+02 -0.11622684866E+02 -0.60964813744E+01  0.37978925925E+02  0.00000000000E+00 0.  1.
</event>
<event>
 7    1  0.3435518E-013  0.7246160E+02  0.7816164E-02  0.1226708E+00
        -11   -1    0    0    0    0  0.00000000000E+00  0.00000000000E+00  0.45593999997E+02  0.45594000000E+02  0.51100000000E-03 0. -1.
         11   -1    0    0    0    0 -0.00000000000E+00 -0.00000000000E+00 -0.45593999997E+02  0.45594000000E+02  0.51100000000E-03 0.  1.
    9900012    2    1    2    0    0  0.21201229553E+01 -0.12609972942E+02 -0.13681066299E+02  0.72461603817E+02  0.70000043669E+02 0.  0.
        -12    1    1    2    0    0 -0.21201229553E+01  0.12609972942E+02  0.13681066299E+02  0.18726396183E+02  0.00000000000E+00 0.  1.
         11    1    3    3    0    0  0.19358723343E+02 -0.13016373739E+02 -0.27581559649E+02  0.36123795312E+02  0.51100000000E-03 0. -1.
        -11    1    3    3    0    0 -0.90156255782E+01 -0.68042093598E+01 -0.66147620039E+01  0.13089455535E+02  0.51100000000E-03 0.  1.
         12    1    3    3    0    0 -0.82229748095E+01  0.72106101574E+01  0.20515255354E+02  0.23248352970E+02  0.00000000000E+00 0. -1.
</event>
<event>
 7    1  0.3435518E-013  0.7246158E+02  0.7816164E-02  0.1226708E+00
        -11   -1    0    0    0    0  0.00000000000E+00  0.00000000000E+00  0.45593999997E+02  0.45594000000E+02  0.51100000000E-03 0.  1.
         11   -1    0    0    0    0 -0.00000000000E+00 -0.00000000000E+00 -0.45593999997E+02  0.45594000000E+02  0.51100000000E-03 0. -1.
    9900012    2    1    2    0    0 -0.11344225383E+02  0.73725181608E+01 -0.12947324543E+02  0.72461583194E+02  0.70000016804E+02 0.  0.
        -12    1    1    2    0    0  0.11344225383E+02 -0.73725181608E+01  0.12947324543E+02  0.18726416806E+02  0.00000000000E+00 0.  1.
         11    1    3    3    0    0 -0.18984559771E-01  0.20326450287E+02 -0.25521316434E+02  0.32626715043E+02  0.51100000000E-03 0. -1.
        -11    1    3    3    0    0 -0.88809225641E+01  0.19700935747E+01 -0.94510822397E+01  0.13117736468E+02  0.51100000000E-03 0.  1.
        -12    1    3    3    0    0 -0.24443182592E+01 -0.14924025701E+02  0.22025074131E+02  0.26717131683E+02  0.00000000000E+00 0.  1.
</event>
<event>
 7    1  0.3435518E-013  0.7246148E+02  0.7816164E-02  0.1226708E+00
        -11   -1    0    0    0    0  0.00000000000E+00  0.00000000000E+00  0.45593999997E+02  0.45594000000E+02  0.51100000000E-03 0.  1.
         11   -1    0    0    0    0 -0.00000000000E+00 -0.00000000000E+00 -0.45593999997E+02  0.45594000000E+02  0.51100000000E-03 0. -1.
    9900012    2    1    2    0    0 -0.95330012436E+01 -0.13658192977E+02 -0.85590901388E+01  0.72461484785E+02  0.69999888608E+02 0.  0.
        -12    1    1    2    0    0  0.95330012436E+01  0.13658192977E+02  0.85590901388E+01  0.18726515215E+02  0.00000000000E+00 0.  1.
         11    1    3    3    0    0 -0.27444989413E+02  0.12629545955E+02 -0.18139153728E+02  0.35238640342E+02  0.51100000000E-03 0. -1.
        -11    1    3    3    0    0  0.43346600873E+01  0.17655250940E+01  0.23721690274E+00  0.46864303099E+01  0.51100000000E-03 0.  1.
        -12    1    3    3    0    0  0.13577328082E+02 -0.28053264026E+02  0.93428466867E+01  0.32536414132E+02  0.00000000000E+00 0.  1.
</event>
<event>
 7    1  0.3435518E-013  0.7246157E+02  0.7816164E-02  0.1226708E+00
        -11   -1    0    0    0    0  0.00000000000E+00  0.00000000000E+00  0.45593999997E+02  0.45594000000E+02  0.51100000000E-03 0.  1.
         11   -1    0    0    0    0 -0.00000000000E+00 -0.00000000000E+00 -0.45593999997E+02  0.45594000000E+02  0.51100000000E-03 0. -1.
    9900012    2    1    2    0    0  0.32470608612E+01  0.17245325878E+02 -0.65371579105E+01  0.72461572086E+02  0.70000002334E+02 0.  0.
        -12    1    1    2    0    0 -0.32470608612E+01 -0.17245325878E+02  0.65371579105E+01  0.18726427914E+02  0.00000000000E+00 0.  1.
         11    1    3    3    0    0  0.35521394473E+01  0.18216942020E+01  0.18023911076E+01  0.43800546098E+01  0.51100000000E-03 0. -1.
        -11    1    3    3    0    0 -0.95967088988E+00  0.41039293512E+01  0.28873454732E+02  0.29179437841E+02  0.51100000000E-03 0.  1.
         12    1    3    3    0    0  0.65459230379E+00  0.11319702325E+02 -0.37213003750E+02  0.38902079635E+02  0.00000000000E+00 0. -1.
</event>
<event>
 7    1  0.3435518E-013  0.7246168E+02  0.7816164E-02  0.1226708E+00
        -11   -1    0    0    0    0  0.00000000000E+00  0.00000000000E+00  0.45593999997E+02  0.45594000000E+02  0.51100000000E-03 0.  1.
         11   -1    0    0    0    0 -0.00000000000E+00 -0.00000000000E+00 -0.45593999997E+02  0.45594000000E+02  0.51100000000E-03 0. -1.
    9900012    2    1    2    0    0  0.13639631067E+02 -0.43813618390E+01 -0.12059820000E+02  0.72461678267E+02  0.70000140655E+02 0.  0.
        -12    1    1    2    0    0 -0.13639631067E+02  0.43813618390E+01  0.12059820000E+02  0.18726321733E+02  0.00000000000E+00 0.  1.
         11    1    3    3    0    0  0.13314350439E+02  0.60748827354E+01 -0.90153665506E+01  0.17188745218E+02  0.51100000000E-03 0. -1.
        -11    1    3    3    0    0  0.16082382455E+02 -0.22005579809E+02  0.12806701208E+02  0.30114783151E+02  0.51100000000E-03 0.  1.
        -12    1    3    3    0    0 -0.15757101827E+02  0.11549335234E+02 -0.15851154658E+02  0.25158149898E+02  0.00000000000E+00 0.  1.
</event>
<event>
 7    1  0.3435518E-013  0.7246159E+02  0.7816164E-02  0.1226708E+00
        -11   -1    0    0    0    0  0.00000000000E+00  0.00000000000E+00  0.45593999997E+02  0.45594000000E+02  0.51100000000E-03 0.  1.
         11   -1    0    0    0    0 -0.00000000000E+00 -0.00000000000E+00 -0.45593999997E+02  0.45594000000E+02  0.51100000000E-03 0. -1.
    9900012    2    1    2    0    0 -0.15850097449E+02  0.23291147399E+01 -0.96967977675E+01  0.72461594804E+02  0.70000031929E+02 0.  0.
        -12    1    1    2    0    0  0.15850097449E+02 -0.23291147399E+01  0.96967977675E+01  0.18726405196E+02  0.00000000000E+00 0.  1.
         11    1    3    3    0    0  0.24736294260E+01 -0.15560630193E+02 -0.14793946738E+02  0.21612795166E+02  0.51100000000E-03 0. -1.
        -11    1    3    3    0    0  0.57154654716E+01 -0.73851717959E+01  0.12086800771E+02  0.15274097720E+02  0.51100000000E-03 0.  1.
        -12    1    3    3    0    0 -0.24039192347E+02  0.25274916728E+02 -0.69896518005E+01  0.35574701919E+02  0.00000000000E+00 0.  1.
</event>
<event>
 7    1  0.3435518E-013  0.7246159E+02  0.7816164E-02  0.1226708E+00
        -11   -1    0    0    0    0  0.00000000000E+00  0.00000000000E+00  0.45593999997E+02  0.45594000000E+02  0.51100000000E-03 0.  1.
         11   -1    0    0    0    0 -0.00000000000E+00 -0.00000000000E+00 -0.45593999997E+02  0.45594000000E+02  0.51100000000E-03 0. -1.
    9900012    2    1    2    0    0 -0.59570417276E+01  0.17565917367E+02 -0.25750102833E+01  0.72461588784E+02  0.70000024086E+02 0.  0.
        -12    1    1    2    0    0  0.59570417276E+01 -0.17565917367E+02  0.25750102833E+01  0.18726411216E+02  0.00000000000E+00 0.  1.
         11    1    3    3    0    0  0.11667137036E+02  0.14243639574E+02  0.48985797150E+01  0.19052544145E+02  0.51100000000E-03 0. -1.
        -11    1    3    3    0    0 -0.12282598147E+02  0.25897812619E+02 -0.93117337747E+01  0.30137473382E+02  0.51100000000E-03 0.  1.
        -12    1    3    3    0    0 -0.53415806163E+01 -0.22575534826E+02  0.18381437765E+01  0.23271571256E+02  0.00000000000E+00 0.  1.
</event>
<event>
 7    1  0.3435518E-013  0.7246158E+02  0.7816164E-02  0.1226708E+00
        -11   -1    0    0    0    0  0.00000000000E+00  0.00000000000E+00  0.45593999997E+02  0.45594000000E+02  0.51100000000E-03 0. -1.
         11   -1    0    0    0    0 -0.00000000000E+00 -0.00000000000E+00 -0.45593999997E+02  0.45594000000E+02  0.51100000000E-03 0.  1.
    9900012    2    1    2    0    0  0.14473544275E+02 -0.94325095377E+01 -0.72265601408E+01  0.72461577717E+02  0.70000009669E+02 0.  0.
        -12    1    1    2    0    0 -0.14473544275E+02  0.94325095377E+01  0.72265601408E+01  0.18726422283E+02  0.00000000000E+00 0.  1.
         11    1    3    3    0    0  0.72682483507E+01  0.23794176691E+01  0.21783249206E+02  0.23086771293E+02  0.51100000000E-03 0. -1.
        -11    1    3    3    0    0 -0.42461034218E+01 -0.14551177937E+02  0.28368312825E+01  0.15421212197E+02  0.51100000000E-03 0.  1.
        -12    1    3    3    0    0  0.11451399347E+02  0.27392507304E+01 -0.31846640629E+02  0.33953594227E+02  0.00000000000E+00 0.  1.
</event>
<event>
 7    1  0.3435518E-013  0.7246153E+02  0.7816164E-02  0.1226708E+00
        -11   -1    0    0    0    0  0.00000000000E+00  0.00000000000E+00  0.45593999997E+02  0.45594000000E+02  0.51100000000E-03 0.  1.
         11   -1    0    0    0    0 -0.00000000000E+00 -0.00000000000E+00 -0.45593999997E+02  0.45594000000E+02  0.51100000000E-03 0. -1.
    9900012    2    1    2    0    0 -0.48267787919E+01 -0.12061348024E+02 -0.13487279537E+02  0.72461531594E+02  0.69999949585E+02 0.  0.
        -12    1    1    2    0    0  0.48267787919E+01  0.12061348024E+02  0.13487279537E+02  0.18726468406E+02  0.00000000000E+00 0.  1.
         11    1    3    3    0    0 -0.27014118693E+02 -0.24804110205E+01 -0.11571330435E+02  0.29492553906E+02  0.51100000000E-03 0. -1.
        -11    1    3    3    0    0 -0.56383633486E+01 -0.13617653793E+02  0.50941595919E+00  0.14747580851E+02  0.51100000000E-03 0.  1.
        -12    1    3    3    0    0  0.27825703249E+02  0.40367167899E+01 -0.24253650616E+01  0.28221396837E+02  0.00000000000E+00 0.  1.
</event>
<event>
 7    1  0.3435518E-013  0.7246157E+02  0.7816164E-02  0.1226708E+00
        -11   -1    0    0    0    0  0.00000000000E+00  0.00000000000E+00  0.45593999997E+02  0.45594000000E+02  0.51100000000E-03 0.  1.
         11   -1    0    0    0    0 -0.00000000000E+00 -0.00000000000E+00 -0.45593999997E+02  0.45594000000E+02  0.51100000000E-03 0. -1.
    9900012    2    1    2    0    0  0.14480481307E+02 -0.89442068832E+01 -0.78100039145E+01  0.72461565828E+02  0.69999994182E+02 0.  0.
        -12    1    1    2    0    0 -0.14480481307E+02  0.89442068832E+01  0.78100039145E+01  0.18726434172E+02  0.00000000000E+00 0.  1.
         11    1    3    3    0    0 -0.97722567541E+01  0.77444828460E+01 -0.21702349572E+02  0.25029302703E+02  0.51100000000E-03 0. -1.
        -11    1    3    3    0    0  0.14446483541E+02 -0.15437960919E+02 -0.86294603472E+01  0.22836355011E+02  0.51100000000E-03 0.  1.
        -12    1    3    3    0    0  0.98062545199E+01 -0.12507288103E+01  0.22521806004E+02  0.24595908114E+02  0.00000000000E+00 0.  1.
</event>
<event>
 7    1  0.3435518E-013  0.7246153E+02  0.7816164E-02  0.1226708E+00
        -11   -1    0    0    0    0  0.00000000000E+00  0.00000000000E+00  0.45593999997E+02  0.45594000000E+02  0.51100000000E-03 0. -1.
         11   -1    0    0    0    0 -0.00000000000E+00 -0.00000000000E+00 -0.45593999997E+02  0.45594000000E+02  0.51100000000E-03 0.  1.
    9900012    2    1    2    0    0  0.11908148367E+02  0.90380452649E+01  0.11277879364E+02  0.72461526154E+02  0.69999942500E+02 0.  0.
        -12    1    1    2    0    0 -0.11908148367E+02 -0.90380452649E+01 -0.11277879364E+02  0.18726473846E+02  0.00000000000E+00 0.  1.
         11    1    3    3    0    0 -0.21773867437E+02 -0.50001478405E+01  0.42969725049E+01  0.22750093507E+02  0.51100000000E-03 0. -1.
        -11    1    3    3    0    0 -0.37562628521E+01 -0.47205472294E+01 -0.28893685873E+01  0.66889108122E+01  0.51100000000E-03 0.  1.
        -12    1    3    3    0    0  0.37438278656E+02  0.18758740335E+02  0.98702754461E+01  0.43022521836E+02  0.00000000000E+00 0.  1.
</event>
<event>
 7    1  0.3435518E-013  0.7246133E+02  0.7816164E-02  0.1226709E+00
        -11   -1    0    0    0    0  0.00000000000E+00  0.00000000000E+00  0.45593999997E+02  0.45594000000E+02  0.51100000000E-03 0. -1.
         11   -1    0    0    0    0 -0.00000000000E+00 -0.00000000000E+00 -0.45593999997E+02  0.45594000000E+02  0.51100000000E-03 0.  1.
    9900012    2    1    2    0    0 -0.17925937594E+02 -0.51902772972E+01  0.15523422164E+01  0.72461334964E+02  0.69999693437E+02 0.  0.
        -12    1    1    2    0    0  0.17925937594E+02  0.51902772972E+01 -0.15523422164E+01  0.18726665036E+02  0.00000000000E+00 0.  1.
         11    1    3    3    0    0 -0.79186483201E+01  0.42579519480E+01  0.47409729941E+01  0.10164249662E+02  0.51100000000E-03 0. -1.
        -11    1    3    3    0    0 -0.27095446094E+02 -0.25752170318E+02  0.40367416149E+01  0.37598307917E+02  0.51100000000E-03 0.  1.
        -12    1    3    3    0    0  0.17088156820E+02  0.16303941073E+02 -0.72253723926E+01  0.24698777384E+02  0.00000000000E+00 0.  1.
</event>
<event>
 7    1  0.3435518E-013  0.7246158E+02  0.7816164E-02  0.1226708E+00
        -11   -1    0    0    0    0  0.00000000000E+00  0.00000000000E+00  0.45593999997E+02  0.45594000000E+02  0.51100000000E-03 0.  1.
         11   -1    0    0    0    0 -0.00000000000E+00 -0.00000000000E+00 -0.45593999997E+02  0.45594000000E+02  0.51100000000E-03 0. -1.
    9900012    2    1    2    0    0 -0.10766061775E+02 -0.10730153171E+02 -0.10937761092E+02  0.72461577733E+02  0.70000009690E+02 0.  0.
        -12    1    1    2    0    0  0.10766061775E+02  0.10730153171E+02  0.10937761092E+02  0.18726422267E+02  0.00000000000E+00 0.  1.
         11    1    3    3    0    0  0.46870451477E+01 -0.91255983274E+01  0.37968788012E+01  0.10938977372E+02  0.51100000000E-03 0. -1.
        -11    1    3    3    0    0  0.19748851880E+02 -0.79826048640E+01  0.31387447492E+01  0.21531159974E+02  0.51100000000E-03 0.  1.
        -12    1    3    3    0    0 -0.35201958803E+02  0.63780500200E+01 -0.17873384642E+02  0.39991440386E+02  0.00000000000E+00 0.  1.
</event>
<event>
 7    1  0.3435518E-013  0.7246157E+02  0.7816164E-02  0.1226708E+00
        -11   -1    0    0    0    0  0.00000000000E+00  0.00000000000E+00  0.45593999997E+02  0.45594000000E+02  0.51100000000E-03 0. -1.
         11   -1    0    0    0    0 -0.00000000000E+00 -0.00000000000E+00 -0.45593999997E+02  0.45594000000E+02  0.51100000000E-03 0.  1.
    9900012    2    1    2    0    0  0.28731449896E+00 -0.93228945340E+01  0.16238236737E+02  0.72461568294E+02  0.69999997395E+02 0.  0.
        -12    1    1    2    0    0 -0.28731449896E+00  0.93228945340E+01 -0.16238236737E+02  0.18726431706E+02  0.00000000000E+00 0.  1.
         11    1    3    3    0    0 -0.32431475302E+02  0.77318413867E+00  0.10454906107E+02  0.34083771298E+02  0.51100000000E-03 0. -1.
        -11    1    3    3    0    0 -0.54184041627E-01 -0.46530318503E+00  0.41538821907E+01  0.41802129706E+01  0.51100000000E-03 0.  1.
        -12    1    3    3    0    0  0.32772973842E+02 -0.96307754876E+01  0.16294484394E+01  0.34197584025E+02  0.00000000000E+00 0.  1.
</event>
<event>
 7    1  0.3435518E-013  0.7246154E+02  0.7816164E-02  0.1226708E+00
        -11   -1    0    0    0    0  0.00000000000E+00  0.00000000000E+00  0.45593999997E+02  0.45594000000E+02  0.51100000000E-03 0.  1.
         11   -1    0    0    0    0 -0.00000000000E+00 -0.00000000000E+00 -0.45593999997E+02  0.45594000000E+02  0.51100000000E-03 0. -1.
    9900012    2    1    2    0    0  0.10838858363E+02  0.13637050369E+02  0.68724260243E+01  0.72461541904E+02  0.69999963016E+02 0.  0.
        -12    1    1    2    0    0 -0.10838858363E+02 -0.13637050369E+02 -0.68724260243E+01  0.18726458096E+02  0.00000000000E+00 0.  1.
         11    1    3    3    0    0  0.26725795737E+01 -0.31353322020E+01 -0.12444520582E+02  0.13108740686E+02  0.51100000000E-03 0. -1.
        -11    1    3    3    0    0 -0.15463032774E+02  0.23923041539E+02  0.80707418141E+00  0.28496818560E+02  0.51100000000E-03 0.  1.
         12    1    3    3    0    0  0.23629311562E+02 -0.71506589685E+01  0.18509872425E+02  0.30855982658E+02  0.00000000000E+00 0. -1.
</event>
<event>
 7    1  0.3435518E-013  0.7246155E+02  0.7816164E-02  0.1226708E+00
        -11   -1    0    0    0    0  0.00000000000E+00  0.00000000000E+00  0.45593999997E+02  0.45594000000E+02  0.51100000000E-03 0.  1.
         11   -1    0    0    0    0 -0.00000000000E+00 -0.00000000000E+00 -0.45593999997E+02  0.45594000000E+02  0.51100000000E-03 0. -1.
    9900012    2    1    2    0    0  0.22452581037E+01  0.16392863805E+01 -0.18518947158E+02  0.72461552189E+02  0.69999976414E+02 0.  0.
        -12    1    1    2    0    0 -0.22452581037E+01 -0.16392863805E+01  0.18518947158E+02  0.18726447811E+02  0.00000000000E+00 0.  1.
         11    1    3    3    0    0 -0.21758711265E+01 -0.23217414665E+02 -0.24515633240E+01  0.23447663464E+02  0.51100000000E-03 0. -1.
        -11    1    3    3    0    0 -0.23171810320E+01 -0.54741481804E+01  0.78196967434E+01  0.98225904758E+01  0.51100000000E-03 0.  1.
        -12    1    3    3    0    0  0.67383102622E+01  0.30330849226E+02 -0.23887080577E+02  0.39191298250E+02  0.00000000000E+00 0.  1.
</event>
<event>
 7    1  0.3435518E-013  0.7246156E+02  0.7816164E-02  0.1226708E+00
        -11   -1    0    0    0    0  0.00000000000E+00  0.00000000000E+00  0.45593999997E+02  0.45594000000E+02  0.51100000000E-03 0.  1.
         11   -1    0    0    0    0 -0.00000000000E+00 -0.00000000000E+00 -0.45593999997E+02  0.45594000000E+02  0.51100000000E-03 0. -1.
    9900012    2    1    2    0    0  0.89415888748E+01 -0.16451940730E+02  0.24713678464E+00  0.72461563020E+02  0.69999990523E+02 0.  0.
        -12    1    1    2    0    0 -0.89415888748E+01  0.16451940730E+02 -0.24713678464E+00  0.18726436980E+02  0.00000000000E+00 0.  1.
         11    1    3    3    0    0  0.16536861526E+02  0.29192809822E+01  0.26129416602E+01  0.16994630180E+02  0.51100000000E-03 0. -1.
        -11    1    3    3    0    0 -0.37700509713E+01  0.93332673420E+01  0.17612328926E+02  0.20285889038E+02  0.51100000000E-03 0.  1.
         12    1    3    3    0    0 -0.38252216800E+01 -0.28704489054E+02 -0.19978133801E+02  0.35181043801E+02  0.00000000000E+00 0. -1.
</event>
<event>
 7    1  0.3435518E-013  0.7246147E+02  0.7816164E-02  0.1226708E+00
        -11   -1    0    0    0    0  0.00000000000E+00  0.00000000000E+00  0.45593999997E+02  0.45594000000E+02  0.51100000000E-03 0.  1.
         11   -1    0    0    0    0 -0.00000000000E+00 -0.00000000000E+00 -0.45593999997E+02  0.45594000000E+02  0.51100000000E-03 0. -1.
    9900012    2    1    2    0    0  0.11554073963E+02  0.92473072367E+01 -0.11474914830E+02  0.72461468377E+02  0.69999867233E+02 0.  0.
        -12    1    1    2    0    0 -0.11554073963E+02 -0.92473072367E+01  0.11474914830E+02  0.18726531623E+02  0.00000000000E+00 0.  1.
         11    1    3    3    0    0  0.66471599367E+01  0.79312808930E+01  0.26953955642E+02  0.28872230202E+02  0.51100000000E-03 0. -1.
        -11    1    3    3    0    0  0.88786847110E+01  0.37647168842E+01 -0.72549761784E+01  0.12068090778E+02  0.51100000000E-03 0.  1.
        -12    1    3    3    0    0 -0.39717706846E+01 -0.24486905405E+01 -0.31173894294E+02  0.31521147396E+02  0.00000000000E+00 0.  1.
</event>
<event>
 7    1  0.3435518E-013  0.7246157E+02  0.7816164E-02  0.1226708E+00
        -11   -1    0    0    0    0  0.00000000000E+00  0.00000000000E+00  0.45593999997E+02  0.45594000000E+02  0.51100000000E-03 0.  1.
         11   -1    0    0    0    0 -0.00000000000E+00 -0.00000000000E+00 -0.45593999997E+02  0.45594000000E+02  0.51100000000E-03 0. -1.
    9900012    2    1    2    0    0 -0.16113684105E+02 -0.95408598944E+01 -0.14408707428E-01  0.72461574005E+02  0.70000004833E+02 0.  0.
        -12    1    1    2    0    0  0.16113684105E+02  0.95408598944E+01  0.14408707428E-01  0.18726425995E+02  0.00000000000E+00 0.  1.
         11    1    3    3    0    0 -0.57440758418E+01  0.19383546004E+01 -0.50338180356E+01  0.78797810953E+01  0.51100000000E-03 0. -1.
        -11    1    3    3    0    0  0.16107951744E+02  0.18229036547E+02  0.47515190118E+01  0.24785899540E+02  0.51100000000E-03 0.  1.
         12    1    3    3    0    0 -0.26477560007E+02 -0.29708251042E+02  0.26789031645E+00  0.39795893370E+02  0.00000000000E+00 0. -1.
</event>
<event>
 7    1  0.3435518E-013  0.7246156E+02  0.7816164E-02  0.1226708E+00
        -11   -1    0    0    0    0  0.00000000000E+00  0.00000000000E+00  0.45593999997E+02  0.45594000000E+02  0.51100000000E-03 0. -1.
         11   -1    0    0    0    0 -0.00000000000E+00 -0.00000000000E+00 -0.45593999997E+02  0.45594000000E+02  0.51100000000E-03 0.  1.
    9900012    2    1    2    0    0  0.77698736548E+01 -0.13319504257E+02 -0.10625418039E+02  0.72461557766E+02  0.69999983679E+02 0.  0.
        -12    1    1    2    0    0 -0.77698736548E+01  0.13319504257E+02  0.10625418039E+02  0.18726442234E+02  0.00000000000E+00 0.  1.
         11    1    3    3    0    0  0.64933045574E+01 -0.24717235026E+02 -0.20355932464E+02  0.32672139479E+02  0.51100000000E-03 0.  1.
        -11    1    3    3    0    0  0.89700664375E+01 -0.76394582979E+01 -0.66442012737E+01  0.13526596978E+02  0.51100000000E-03 0. -1.
         12    1    3    3    0    0 -0.76934973401E+01  0.19037189067E+02  0.16374715699E+02  0.26262821309E+02  0.00000000000E+00 0. -1.
</event>
<event>
 7    1  0.3435518E-013  0.7246154E+02  0.7816164E-02  0.1226708E+00
        -11   -1    0    0    0    0  0.00000000000E+00  0.00000000000E+00  0.45593999997E+02  0.45594000000E+02  0.51100000000E-03 0. -1.
         11   -1    0    0    0    0 -0.00000000000E+00 -0.00000000000E+00 -0.45593999997E+02  0.45594000000E+02  0.51100000000E-03 0.  1.
    9900012    2    1    2    0    0 -0.77903864465E+01 -0.13660679916E+02  0.10167407000E+02  0.72461535789E+02  0.69999955050E+02 0.  0.
        -12    1    1    2    0    0  0.77903864465E+01  0.13660679916E+02 -0.10167407000E+02  0.18726464211E+02  0.00000000000E+00 0.  1.
         11    1    3    3    0    0 -0.14262845994E+02  0.67333112026E+01  0.10236645693E+02  0.18803062807E+02  0.51100000000E-03 0. -1.
        -11    1    3    3    0    0  0.59152058488E+01  0.15884324459E+02 -0.31691533087E+01  0.17243693244E+02  0.51100000000E-03 0.  1.
         12    1    3    3    0    0  0.55725369887E+00 -0.36278315577E+02  0.30999146155E+01  0.36414779738E+02  0.00000000000E+00 0. -1.
</event>
<event>
 7    1  0.3435518E-013  0.7246151E+02  0.7816164E-02  0.1226708E+00
        -11   -1    0    0    0    0  0.00000000000E+00  0.00000000000E+00  0.45593999997E+02  0.45594000000E+02  0.51100000000E-03 0.  1.
         11   -1    0    0    0    0 -0.00000000000E+00 -0.00000000000E+00 -0.45593999997E+02  0.45594000000E+02  0.51100000000E-03 0. -1.
    9900012    2    1    2    0    0 -0.86844208271E+01  0.30854833318E+01 -0.16301601783E+02  0.72461505582E+02  0.69999915701E+02 0.  0.
        -12    1    1    2    0    0  0.86844208271E+01 -0.30854833318E+01  0.16301601783E+02  0.18726494418E+02  0.00000000000E+00 0.  1.
         11    1    3    3    0    0 -0.51767492064E+01  0.45604729557E+01 -0.78711722891E+01  0.10466709100E+02  0.51100000000E-03 0. -1.
        -11    1    3    3    0    0  0.13434406857E+02  0.24867375467E+02  0.34981718828E+01  0.28479937799E+02  0.51100000000E-03 0.  1.
        -12    1    3    3    0    0 -0.16942078478E+02 -0.26342365091E+02 -0.11928601376E+02  0.33514858683E+02  0.00000000000E+00 0.  1.
</event>
<event>
 7    1  0.3435518E-013  0.7246163E+02  0.7816164E-02  0.1226708E+00
        -11   -1    0    0    0    0  0.00000000000E+00  0.00000000000E+00  0.45593999997E+02  0.45594000000E+02  0.51100000000E-03 0.  1.
         11   -1    0    0    0    0 -0.00000000000E+00 -0.00000000000E+00 -0.45593999997E+02  0.45594000000E+02  0.51100000000E-03 0. -1.
    9900012    2    1    2    0    0  0.53233397595E+01  0.81637821362E+01 -0.15990365567E+02  0.72461626194E+02  0.70000072820E+02 0.  0.
        -12    1    1    2    0    0 -0.53233397595E+01 -0.81637821362E+01  0.15990365567E+02  0.18726373806E+02  0.00000000000E+00 0.  1.
         11    1    3    3    0    0  0.41739700222E-01  0.14795096368E+01 -0.10992571588E+02  0.11091768180E+02  0.51100000000E-03 0. -1.
        -11    1    3    3    0    0 -0.25234196924E+02  0.86174239815E+01 -0.13140788582E+02  0.29727176376E+02  0.51100000000E-03 0.  1.
         12    1    3    3    0    0  0.30515796983E+02 -0.19331514822E+01  0.81429946029E+01  0.31642681639E+02  0.00000000000E+00 0. -1.
</event>
<event>
 7    1  0.3435518E-013  0.7246154E+02  0.7816164E-02  0.1226708E+00
        -11   -1    0    0    0    0  0.00000000000E+00  0.00000000000E+00  0.45593999997E+02  0.45594000000E+02  0.51100000000E-03 0.  1.
         11   -1    0    0    0    0 -0.00000000000E+00 -0.00000000000E+00 -0.45593999997E+02  0.45594000000E+02  0.51100000000E-03 0. -1.
    9900012    2    1    2    0    0 -0.62606983898E+01  0.13207483641E+02 -0.11706683408E+02  0.72461537310E+02  0.69999957032E+02 0.  0.
        -12    1    1    2    0    0  0.62606983898E+01 -0.13207483641E+02  0.11706683408E+02  0.18726462690E+02  0.00000000000E+00 0.  1.
         11    1    3    3    0    0 -0.90428723489E+01  0.20787493416E+02 -0.25549640750E+02  0.34156662096E+02  0.51100000000E-03 0. -1.
        -11    1    3    3    0    0  0.64965581133E+01 -0.15680092203E+01 -0.10782389220E+02  0.12685575973E+02  0.51100000000E-03 0.  1.
        -12    1    3    3    0    0 -0.37143841541E+01 -0.60120005548E+01  0.24625346561E+02  0.25619299240E+02  0.00000000000E+00 0.  1.
</event>
<event>
 7    1  0.3435518E-013  0.7246157E+02  0.7816164E-02  0.1226708E+00
        -11   -1    0    0    0    0  0.00000000000E+00  0.00000000000E+00  0.45593999997E+02  0.45594000000E+02  0.51100000000E-03 0. -1.
         11   -1    0    0    0    0 -0.00000000000E+00 -0.00000000000E+00 -0.45593999997E+02  0.45594000000E+02  0.51100000000E-03 0.  1.
    9900012    2    1    2    0    0  0.10567098682E+01  0.28842314882E+01  0.18472784370E+02  0.72461569763E+02  0.69999999308E+02 0.  0.
        -12    1    1    2    0    0 -0.10567098682E+01 -0.28842314882E+01 -0.18472784370E+02  0.18726430237E+02  0.00000000000E+00 0.  1.
         11    1    3    3    0    0  0.18480144712E+02 -0.16332683609E+02 -0.59927962524E+01  0.25380817749E+02  0.51100000000E-03 0. -1.
        -11    1    3    3    0    0 -0.43193777417E+01 -0.58512903348E+01 -0.27995808348E+01  0.77930915412E+01  0.51100000000E-03 0.  1.
        -12    1    3    3    0    0 -0.13104057102E+02  0.25068205432E+02  0.27265161458E+02  0.39287660473E+02  0.00000000000E+00 0.  1.
</event>
<event>
 7    1  0.3435518E-013  0.7246156E+02  0.7816164E-02  0.1226708E+00
        -11   -1    0    0    0    0  0.00000000000E+00  0.00000000000E+00  0.45593999997E+02  0.45594000000E+02  0.51100000000E-03 0.  1.
         11   -1    0    0    0    0 -0.00000000000E+00 -0.00000000000E+00 -0.45593999997E+02  0.45594000000E+02  0.51100000000E-03 0. -1.
    9900012    2    1    2    0    0 -0.16428142408E+02  0.80953559879E+01  0.39065431471E+01  0.72461555305E+02  0.69999980473E+02 0.  0.
        -12    1    1    2    0    0  0.16428142408E+02 -0.80953559879E+01 -0.39065431471E+01  0.18726444695E+02  0.00000000000E+00 0.  1.
         11    1    3    3    0    0  0.25028865269E+01  0.23309449479E+02 -0.18531344476E+02  0.29883199366E+02  0.51100000000E-03 0. -1.
        -11    1    3    3    0    0 -0.86599914890E+01 -0.15714125017E+02  0.50764400887E-01  0.17942456769E+02  0.51100000000E-03 0.  1.
        -12    1    3    3    0    0 -0.10271037446E+02  0.50003152517E+00  0.22387123222E+02  0.24635899170E+02  0.00000000000E+00 0.  1.
</event>
<event>
 7    1  0.3435518E-013  0.7246160E+02  0.7816164E-02  0.1226708E+00
        -11   -1    0    0    0    0  0.00000000000E+00  0.00000000000E+00  0.45593999997E+02  0.45594000000E+02  0.51100000000E-03 0.  1.
         11   -1    0    0    0    0 -0.00000000000E+00 -0.00000000000E+00 -0.45593999997E+02  0.45594000000E+02  0.51100000000E-03 0. -1.
    9900012    2    1    2    0    0 -0.13580570162E+02  0.10783319332E+01 -0.12848481253E+02  0.72461597351E+02  0.70000035246E+02 0.  0.
        -12    1    1    2    0    0  0.13580570162E+02 -0.10783319332E+01  0.12848481253E+02  0.18726402649E+02  0.00000000000E+00 0.  1.
         11    1    3    3    0    0 -0.42485783807E+01 -0.24330935385E+01 -0.53915934250E+01  0.72828320278E+01  0.51100000000E-03 0. -1.
        -11    1    3    3    0    0 -0.32338179198E+02  0.48089588168E+01  0.12194880435E+02  0.34894111650E+02  0.51100000000E-03 0.  1.
         12    1    3    3    0    0  0.23006187416E+02 -0.12975333451E+01 -0.19651768263E+02  0.30284653673E+02  0.00000000000E+00 0. -1.
</event>
<event>
 7    1  0.3435518E-013  0.7246149E+02  0.7816164E-02  0.1226708E+00
        -11   -1    0    0    0    0  0.00000000000E+00  0.00000000000E+00  0.45593999997E+02  0.45594000000E+02  0.51100000000E-03 0.  1.
         11   -1    0    0    0    0 -0.00000000000E+00 -0.00000000000E+00 -0.45593999997E+02  0.45594000000E+02  0.51100000000E-03 0. -1.
    9900012    2    1    2    0    0  0.14129036481E+02 -0.25065466931E+01 -0.12032030384E+02  0.72461489290E+02  0.69999894477E+02 0.  0.
        -12    1    1    2    0    0 -0.14129036481E+02  0.25065466931E+01  0.12032030384E+02  0.18726510710E+02  0.00000000000E+00 0.  1.
         11    1    3    3    0    0  0.73286206182E+01  0.21727629454E+02 -0.71013575247E+01  0.24004746214E+02  0.51100000000E-03 0. -1.
        -11    1    3    3    0    0  0.43481012087E+01 -0.26325701700E+01  0.16899675999E+02  0.17647534076E+02  0.51100000000E-03 0.  1.
         12    1    3    3    0    0  0.24523146544E+01 -0.21601605977E+02 -0.21830348858E+02  0.30809209000E+02  0.00000000000E+00 0. -1.
</event>
<event>
 7    1  0.3435518E-013  0.7246154E+02  0.7816164E-02  0.1226708E+00
        -11   -1    0    0    0    0  0.00000000000E+00  0.00000000000E+00  0.45593999997E+02  0.45594000000E+02  0.51100000000E-03 0.  1.
         11   -1    0    0    0    0 -0.00000000000E+00 -0.00000000000E+00 -0.45593999997E+02  0.45594000000E+02  0.51100000000E-03 0. -1.
    9900012    2    1    2    0    0  0.12720910129E+02 -0.23642161780E+01  0.13537702424E+02  0.72461535850E+02  0.69999955129E+02 0.  0.
        -12    1    1    2    0    0 -0.12720910129E+02  0.23642161780E+01 -0.13537702424E+02  0.18726464150E+02  0.00000000000E+00 0.  1.
         11    1    3    3    0    0 -0.72579699694E+01  0.39885888439E+01 -0.12639846047E+02  0.15111342673E+02  0.51100000000E-03 0. -1.
        -11    1    3    3    0    0 -0.11665744326E+02 -0.10116532876E+02 -0.99125926911E+00  0.15473087064E+02  0.51100000000E-03 0.  1.
         12    1    3    3    0    0  0.31644624424E+02  0.37637278538E+01  0.27168807740E+02  0.41877106112E+02  0.00000000000E+00 0. -1.
</event>
<event>
 7    1  0.3435518E-013  0.7246145E+02  0.7816164E-02  0.1226708E+00
        -11   -1    0    0    0    0  0.00000000000E+00  0.00000000000E+00  0.45593999997E+02  0.45594000000E+02  0.51100000000E-03 0.  1.
         11   -1    0    0    0    0 -0.00000000000E+00 -0.00000000000E+00 -0.45593999997E+02  0.45594000000E+02  0.51100000000E-03 0. -1.
    9900012    2    1    2    0    0  0.12411815865E+02 -0.70310840842E+01 -0.12132362282E+02  0.72461453842E+02  0.69999848299E+02 0.  0.
        -12    1    1    2    0    0 -0.12411815865E+02  0.70310840842E+01  0.12132362282E+02  0.18726546158E+02  0.00000000000E+00 0.  1.
         11    1    3    3    0    0 -0.10921648175E+02  0.18960460234E+02 -0.96889707744E+01  0.23930265483E+02  0.51100000000E-03 0. -1.
        -11    1    3    3    0    0 -0.42297814095E+01 -0.19189425118E+01  0.90509079312E+01  0.10173117800E+02  0.51100000000E-03 0.  1.
        -12    1    3    3    0    0  0.27563245449E+02 -0.24072601807E+02 -0.11494299439E+02  0.38358070559E+02  0.00000000000E+00 0.  1.
</event>
<event>
 7    1  0.3435518E-013  0.7246155E+02  0.7816164E-02  0.1226708E+00
        -11   -1    0    0    0    0  0.00000000000E+00  0.00000000000E+00  0.45593999997E+02  0.45594000000E+02  0.51100000000E-03 0. -1.
         11   -1    0    0    0    0 -0.00000000000E+00 -0.00000000000E+00 -0.45593999997E+02  0.45594000000E+02  0.51100000000E-03 0.  1.
    9900012    2    1    2    0    0  0.32432879981E+01 -0.78940861599E+01  0.16668663862E+02  0.72461551638E+02  0.69999975696E+02 0.  0.
        -12    1    1    2    0    0 -0.32432879981E+01  0.78940861599E+01 -0.16668663862E+02  0.18726448362E+02  0.00000000000E+00 0.  1.
         11    1    3    3    0    0 -0.39769028413E+01  0.12322416135E+02  0.75181820964E+01  0.14972667028E+02  0.51100000000E-03 0. -1.
        -11    1    3    3    0    0 -0.87243803727E+01  0.12774841860E+02 -0.75575719498E+01  0.17217093003E+02  0.51100000000E-03 0.  1.
         12    1    3    3    0    0  0.15944571212E+02 -0.32991344155E+02  0.16708053715E+02  0.40271791607E+02  0.00000000000E+00 0. -1.
</event>
<event>
 7    1  0.3435518E-013  0.7246157E+02  0.7816164E-02  0.1226708E+00
        -11   -1    0    0    0    0  0.00000000000E+00  0.00000000000E+00  0.45593999997E+02  0.45594000000E+02  0.51100000000E-03 0.  1.
         11   -1    0    0    0    0 -0.00000000000E+00 -0.00000000000E+00 -0.45593999997E+02  0.45594000000E+02  0.51100000000E-03 0. -1.
    9900012    2    1    2    0    0  0.15404933302E+01 -0.93597001816E+01 -0.16146270168E+02  0.72461570881E+02  0.70000000764E+02 0.  0.
        -12    1    1    2    0    0 -0.15404933302E+01  0.93597001816E+01  0.16146270168E+02  0.18726429119E+02  0.00000000000E+00 0.  1.
         11    1    3    3    0    0  0.11817665620E+01  0.10880973487E+02 -0.70862222735E+01  0.13038661841E+02  0.51100000000E-03 0. -1.
        -11    1    3    3    0    0 -0.23829399665E+02 -0.24056828773E+02 -0.85786982823E+01  0.34930865484E+02  0.51100000000E-03 0.  1.
         12    1    3    3    0    0  0.24188126433E+02  0.38161551039E+01 -0.48134961265E+00  0.24492043556E+02  0.00000000000E+00 0. -1.
</event>
<event>
 7    1  0.3435518E-013  0.7246158E+02  0.7816164E-02  0.1226708E+00
        -11   -1    0    0    0    0  0.00000000000E+00  0.00000000000E+00  0.45593999997E+02  0.45594000000E+02  0.51100000000E-03 0.  1.
         11   -1    0    0    0    0 -0.00000000000E+00 -0.00000000000E+00 -0.45593999997E+02  0.45594000000E+02  0.51100000000E-03 0. -1.
    9900012    2    1    2    0    0 -0.96318671669E+01 -0.15735817788E+02  0.32077919591E+01  0.72461581340E+02  0.70000014389E+02 0.  0.
        -12    1    1    2    0    0  0.96318671669E+01  0.15735817788E+02 -0.32077919591E+01  0.18726418660E+02  0.00000000000E+00 0.  1.
         11    1    3    3    0    0 -0.75138779311E+01  0.14052011764E+02 -0.14487514517E+02  0.21536143418E+02  0.51100000000E-03 0. -1.
        -11    1    3    3    0    0  0.44284636194E+01 -0.16074512401E+02 -0.99229673120E+01  0.19402745154E+02  0.51100000000E-03 0.  1.
        -12    1    3    3    0    0 -0.65464528552E+01 -0.13713317151E+02  0.27618273789E+02  0.31522692768E+02  0.00000000000E+00 0.  1.
</event>
<event>
 7    1  0.3435518E-013  0.7246160E+02  0.7816164E-02  0.1226708E+00
        -11   -1    0    0    0    0  0.00000000000E+00  0.00000000000E+00  0.45593999997E+02  0.45594000000E+02  0.51100000000E-03 0. -1.
         11   -1    0    0    0    0 -0.00000000000E+00 -0.00000000000E+00 -0.45593999997E+02  0.45594000000E+02  0.51100000000E-03 0.  1.
    9900012    2    1    2    0    0 -0.17043165400E+02  0.77434804183E+01  0.49715527272E+00  0.72461597804E+02  0.70000035836E+02 0.  0.
        -12    1    1    2    0    0  0.17043165400E+02 -0.77434804183E+01 -0.49715527272E+00  0.18726402196E+02  0.00000000000E+00 0.  1.
         11    1    3    3    0    0 -0.31199144047E+02  0.57464297905E+01 -0.43937127992E+01  0.32026750647E+02  0.51100000000E-03 0. -1.
        -11    1    3    3    0    0 -0.64084229783E+01  0.12652048949E+02  0.91606886682E+01  0.16883733142E+02  0.51100000000E-03 0.  1.
        -12    1    3    3    0    0  0.20564401625E+02 -0.10654998321E+02 -0.42698205962E+01  0.23551114015E+02  0.00000000000E+00 0.  1.
</event>
<event>
 7    1  0.3435518E-013  0.7246157E+02  0.7816164E-02  0.1226708E+00
        -11   -1    0    0    0    0  0.00000000000E+00  0.00000000000E+00  0.45593999997E+02  0.45594000000E+02  0.51100000000E-03 0.  1.
         11   -1    0    0    0    0 -0.00000000000E+00 -0.00000000000E+00 -0.45593999997E+02  0.45594000000E+02  0.51100000000E-03 0. -1.
    9900012    2    1    2    0    0  0.98918178461E+01  0.15897431215E+02  0.32064834273E+00  0.72461569617E+02  0.69999999117E+02 0.  0.
        -12    1    1    2    0    0 -0.98918178461E+01 -0.15897431215E+02 -0.32064834273E+00  0.18726430383E+02  0.00000000000E+00 0.  1.
         11    1    3    3    0    0 -0.46653384093E+01  0.92558821253E-01 -0.48936601532E+01  0.67617941085E+01  0.51100000000E-03 0. -1.
        -11    1    3    3    0    0 -0.17416529790E+02  0.15434346865E+02  0.19799657827E+02  0.30554558144E+02  0.51100000000E-03 0.  1.
         12    1    3    3    0    0  0.31973686045E+02  0.37052552923E+00 -0.14585349331E+02  0.35145217364E+02  0.00000000000E+00 0. -1.
</event>
<event>
 7    1  0.3435518E-013  0.7246157E+02  0.7816164E-02  0.1226708E+00
        -11   -1    0    0    0    0  0.00000000000E+00  0.00000000000E+00  0.45593999997E+02  0.45594000000E+02  0.51100000000E-03 0.  1.
         11   -1    0    0    0    0 -0.00000000000E+00 -0.00000000000E+00 -0.45593999997E+02  0.45594000000E+02  0.51100000000E-03 0. -1.
    9900012    2    1    2    0    0  0.11969369201E+02  0.13236780187E+01 -0.14340891622E+02  0.72461572282E+02  0.70000002589E+02 0.  0.
        -12    1    1    2    0    0 -0.11969369201E+02 -0.13236780187E+01  0.14340891622E+02  0.18726427718E+02  0.00000000000E+00 0.  1.
         11    1    3    3    0    0 -0.22604149323E+02 -0.15777351568E+02 -0.11598643019E+02  0.29906536229E+02  0.51100000000E-03 0. -1.
        -11    1    3    3    0    0  0.10545681049E+01 -0.30255590081E+01 -0.12187902752E+01  0.34280564750E+01  0.51100000000E-03 0.  1.
        -12    1    3    3    0    0  0.33518950418E+02  0.20126588594E+02 -0.15234583275E+01  0.39126979578E+02  0.00000000000E+00 0.  1.
</event>
<event>
 7    1  0.3435518E-013  0.7246156E+02  0.7816164E-02  0.1226708E+00
        -11   -1    0    0    0    0  0.00000000000E+00  0.00000000000E+00  0.45593999997E+02  0.45594000000E+02  0.51100000000E-03 0.  1.
         11   -1    0    0    0    0 -0.00000000000E+00 -0.00000000000E+00 -0.45593999997E+02  0.45594000000E+02  0.51100000000E-03 0. -1.
    9900012    2    1    2    0    0 -0.10314568573E+02 -0.15331804015E+02 -0.30372598398E+01  0.72461561830E+02  0.69999988973E+02 0.  0.
        -12    1    1    2    0    0  0.10314568573E+02  0.15331804015E+02  0.30372598398E+01  0.18726438170E+02  0.00000000000E+00 0.  1.
         11    1    3    3    0    0 -0.12612375779E+02 -0.44901052011E+00 -0.15700550628E+01  0.12717653337E+02  0.51100000000E-03 0. -1.
        -11    1    3    3    0    0 -0.34090623154E+01 -0.33468044215E+01 -0.28979168794E+02  0.29370308646E+02  0.51100000000E-03 0.  1.
        -12    1    3    3    0    0  0.57068695210E+01 -0.11535989074E+02  0.27511964017E+02  0.30373599847E+02  0.00000000000E+00 0.  1.
</event>
<event>
 7    1  0.3435518E-013  0.7246157E+02  0.7816164E-02  0.1226708E+00
        -11   -1    0    0    0    0  0.00000000000E+00  0.00000000000E+00  0.45593999997E+02  0.45594000000E+02  0.51100000000E-03 0. -1.
         11   -1    0    0    0    0 -0.00000000000E+00 -0.00000000000E+00 -0.45593999997E+02  0.45594000000E+02  0.51100000000E-03 0.  1.
    9900012    2    1    2    0    0  0.70036161032E+01 -0.45244029748E+01  0.16767778553E+02  0.72461567921E+02  0.69999996909E+02 0.  0.
        -12    1    1    2    0    0 -0.70036161032E+01  0.45244029748E+01 -0.16767778553E+02  0.18726432079E+02  0.00000000000E+00 0.  1.
         11    1    3    3    0    0 -0.68508364140E+01  0.19917671398E+02 -0.38151643829E+01  0.21405678523E+02  0.51100000000E-03 0. -1.
        -11    1    3    3    0    0  0.20456856132E+02 -0.12697116208E+02 -0.26257766995E+01  0.24219711525E+02  0.51100000000E-03 0.  1.
        -12    1    3    3    0    0 -0.66024036147E+01 -0.11744958165E+02  0.23208719635E+02  0.26836177874E+02  0.00000000000E+00 0.  1.
</event>
<event>
 7    1  0.3435518E-013  0.7246156E+02  0.7816164E-02  0.1226708E+00
        -11   -1    0    0    0    0  0.00000000000E+00  0.00000000000E+00  0.45593999997E+02  0.45594000000E+02  0.51100000000E-03 0.  1.
         11   -1    0    0    0    0 -0.00000000000E+00 -0.00000000000E+00 -0.45593999997E+02  0.45594000000E+02  0.51100000000E-03 0. -1.
    9900012    2    1    2    0    0  0.52448011841E+01 -0.14993243819E+02 -0.99183854404E+01  0.72461556947E+02  0.69999982612E+02 0.  0.
        -12    1    1    2    0    0 -0.52448011841E+01  0.14993243819E+02  0.99183854404E+01  0.18726443053E+02  0.00000000000E+00 0.  1.
         11    1    3    3    0    0 -0.33514427385E+01  0.70381501792E+01 -0.15222694481E+01  0.79426085708E+01  0.51100000000E-03 0.  1.
        -11    1    3    3    0    0 -0.19119213268E+02 -0.50527064606E+01 -0.21735492552E+02  0.29385469118E+02  0.51100000000E-03 0. -1.
        -12    1    3    3    0    0  0.27715457191E+02 -0.16978687538E+02  0.13339376559E+02  0.35133479258E+02  0.00000000000E+00 0.  1.
</event>
<event>
 7    1  0.3435518E-013  0.7246155E+02  0.7816164E-02  0.1226708E+00
        -11   -1    0    0    0    0  0.00000000000E+00  0.00000000000E+00  0.45593999997E+02  0.45594000000E+02  0.51100000000E-03 0. -1.
         11   -1    0    0    0    0 -0.00000000000E+00 -0.00000000000E+00 -0.45593999997E+02  0.45594000000E+02  0.51100000000E-03 0.  1.
    9900012    2    1    2    0    0  0.76734517448E+01 -0.72316561073E+01  0.15475822967E+02  0.72461553241E+02  0.69999977784E+02 0.  0.
        -12    1    1    2    0    0 -0.76734517448E+01  0.72316561073E+01 -0.15475822967E+02  0.18726446759E+02  0.00000000000E+00 0.  1.
         11    1    3    3    0    0  0.17053489299E+01 -0.17777496596E+02  0.22261989567E+01  0.17997320974E+02  0.51100000000E-03 0. -1.
        -11    1    3    3    0    0  0.18673244833E+02 -0.13108123462E+02  0.15403516430E+02  0.27527827592E+02  0.51100000000E-03 0.  1.
        -12    1    3    3    0    0 -0.12705142018E+02  0.23653963950E+02 -0.21538924199E+01  0.26936404675E+02  0.00000000000E+00 0.  1.
</event>
<event>
 7    1  0.3435518E-013  0.7246159E+02  0.7816164E-02  0.1226708E+00
        -11   -1    0    0    0    0  0.00000000000E+00  0.00000000000E+00  0.45593999997E+02  0.45594000000E+02  0.51100000000E-03 0.  1.
         11   -1    0    0    0    0 -0.00000000000E+00 -0.00000000000E+00 -0.45593999997E+02  0.45594000000E+02  0.51100000000E-03 0. -1.
    9900012    2    1    2    0    0 -0.12571181644E+02  0.82186541523E+01 -0.11184708471E+02  0.72461585832E+02  0.70000020241E+02 0.  0.
        -12    1    1    2    0    0  0.12571181644E+02 -0.82186541523E+01  0.11184708471E+02  0.18726414168E+02  0.00000000000E+00 0.  1.
         11    1    3    3    0    0 -0.35570367428E+01 -0.14726684492E+02  0.39303962304E+01  0.15651701547E+02  0.51100000000E-03 0. -1.
        -11    1    3    3    0    0  0.66162701622E+01 -0.12124920124E+02  0.33376410329E+01  0.14210157170E+02  0.51100000000E-03 0.  1.
         12    1    3    3    0    0 -0.15630415064E+02  0.35070258769E+02 -0.18452745734E+02  0.42599727115E+02  0.00000000000E+00 0. -1.
</event>
<event>
 7    1  0.3435518E-013  0.7246155E+02  0.7816164E-02  0.1226708E+00
        -11   -1    0    0    0    0  0.00000000000E+00  0.00000000000E+00  0.45593999997E+02  0.45594000000E+02  0.51100000000E-03 0.  1.
         11   -1    0    0    0    0 -0.00000000000E+00 -0.00000000000E+00 -0.45593999997E+02  0.45594000000E+02  0.51100000000E-03 0. -1.
    9900012    2    1    2    0    0 -0.75750343489E+01  0.13550101716E+01 -0.17072280115E+02  0.72461549554E+02  0.69999972982E+02 0.  0.
        -12    1    1    2    0    0  0.75750343489E+01 -0.13550101716E+01  0.17072280115E+02  0.18726450446E+02  0.00000000000E+00 0.  1.
         11    1    3    3    0    0 -0.49377425900E+01  0.81873891262E+01  0.86463200863E+01  0.12890829837E+02  0.51100000000E-03 0. -1.
        -11    1    3    3    0    0 -0.63048692756E+01  0.22774195462E+02 -0.14340382282E+02  0.27641669989E+02  0.51100000000E-03 0.  1.
         12    1    3    3    0    0  0.36675775167E+01 -0.29606574417E+02 -0.11378217920E+02  0.31929049728E+02  0.00000000000E+00 0. -1.
</event>
<event>
 7    1  0.3435518E-013  0.7246156E+02  0.7816164E-02  0.1226708E+00
        -11   -1    0    0    0    0  0.00000000000E+00  0.00000000000E+00  0.45593999997E+02  0.45594000000E+02  0.51100000000E-03 0. -1.
         11   -1    0    0    0    0 -0.00000000000E+00 -0.00000000000E+00 -0.45593999997E+02  0.45594000000E+02  0.51100000000E-03 0.  1.
    9900012    2    1    2    0    0  0.25999405761E+01 -0.89276576894E+01  0.16254749533E+02  0.72461557594E+02  0.69999983455E+02 0.  0.
        -12    1    1    2    0    0 -0.25999405761E+01  0.89276576894E+01 -0.16254749533E+02  0.18726442406E+02  0.00000000000E+00 0.  1.
         11    1    3    3    0    0 -0.16398700331E+01 -0.21895147124E+01  0.31098425974E+02  0.31218508079E+02  0.51100000000E-03 0.  1.
        -11    1    3    3    0    0 -0.27771063939E+01  0.71878067301E+01  0.95622942294E+01  0.12280649686E+02  0.51100000000E-03 0. -1.
        -12    1    3    3    0    0  0.70169170031E+01 -0.13925949707E+02 -0.24405970670E+02  0.28962399829E+02  0.00000000000E+00 0.  1.
</event>
<event>
 7    1  0.3435518E-013  0.7246163E+02  0.7816164E-02  0.1226708E+00
        -11   -1    0    0    0    0  0.00000000000E+00  0.00000000000E+00  0.45593999997E+02  0.45594000000E+02  0.51100000000E-03 0.  1.
         11   -1    0    0    0    0 -0.00000000000E+00 -0.00000000000E+00 -0.45593999997E+02  0.45594000000E+02  0.51100000000E-03 0. -1.
    9900012    2    1    2    0    0 -0.18632944652E+01  0.15481920376E+02  0.10368950895E+02  0.72461631760E+02  0.70000080070E+02 0.  0.
        -12    1    1    2    0    0  0.18632944652E+01 -0.15481920376E+02 -0.10368950895E+02  0.18726368240E+02  0.00000000000E+00 0.  1.
         11    1    3    3    0    0  0.15639413481E+02 -0.25100159145E+01 -0.59711882469E+01  0.16927685112E+02  0.51100000000E-03 0. -1.
        -11    1    3    3    0    0  0.15678886994E+02  0.95343159206E+00  0.61267298008E+01  0.16860407690E+02  0.51100000000E-03 0.  1.
         12    1    3    3    0    0 -0.33181594940E+02  0.17038504699E+02  0.10213409341E+02  0.38673538958E+02  0.00000000000E+00 0. -1.
</event>
<event>
 7    1  0.3435518E-013  0.7246157E+02  0.7816164E-02  0.1226708E+00
        -11   -1    0    0    0    0  0.00000000000E+00  0.00000000000E+00  0.45593999997E+02  0.45594000000E+02  0.51100000000E-03 0.  1.
         11   -1    0    0    0    0 -0.00000000000E+00 -0.00000000000E+00 -0.45593999997E+02  0.45594000000E+02  0.51100000000E-03 0. -1.
    9900012    2    1    2    0    0 -0.18921065497E+01 -0.16446631141E+02 -0.87525632109E+01  0.72461571995E+02  0.70000002215E+02 0.  0.
        -12    1    1    2    0    0  0.18921065497E+01  0.16446631141E+02  0.87525632109E+01  0.18726428005E+02  0.00000000000E+00 0.  1.
         11    1    3    3    0    0 -0.12074454890E+02  0.52357867651E+01 -0.13420023759E+02  0.18796355016E+02  0.51100000000E-03 0. -1.
        -11    1    3    3    0    0 -0.16804580970E+02  0.27651115485E+01  0.85083315923E+00  0.17051794650E+02  0.51100000000E-03 0.  1.
         12    1    3    3    0    0  0.26986929311E+02 -0.24447529454E+02  0.38166273885E+01  0.36613422329E+02  0.00000000000E+00 0. -1.
</event>
<event>
 7    1  0.3435518E-013  0.7246162E+02  0.7816164E-02  0.1226708E+00
        -11   -1    0    0    0    0  0.00000000000E+00  0.00000000000E+00  0.45593999997E+02  0.45594000000E+02  0.51100000000E-03 0. -1.
         11   -1    0    0    0    0 -0.00000000000E+00 -0.00000000000E+00 -0.45593999997E+02  0.45594000000E+02  0.51100000000E-03 0.  1.
    9900012    2    1    2    0    0 -0.15095669233E+02 -0.27472356754E+01  0.10735484410E+02  0.72461623977E+02  0.70000069931E+02 0.  0.
        -12    1    1    2    0    0  0.15095669233E+02  0.27472356754E+01 -0.10735484410E+02  0.18726376023E+02  0.00000000000E+00 0.  1.
         11    1    3    3    0    0  0.13163053254E+02 -0.11887934070E+02  0.31816268207E+01  0.18019758514E+02  0.51100000000E-03 0. -1.
        -11    1    3    3    0    0  0.78399678413E+01  0.93944602714E+01  0.13092091526E+02  0.17919928580E+02  0.51100000000E-03 0.  1.
        -12    1    3    3    0    0 -0.36098690328E+02 -0.25376187708E+00 -0.55382339365E+01  0.36521936882E+02  0.00000000000E+00 0.  1.
</event>
<event>
 7    1  0.3435518E-013  0.7246158E+02  0.7816164E-02  0.1226708E+00
        -11   -1    0    0    0    0  0.00000000000E+00  0.00000000000E+00  0.45593999997E+02  0.45594000000E+02  0.51100000000E-03 0.  1.
         11   -1    0    0    0    0 -0.00000000000E+00 -0.00000000000E+00 -0.45593999997E+02  0.45594000000E+02  0.51100000000E-03 0. -1.
    9900012    2    1    2    0    0 -0.11138309067E+02  0.12548576112E+02 -0.83156518817E+01  0.72461581295E+02  0.70000014330E+02 0.  0.
        -12    1    1    2    0    0  0.11138309067E+02 -0.12548576112E+02  0.83156518817E+01  0.18726418705E+02  0.00000000000E+00 0.  1.
         11    1    3    3    0    0 -0.10864409124E+02 -0.65420795340E+01 -0.45840798126E+01  0.13485102085E+02  0.51100000000E-03 0. -1.
        -11    1    3    3    0    0 -0.54654509715E+01 -0.17375006651E+02 -0.11215629171E+02  0.21390473310E+02  0.51100000000E-03 0.  1.
        -12    1    3    3    0    0  0.51915510281E+01  0.36465662297E+02  0.74840571022E+01  0.37586005900E+02  0.00000000000E+00 0.  1.
</event>
<event>
 7    1  0.3435518E-013  0.7246161E+02  0.7816164E-02  0.1226708E+00
        -11   -1    0    0    0    0  0.00000000000E+00  0.00000000000E+00  0.45593999997E+02  0.45594000000E+02  0.51100000000E-03 0.  1.
         11   -1    0    0    0    0 -0.00000000000E+00 -0.00000000000E+00 -0.45593999997E+02  0.45594000000E+02  0.51100000000E-03 0. -1.
    9900012    2    1    2    0    0  0.38021409200E+01 -0.13589200674E+02  0.12310767186E+02  0.72461611153E+02  0.70000053226E+02 0.  0.
        -12    1    1    2    0    0 -0.38021409200E+01  0.13589200674E+02 -0.12310767186E+02  0.18726388847E+02  0.00000000000E+00 0.  1.
         11    1    3    3    0    0 -0.24063622714E+02  0.18688078583E+01 -0.33718074421E+01  0.24370462995E+02  0.51100000000E-03 0. -1.
        -11    1    3    3    0    0  0.33652155894E+01 -0.81477258519E+01 -0.89681612722E+01  0.12575294406E+02  0.51100000000E-03 0.  1.
        -12    1    3    3    0    0  0.24500548044E+02 -0.73102826800E+01  0.24650735901E+02  0.35515853752E+02  0.00000000000E+00 0.  1.
</event>
<event>
 7    1  0.3435518E-013  0.7246165E+02  0.7816164E-02  0.1226708E+00
        -11   -1    0    0    0    0  0.00000000000E+00  0.00000000000E+00  0.45593999997E+02  0.45594000000E+02  0.51100000000E-03 0.  1.
         11   -1    0    0    0    0 -0.00000000000E+00 -0.00000000000E+00 -0.45593999997E+02  0.45594000000E+02  0.51100000000E-03 0. -1.
    9900012    2    1    2    0    0  0.77476259280E+01 -0.99349073350E+01  0.13854536047E+02  0.72461647970E+02  0.70000101187E+02 0.  0.
        -12    1    1    2    0    0 -0.77476259280E+01  0.99349073350E+01 -0.13854536047E+02  0.18726352030E+02  0.00000000000E+00 0.  1.
         11    1    3    3    0    0 -0.13538283047E+02 -0.10215653085E+02 -0.10870382796E+01  0.16994891242E+02  0.51100000000E-03 0. -1.
        -11    1    3    3    0    0  0.20564654253E+02  0.12363830079E+02 -0.11333817641E+02  0.26537232738E+02  0.51100000000E-03 0.  1.
         12    1    3    3    0    0  0.72125472207E+00 -0.12083084329E+02  0.26275391968E+02  0.28929523991E+02  0.00000000000E+00 0. -1.
</event>
<event>
 7    1  0.3435518E-013  0.7246154E+02  0.7816164E-02  0.1226708E+00
        -11   -1    0    0    0    0  0.00000000000E+00  0.00000000000E+00  0.45593999997E+02  0.45594000000E+02  0.51100000000E-03 0. -1.
         11   -1    0    0    0    0 -0.00000000000E+00 -0.00000000000E+00 -0.45593999997E+02  0.45594000000E+02  0.51100000000E-03 0.  1.
    9900012    2    1    2    0    0  0.62785306215E+01 -0.28919503577E+01  0.17403938476E+02  0.72461537490E+02  0.69999957267E+02 0.  0.
        -12    1    1    2    0    0 -0.62785306215E+01  0.28919503577E+01 -0.17403938476E+02  0.18726462510E+02  0.00000000000E+00 0.  1.
         11    1    3    3    0    0 -0.32520352625E+01  0.10037458150E+02 -0.83954689794E+01  0.13483701239E+02  0.51100000000E-03 0. -1.
        -11    1    3    3    0    0 -0.49118378426E+01  0.97428641071E+01 -0.95969575505E+01  0.14531040792E+02  0.51100000000E-03 0.  1.
         12    1    3    3    0    0  0.14442403727E+02 -0.22672272615E+02  0.35396365006E+02  0.44446795459E+02  0.00000000000E+00 0. -1.
</event>
<event>
 7    1  0.3435518E-013  0.7246158E+02  0.7816164E-02  0.1226708E+00
        -11   -1    0    0    0    0  0.00000000000E+00  0.00000000000E+00  0.45593999997E+02  0.45594000000E+02  0.51100000000E-03 0.  1.
         11   -1    0    0    0    0 -0.00000000000E+00 -0.00000000000E+00 -0.45593999997E+02  0.45594000000E+02  0.51100000000E-03 0. -1.
    9900012    2    1    2    0    0 -0.88281200645E+01  0.33553990809E+00 -0.16511527149E+02  0.72461579635E+02  0.70000012168E+02 0.  0.
        -12    1    1    2    0    0  0.88281200645E+01 -0.33553990809E+00  0.16511527149E+02  0.18726420365E+02  0.00000000000E+00 0.  1.
         11    1    3    3    0    0  0.27017468887E+02 -0.88734078959E+01 -0.78679961399E+01  0.29505700403E+02  0.51100000000E-03 0. -1.
        -11    1    3    3    0    0 -0.61562972446E+01 -0.40342615047E+01  0.36303578859E+01  0.82069945956E+01  0.51100000000E-03 0.  1.
        -12    1    3    3    0    0 -0.29689291707E+02  0.13243209309E+02 -0.12273888895E+02  0.34748884636E+02  0.00000000000E+00 0.  1.
</event>
<event>
 7    1  0.3435518E-013  0.7246151E+02  0.7816164E-02  0.1226708E+00
        -11   -1    0    0    0    0  0.00000000000E+00  0.00000000000E+00  0.45593999997E+02  0.45594000000E+02  0.51100000000E-03 0.  1.
         11   -1    0    0    0    0 -0.00000000000E+00 -0.00000000000E+00 -0.45593999997E+02  0.45594000000E+02  0.51100000000E-03 0. -1.
    9900012    2    1    2    0    0 -0.90518297396E+01  0.15032091157E+02  0.65408095111E+01  0.72461506061E+02  0.69999916324E+02 0.  0.
        -12    1    1    2    0    0  0.90518297396E+01 -0.15032091157E+02 -0.65408095111E+01  0.18726493939E+02  0.00000000000E+00 0.  1.
         11    1    3    3    0    0 -0.10310426872E+02  0.16440505174E+02  0.41364825995E+01  0.19842016057E+02  0.51100000000E-03 0. -1.
        -11    1    3    3    0    0  0.14771533815E+02  0.15894458515E+02 -0.13458979065E+02  0.25533823459E+02  0.51100000000E-03 0.  1.
        -12    1    3    3    0    0 -0.13512936683E+02 -0.17302872532E+02  0.15863305976E+02  0.27085666545E+02  0.00000000000E+00 0.  1.
</event>
<event>
 7    1  0.3435518E-013  0.7246158E+02  0.7816164E-02  0.1226708E+00
        -11   -1    0    0    0    0  0.00000000000E+00  0.00000000000E+00  0.45593999997E+02  0.45594000000E+02  0.51100000000E-03 0.  1.
         11   -1    0    0    0    0 -0.00000000000E+00 -0.00000000000E+00 -0.45593999997E+02  0.45594000000E+02  0.51100000000E-03 0. -1.
    9900012    2    1    2    0    0 -0.11926315757E+02 -0.13716456208E+02  0.45056222205E+01  0.72461579892E+02  0.70000012503E+02 0.  0.
        -12    1    1    2    0    0  0.11926315757E+02  0.13716456208E+02 -0.45056222205E+01  0.18726420108E+02  0.00000000000E+00 0.  1.
         11    1    3    3    0    0 -0.38005049551E+02 -0.42249412617E+01 -0.64314589443E+01  0.38776250263E+02  0.51100000000E-03 0. -1.
        -11    1    3    3    0    0  0.11782059626E+02 -0.59735459655E+00 -0.26006475412E+01  0.12080444091E+02  0.51100000000E-03 0.  1.
        -12    1    3    3    0    0  0.14296674168E+02 -0.88941603502E+01  0.13537728706E+02  0.21604885538E+02  0.00000000000E+00 0.  1.
</event>
<event>
 7    1  0.3435518E-013  0.7246157E+02  0.7816164E-02  0.1226708E+00
        -11   -1    0    0    0    0  0.00000000000E+00  0.00000000000E+00  0.45593999997E+02  0.45594000000E+02  0.51100000000E-03 0.  1.
         11   -1    0    0    0    0 -0.00000000000E+00 -0.00000000000E+00 -0.45593999997E+02  0.45594000000E+02  0.51100000000E-03 0. -1.
    9900012    2    1    2    0    0  0.10785676686E+02 -0.10258704375E+02 -0.11362543559E+02  0.72461568595E+02  0.69999997787E+02 0.  0.
        -12    1    1    2    0    0 -0.10785676686E+02  0.10258704375E+02  0.11362543559E+02  0.18726431405E+02  0.00000000000E+00 0.  1.
         11    1    3    3    0    0  0.63691763962E+01  0.37435482075E+00  0.11905246642E+02  0.13507088782E+02  0.51100000000E-03 0. -1.
        -11    1    3    3    0    0  0.21757249003E+01  0.21279267645E+02 -0.44789746081E+01  0.21854112294E+02  0.51100000000E-03 0.  1.
         12    1    3    3    0    0  0.22407753893E+01 -0.31912326841E+02 -0.18788815592E+02  0.37100367520E+02  0.00000000000E+00 0. -1.
</event>
<event>
 7    1  0.3435518E-013  0.7246157E+02  0.7816164E-02  0.1226708E+00
        -11   -1    0    0    0    0  0.00000000000E+00  0.00000000000E+00  0.45593999997E+02  0.45594000000E+02  0.51100000000E-03 0.  1.
         11   -1    0    0    0    0 -0.00000000000E+00 -0.00000000000E+00 -0.45593999997E+02  0.45594000000E+02  0.51100000000E-03 0. -1.
    9900012    2    1    2    0    0  0.95559967372E+01 -0.15564348628E+02 -0.41367866826E+01  0.72461574129E+02  0.70000004995E+02 0.  0.
        -12    1    1    2    0    0 -0.95559967372E+01  0.15564348628E+02  0.41367866826E+01  0.18726425871E+02  0.00000000000E+00 0.  1.
         11    1    3    3    0    0  0.28022964150E+01 -0.23066586441E+01  0.29674072106E+01  0.46881814291E+01  0.51100000000E-03 0. -1.
        -11    1    3    3    0    0  0.21504404665E+02  0.13329704858E+02  0.15691798228E+02  0.29771680898E+02  0.51100000000E-03 0.  1.
         12    1    3    3    0    0 -0.14750704343E+02 -0.26587394841E+02 -0.22795992122E+02  0.38001711802E+02  0.00000000000E+00 0. -1.
</event>
<event>
 7    1  0.3435518E-013  0.7246146E+02  0.7816164E-02  0.1226708E+00
        -11   -1    0    0    0    0  0.00000000000E+00  0.00000000000E+00  0.45593999997E+02  0.45594000000E+02  0.51100000000E-03 0.  1.
         11   -1    0    0    0    0 -0.00000000000E+00 -0.00000000000E+00 -0.45593999997E+02  0.45594000000E+02  0.51100000000E-03 0. -1.
    9900012    2    1    2    0    0  0.17625454578E+02 -0.13503885176E+01  0.61808646827E+01  0.72461460372E+02  0.69999856806E+02 0.  0.
        -12    1    1    2    0    0 -0.17625454578E+02  0.13503885176E+01 -0.61808646827E+01  0.18726539628E+02  0.00000000000E+00 0.  1.
         11    1    3    3    0    0 -0.17293876172E+02 -0.77081333460E+01 -0.15657865385E+01  0.18998556800E+02  0.51100000000E-03 0. -1.
        -11    1    3    3    0    0  0.28895209617E+01  0.12753089378E+02  0.15108551461E+02  0.19981465101E+02  0.51100000000E-03 0.  1.
        -12    1    3    3    0    0  0.32029809788E+02 -0.63953445495E+01 -0.73619002395E+01  0.33481438471E+02  0.00000000000E+00 0.  1.
</event>
<event>
 7    1  0.3435518E-013  0.7246156E+02  0.7816164E-02  0.1226708E+00
        -11   -1    0    0    0    0  0.00000000000E+00  0.00000000000E+00  0.45593999997E+02  0.45594000000E+02  0.51100000000E-03 0.  1.
         11   -1    0    0    0    0 -0.00000000000E+00 -0.00000000000E+00 -0.45593999997E+02  0.45594000000E+02  0.51100000000E-03 0. -1.
    9900012    2    1    2    0    0  0.13338970354E+02 -0.16048876209E+01 -0.13045146938E+02  0.72461557385E+02  0.69999983184E+02 0.  0.
        -12    1    1    2    0    0 -0.13338970354E+02  0.16048876209E+01  0.13045146938E+02  0.18726442615E+02  0.00000000000E+00 0.  1.
         11    1    3    3    0    0  0.24362791025E+02  0.22554914358E+02  0.63968745898E+01  0.33811089202E+02  0.51100000000E-03 0. -1.
        -11    1    3    3    0    0  0.56860023350E+01 -0.40877481214E+01 -0.21417037540E+01  0.73230596398E+01  0.51100000000E-03 0.  1.
         12    1    3    3    0    0 -0.16709823007E+02 -0.20072053858E+02 -0.17300317774E+02  0.31327408543E+02  0.00000000000E+00 0. -1.
</event>
<event>
 7    1  0.3435518E-013  0.7246156E+02  0.7816164E-02  0.1226708E+00
        -11   -1    0    0    0    0  0.00000000000E+00  0.00000000000E+00  0.45593999997E+02  0.45594000000E+02  0.51100000000E-03 0. -1.
         11   -1    0    0    0    0 -0.00000000000E+00 -0.00000000000E+00 -0.45593999997E+02  0.45594000000E+02  0.51100000000E-03 0.  1.
    9900012    2    1    2    0    0 -0.17437729398E+02 -0.58448221002E+01  0.35275116911E+01  0.72461556380E+02  0.69999981874E+02 0.  0.
        -12    1    1    2    0    0  0.17437729398E+02  0.58448221002E+01 -0.35275116911E+01  0.18726443620E+02  0.00000000000E+00 0.  1.
         11    1    3    3    0    0  0.18289668623E+02 -0.11549945127E+02  0.10367647545E+02  0.23987524396E+02  0.51100000000E-03 0. -1.
        -11    1    3    3    0    0  0.29315104284E+01  0.53958143416E+01 -0.76445803782E+01  0.98055175906E+01  0.51100000000E-03 0.  1.
        -12    1    3    3    0    0 -0.38658908449E+02  0.30930868534E+00  0.80444452381E+00  0.38668514393E+02  0.00000000000E+00 0.  1.
</event>
<event>
 7    1  0.3435518E-013  0.7246156E+02  0.7816164E-02  0.1226708E+00
        -11   -1    0    0    0    0  0.00000000000E+00  0.00000000000E+00  0.45593999997E+02  0.45594000000E+02  0.51100000000E-03 0.  1.
         11   -1    0    0    0    0 -0.00000000000E+00 -0.00000000000E+00 -0.45593999997E+02  0.45594000000E+02  0.51100000000E-03 0. -1.
    9900012    2    1    2    0    0  0.55601436001E+01  0.16053167213E+02 -0.78778319626E+01  0.72461558510E+02  0.69999984649E+02 0.  0.
        -12    1    1    2    0    0 -0.55601436001E+01 -0.16053167213E+02  0.78778319626E+01  0.18726441490E+02  0.00000000000E+00 0.  1.
         11    1    3    3    0    0  0.16848382023E+02  0.72655490216E+01 -0.46797469355E+01  0.18935580557E+02  0.51100000000E-03 0. -1.
        -11    1    3    3    0    0  0.13773927475E+02 -0.12371784517E+02 -0.83742253411E+01  0.20320181607E+02  0.51100000000E-03 0.  1.
        -12    1    3    3    0    0 -0.25062165898E+02  0.21159402708E+02  0.51761403140E+01  0.33205796347E+02  0.00000000000E+00 0.  1.
</event>
<event>
 7    1  0.3435518E-013  0.7246156E+02  0.7816164E-02  0.1226708E+00
        -11   -1    0    0    0    0  0.00000000000E+00  0.00000000000E+00  0.45593999997E+02  0.45594000000E+02  0.51100000000E-03 0.  1.
         11   -1    0    0    0    0 -0.00000000000E+00 -0.00000000000E+00 -0.45593999997E+02  0.45594000000E+02  0.51100000000E-03 0. -1.
    9900012    2    1    2    0    0  0.12470440083E+02  0.95646396084E+01 -0.10182591392E+02  0.72461564831E+02  0.69999992882E+02 0.  0.
        -12    1    1    2    0    0 -0.12470440083E+02 -0.95646396084E+01  0.10182591392E+02  0.18726435169E+02  0.00000000000E+00 0.  1.
         11    1    3    3    0    0  0.36879576794E+00 -0.83287093684E+01  0.11153482198E+02  0.13924926408E+02  0.51100000000E-03 0. -1.
        -11    1    3    3    0    0 -0.96312043339E+01 -0.12179822112E+02  0.40350319531E+00  0.15532899881E+02  0.51100000000E-03 0.  1.
         12    1    3    3    0    0  0.21732848649E+02  0.30073171089E+02 -0.21739576786E+02  0.43003738542E+02  0.00000000000E+00 0. -1.
</event>
<event>
 7    1  0.3435518E-013  0.7246160E+02  0.7816164E-02  0.1226708E+00
        -11   -1    0    0    0    0  0.00000000000E+00  0.00000000000E+00  0.45593999997E+02  0.45594000000E+02  0.51100000000E-03 0.  1.
         11   -1    0    0    0    0 -0.00000000000E+00 -0.00000000000E+00 -0.45593999997E+02  0.45594000000E+02  0.51100000000E-03 0. -1.
    9900012    2    1    2    0    0 -0.10063577217E+02  0.15743616473E+02 -0.12413515481E+01  0.72461601528E+02  0.70000040688E+02 0.  0.
        -12    1    1    2    0    0  0.10063577217E+02 -0.15743616473E+02  0.12413515481E+01  0.18726398472E+02  0.00000000000E+00 0.  1.
         11    1    3    3    0    0 -0.18011464806E+02 -0.15305035609E+02 -0.30365740006E+01  0.23830185929E+02  0.51100000000E-03 0. -1.
        -11    1    3    3    0    0 -0.20840854513E+01  0.23092587434E+01  0.15095444025E+02  0.15412609081E+02  0.51100000000E-03 0.  1.
        -12    1    3    3    0    0  0.10031973040E+02  0.28739393339E+02 -0.13300221573E+02  0.33218806518E+02  0.00000000000E+00 0.  1.
</event>
<event>
 7    1  0.3435518E-013  0.7246182E+02  0.7816164E-02  0.1226707E+00
        -11   -1    0    0    0    0  0.00000000000E+00  0.00000000000E+00  0.45593999997E+02  0.45594000000E+02  0.51100000000E-03 0.  1.
         11   -1    0    0    0    0 -0.00000000000E+00 -0.00000000000E+00 -0.45593999997E+02  0.45594000000E+02  0.51100000000E-03 0. -1.
    9900012    2    1    2    0    0 -0.12404341494E+02  0.13805535215E+02  0.24918425188E+01  0.72461821276E+02  0.70000326949E+02 0.  0.
        -12    1    1    2    0    0  0.12404341494E+02 -0.13805535215E+02 -0.24918425188E+01  0.18726178724E+02  0.00000000000E+00 0.  1.
         11    1    3    3    0    0  0.13206530524E+01  0.73009214841E+01  0.53010461505E+01  0.91185892304E+01  0.51100000000E-03 0. -1.
        -11    1    3    3    0    0  0.12696118582E+02 -0.91037558920E+00  0.22604016598E+02  0.25941506845E+02  0.51100000000E-03 0.  1.
         12    1    3    3    0    0 -0.26421113128E+02  0.74149893198E+01 -0.25413220230E+02  0.37401725201E+02  0.00000000000E+00 0. -1.
</event>
<event>
 7    1  0.3435518E-013  0.7246158E+02  0.7816164E-02  0.1226708E+00
        -11   -1    0    0    0    0  0.00000000000E+00  0.00000000000E+00  0.45593999997E+02  0.45594000000E+02  0.51100000000E-03 0. -1.
         11   -1    0    0    0    0 -0.00000000000E+00 -0.00000000000E+00 -0.45593999997E+02  0.45594000000E+02  0.51100000000E-03 0.  1.
    9900012    2    1    2    0    0 -0.15506132357E+02 -0.10442827093E+02  0.10891070360E+01  0.72461576622E+02  0.70000008243E+02 0.  0.
        -12    1    1    2    0    0  0.15506132357E+02  0.10442827093E+02 -0.10891070360E+01  0.18726423378E+02  0.00000000000E+00 0.  1.
         11    1    3    3    0    0 -0.11240980793E+02  0.85078607322E+01  0.38445226644E+01  0.14612450110E+02  0.51100000000E-03 0. -1.
        -11    1    3    3    0    0  0.85327053146E+00  0.14529442623E+02  0.13882886037E+02  0.20113858369E+02  0.51100000000E-03 0.  1.
         12    1    3    3    0    0 -0.51184220957E+01 -0.33480130448E+02 -0.16638301665E+02  0.37735268144E+02  0.00000000000E+00 0. -1.
</event>
<event>
 7    1  0.3435518E-013  0.7246161E+02  0.7816164E-02  0.1226708E+00
        -11   -1    0    0    0    0  0.00000000000E+00  0.00000000000E+00  0.45593999997E+02  0.45594000000E+02  0.51100000000E-03 0.  1.
         11   -1    0    0    0    0 -0.00000000000E+00 -0.00000000000E+00 -0.45593999997E+02  0.45594000000E+02  0.51100000000E-03 0. -1.
    9900012    2    1    2    0    0 -0.28330515802E+01 -0.22875132421E+01 -0.18368959370E+02  0.72461613098E+02  0.70000055759E+02 0.  0.
        -12    1    1    2    0    0  0.28330515802E+01  0.22875132421E+01  0.18368959370E+02  0.18726386902E+02  0.00000000000E+00 0.  1.
         11    1    3    3    0    0 -0.89130866226E+01 -0.11514008791E+02 -0.15958605633E+02  0.21603069355E+02  0.51100000000E-03 0. -1.
        -11    1    3    3    0    0 -0.21687472093E+02  0.61053759604E+01 -0.39486347782E+01  0.22873866710E+02  0.51100000000E-03 0.  1.
         12    1    3    3    0    0  0.27767507136E+02  0.31211195884E+01  0.15382810410E+01  0.27984677032E+02  0.00000000000E+00 0. -1.
</event>
<event>
 7    1  0.3435518E-013  0.7246155E+02  0.7816164E-02  0.1226708E+00
        -11   -1    0    0    0    0  0.00000000000E+00  0.00000000000E+00  0.45593999997E+02  0.45594000000E+02  0.51100000000E-03 0.  1.
         11   -1    0    0    0    0 -0.00000000000E+00 -0.00000000000E+00 -0.45593999997E+02  0.45594000000E+02  0.51100000000E-03 0. -1.
    9900012    2    1    2    0    0  0.17495038350E+02  0.49323377981E+01 -0.45028634993E+01  0.72461545378E+02  0.69999967542E+02 0.  0.
        -12    1    1    2    0    0 -0.17495038350E+02 -0.49323377981E+01  0.45028634993E+01  0.18726454622E+02  0.00000000000E+00 0.  1.
         11    1    3    3    0    0 -0.36669336836E+01  0.47074649365E+01 -0.48221505334E+01  0.76720117828E+01  0.51100000000E-03 0. -1.
        -11    1    3    3    0    0  0.13822936461E+02 -0.73231608375E+01  0.29706496569E+02  0.33573474585E+02  0.51100000000E-03 0.  1.
         12    1    3    3    0    0  0.73390355721E+01  0.75480336991E+01 -0.29387209535E+02  0.31216059010E+02  0.00000000000E+00 0. -1.
</event>
<event>
 7    1  0.3435518E-013  0.7246161E+02  0.7816164E-02  0.1226708E+00
        -11   -1    0    0    0    0  0.00000000000E+00  0.00000000000E+00  0.45593999997E+02  0.45594000000E+02  0.51100000000E-03 0.  1.
         11   -1    0    0    0    0 -0.00000000000E+00 -0.00000000000E+00 -0.45593999997E+02  0.45594000000E+02  0.51100000000E-03 0. -1.
    9900012    2    1    2    0    0  0.39946790885E+01  0.15360235643E+02  0.99389830014E+01  0.72461609981E+02  0.70000051699E+02 0.  0.
        -12    1    1    2    0    0 -0.39946790885E+01 -0.15360235643E+02 -0.99389830014E+01  0.18726390019E+02  0.00000000000E+00 0.  1.
         11    1    3    3    0    0 -0.17068440437E+02  0.16208228442E+02  0.22850404424E+01  0.23648673077E+02  0.51100000000E-03 0. -1.
        -11    1    3    3    0    0 -0.12648884999E+01  0.18512767380E+02  0.44872034199E+01  0.19090769858E+02  0.51100000000E-03 0.  1.
         12    1    3    3    0    0  0.22328008026E+02 -0.19360760179E+02  0.31667391391E+01  0.29722167046E+02  0.00000000000E+00 0. -1.
</event>
<event>
 7    1  0.3435518E-013  0.7246159E+02  0.7816164E-02  0.1226708E+00
        -11   -1    0    0    0    0  0.00000000000E+00  0.00000000000E+00  0.45593999997E+02  0.45594000000E+02  0.51100000000E-03 0.  1.
         11   -1    0    0    0    0 -0.00000000000E+00 -0.00000000000E+00 -0.45593999997E+02  0.45594000000E+02  0.51100000000E-03 0. -1.
    9900012    2    1    2    0    0  0.78763152210E+00 -0.35588635547E+01 -0.18368245734E+02  0.72461592855E+02  0.70000029390E+02 0.  0.
        -12    1    1    2    0    0 -0.78763152210E+00  0.35588635547E+01  0.18368245734E+02  0.18726407145E+02  0.00000000000E+00 0.  1.
         11    1    3    3    0    0  0.90805528611E+01  0.66979880950E+00 -0.38310679907E+01  0.98783679279E+01  0.51100000000E-03 0. -1.
        -11    1    3    3    0    0 -0.40394816786E+01  0.26281812465E+02 -0.17191040321E+02  0.31663590230E+02  0.51100000000E-03 0.  1.
         12    1    3    3    0    0 -0.42534396603E+01 -0.30510474829E+02  0.26538625780E+01  0.30919634697E+02  0.00000000000E+00 0. -1.
</event>
<event>
 7    1  0.3435518E-013  0.7246156E+02  0.7816164E-02  0.1226708E+00
        -11   -1    0    0    0    0  0.00000000000E+00  0.00000000000E+00  0.45593999997E+02  0.45594000000E+02  0.51100000000E-03 0. -1.
         11   -1    0    0    0    0 -0.00000000000E+00 -0.00000000000E+00 -0.45593999997E+02  0.45594000000E+02  0.51100000000E-03 0.  1.
    9900012    2    1    2    0    0 -0.15118837815E+02 -0.10251645209E+02  0.41236075415E+01  0.72461558119E+02  0.69999984139E+02 0.  0.
        -12    1    1    2    0    0  0.15118837815E+02  0.10251645209E+02 -0.41236075415E+01  0.18726441881E+02  0.00000000000E+00 0.  1.
         11    1    3    3    0    0 -0.86085629771E+01  0.75848791950E+01  0.21023591704E+02  0.23950556514E+02  0.51100000000E-03 0. -1.
        -11    1    3    3    0    0 -0.40165738560E+01  0.56625501127E+01  0.10336801331E+02  0.12451779043E+02  0.51100000000E-03 0.  1.
        -12    1    3    3    0    0 -0.24937009821E+01 -0.23499074516E+02 -0.27236785494E+02  0.36059222562E+02  0.00000000000E+00 0.  1.
</event>
<event>
 7    1  0.3435518E-013  0.7246162E+02  0.7816164E-02  0.1226708E+00
        -11   -1    0    0    0    0  0.00000000000E+00  0.00000000000E+00  0.45593999997E+02  0.45594000000E+02  0.51100000000E-03 0.  1.
         11   -1    0    0    0    0 -0.00000000000E+00 -0.00000000000E+00 -0.45593999997E+02  0.45594000000E+02  0.51100000000E-03 0. -1.
    9900012    2    1    2    0    0  0.87001151665E+01  0.14521574412E+02 -0.80068244392E+01  0.72461618478E+02  0.70000062768E+02 0.  0.
        -12    1    1    2    0    0 -0.87001151665E+01 -0.14521574412E+02  0.80068244392E+01  0.18726381522E+02  0.00000000000E+00 0.  1.
         11    1    3    3    0    0  0.20510395487E+01  0.31792149813E+02 -0.56221984354E+00  0.31863202042E+02  0.51100000000E-03 0. -1.
        -11    1    3    3    0    0 -0.13013072680E+02 -0.70793388600E+01  0.44393755238E+01  0.15464965392E+02  0.51100000000E-03 0.  1.
         12    1    3    3    0    0  0.19662148298E+02 -0.10191236541E+02 -0.11883980119E+02  0.25133451044E+02  0.00000000000E+00 0. -1.
</event>
<event>
 7    1  0.3435518E-013  0.7246182E+02  0.7816164E-02  0.1226707E+00
        -11   -1    0    0    0    0  0.00000000000E+00  0.00000000000E+00  0.45593999997E+02  0.45594000000E+02  0.51100000000E-03 0.  1.
         11   -1    0    0    0    0 -0.00000000000E+00 -0.00000000000E+00 -0.45593999997E+02  0.45594000000E+02  0.51100000000E-03 0. -1.
    9900012    2    1    2    0    0  0.15391191639E+02 -0.68153480648E+01 -0.82056139223E+01  0.72461819152E+02  0.70000324182E+02 0.  0.
        -12    1    1    2    0    0 -0.15391191639E+02  0.68153480648E+01  0.82056139223E+01  0.18726180848E+02  0.00000000000E+00 0.  1.
         11    1    3    3    0    0 -0.15530984757E+02  0.16425054011E+02 -0.69998997166E+01  0.23664160308E+02  0.51100000000E-03 0. -1.
        -11    1    3    3    0    0  0.75328428498E+01 -0.18882960764E+02 -0.10945731601E+02  0.23089369181E+02  0.51100000000E-03 0.  1.
        -12    1    3    3    0    0  0.23389333546E+02 -0.43574413124E+01  0.97400173958E+01  0.25708289663E+02  0.00000000000E+00 0.  1.
</event>
<event>
 7    1  0.3435518E-013  0.7246156E+02  0.7816164E-02  0.1226708E+00
        -11   -1    0    0    0    0  0.00000000000E+00  0.00000000000E+00  0.45593999997E+02  0.45594000000E+02  0.51100000000E-03 0. -1.
         11   -1    0    0    0    0 -0.00000000000E+00 -0.00000000000E+00 -0.45593999997E+02  0.45594000000E+02  0.51100000000E-03 0.  1.
    9900012    2    1    2    0    0 -0.30385932317E+01 -0.17100255405E+02  0.70019867092E+01  0.72461558758E+02  0.69999984971E+02 0.  0.
        -12    1    1    2    0    0  0.30385932317E+01  0.17100255405E+02 -0.70019867092E+01  0.18726441242E+02  0.00000000000E+00 0.  1.
         11    1    3    3    0    0 -0.28681760813E+01  0.23014639702E+02 -0.78413668778E+01  0.24482383655E+02  0.51100000000E-03 0. -1.
        -11    1    3    3    0    0  0.20447740666E+01  0.22501916134E+01  0.20579246480E+01  0.36714462271E+01  0.51100000000E-03 0.  1.
        -12    1    3    3    0    0 -0.22151912169E+01 -0.42365086720E+02  0.12785428939E+02  0.44307728875E+02  0.00000000000E+00 0.  1.
</event>
<event>
 7    1  0.3435518E-013  0.7246182E+02  0.7816164E-02  0.1226707E+00
        -11   -1    0    0    0    0  0.00000000000E+00  0.00000000000E+00  0.45593999997E+02  0.45594000000E+02  0.51100000000E-03 0.  1.
         11   -1    0    0    0    0 -0.00000000000E+00 -0.00000000000E+00 -0.45593999997E+02  0.45594000000E+02  0.51100000000E-03 0. -1.
    9900012    2    1    2    0    0  0.17833506041E+02 -0.87983071718E+00  0.56446106569E+01  0.72461823955E+02  0.70000330440E+02 0.  0.
        -12    1    1    2    0    0 -0.17833506041E+02  0.87983071718E+00 -0.56446106569E+01  0.18726176045E+02  0.00000000000E+00 0.  1.
         11    1    3    3    0    0 -0.16305886971E+02 -0.56780006484E+01  0.15633542813E+01  0.17336831260E+02  0.51100000000E-03 0. -1.
        -11    1    3    3    0    0 -0.13772063173E+01 -0.50150593953E+01  0.15660175557E+02  0.16501170162E+02  0.51100000000E-03 0.  1.
        -12    1    3    3    0    0  0.35516599329E+02  0.98132293266E+01 -0.11578919181E+02  0.38623822533E+02  0.00000000000E+00 0.  1.
</event>
<event>
 7    1  0.3435518E-013  0.7246159E+02  0.7816164E-02  0.1226708E+00
        -11   -1    0    0    0    0  0.00000000000E+00  0.00000000000E+00  0.45593999997E+02  0.45594000000E+02  0.51100000000E-03 0.  1.
         11   -1    0    0    0    0 -0.00000000000E+00 -0.00000000000E+00 -0.45593999997E+02  0.45594000000E+02  0.51100000000E-03 0. -1.
    9900012    2    1    2    0    0 -0.62577471123E+01  0.17393163002E+02  0.29994764983E+01  0.72461591444E+02  0.70000027552E+02 0.  0.
        -12    1    1    2    0    0  0.62577471123E+01 -0.17393163002E+02 -0.29994764983E+01  0.18726408556E+02  0.00000000000E+00 0.  1.
         11    1    3    3    0    0 -0.73238538217E+00  0.14468948956E+02  0.26435241025E+02  0.30144797902E+02  0.51100000000E-03 0. -1.
        -11    1    3    3    0    0  0.65364188669E+01 -0.63485670013E+01  0.47583521370E+01  0.10279639580E+02  0.51100000000E-03 0.  1.
         12    1    3    3    0    0 -0.12061780597E+02  0.92727810475E+01 -0.28194116664E+02  0.32037153962E+02  0.00000000000E+00 0. -1.
</event>
<event>
 7    1  0.3435518E-013  0.7246146E+02  0.7816164E-02  0.1226708E+00
        -11   -1    0    0    0    0  0.00000000000E+00  0.00000000000E+00  0.45593999997E+02  0.45594000000E+02  0.51100000000E-03 0.  1.
         11   -1    0    0    0    0 -0.00000000000E+00 -0.00000000000E+00 -0.45593999997E+02  0.45594000000E+02  0.51100000000E-03 0. -1.
    9900012    2    1    2    0    0 -0.25526535594E+01 -0.10711653216E+02 -0.15146870923E+02  0.72461461249E+02  0.69999857949E+02 0.  0.
        -12    1    1    2    0    0  0.25526535594E+01  0.10711653216E+02  0.15146870923E+02  0.18726538751E+02  0.00000000000E+00 0.  1.
         11    1    3    3    0    0  0.11125747418E+02 -0.81034350369E+01 -0.31767765445E+02  0.34621363876E+02  0.51100000000E-03 0. -1.
        -11    1    3    3    0    0  0.47460282616E+01  0.10397327030E+02  0.51010494807E+01  0.12515985766E+02  0.51100000000E-03 0.  1.
        -12    1    3    3    0    0 -0.18424429239E+02 -0.13005545209E+02  0.11519845041E+02  0.25324111608E+02  0.00000000000E+00 0.  1.
</event>
<event>
 7    1  0.3435518E-013  0.7246153E+02  0.7816164E-02  0.1226708E+00
        -11   -1    0    0    0    0  0.00000000000E+00  0.00000000000E+00  0.45593999997E+02  0.45594000000E+02  0.51100000000E-03 0. -1.
         11   -1    0    0    0    0 -0.00000000000E+00 -0.00000000000E+00 -0.45593999997E+02  0.45594000000E+02  0.51100000000E-03 0.  1.
    9900012    2    1    2    0    0  0.20662144979E+01 -0.18161692856E+02  0.40699399396E+01  0.72461528339E+02  0.69999945345E+02 0.  0.
        -12    1    1    2    0    0 -0.20662144979E+01  0.18161692856E+02 -0.40699399396E+01  0.18726471661E+02  0.00000000000E+00 0.  1.
         11    1    3    3    0    0 -0.54270553517E+01  0.43772693797E+01 -0.19243459929E+02  0.20467637072E+02  0.51100000000E-03 0. -1.
        -11    1    3    3    0    0 -0.65968430320E+01 -0.12365287358E+02 -0.80317274046E+01  0.16153244714E+02  0.51100000000E-03 0.  1.
         12    1    3    3    0    0  0.14090112882E+02 -0.10173674878E+02  0.31345127273E+02  0.35840646553E+02  0.00000000000E+00 0. -1.
</event>
<event>
 7    1  0.3435518E-013  0.7246153E+02  0.7816164E-02  0.1226708E+00
        -11   -1    0    0    0    0  0.00000000000E+00  0.00000000000E+00  0.45593999997E+02  0.45594000000E+02  0.51100000000E-03 0.  1.
         11   -1    0    0    0    0 -0.00000000000E+00 -0.00000000000E+00 -0.45593999997E+02  0.45594000000E+02  0.51100000000E-03 0. -1.
    9900012    2    1    2    0    0  0.79197435132E+01  0.14112389863E+02 -0.94233108324E+01  0.72461530178E+02  0.69999947741E+02 0.  0.
        -12    1    1    2    0    0 -0.79197435132E+01 -0.14112389863E+02  0.94233108324E+01  0.18726469822E+02  0.00000000000E+00 0.  1.
         11    1    3    3    0    0 -0.21249067446E+02  0.18500052942E+02  0.52604589955E+01  0.28660901160E+02  0.51100000000E-03 0. -1.
        -11    1    3    3    0    0  0.65239799294E+01  0.35119249191E+01  0.79192068736E+01  0.10844803757E+02  0.51100000000E-03 0.  1.
         12    1    3    3    0    0  0.22644831029E+02 -0.78995879982E+01 -0.22602976701E+02  0.32955825261E+02  0.00000000000E+00 0. -1.
</event>
<event>
 7    1  0.3435518E-013  0.7246163E+02  0.7816164E-02  0.1226708E+00
        -11   -1    0    0    0    0  0.00000000000E+00  0.00000000000E+00  0.45593999997E+02  0.45594000000E+02  0.51100000000E-03 0.  1.
         11   -1    0    0    0    0 -0.00000000000E+00 -0.00000000000E+00 -0.45593999997E+02  0.45594000000E+02  0.51100000000E-03 0. -1.
    9900012    2    1    2    0    0  0.86248837973E+01  0.10903031064E+02  0.12546407232E+02  0.72461627117E+02  0.70000074022E+02 0.  0.
        -12    1    1    2    0    0 -0.86248837973E+01 -0.10903031064E+02 -0.12546407232E+02  0.18726372883E+02  0.00000000000E+00 0.  1.
         11    1    3    3    0    0 -0.10087739429E+02  0.11049839042E+02 -0.33977764787E+01  0.15342956524E+02  0.51100000000E-03 0. -1.
        -11    1    3    3    0    0 -0.17180980520E+02  0.87971434901E+00  0.12041369824E+02  0.20998918459E+02  0.51100000000E-03 0.  1.
        -12    1    3    3    0    0  0.35893603746E+02 -0.10265223276E+01  0.39028138868E+01  0.36119752134E+02  0.00000000000E+00 0.  1.
</event>
<event>
 7    1  0.3435518E-013  0.7246162E+02  0.7816164E-02  0.1226708E+00
        -11   -1    0    0    0    0  0.00000000000E+00  0.00000000000E+00  0.45593999997E+02  0.45594000000E+02  0.51100000000E-03 0.  1.
         11   -1    0    0    0    0 -0.00000000000E+00 -0.00000000000E+00 -0.45593999997E+02  0.45594000000E+02  0.51100000000E-03 0. -1.
    9900012    2    1    2    0    0  0.18372410867E+02 -0.30786700268E+01 -0.19114906352E+01  0.72461615227E+02  0.70000058534E+02 0.  0.
        -12    1    1    2    0    0 -0.18372410867E+02  0.30786700268E+01  0.19114906352E+01  0.18726384773E+02  0.00000000000E+00 0.  1.
         11    1    3    3    0    0 -0.65840367192E+01 -0.14706176931E+01 -0.59821796810E+01  0.90165808329E+01  0.51100000000E-03 0. -1.
        -11    1    3    3    0    0 -0.73062740782E+01  0.22050015978E+02 -0.21253850616E-01  0.23228975387E+02  0.51100000000E-03 0.  1.
         12    1    3    3    0    0  0.32262721665E+02 -0.23658068312E+02  0.40919428964E+01  0.40216059008E+02  0.00000000000E+00 0. -1.
</event>
<event>
 7    1  0.3660991E-013  0.7246154E+02  0.7816164E-02  0.1226708E+00
        -11   -1    0    0    0    0  0.00000000000E+00  0.00000000000E+00  0.45593999997E+02  0.45594000000E+02  0.51100000000E-03 0. -1.
         11   -1    0    0    0    0 -0.00000000000E+00 -0.00000000000E+00 -0.45593999997E+02  0.45594000000E+02  0.51100000000E-03 0.  1.
    9900012    2    1    2    0    0  0.16625070116E+02 -0.79563957537E+01  0.33140830551E+01  0.72461539143E+02  0.69999959419E+02 0.  0.
        -12    1    1    2    0    0 -0.16625070116E+02  0.79563957537E+01 -0.33140830551E+01  0.18726460857E+02  0.00000000000E+00 0.  1.
         11    1    3    3    0    0 -0.87951230678E+01 -0.97009049440E+01  0.83911033288E+01  0.15552246199E+02  0.51100000000E-03 0. -1.
        -11    1    3    3    0    0  0.97557289404E+01 -0.16424659576E+01 -0.27569748138E+02  0.29291004664E+02  0.51100000000E-03 0.  1.
         12    1    3    3    0    0  0.15664464243E+02  0.33869751479E+01  0.22492727864E+02  0.27618288279E+02  0.00000000000E+00 0. -1.
</event>
<event>
 7    1  0.3435518E-013  0.7246157E+02  0.7816164E-02  0.1226708E+00
        -11   -1    0    0    0    0  0.00000000000E+00  0.00000000000E+00  0.45593999997E+02  0.45594000000E+02  0.51100000000E-03 0.  1.
         11   -1    0    0    0    0 -0.00000000000E+00 -0.00000000000E+00 -0.45593999997E+02  0.45594000000E+02  0.51100000000E-03 0. -1.
    9900012    2    1    2    0    0  0.87906007124E+01 -0.16112650983E+02 -0.37130667642E+01  0.72461573555E+02  0.70000004248E+02 0.  0.
        -12    1    1    2    0    0 -0.87906007124E+01  0.16112650983E+02  0.37130667642E+01  0.18726426445E+02  0.00000000000E+00 0.  1.
         11    1    3    3    0    0 -0.12553177574E+02 -0.77389446144E+01 -0.19203225368E+02  0.24212339741E+02  0.51100000000E-03 0. -1.
        -11    1    3    3    0    0  0.17650159513E+02 -0.22363491775E+02  0.21527914938E+01  0.28570761395E+02  0.51100000000E-03 0.  1.
         12    1    3    3    0    0  0.36936187729E+01  0.13989785406E+02  0.13337367110E+02  0.19678472420E+02  0.00000000000E+00 0. -1.
</event>
<event>
 7    1  0.3435518E-013  0.7246156E+02  0.7816164E-02  0.1226708E+00
        -11   -1    0    0    0    0  0.00000000000E+00  0.00000000000E+00  0.45593999997E+02  0.45594000000E+02  0.51100000000E-03 0.  1.
         11   -1    0    0    0    0 -0.00000000000E+00 -0.00000000000E+00 -0.45593999997E+02  0.45594000000E+02  0.51100000000E-03 0. -1.
    9900012    2    1    2    0    0 -0.10499438150E+02 -0.11988503286E+02 -0.98344889506E+01  0.72461559190E+02  0.69999985534E+02 0.  0.
        -12    1    1    2    0    0  0.10499438150E+02  0.11988503286E+02  0.98344889506E+01  0.18726440810E+02  0.00000000000E+00 0.  1.
         11    1    3    3    0    0 -0.13720355312E+02 -0.28552087832E+02 -0.18204369518E+02  0.36535858267E+02  0.51100000000E-03 0. -1.
        -11    1    3    3    0    0  0.13349485001E+02 -0.19514398858E+01  0.57266987088E+01  0.14656464300E+02  0.51100000000E-03 0.  1.
        -12    1    3    3    0    0 -0.10128567839E+02  0.18515024433E+02  0.26431818582E+01  0.21269236623E+02  0.00000000000E+00 0.  1.
</event>
<event>
 7    1  0.3435518E-013  0.7246159E+02  0.7816164E-02  0.1226708E+00
        -11   -1    0    0    0    0  0.00000000000E+00  0.00000000000E+00  0.45593999997E+02  0.45594000000E+02  0.51100000000E-03 0. -1.
         11   -1    0    0    0    0 -0.00000000000E+00 -0.00000000000E+00 -0.45593999997E+02  0.45594000000E+02  0.51100000000E-03 0.  1.
    9900012    2    1    2    0    0  0.14101198965E+02 -0.10604799508E+02 -0.62747744782E+01  0.72461591386E+02  0.70000027475E+02 0.  0.
        -12    1    1    2    0    0 -0.14101198965E+02  0.10604799508E+02  0.62747744782E+01  0.18726408614E+02  0.00000000000E+00 0.  1.
         11    1    3    3    0    0 -0.82728844445E+00  0.75994607973E+00  0.18202381819E+02  0.18237012594E+02  0.51100000000E-03 0. -1.
        -11    1    3    3    0    0 -0.86902112972E+01 -0.20144824146E+02 -0.53303191894E+01  0.22577555563E+02  0.51100000000E-03 0.  1.
        -12    1    3    3    0    0  0.23618698706E+02  0.87800785582E+01 -0.19146837107E+02  0.31647023229E+02  0.00000000000E+00 0.  1.
</event>
<event>
 7    1  0.3435518E-013  0.7246159E+02  0.7816164E-02  0.1226708E+00
        -11   -1    0    0    0    0  0.00000000000E+00  0.00000000000E+00  0.45593999997E+02  0.45594000000E+02  0.51100000000E-03 0.  1.
         11   -1    0    0    0    0 -0.00000000000E+00 -0.00000000000E+00 -0.45593999997E+02  0.45594000000E+02  0.51100000000E-03 0. -1.
    9900012    2    1    2    0    0 -0.10402362572E+02 -0.15570441372E+02 -0.17480886330E+00  0.72461592183E+02  0.70000028514E+02 0.  0.
        -12    1    1    2    0    0  0.10402362572E+02  0.15570441372E+02  0.17480886330E+00  0.18726407817E+02  0.00000000000E+00 0.  1.
         11    1    3    3    0    0 -0.11930297885E+02 -0.14439152859E+02 -0.12605725788E+01  0.18772591361E+02  0.51100000000E-03 0. -1.
        -11    1    3    3    0    0 -0.11124942267E+02 -0.67457706988E+01  0.23779862724E+02  0.27106302481E+02  0.51100000000E-03 0.  1.
         12    1    3    3    0    0  0.12652877580E+02  0.56144821858E+01 -0.22694099008E+02  0.26582698341E+02  0.00000000000E+00 0. -1.
</event>
<event>
 7    1  0.3435518E-013  0.7246142E+02  0.7816164E-02  0.1226708E+00
        -11   -1    0    0    0    0  0.00000000000E+00  0.00000000000E+00  0.45593999997E+02  0.45594000000E+02  0.51100000000E-03 0.  1.
         11   -1    0    0    0    0 -0.00000000000E+00 -0.00000000000E+00 -0.45593999997E+02  0.45594000000E+02  0.51100000000E-03 0. -1.
    9900012    2    1    2    0    0  0.97609076395E+01 -0.13398710632E+02 -0.87111419767E+01  0.72461421052E+02  0.69999805584E+02 0.  0.
        -12    1    1    2    0    0 -0.97609076395E+01  0.13398710632E+02  0.87111419767E+01  0.18726578948E+02  0.00000000000E+00 0.  1.
         11    1    3    3    0    0 -0.20835378227E+01  0.66782086980E+01 -0.85103142213E+01  0.11016580671E+02  0.51100000000E-03 0. -1.
        -11    1    3    3    0    0 -0.18845320464E+02 -0.13586212994E+02  0.13878045039E+02  0.27061622665E+02  0.51100000000E-03 0.  1.
         12    1    3    3    0    0  0.30689765926E+02 -0.64907063360E+01 -0.14078872795E+02  0.34383217716E+02  0.00000000000E+00 0. -1.
</event>
<event>
 7    1  0.3435518E-013  0.7246156E+02  0.7816164E-02  0.1226708E+00
        -11   -1    0    0    0    0  0.00000000000E+00  0.00000000000E+00  0.45593999997E+02  0.45594000000E+02  0.51100000000E-03 0.  1.
         11   -1    0    0    0    0 -0.00000000000E+00 -0.00000000000E+00 -0.45593999997E+02  0.45594000000E+02  0.51100000000E-03 0. -1.
    9900012    2    1    2    0    0 -0.54547020781E+01 -0.12109153315E+02 -0.13202059158E+02  0.72461555202E+02  0.69999980339E+02 0.  0.
        -12    1    1    2    0    0  0.54547020781E+01  0.12109153315E+02  0.13202059158E+02  0.18726444798E+02  0.00000000000E+00 0.  1.
         11    1    3    3    0    0 -0.28884712750E+02  0.17550146161E+01 -0.17617327614E+01  0.28991557556E+02  0.51100000000E-03 0. -1.
        -11    1    3    3    0    0  0.24200566974E+01  0.39365184864E+01 -0.15007665562E+02  0.15702957622E+02  0.51100000000E-03 0.  1.
        -12    1    3    3    0    0  0.21009953974E+02 -0.17800686418E+02  0.35673391652E+01  0.27767040023E+02  0.00000000000E+00 0.  1.
</event>
<event>
 7    1  0.3435518E-013  0.7246157E+02  0.7816164E-02  0.1226708E+00
        -11   -1    0    0    0    0  0.00000000000E+00  0.00000000000E+00  0.45593999997E+02  0.45594000000E+02  0.51100000000E-03 0. -1.
         11   -1    0    0    0    0 -0.00000000000E+00 -0.00000000000E+00 -0.45593999997E+02  0.45594000000E+02  0.51100000000E-03 0.  1.
    9900012    2    1    2    0    0 -0.22637200012E+01 -0.10600522899E+02  0.15270347803E+02  0.72461573859E+02  0.70000004644E+02 0.  0.
        -12    1    1    2    0    0  0.22637200012E+01  0.10600522899E+02 -0.15270347803E+02  0.18726426141E+02  0.00000000000E+00 0.  1.
         11    1    3    3    0    0  0.41285394083E+01 -0.38703068050E+01  0.11103833974E+01  0.57668937879E+01  0.51100000000E-03 0. -1.
        -11    1    3    3    0    0 -0.48736724765E+01 -0.28743799739E+02  0.28183543080E+02  0.40549609217E+02  0.51100000000E-03 0.  1.
         12    1    3    3    0    0 -0.15185869331E+01  0.22013583645E+02 -0.14023578674E+02  0.26145070855E+02  0.00000000000E+00 0. -1.
</event>
<event>
 7    1  0.3435518E-013  0.7246157E+02  0.7816164E-02  0.1226708E+00
        -11   -1    0    0    0    0  0.00000000000E+00  0.00000000000E+00  0.45593999997E+02  0.45594000000E+02  0.51100000000E-03 0.  1.
         11   -1    0    0    0    0 -0.00000000000E+00 -0.00000000000E+00 -0.45593999997E+02  0.45594000000E+02  0.51100000000E-03 0. -1.
    9900012    2    1    2    0    0  0.94545130909E+01  0.13866849415E+02  0.83067429009E+01  0.72461566594E+02  0.69999995179E+02 0.  0.
        -12    1    1    2    0    0 -0.94545130909E+01 -0.13866849415E+02 -0.83067429009E+01  0.18726433406E+02  0.00000000000E+00 0.  1.
         11    1    3    3    0    0 -0.11368706746E+02  0.98283774049E+01  0.16278430114E+02  0.22154723712E+02  0.51100000000E-03 0. -1.
        -11    1    3    3    0    0 -0.11202920888E+02 -0.97036244756E+01 -0.23218022747E+01  0.15001884230E+02  0.51100000000E-03 0.  1.
        -12    1    3    3    0    0  0.32026140725E+02  0.13742096486E+02 -0.56498849387E+01  0.35304958652E+02  0.00000000000E+00 0.  1.
</event>
<event>
 7    1  0.3435518E-013  0.7246163E+02  0.7816164E-02  0.1226708E+00
        -11   -1    0    0    0    0  0.00000000000E+00  0.00000000000E+00  0.45593999997E+02  0.45594000000E+02  0.51100000000E-03 0. -1.
         11   -1    0    0    0    0 -0.00000000000E+00 -0.00000000000E+00 -0.45593999997E+02  0.45594000000E+02  0.51100000000E-03 0.  1.
    9900012    2    1    2    0    0 -0.13145924560E+01  0.16833027696E+02  0.80992566305E+01  0.72461630018E+02  0.70000077802E+02 0.  0.
        -12    1    1    2    0    0  0.13145924560E+01 -0.16833027696E+02 -0.80992566305E+01  0.18726369982E+02  0.00000000000E+00 0.  1.
         11    1    3    3    0    0  0.25064239945E+01  0.30605183230E+01 -0.63395800964E+01  0.74725637973E+01  0.51100000000E-03 0. -1.
        -11    1    3    3    0    0  0.20096921403E+02 -0.15510510508E+02  0.34822170855E+01  0.25623973583E+02  0.51100000000E-03 0.  1.
         12    1    3    3    0    0 -0.23917937853E+02  0.29283019880E+02  0.10956619641E+02  0.39365092638E+02  0.00000000000E+00 0. -1.
</event>
<event>
 7    1  0.3435518E-013  0.7246156E+02  0.7816164E-02  0.1226708E+00
        -11   -1    0    0    0    0  0.00000000000E+00  0.00000000000E+00  0.45593999997E+02  0.45594000000E+02  0.51100000000E-03 0.  1.
         11   -1    0    0    0    0 -0.00000000000E+00 -0.00000000000E+00 -0.45593999997E+02  0.45594000000E+02  0.51100000000E-03 0. -1.
    9900012    2    1    2    0    0 -0.97369015920E+00  0.34713597194E+01 -0.18376105805E+02  0.72461556788E+02  0.69999982405E+02 0.  0.
        -12    1    1    2    0    0  0.97369015920E+00 -0.34713597194E+01  0.18376105805E+02  0.18726443212E+02  0.00000000000E+00 0.  1.
         11    1    3    3    0    0 -0.13093359016E+02 -0.25323295291E+02  0.14832542990E+01  0.28546547572E+02  0.51100000000E-03 0. -1.
        -11    1    3    3    0    0 -0.42370561106E+01  0.67436369849E+00  0.19876756425E+01  0.47284527706E+01  0.51100000000E-03 0.  1.
        -12    1    3    3    0    0  0.16356724967E+02  0.28120291312E+02 -0.21847035746E+02  0.39186556445E+02  0.00000000000E+00 0.  1.
</event>
<event>
 7    1  0.3435518E-013  0.7246162E+02  0.7816164E-02  0.1226708E+00
        -11   -1    0    0    0    0  0.00000000000E+00  0.00000000000E+00  0.45593999997E+02  0.45594000000E+02  0.51100000000E-03 0.  1.
         11   -1    0    0    0    0 -0.00000000000E+00 -0.00000000000E+00 -0.45593999997E+02  0.45594000000E+02  0.51100000000E-03 0. -1.
    9900012    2    1    2    0    0  0.58571235091E+01 -0.80357185129E+01 -0.15868161824E+02  0.72461622147E+02  0.70000067547E+02 0.  0.
        -12    1    1    2    0    0 -0.58571235091E+01  0.80357185129E+01  0.15868161824E+02  0.18726377853E+02  0.00000000000E+00 0.  1.
         11    1    3    3    0    0 -0.19318479551E+02  0.28566358472E+01 -0.81600317409E+01  0.21164832595E+02  0.51100000000E-03 0. -1.
        -11    1    3    3    0    0 -0.97123758783E+01 -0.75935196236E+01 -0.10428713042E+02  0.16147750352E+02  0.51100000000E-03 0.  1.
        -12    1    3    3    0    0  0.34887978938E+02 -0.32988347365E+01  0.27205829584E+01  0.35149039199E+02  0.00000000000E+00 0.  1.
</event>
<event>
 7    1  0.3435518E-013  0.7246168E+02  0.7816164E-02  0.1226708E+00
        -11   -1    0    0    0    0  0.00000000000E+00  0.00000000000E+00  0.45593999997E+02  0.45594000000E+02  0.51100000000E-03 0. -1.
         11   -1    0    0    0    0 -0.00000000000E+00 -0.00000000000E+00 -0.45593999997E+02  0.45594000000E+02  0.51100000000E-03 0.  1.
    9900012    2    1    2    0    0  0.18143530242E+02 -0.16981007341E+01  0.43132330951E+01  0.72461675869E+02  0.70000137530E+02 0.  0.
        -12    1    1    2    0    0 -0.18143530242E+02  0.16981007341E+01 -0.43132330951E+01  0.18726324131E+02  0.00000000000E+00 0.  1.
         11    1    3    3    0    0 -0.71613467774E+01  0.74864081466E+01 -0.52799007625E+01  0.11627921006E+02  0.51100000000E-03 0. -1.
        -11    1    3    3    0    0  0.20581119333E+02 -0.17130583191E+02 -0.17645846834E+02  0.32068914297E+02  0.51100000000E-03 0.  1.
         12    1    3    3    0    0  0.47237576859E+01  0.79460743101E+01  0.27238980692E+02  0.28764840565E+02  0.00000000000E+00 0. -1.
</event>
<event>
 7    1  0.3435518E-013  0.7246155E+02  0.7816164E-02  0.1226708E+00
        -11   -1    0    0    0    0  0.00000000000E+00  0.00000000000E+00  0.45593999997E+02  0.45594000000E+02  0.51100000000E-03 0.  1.
         11   -1    0    0    0    0 -0.00000000000E+00 -0.00000000000E+00 -0.45593999997E+02  0.45594000000E+02  0.51100000000E-03 0. -1.
    9900012    2    1    2    0    0 -0.39623352347E+01  0.15009153863E+02  0.10474030070E+02  0.72461545287E+02  0.69999967424E+02 0.  0.
        -12    1    1    2    0    0  0.39623352347E+01 -0.15009153863E+02 -0.10474030070E+02  0.18726454713E+02  0.00000000000E+00 0.  1.
         11    1    3    3    0    0  0.10324037008E+02 -0.95737170379E+01  0.84735746345E+01  0.16432993197E+02  0.51100000000E-03 0. -1.
        -11    1    3    3    0    0 -0.38914591318E+01  0.26397202717E+02  0.21227428560E+02  0.34096326621E+02  0.51100000000E-03 0.  1.
         12    1    3    3    0    0 -0.10394913111E+02 -0.18143318166E+01 -0.19226973125E+02  0.21932225470E+02  0.00000000000E+00 0. -1.
</event>
<event>
 7    1  0.3435518E-013  0.7246158E+02  0.7816164E-02  0.1226708E+00
        -11   -1    0    0    0    0  0.00000000000E+00  0.00000000000E+00  0.45593999997E+02  0.45594000000E+02  0.51100000000E-03 0. -1.
         11   -1    0    0    0    0 -0.00000000000E+00 -0.00000000000E+00 -0.45593999997E+02  0.45594000000E+02  0.51100000000E-03 0.  1.
    9900012    2    1    2    0    0  0.12248787532E+02  0.10052198006E+01 -0.14129239907E+02  0.72461583279E+02  0.70000016914E+02 0.  0.
        -12    1    1    2    0    0 -0.12248787532E+02 -0.10052198006E+01  0.14129239907E+02  0.18726416721E+02  0.00000000000E+00 0.  1.
         11    1    3    3    0    0  0.72220877867E+01  0.11095030619E+01 -0.24700464956E+01  0.77130200956E+01  0.51100000000E-03 0. -1.
        -11    1    3    3    0    0 -0.11248390049E+02  0.12382946446E+02 -0.31843116998E+02  0.35970095104E+02  0.51100000000E-03 0.  1.
         12    1    3    3    0    0  0.16275089795E+02 -0.12487229707E+02  0.20183923587E+02  0.28778468079E+02  0.00000000000E+00 0. -1.
</event>
<event>
 7    1  0.3435518E-013  0.7246156E+02  0.7816164E-02  0.1226708E+00
        -11   -1    0    0    0    0  0.00000000000E+00  0.00000000000E+00  0.45593999997E+02  0.45594000000E+02  0.51100000000E-03 0.  1.
         11   -1    0    0    0    0 -0.00000000000E+00 -0.00000000000E+00 -0.45593999997E+02  0.45594000000E+02  0.51100000000E-03 0. -1.
    9900012    2    1    2    0    0  0.13468319535E+02  0.89025251872E+01 -0.94883570543E+01  0.72461561326E+02  0.69999988318E+02 0.  0.
        -12    1    1    2    0    0 -0.13468319535E+02 -0.89025251872E+01  0.94883570543E+01  0.18726438674E+02  0.00000000000E+00 0.  1.
         11    1    3    3    0    0  0.13198262330E+01 -0.13270210133E+02  0.36934382701E+01  0.13837698681E+02  0.51100000000E-03 0. -1.
        -11    1    3    3    0    0 -0.45247224685E+01  0.22392794220E+02  0.13957231034E+02  0.26771526755E+02  0.51100000000E-03 0.  1.
         12    1    3    3    0    0  0.16673215771E+02 -0.22005889938E+00 -0.27139026358E+02  0.31852335891E+02  0.00000000000E+00 0. -1.
</event>
<event>
 7    1  0.3435518E-013  0.7246156E+02  0.7816164E-02  0.1226708E+00
        -11   -1    0    0    0    0  0.00000000000E+00  0.00000000000E+00  0.45593999997E+02  0.45594000000E+02  0.51100000000E-03 0.  1.
         11   -1    0    0    0    0 -0.00000000000E+00 -0.00000000000E+00 -0.45593999997E+02  0.45594000000E+02  0.51100000000E-03 0. -1.
    9900012    2    1    2    0    0  0.67982725216E+01 -0.36369020992E+01 -0.17065632203E+02  0.72461564978E+02  0.69999993074E+02 0.  0.
        -12    1    1    2    0    0 -0.67982725216E+01  0.36369020992E+01  0.17065632203E+02  0.18726435022E+02  0.00000000000E+00 0.  1.
         11    1    3    3    0    0 -0.24191699058E+02 -0.11156001295E+02 -0.14184430349E+02  0.30180999532E+02  0.51100000000E-03 0. -1.
        -11    1    3    3    0    0 -0.14565492389E+01 -0.43845120046E+01 -0.60071465605E+01  0.75783435699E+01  0.51100000000E-03 0.  1.
        -12    1    3    3    0    0  0.32446520818E+02  0.11903611200E+02  0.31259447072E+01  0.34702221876E+02  0.00000000000E+00 0.  1.
</event>
<event>
 7    1  0.3435518E-013  0.7246141E+02  0.7816164E-02  0.1226708E+00
        -11   -1    0    0    0    0  0.00000000000E+00  0.00000000000E+00  0.45593999997E+02  0.45594000000E+02  0.51100000000E-03 0.  1.
         11   -1    0    0    0    0 -0.00000000000E+00 -0.00000000000E+00 -0.45593999997E+02  0.45594000000E+02  0.51100000000E-03 0. -1.
    9900012    2    1    2    0    0  0.17421140569E+02  0.20533834863E+00 -0.68663475315E+01  0.72461413793E+02  0.69999796127E+02 0.  0.
        -12    1    1    2    0    0 -0.17421140569E+02 -0.20533834863E+00  0.68663475315E+01  0.18726586207E+02  0.00000000000E+00 0.  1.
         11    1    3    3    0    0 -0.93751571629E+01 -0.16244650176E+02 -0.21879363528E+02  0.28818202231E+02  0.51100000000E-03 0. -1.
        -11    1    3    3    0    0  0.14206380386E+01  0.20512527429E+01 -0.67812061799E+01  0.72256908160E+01  0.51100000000E-03 0.  1.
        -12    1    3    3    0    0  0.25375659693E+02  0.14398735782E+02  0.21794222176E+02  0.36417520746E+02  0.00000000000E+00 0.  1.
</event>
<event>
 7    1  0.3435518E-013  0.7246157E+02  0.7816164E-02  0.1226708E+00
        -11   -1    0    0    0    0  0.00000000000E+00  0.00000000000E+00  0.45593999997E+02  0.45594000000E+02  0.51100000000E-03 0.  1.
         11   -1    0    0    0    0 -0.00000000000E+00 -0.00000000000E+00 -0.45593999997E+02  0.45594000000E+02  0.51100000000E-03 0. -1.
    9900012    2    1    2    0    0  0.96542850270E+01  0.12473450403E+02 -0.10093908687E+02  0.72461570097E+02  0.69999999742E+02 0.  0.
        -12    1    1    2    0    0 -0.96542850270E+01 -0.12473450403E+02  0.10093908687E+02  0.18726429903E+02  0.00000000000E+00 0.  1.
         11    1    3    3    0    0  0.15787902543E+02  0.92384711264E+01  0.83536440707E+01  0.20109465060E+02  0.51100000000E-03 0. -1.
        -11    1    3    3    0    0 -0.61476105661E+01  0.10626926454E+02  0.14261643318E+02  0.18818053882E+02  0.51100000000E-03 0.  1.
        -12    1    3    3    0    0  0.13993049844E-01 -0.73919471772E+01 -0.32709196076E+02  0.33534051154E+02  0.00000000000E+00 0.  1.
</event>
<event>
 7    1  0.3435518E-013  0.7246158E+02  0.7816164E-02  0.1226708E+00
        -11   -1    0    0    0    0  0.00000000000E+00  0.00000000000E+00  0.45593999997E+02  0.45594000000E+02  0.51100000000E-03 0. -1.
         11   -1    0    0    0    0 -0.00000000000E+00 -0.00000000000E+00 -0.45593999997E+02  0.45594000000E+02  0.51100000000E-03 0.  1.
    9900012    2    1    2    0    0 -0.14018795423E+02 -0.10950890109E+02  0.58506674028E+01  0.72461576734E+02  0.70000008388E+02 0.  0.
        -12    1    1    2    0    0  0.14018795423E+02  0.10950890109E+02 -0.58506674028E+01  0.18726423266E+02  0.00000000000E+00 0.  1.
         11    1    3    3    0    0  0.48496863877E+01 -0.34367542641E+02  0.64127835438E+01  0.35295484673E+02  0.51100000000E-03 0. -1.
        -11    1    3    3    0    0 -0.10142228009E+01  0.48331882732E+00  0.70362066963E+01  0.71253385823E+01  0.51100000000E-03 0.  1.
        -12    1    3    3    0    0 -0.17854259010E+02  0.22933333705E+02 -0.75983228372E+01  0.30040753478E+02  0.00000000000E+00 0.  1.
</event>
<event>
 7    1  0.3435518E-013  0.7246156E+02  0.7816164E-02  0.1226708E+00
        -11   -1    0    0    0    0  0.00000000000E+00  0.00000000000E+00  0.45593999997E+02  0.45594000000E+02  0.51100000000E-03 0.  1.
         11   -1    0    0    0    0 -0.00000000000E+00 -0.00000000000E+00 -0.45593999997E+02  0.45594000000E+02  0.51100000000E-03 0. -1.
    9900012    2    1    2    0    0 -0.29106209991E+01 -0.10299345154E+02 -0.15366568926E+02  0.72461557045E+02  0.69999982740E+02 0.  0.
        -12    1    1    2    0    0  0.29106209991E+01  0.10299345154E+02  0.15366568926E+02  0.18726442955E+02  0.00000000000E+00 0.  1.
         11    1    3    3    0    0 -0.15501229215E+01 -0.20945806634E+01 -0.22900078121E+02  0.23047857328E+02  0.51100000000E-03 0. -1.
        -11    1    3    3    0    0  0.21949412122E+02  0.10546232405E+01  0.10131540441E+02  0.24197872523E+02  0.51100000000E-03 0.  1.
         12    1    3    3    0    0 -0.23309910200E+02 -0.92593877308E+01 -0.25980312463E+01  0.25215827193E+02  0.00000000000E+00 0. -1.
</event>
<event>
 7    1  0.3435518E-013  0.7246153E+02  0.7816164E-02  0.1226708E+00
        -11   -1    0    0    0    0  0.00000000000E+00  0.00000000000E+00  0.45593999997E+02  0.45594000000E+02  0.51100000000E-03 0. -1.
         11   -1    0    0    0    0 -0.00000000000E+00 -0.00000000000E+00 -0.45593999997E+02  0.45594000000E+02  0.51100000000E-03 0.  1.
    9900012    2    1    2    0    0  0.93347117030E+01 -0.71711492179E+01  0.14564280709E+02  0.72461534870E+02  0.69999953853E+02 0.  0.
        -12    1    1    2    0    0 -0.93347117030E+01  0.71711492179E+01 -0.14564280709E+02  0.18726465130E+02  0.00000000000E+00 0.  1.
         11    1    3    3    0    0 -0.18809014829E+02 -0.86368394325E+01  0.11110124374E+02  0.23490612978E+02  0.51100000000E-03 0. -1.
        -11    1    3    3    0    0 -0.84990745655E+01  0.36981963207E+00 -0.68153719281E+01  0.10900473834E+02  0.51100000000E-03 0.  1.
         12    1    3    3    0    0  0.36642801097E+02  0.10958705826E+01  0.10269528264E+02  0.38070448058E+02  0.00000000000E+00 0. -1.
</event>
<event>
 7    1  0.3435518E-013  0.7246154E+02  0.7816164E-02  0.1226708E+00
        -11   -1    0    0    0    0  0.00000000000E+00  0.00000000000E+00  0.45593999997E+02  0.45594000000E+02  0.51100000000E-03 0.  1.
         11   -1    0    0    0    0 -0.00000000000E+00 -0.00000000000E+00 -0.45593999997E+02  0.45594000000E+02  0.51100000000E-03 0. -1.
    9900012    2    1    2    0    0 -0.11336726413E+02  0.11825141495E+02  0.90733166734E+01  0.72461537104E+02  0.69999956763E+02 0.  0.
        -12    1    1    2    0    0  0.11336726413E+02 -0.11825141495E+02 -0.90733166734E+01  0.18726462896E+02  0.00000000000E+00 0.  1.
         11    1    3    3    0    0 -0.56071654077E+01  0.35942449204E+00  0.11487098694E+02  0.12787608320E+02  0.51100000000E-03 0.  1.
        -11    1    3    3    0    0  0.94430206807E+01 -0.19598515244E+02  0.85960705020E+01  0.23391555478E+02  0.51100000000E-03 0. -1.
         12    1    3    3    0    0 -0.15172581686E+02  0.31064232247E+02 -0.11009852522E+02  0.36282373306E+02  0.00000000000E+00 0. -1.
</event>
<event>
 7    1  0.3435518E-013  0.7246153E+02  0.7816164E-02  0.1226708E+00
        -11   -1    0    0    0    0  0.00000000000E+00  0.00000000000E+00  0.45593999997E+02  0.45594000000E+02  0.51100000000E-03 0. -1.
         11   -1    0    0    0    0 -0.00000000000E+00 -0.00000000000E+00 -0.45593999997E+02  0.45594000000E+02  0.51100000000E-03 0.  1.
    9900012    2    1    2    0    0  0.92405804469E+01 -0.13959224313E+02  0.83924050032E+01  0.72461528572E+02  0.69999945649E+02 0.  0.
        -12    1    1    2    0    0 -0.92405804469E+01  0.13959224313E+02 -0.83924050032E+01  0.18726471428E+02  0.00000000000E+00 0.  1.
         11    1    3    3    0    0  0.60167099217E+01 -0.18041553630E+02 -0.27565720045E+02  0.33489810055E+02  0.51100000000E-03 0. -1.
        -11    1    3    3    0    0  0.41155107246E+01 -0.12841165885E+01  0.23185277625E+01  0.48950950127E+01  0.51100000000E-03 0.  1.
        -12    1    3    3    0    0 -0.89164019944E+00  0.53664459053E+01  0.33639597286E+02  0.34076623504E+02  0.00000000000E+00 0.  1.
</event>
<event>
 7    1  0.3435518E-013  0.7246155E+02  0.7816164E-02  0.1226708E+00
        -11   -1    0    0    0    0  0.00000000000E+00  0.00000000000E+00  0.45593999997E+02  0.45594000000E+02  0.51100000000E-03 0.  1.
         11   -1    0    0    0    0 -0.00000000000E+00 -0.00000000000E+00 -0.45593999997E+02  0.45594000000E+02  0.51100000000E-03 0. -1.
    9900012    2    1    2    0    0 -0.14392038248E+02 -0.11981025255E+02 -0.64357787889E-01  0.72461551511E+02  0.69999975531E+02 0.  0.
        -12    1    1    2    0    0  0.14392038248E+02  0.11981025255E+02  0.64357787889E-01  0.18726448489E+02  0.00000000000E+00 0.  1.
         11    1    3    3    0    0 -0.80751890625E+01 -0.18288151240E+02 -0.22012832481E+02  0.29736004241E+02  0.51100000000E-03 0. -1.
        -11    1    3    3    0    0 -0.98134384667E+01 -0.41899429976E+01 -0.62972942117E+01  0.12390121529E+02  0.51100000000E-03 0.  1.
        -12    1    3    3    0    0  0.34965892813E+01  0.10497068982E+02  0.28245768905E+02  0.30335425740E+02  0.00000000000E+00 0.  1.
</event>
<event>
 7    1  0.3435518E-013  0.7246160E+02  0.7816164E-02  0.1226708E+00
        -11   -1    0    0    0    0  0.00000000000E+00  0.00000000000E+00  0.45593999997E+02  0.45594000000E+02  0.51100000000E-03 0.  1.
         11   -1    0    0    0    0 -0.00000000000E+00 -0.00000000000E+00 -0.45593999997E+02  0.45594000000E+02  0.51100000000E-03 0. -1.
    9900012    2    1    2    0    0 -0.28735151006E+01 -0.41860123979E+01 -0.18024932155E+02  0.72461602374E+02  0.70000041790E+02 0.  0.
        -12    1    1    2    0    0  0.28735151006E+01  0.41860123979E+01  0.18024932155E+02  0.18726397626E+02  0.00000000000E+00 0.  1.
         11    1    3    3    0    0 -0.75071083502E+01  0.15161064964E+02 -0.17282002413E+02  0.24184337376E+02  0.51100000000E-03 0. -1.
        -11    1    3    3    0    0 -0.59034382926E+01  0.94044476323E+01 -0.11342762428E+02  0.15873011016E+02  0.51100000000E-03 0.  1.
        -12    1    3    3    0    0  0.10537031542E+02 -0.28751524994E+02  0.10599832686E+02  0.32404253983E+02  0.00000000000E+00 0.  1.
</event>
<event>
 7    1  0.3435518E-013  0.7246141E+02  0.7816164E-02  0.1226708E+00
        -11   -1    0    0    0    0  0.00000000000E+00  0.00000000000E+00  0.45593999997E+02  0.45594000000E+02  0.51100000000E-03 0.  1.
         11   -1    0    0    0    0 -0.00000000000E+00 -0.00000000000E+00 -0.45593999997E+02  0.45594000000E+02  0.51100000000E-03 0. -1.
    9900012    2    1    2    0    0 -0.18699456073E+02 -0.98543171508E-01 -0.10028657933E+01  0.72461411736E+02  0.69999793448E+02 0.  0.
        -12    1    1    2    0    0  0.18699456073E+02  0.98543171508E-01  0.10028657933E+01  0.18726588264E+02  0.00000000000E+00 0.  1.
         11    1    3    3    0    0 -0.78911316450E+01 -0.42756394121E+01  0.65390144402E+01  0.11104492835E+02  0.51100000000E-03 0. -1.
        -11    1    3    3    0    0 -0.25808894466E+02  0.15759018533E+02  0.13432440619E+02  0.33088912946E+02  0.51100000000E-03 0.  1.
         12    1    3    3    0    0  0.15000570038E+02 -0.11581922292E+02 -0.20974320853E+02  0.28268005955E+02  0.00000000000E+00 0. -1.
</event>
<event>
 7    1  0.3435518E-013  0.7246154E+02  0.7816164E-02  0.1226708E+00
        -11   -1    0    0    0    0  0.00000000000E+00  0.00000000000E+00  0.45593999997E+02  0.45594000000E+02  0.51100000000E-03 0. -1.
         11   -1    0    0    0    0 -0.00000000000E+00 -0.00000000000E+00 -0.45593999997E+02  0.45594000000E+02  0.51100000000E-03 0.  1.
    9900012    2    1    2    0    0 -0.62308536962E+01 -0.14206395922E+02 -0.10489763997E+02  0.72461538199E+02  0.69999958190E+02 0.  0.
        -12    1    1    2    0    0  0.62308536962E+01  0.14206395922E+02  0.10489763997E+02  0.18726461801E+02  0.00000000000E+00 0.  1.
         11    1    3    3    0    0 -0.86045485720E+00 -0.59065511170E+01  0.17690684313E+02  0.18670512591E+02  0.51100000000E-03 0. -1.
        -11    1    3    3    0    0 -0.24697048457E+02 -0.27133070977E+01 -0.20660946763E+02  0.32313788996E+02  0.51100000000E-03 0.  1.
         12    1    3    3    0    0  0.19326649618E+02 -0.55865377069E+01 -0.75195015471E+01  0.21477236613E+02  0.00000000000E+00 0. -1.
</event>
<event>
 7    1  0.3435518E-013  0.7246147E+02  0.7816164E-02  0.1226708E+00
        -11   -1    0    0    0    0  0.00000000000E+00  0.00000000000E+00  0.45593999997E+02  0.45594000000E+02  0.51100000000E-03 0. -1.
         11   -1    0    0    0    0 -0.00000000000E+00 -0.00000000000E+00 -0.45593999997E+02  0.45594000000E+02  0.51100000000E-03 0.  1.
    9900012    2    1    2    0    0 -0.46940544352E+01 -0.12177098530E+02  0.13430076221E+02  0.72461472747E+02  0.69999872926E+02 0.  0.
        -12    1    1    2    0    0  0.46940544352E+01  0.12177098530E+02 -0.13430076221E+02  0.18726527253E+02  0.00000000000E+00 0.  1.
         11    1    3    3    0    0  0.74276604153E+01 -0.29816670320E+01  0.19260651607E+02  0.20857448984E+02  0.51100000000E-03 0. -1.
        -11    1    3    3    0    0  0.15146055531E+02  0.56276094419E+01  0.75151807671E+01  0.17819958709E+02  0.51100000000E-03 0.  1.
         12    1    3    3    0    0 -0.27267770381E+02 -0.14823040940E+02 -0.13345756153E+02  0.33784065054E+02  0.00000000000E+00 0. -1.
</event>
<event>
 7    1  0.3435518E-013  0.7246156E+02  0.7816164E-02  0.1226708E+00
        -11   -1    0    0    0    0  0.00000000000E+00  0.00000000000E+00  0.45593999997E+02  0.45594000000E+02  0.51100000000E-03 0. -1.
         11   -1    0    0    0    0 -0.00000000000E+00 -0.00000000000E+00 -0.45593999997E+02  0.45594000000E+02  0.51100000000E-03 0.  1.
    9900012    2    1    2    0    0  0.41233884617E+01  0.15671660288E+02 -0.93848893322E+01  0.72461563704E+02  0.69999991415E+02 0.  0.
        -12    1    1    2    0    0 -0.41233884617E+01 -0.15671660288E+02  0.93848893322E+01  0.18726436296E+02  0.00000000000E+00 0.  1.
         11    1    3    3    0    0 -0.56997833497E+01 -0.14544817076E+01  0.25007762299E+01  0.63919425283E+01  0.51100000000E-03 0. -1.
        -11    1    3    3    0    0  0.30913939281E+01 -0.16844884048E+02  0.14573085160E+02  0.22487366373E+02  0.51100000000E-03 0.  1.
         12    1    3    3    0    0  0.67317778833E+01  0.33971026043E+02 -0.26458750723E+02  0.43582254803E+02  0.00000000000E+00 0. -1.
</event>
<event>
 7    1  0.3435518E-013  0.7246152E+02  0.7816164E-02  0.1226708E+00
        -11   -1    0    0    0    0  0.00000000000E+00  0.00000000000E+00  0.45593999997E+02  0.45594000000E+02  0.51100000000E-03 0.  1.
         11   -1    0    0    0    0 -0.00000000000E+00 -0.00000000000E+00 -0.45593999997E+02  0.45594000000E+02  0.51100000000E-03 0. -1.
    9900012    2    1    2    0    0  0.26722228944E+01 -0.17783461036E+02 -0.52238594648E+01  0.72461522239E+02  0.69999937399E+02 0.  0.
        -12    1    1    2    0    0 -0.26722228944E+01  0.17783461036E+02  0.52238594648E+01  0.18726477761E+02  0.00000000000E+00 0.  1.
         11    1    3    3    0    0  0.16744462177E+02  0.11314833522E+02 -0.19398981706E+02  0.28012907074E+02  0.51100000000E-03 0. -1.
        -11    1    3    3    0    0 -0.66036449309E+01  0.86126206931E+00 -0.47986270368E+01  0.82083323778E+01  0.51100000000E-03 0.  1.
        -12    1    3    3    0    0 -0.74685943519E+01 -0.29959556627E+02  0.18973749278E+02  0.36240282788E+02  0.00000000000E+00 0.  1.
</event>
<event>
 7    1  0.3435518E-013  0.7246154E+02  0.7816164E-02  0.1226708E+00
        -11   -1    0    0    0    0  0.00000000000E+00  0.00000000000E+00  0.45593999997E+02  0.45594000000E+02  0.51100000000E-03 0. -1.
         11   -1    0    0    0    0 -0.00000000000E+00 -0.00000000000E+00 -0.45593999997E+02  0.45594000000E+02  0.51100000000E-03 0.  1.
    9900012    2    1    2    0    0 -0.17859766839E+02  0.23915353001E+01  0.50979880051E+01  0.72461542932E+02  0.69999964355E+02 0.  0.
        -12    1    1    2    0    0  0.17859766839E+02 -0.23915353001E+01 -0.50979880051E+01  0.18726457068E+02  0.00000000000E+00 0.  1.
         11    1    3    3    0    0  0.15679088882E+01 -0.84369966387E+01  0.18451209867E+02  0.20349162056E+02  0.51100000000E-03 0. -1.
        -11    1    3    3    0    0 -0.16249682486E+02 -0.15385703225E+02  0.31142432069E+00  0.22380103440E+02  0.51100000000E-03 0.  1.
        -12    1    3    3    0    0 -0.31779932409E+01  0.26214235164E+02 -0.13664646182E+02  0.29732277436E+02  0.00000000000E+00 0.  1.
</event>
<event>
 7    1  0.3435518E-013  0.7246155E+02  0.7816164E-02  0.1226708E+00
        -11   -1    0    0    0    0  0.00000000000E+00  0.00000000000E+00  0.45593999997E+02  0.45594000000E+02  0.51100000000E-03 0. -1.
         11   -1    0    0    0    0 -0.00000000000E+00 -0.00000000000E+00 -0.45593999997E+02  0.45594000000E+02  0.51100000000E-03 0.  1.
    9900012    2    1    2    0    0  0.75415851897E+01 -0.17130135238E+02  0.60231151387E+00  0.72461552937E+02  0.69999977388E+02 0.  0.
        -12    1    1    2    0    0 -0.75415851897E+01  0.17130135238E+02 -0.60231151387E+00  0.18726447063E+02  0.00000000000E+00 0.  1.
         11    1    3    3    0    0 -0.30807986436E+01 -0.15832352348E+01  0.42228934030E+01  0.54617564066E+01  0.51100000000E-03 0. -1.
        -11    1    3    3    0    0  0.22327482869E+02  0.19665337765E+02 -0.27929244546E+01  0.29883815485E+02  0.51100000000E-03 0.  1.
         12    1    3    3    0    0 -0.11705099036E+02 -0.35212237768E+02 -0.82765743456E+00  0.37115981045E+02  0.00000000000E+00 0. -1.
</event>
<event>
 7    1  0.3435518E-013  0.7246149E+02  0.7816164E-02  0.1226708E+00
        -11   -1    0    0    0    0  0.00000000000E+00  0.00000000000E+00  0.45593999997E+02  0.45594000000E+02  0.51100000000E-03 0.  1.
         11   -1    0    0    0    0 -0.00000000000E+00 -0.00000000000E+00 -0.45593999997E+02  0.45594000000E+02  0.51100000000E-03 0. -1.
    9900012    2    1    2    0    0 -0.58665013618E+01 -0.12952509122E+02 -0.12186012421E+02  0.72461488593E+02  0.69999893568E+02 0.  0.
        -12    1    1    2    0    0  0.58665013618E+01  0.12952509122E+02  0.12186012421E+02  0.18726511407E+02  0.00000000000E+00 0.  1.
         11    1    3    3    0    0 -0.70995755562E+01 -0.11632536314E+02 -0.80165529428E+01  0.15810913810E+02  0.51100000000E-03 0. -1.
        -11    1    3    3    0    0 -0.14228863892E+02 -0.18068741788E+02  0.14498530137E+02  0.27187264920E+02  0.51100000000E-03 0.  1.
        -12    1    3    3    0    0  0.15461938086E+02  0.16748768980E+02 -0.18667989615E+02  0.29463309862E+02  0.00000000000E+00 0.  1.
</event>
<event>
 7    1  0.3435518E-013  0.7246161E+02  0.7816164E-02  0.1226708E+00
        -11   -1    0    0    0    0  0.00000000000E+00  0.00000000000E+00  0.45593999997E+02  0.45594000000E+02  0.51100000000E-03 0. -1.
         11   -1    0    0    0    0 -0.00000000000E+00 -0.00000000000E+00 -0.45593999997E+02  0.45594000000E+02  0.51100000000E-03 0.  1.
    9900012    2    1    2    0    0 -0.12537320890E+02 -0.24684775108E-01  0.13910165070E+02  0.72461609084E+02  0.70000050531E+02 0.  0.
        -12    1    1    2    0    0  0.12537320890E+02  0.24684775108E-01 -0.13910165070E+02  0.18726390916E+02  0.00000000000E+00 0.  1.
         11    1    3    3    0    0  0.11171777596E+02 -0.15832257430E+02 -0.11301041580E+01  0.19409949140E+02  0.51100000000E-03 0. -1.
        -11    1    3    3    0    0 -0.31274342124E+02 -0.57418404420E+00  0.31405154649E+01  0.31436873258E+02  0.51100000000E-03 0.  1.
         12    1    3    3    0    0  0.75652436380E+01  0.16381756699E+02  0.11899753763E+02  0.21614786686E+02  0.00000000000E+00 0. -1.
</event>
<event>
 7    1  0.3435518E-013  0.7246162E+02  0.7816164E-02  0.1226708E+00
        -11   -1    0    0    0    0  0.00000000000E+00  0.00000000000E+00  0.45593999997E+02  0.45594000000E+02  0.51100000000E-03 0. -1.
         11   -1    0    0    0    0 -0.00000000000E+00 -0.00000000000E+00 -0.45593999997E+02  0.45594000000E+02  0.51100000000E-03 0.  1.
    9900012    2    1    2    0    0 -0.15131754282E+02  0.73588860984E+01  0.82191293473E+01  0.72461620758E+02  0.70000065739E+02 0.  0.
        -12    1    1    2    0    0  0.15131754282E+02 -0.73588860984E+01 -0.82191293473E+01  0.18726379242E+02  0.00000000000E+00 0.  1.
         11    1    3    3    0    0  0.18528421397E+02  0.19390014526E+02  0.14105269243E+02  0.30302370922E+02  0.51100000000E-03 0. -1.
        -11    1    3    3    0    0  0.86214667491E+00  0.31554857814E+01 -0.28215668002E+01  0.43199105170E+01  0.51100000000E-03 0.  1.
        -12    1    3    3    0    0 -0.34522322355E+02 -0.15186614209E+02 -0.30645730955E+01  0.37839339320E+02  0.00000000000E+00 0.  1.
</event>
<event>
 7    1  0.3435518E-013  0.7246156E+02  0.7816164E-02  0.1226708E+00
        -11   -1    0    0    0    0  0.00000000000E+00  0.00000000000E+00  0.45593999997E+02  0.45594000000E+02  0.51100000000E-03 0. -1.
         11   -1    0    0    0    0 -0.00000000000E+00 -0.00000000000E+00 -0.45593999997E+02  0.45594000000E+02  0.51100000000E-03 0.  1.
    9900012    2    1    2    0    0  0.77642688413E+01 -0.67844531053E+01  0.15632232855E+02  0.72461564712E+02  0.69999992727E+02 0.  0.
        -12    1    1    2    0    0 -0.77642688413E+01  0.67844531053E+01 -0.15632232855E+02  0.18726435288E+02  0.00000000000E+00 0.  1.
         11    1    3    3    0    0 -0.46231793514E+01  0.12883446614E+02 -0.13753675609E+02  0.19404138141E+02  0.51100000000E-03 0. -1.
        -11    1    3    3    0    0  0.17138208388E+02 -0.91300373101E+01 -0.20857188447E+01  0.19530130348E+02  0.51100000000E-03 0.  1.
         12    1    3    3    0    0 -0.47507601954E+01 -0.10537862409E+02  0.31471627308E+02  0.33527296223E+02  0.00000000000E+00 0. -1.
</event>
<event>
 7    1  0.3435518E-013  0.7246164E+02  0.7816164E-02  0.1226708E+00
        -11   -1    0    0    0    0  0.00000000000E+00  0.00000000000E+00  0.45593999997E+02  0.45594000000E+02  0.51100000000E-03 0.  1.
         11   -1    0    0    0    0 -0.00000000000E+00 -0.00000000000E+00 -0.45593999997E+02  0.45594000000E+02  0.51100000000E-03 0. -1.
    9900012    2    1    2    0    0  0.16096561671E+02  0.94802756378E+01 -0.13044930039E+01  0.72461638213E+02  0.70000088476E+02 0.  0.
        -12    1    1    2    0    0 -0.16096561671E+02 -0.94802756378E+01  0.13044930039E+01  0.18726361787E+02  0.00000000000E+00 0.  1.
         11    1    3    3    0    0 -0.34477595591E+01 -0.38894439427E+00 -0.22945587035E+02  0.23206427738E+02  0.51100000000E-03 0. -1.
        -11    1    3    3    0    0  0.21836776653E+02  0.51618339215E+01 -0.42521313840E+01  0.22837906331E+02  0.51100000000E-03 0.  1.
        -12    1    3    3    0    0 -0.22924554226E+01  0.47073861105E+01  0.25893225415E+02  0.26417304144E+02  0.00000000000E+00 0.  1.
</event>
<event>
 7    1  0.3435518E-013  0.7246156E+02  0.7816164E-02  0.1226708E+00
        -11   -1    0    0    0    0  0.00000000000E+00  0.00000000000E+00  0.45593999997E+02  0.45594000000E+02  0.51100000000E-03 0.  1.
         11   -1    0    0    0    0 -0.00000000000E+00 -0.00000000000E+00 -0.45593999997E+02  0.45594000000E+02  0.51100000000E-03 0. -1.
    9900012    2    1    2    0    0 -0.13040926130E+02  0.66541916813E+01 -0.11676273062E+02  0.72461564838E+02  0.69999992892E+02 0.  0.
        -12    1    1    2    0    0  0.13040926130E+02 -0.66541916813E+01  0.11676273062E+02  0.18726435162E+02  0.00000000000E+00 0.  1.
         11    1    3    3    0    0 -0.59184216625E+01  0.15694687713E+02  0.39061602399E+01  0.17222340882E+02  0.51100000000E-03 0. -1.
        -11    1    3    3    0    0 -0.17106105864E+02 -0.22283188222E+02  0.52843713016E+01  0.28584679734E+02  0.51100000000E-03 0.  1.
         12    1    3    3    0    0  0.99836013972E+01  0.13242692191E+02 -0.20866804604E+02  0.26654544222E+02  0.00000000000E+00 0. -1.
</event>
<event>
 7    1  0.3435518E-013  0.7246159E+02  0.7816164E-02  0.1226708E+00
        -11   -1    0    0    0    0  0.00000000000E+00  0.00000000000E+00  0.45593999997E+02  0.45594000000E+02  0.51100000000E-03 0. -1.
         11   -1    0    0    0    0 -0.00000000000E+00 -0.00000000000E+00 -0.45593999997E+02  0.45594000000E+02  0.51100000000E-03 0.  1.
    9900012    2    1    2    0    0 -0.59564897255E+01  0.76944116979E+01  0.15999838625E+02  0.72461586108E+02  0.70000020600E+02 0.  0.
        -12    1    1    2    0    0  0.59564897255E+01 -0.76944116979E+01 -0.15999838625E+02  0.18726413892E+02  0.00000000000E+00 0.  1.
         11    1    3    3    0    0 -0.30475036404E+01  0.23964153472E+02  0.69976622498E+01  0.25150252629E+02  0.51100000000E-03 0. -1.
        -11    1    3    3    0    0  0.13055775137E+02 -0.59960656165E+00 -0.11167500267E+02  0.17190865450E+02  0.51100000000E-03 0.  1.
         12    1    3    3    0    0 -0.15964761222E+02 -0.15670135213E+02  0.20169676642E+02  0.30120468029E+02  0.00000000000E+00 0. -1.
</event>
<event>
 7    1  0.3435518E-013  0.7246159E+02  0.7816164E-02  0.1226708E+00
        -11   -1    0    0    0    0  0.00000000000E+00  0.00000000000E+00  0.45593999997E+02  0.45594000000E+02  0.51100000000E-03 0.  1.
         11   -1    0    0    0    0 -0.00000000000E+00 -0.00000000000E+00 -0.45593999997E+02  0.45594000000E+02  0.51100000000E-03 0. -1.
    9900012    2    1    2    0    0  0.15411242662E+02  0.24555822316E+01  0.10350951395E+02  0.72461588724E+02  0.70000024008E+02 0.  0.
        -12    1    1    2    0    0 -0.15411242662E+02 -0.24555822316E+01 -0.10350951395E+02  0.18726411276E+02  0.00000000000E+00 0.  1.
         11    1    3    3    0    0  0.23880336793E+02  0.13344689331E+02  0.16152844500E+02  0.31768940876E+02  0.51100000000E-03 0. -1.
        -11    1    3    3    0    0  0.10780023143E+02 -0.68701692815E+01  0.93753213223E+01  0.15852595216E+02  0.51100000000E-03 0.  1.
        -12    1    3    3    0    0 -0.19249117274E+02 -0.40189378182E+01 -0.15177214427E+02  0.24840052632E+02  0.00000000000E+00 0.  1.
</event>
<event>
 7    1  0.3435518E-013  0.7246158E+02  0.7816164E-02  0.1226708E+00
        -11   -1    0    0    0    0  0.00000000000E+00  0.00000000000E+00  0.45593999997E+02  0.45594000000E+02  0.51100000000E-03 0.  1.
         11   -1    0    0    0    0 -0.00000000000E+00 -0.00000000000E+00 -0.45593999997E+02  0.45594000000E+02  0.51100000000E-03 0. -1.
    9900012    2    1    2    0    0 -0.27150027815E+01  0.16039493328E+02 -0.92758945929E+01  0.72461579978E+02  0.70000012615E+02 0.  0.
        -12    1    1    2    0    0  0.27150027815E+01 -0.16039493328E+02  0.92758945929E+01  0.18726420022E+02  0.00000000000E+00 0.  1.
         11    1    3    3    0    0  0.52648995924E+01 -0.84004398975E+00 -0.37955916275E+01  0.65445670358E+01  0.51100000000E-03 0. -1.
        -11    1    3    3    0    0 -0.11329392045E+02 -0.20678210137E+02 -0.13776740866E+02  0.27308278739E+02  0.51100000000E-03 0.  1.
         12    1    3    3    0    0  0.33494896707E+01  0.37557747455E+02  0.82964379008E+01  0.38608734203E+02  0.00000000000E+00 0. -1.
</event>
<event>
 7    1  0.3435518E-013  0.7246153E+02  0.7816164E-02  0.1226708E+00
        -11   -1    0    0    0    0  0.00000000000E+00  0.00000000000E+00  0.45593999997E+02  0.45594000000E+02  0.51100000000E-03 0. -1.
         11   -1    0    0    0    0 -0.00000000000E+00 -0.00000000000E+00 -0.45593999997E+02  0.45594000000E+02  0.51100000000E-03 0.  1.
    9900012    2    1    2    0    0  0.32514335779E+01 -0.18441943261E+02 -0.59093415453E-01  0.72461532538E+02  0.69999950816E+02 0.  0.
        -12    1    1    2    0    0 -0.32514335779E+01  0.18441943261E+02  0.59093415453E-01  0.18726467462E+02  0.00000000000E+00 0.  1.
         11    1    3    3    0    0  0.22822425465E+02 -0.44471820918E+01 -0.13465272068E+02  0.26869203278E+02  0.51100000000E-03 0. -1.
        -11    1    3    3    0    0 -0.28423419937E+01  0.67629245178E+01 -0.83986382217E+01  0.11151375713E+02  0.51100000000E-03 0.  1.
        -12    1    3    3    0    0 -0.16728649893E+02 -0.20757685687E+02  0.21804816875E+02  0.34440953548E+02  0.00000000000E+00 0.  1.
</event>
<event>
 7    1  0.3435518E-013  0.7246158E+02  0.7816164E-02  0.1226708E+00
        -11   -1    0    0    0    0  0.00000000000E+00  0.00000000000E+00  0.45593999997E+02  0.45594000000E+02  0.51100000000E-03 0. -1.
         11   -1    0    0    0    0 -0.00000000000E+00 -0.00000000000E+00 -0.45593999997E+02  0.45594000000E+02  0.51100000000E-03 0.  1.
    9900012    2    1    2    0    0 -0.14224849513E+02 -0.95383009339E+01 -0.75731971311E+01  0.72461579008E+02  0.70000011351E+02 0.  0.
        -12    1    1    2    0    0  0.14224849513E+02  0.95383009339E+01  0.75731971311E+01  0.18726420992E+02  0.00000000000E+00 0.  1.
         11    1    3    3    0    0 -0.96055804496E+01 -0.84942705357E+01 -0.58999666973E+01  0.14114865036E+02  0.51100000000E-03 0. -1.
        -11    1    3    3    0    0 -0.29577867763E+02  0.94621516616E+01 -0.32315079190E+01  0.31222191133E+02  0.51100000000E-03 0.  1.
         12    1    3    3    0    0  0.24958598699E+02 -0.10506182060E+02  0.15582774852E+01  0.27124522838E+02  0.00000000000E+00 0. -1.
</event>
<event>
 7    1  0.3435518E-013  0.7246157E+02  0.7816164E-02  0.1226708E+00
        -11   -1    0    0    0    0  0.00000000000E+00  0.00000000000E+00  0.45593999997E+02  0.45594000000E+02  0.51100000000E-03 0. -1.
         11   -1    0    0    0    0 -0.00000000000E+00 -0.00000000000E+00 -0.45593999997E+02  0.45594000000E+02  0.51100000000E-03 0.  1.
    9900012    2    1    2    0    0  0.13927982156E+02  0.41058198794E+01  0.11825092547E+02  0.72461567944E+02  0.69999996938E+02 0.  0.
        -12    1    1    2    0    0 -0.13927982156E+02 -0.41058198794E+01 -0.11825092547E+02  0.18726432056E+02  0.00000000000E+00 0.  1.
         11    1    3    3    0    0  0.20325974242E+02 -0.42554424309E+01  0.21507483467E+02  0.29896920653E+02  0.51100000000E-03 0. -1.
        -11    1    3    3    0    0  0.90115500659E+01  0.13162989580E+02  0.86443210094E+01  0.18143776212E+02  0.51100000000E-03 0.  1.
        -12    1    3    3    0    0 -0.15409542152E+02 -0.48017272692E+01 -0.18326711930E+02  0.24420871079E+02  0.00000000000E+00 0.  1.
</event>
<event>
 7    1  0.3435518E-013  0.7246156E+02  0.7816164E-02  0.1226708E+00
        -11   -1    0    0    0    0  0.00000000000E+00  0.00000000000E+00  0.45593999997E+02  0.45594000000E+02  0.51100000000E-03 0.  1.
         11   -1    0    0    0    0 -0.00000000000E+00 -0.00000000000E+00 -0.45593999997E+02  0.45594000000E+02  0.51100000000E-03 0. -1.
    9900012    2    1    2    0    0 -0.80450240225E+01  0.16906135583E+02 -0.37381662036E+00  0.72461559582E+02  0.69999986045E+02 0.  0.
        -12    1    1    2    0    0  0.80450240225E+01 -0.16906135583E+02  0.37381662036E+00  0.18726440418E+02  0.00000000000E+00 0.  1.
         11    1    3    3    0    0 -0.19681594876E+02 -0.21305390083E+02  0.60029476671E+01  0.29619591564E+02  0.51100000000E-03 0.  1.
        -11    1    3    3    0    0  0.48413158122E+01  0.13807153541E+02  0.44492962145E+01  0.15292876275E+02  0.51100000000E-03 0. -1.
        -12    1    3    3    0    0  0.67952550409E+01  0.24404372125E+02 -0.10826060502E+02  0.27549091743E+02  0.00000000000E+00 0.  1.
</event>
<event>
 7    1  0.3435518E-013  0.7246154E+02  0.7816164E-02  0.1226708E+00
        -11   -1    0    0    0    0  0.00000000000E+00  0.00000000000E+00  0.45593999997E+02  0.45594000000E+02  0.51100000000E-03 0. -1.
         11   -1    0    0    0    0 -0.00000000000E+00 -0.00000000000E+00 -0.45593999997E+02  0.45594000000E+02  0.51100000000E-03 0.  1.
    9900012    2    1    2    0    0  0.11924967048E+02  0.14433024718E+02 -0.40412676282E+00  0.72461538507E+02  0.69999958591E+02 0.  0.
        -12    1    1    2    0    0 -0.11924967048E+02 -0.14433024718E+02  0.40412676282E+00  0.18726461493E+02  0.00000000000E+00 0.  1.
         11    1    3    3    0    0 -0.63675163205E+01 -0.19876147560E+01  0.21570174910E+02  0.22578049571E+02  0.51100000000E-03 0. -1.
        -11    1    3    3    0    0  0.92966109177E+01  0.24005982421E+02 -0.91475432898E+00  0.25759482571E+02  0.51100000000E-03 0.  1.
        -12    1    3    3    0    0  0.89958724509E+01 -0.75853429474E+01 -0.21059547344E+02  0.24124006365E+02  0.00000000000E+00 0.  1.
</event>
<event>
 7    1  0.3435518E-013  0.7246164E+02  0.7816164E-02  0.1226708E+00
        -11   -1    0    0    0    0  0.00000000000E+00  0.00000000000E+00  0.45593999997E+02  0.45594000000E+02  0.51100000000E-03 0.  1.
         11   -1    0    0    0    0 -0.00000000000E+00 -0.00000000000E+00 -0.45593999997E+02  0.45594000000E+02  0.51100000000E-03 0. -1.
    9900012    2    1    2    0    0  0.12107571836E+02 -0.98126784882E+01 -0.10382412057E+02  0.72461643307E+02  0.70000095112E+02 0.  0.
        -12    1    1    2    0    0 -0.12107571836E+02  0.98126784882E+01  0.10382412057E+02  0.18726356693E+02  0.00000000000E+00 0.  1.
         11    1    3    3    0    0 -0.15537247317E+01  0.17474019305E+01  0.44758217828E+00  0.23807150430E+01  0.51100000000E-03 0. -1.
        -11    1    3    3    0    0  0.10906935609E+02 -0.48310712798E-01  0.27701987268E+02  0.29771860492E+02  0.51100000000E-03 0.  1.
         12    1    3    3    0    0  0.27543609593E+01 -0.11511769706E+02 -0.38531981503E+02  0.40309067772E+02  0.00000000000E+00 0. -1.
</event>
<event>
 7    1  0.3435518E-013  0.7246156E+02  0.7816164E-02  0.1226708E+00
        -11   -1    0    0    0    0  0.00000000000E+00  0.00000000000E+00  0.45593999997E+02  0.45594000000E+02  0.51100000000E-03 0. -1.
         11   -1    0    0    0    0 -0.00000000000E+00 -0.00000000000E+00 -0.45593999997E+02  0.45594000000E+02  0.51100000000E-03 0.  1.
    9900012    2    1    2    0    0 -0.55442888521E+01 -0.25351061846E+01  0.17706315285E+02  0.72461561385E+02  0.69999988393E+02 0.  0.
        -12    1    1    2    0    0  0.55442888521E+01  0.25351061846E+01 -0.17706315285E+02  0.18726438615E+02  0.00000000000E+00 0.  1.
         11    1    3    3    0    0 -0.25336954945E+02 -0.14088668015E+02  0.30782129958E+01  0.29153511758E+02  0.51100000000E-03 0. -1.
        -11    1    3    3    0    0  0.11053666108E+02 -0.92955324712E+01 -0.28645563377E+01  0.14723998833E+02  0.51100000000E-03 0.  1.
         12    1    3    3    0    0  0.87389999846E+01  0.20849094302E+02  0.17492658627E+02  0.28584050794E+02  0.00000000000E+00 0. -1.
</event>
<event>
 7    1  0.3435518E-013  0.7246231E+02  0.7816164E-02  0.1226706E+00
        -11   -1    0    0    0    0  0.00000000000E+00  0.00000000000E+00  0.45593999997E+02  0.45594000000E+02  0.51100000000E-03 0.  1.
         11   -1    0    0    0    0 -0.00000000000E+00 -0.00000000000E+00 -0.45593999997E+02  0.45594000000E+02  0.51100000000E-03 0. -1.
    9900012    2    1    2    0    0  0.55300064690E+01  0.16756762950E+02  0.62674819120E+01  0.72462311612E+02  0.70000965697E+02 0.  0.
        -12    1    1    2    0    0 -0.55300064690E+01 -0.16756762950E+02 -0.62674819120E+01  0.18725688388E+02  0.00000000000E+00 0.  1.
         11    1    3    3    0    0  0.15010978951E+02 -0.19722700042E+01  0.12721884408E+02  0.19775380684E+02  0.51100000000E-03 0. -1.
        -11    1    3    3    0    0  0.25002662011E+01 -0.12277837120E+02  0.95877232073E+01  0.15777232076E+02  0.51100000000E-03 0.  1.
         12    1    3    3    0    0 -0.11981238683E+02  0.31006870074E+02 -0.16042125704E+02  0.36909698851E+02  0.00000000000E+00 0. -1.
</event>
<event>
 7    1  0.3435518E-013  0.7246150E+02  0.7816164E-02  0.1226708E+00
        -11   -1    0    0    0    0  0.00000000000E+00  0.00000000000E+00  0.45593999997E+02  0.45594000000E+02  0.51100000000E-03 0. -1.
         11   -1    0    0    0    0 -0.00000000000E+00 -0.00000000000E+00 -0.45593999997E+02  0.45594000000E+02  0.51100000000E-03 0.  1.
    9900012    2    1    2    0    0  0.10234220940E+02 -0.15547850132E+02  0.20510540549E+01  0.72461501537E+02  0.69999910430E+02 0.  0.
        -12    1    1    2    0    0 -0.10234220940E+02  0.15547850132E+02 -0.20510540549E+01  0.18726498463E+02  0.00000000000E+00 0.  1.
         11    1    3    3    0    0  0.25952095868E+02  0.14286052192E+02  0.11376861212E+02  0.31733823256E+02  0.51100000000E-03 0. -1.
        -11    1    3    3    0    0  0.50270254649E+01 -0.41485491294E+01 -0.26893521171E+01  0.70508198087E+01  0.51100000000E-03 0.  1.
        -12    1    3    3    0    0 -0.20744900393E+02 -0.25685353194E+02 -0.66364550399E+01  0.33676858472E+02  0.00000000000E+00 0.  1.
</event>
<event>
 7    1  0.3435518E-013  0.7246150E+02  0.7816164E-02  0.1226708E+00
        -11   -1    0    0    0    0  0.00000000000E+00  0.00000000000E+00  0.45593999997E+02  0.45594000000E+02  0.51100000000E-03 0.  1.
         11   -1    0    0    0    0 -0.00000000000E+00 -0.00000000000E+00 -0.45593999997E+02  0.45594000000E+02  0.51100000000E-03 0. -1.
    9900012    2    1    2    0    0  0.16837075118E+02 -0.72558299153E+01 -0.38141200485E+01  0.72461503317E+02  0.69999912750E+02 0.  0.
        -12    1    1    2    0    0 -0.16837075118E+02  0.72558299153E+01  0.38141200485E+01  0.18726496683E+02  0.00000000000E+00 0.  1.
         11    1    3    3    0    0 -0.48125364239E+01  0.51231946805E+01 -0.49955459360E+00  0.70467854812E+01  0.51100000000E-03 0. -1.
        -11    1    3    3    0    0 -0.13583609019E+02 -0.19849251019E+02  0.11264670746E+02  0.26559367599E+02  0.51100000000E-03 0.  1.
         12    1    3    3    0    0  0.35233220560E+02  0.74702264232E+01 -0.14579236200E+02  0.38855350237E+02  0.00000000000E+00 0. -1.
</event>
<event>
 7    1  0.3435518E-013  0.7246104E+02  0.7816164E-02  0.1226709E+00
        -11   -1    0    0    0    0  0.00000000000E+00  0.00000000000E+00  0.45593999997E+02  0.45594000000E+02  0.51100000000E-03 0. -1.
         11   -1    0    0    0    0 -0.00000000000E+00 -0.00000000000E+00 -0.45593999997E+02  0.45594000000E+02  0.51100000000E-03 0.  1.
    9900012    2    1    2    0    0 -0.13232944937E+02  0.13073571230E+02 -0.21610387210E+01  0.72461035890E+02  0.69999303836E+02 0.  0.
        -12    1    1    2    0    0  0.13232944937E+02 -0.13073571230E+02  0.21610387210E+01  0.18726964110E+02  0.00000000000E+00 0.  1.
         11    1    3    3    0    0  0.21505638003E+02  0.19114877550E+02  0.98943959021E+01  0.30426470058E+02  0.51100000000E-03 0. -1.
        -11    1    3    3    0    0 -0.10605057715E+02 -0.29918722645E+01  0.52259540308E+01  0.12195455899E+02  0.51100000000E-03 0.  1.
        -12    1    3    3    0    0 -0.24133525224E+02 -0.30494340549E+01 -0.17281388654E+02  0.29839109933E+02  0.00000000000E+00 0.  1.
</event>
<event>
 7    1  0.3435518E-013  0.7246156E+02  0.7816164E-02  0.1226708E+00
        -11   -1    0    0    0    0  0.00000000000E+00  0.00000000000E+00  0.45593999997E+02  0.45594000000E+02  0.51100000000E-03 0.  1.
         11   -1    0    0    0    0 -0.00000000000E+00 -0.00000000000E+00 -0.45593999997E+02  0.45594000000E+02  0.51100000000E-03 0. -1.
    9900012    2    1    2    0    0 -0.48076462113E+01 -0.14396272145E+02 -0.10968740359E+02  0.72461564706E+02  0.69999992720E+02 0.  0.
        -12    1    1    2    0    0  0.48076462113E+01  0.14396272145E+02  0.10968740359E+02  0.18726435294E+02  0.00000000000E+00 0.  1.
         11    1    3    3    0    0 -0.25138170842E+01  0.50182595089E+00  0.43946710184E+00  0.26008147209E+01  0.51100000000E-03 0. -1.
        -11    1    3    3    0    0 -0.13100807741E+02 -0.30719107443E+02  0.15508510331E+02  0.36821306584E+02  0.51100000000E-03 0.  1.
         12    1    3    3    0    0  0.10806978614E+02  0.15821009348E+02 -0.26916717792E+02  0.33039443401E+02  0.00000000000E+00 0. -1.
</event>
<event>
 7    1  0.3435518E-013  0.7246159E+02  0.7816164E-02  0.1226708E+00
        -11   -1    0    0    0    0  0.00000000000E+00  0.00000000000E+00  0.45593999997E+02  0.45594000000E+02  0.51100000000E-03 0.  1.
         11   -1    0    0    0    0 -0.00000000000E+00 -0.00000000000E+00 -0.45593999997E+02  0.45594000000E+02  0.51100000000E-03 0. -1.
    9900012    2    1    2    0    0  0.39241377931E+01 -0.15409216354E+02 -0.98911814632E+01  0.72461594131E+02  0.70000031051E+02 0.  0.
        -12    1    1    2    0    0 -0.39241377931E+01  0.15409216354E+02  0.98911814632E+01  0.18726405869E+02  0.00000000000E+00 0.  1.
         11    1    3    3    0    0 -0.16731545332E+01 -0.27089472282E+02 -0.17734376137E+02  0.32421398055E+02  0.51100000000E-03 0. -1.
        -11    1    3    3    0    0 -0.21048288245E+01 -0.13046046933E+02  0.43232545507E+01  0.13903962569E+02  0.51100000000E-03 0.  1.
        -12    1    3    3    0    0  0.77021211508E+01  0.24726302862E+02  0.35199401231E+01  0.26136233506E+02  0.00000000000E+00 0.  1.
</event>
<event>
 7    1  0.3435518E-013  0.7246160E+02  0.7816164E-02  0.1226708E+00
        -11   -1    0    0    0    0  0.00000000000E+00  0.00000000000E+00  0.45593999997E+02  0.45594000000E+02  0.51100000000E-03 0.  1.
         11   -1    0    0    0    0 -0.00000000000E+00 -0.00000000000E+00 -0.45593999997E+02  0.45594000000E+02  0.51100000000E-03 0. -1.
    9900012    2    1    2    0    0  0.83347490751E+00  0.15492818978E+02  0.10485992423E+02  0.72461597318E+02  0.70000035204E+02 0.  0.
        -12    1    1    2    0    0 -0.83347490751E+00 -0.15492818978E+02 -0.10485992423E+02  0.18726402682E+02  0.00000000000E+00 0.  1.
         11    1    3    3    0    0  0.22253140446E+02  0.23620308176E+02  0.11737904634E+02  0.34509413549E+02  0.51100000000E-03 0. -1.
        -11    1    3    3    0    0  0.74703617150E+01  0.12146800084E+01 -0.21647832852E+00  0.75715662055E+01  0.51100000000E-03 0.  1.
        -12    1    3    3    0    0 -0.28890027254E+02 -0.93421692073E+01 -0.10354338819E+01  0.30380617564E+02  0.00000000000E+00 0.  1.
</event>
<event>
 7    1  0.3435518E-013  0.7246153E+02  0.7816164E-02  0.1226708E+00
        -11   -1    0    0    0    0  0.00000000000E+00  0.00000000000E+00  0.45593999997E+02  0.45594000000E+02  0.51100000000E-03 0.  1.
         11   -1    0    0    0    0 -0.00000000000E+00 -0.00000000000E+00 -0.45593999997E+02  0.45594000000E+02  0.51100000000E-03 0. -1.
    9900012    2    1    2    0    0  0.77651824703E+01 -0.19117792246E+00 -0.17039547640E+02  0.72461526986E+02  0.69999943582E+02 0.  0.
        -12    1    1    2    0    0 -0.77651824703E+01  0.19117792246E+00  0.17039547640E+02  0.18726473014E+02  0.00000000000E+00 0.  1.
         11    1    3    3    0    0 -0.83630660897E+01 -0.68552041709E+01  0.83935624093E+01  0.13688922121E+02  0.51100000000E-03 0. -1.
        -11    1    3    3    0    0 -0.66895123773E+01  0.33985179396E+01  0.12386708326E+02  0.14482059365E+02  0.51100000000E-03 0.  1.
         12    1    3    3    0    0  0.22817760937E+02  0.32655083089E+01 -0.37819818375E+02  0.44290545500E+02  0.00000000000E+00 0. -1.
</event>
<event>
 7    1  0.3435518E-013  0.7246168E+02  0.7816164E-02  0.1226708E+00
        -11   -1    0    0    0    0  0.00000000000E+00  0.00000000000E+00  0.45593999997E+02  0.45594000000E+02  0.51100000000E-03 0. -1.
         11   -1    0    0    0    0 -0.00000000000E+00 -0.00000000000E+00 -0.45593999997E+02  0.45594000000E+02  0.51100000000E-03 0.  1.
    9900012    2    1    2    0    0 -0.26434788472E+01  0.14555494768E+02 -0.11481490107E+02  0.72461680996E+02  0.70000144209E+02 0.  0.
        -12    1    1    2    0    0  0.26434788472E+01 -0.14555494768E+02  0.11481490107E+02  0.18726319004E+02  0.00000000000E+00 0.  1.
         11    1    3    3    0    0 -0.27587804639E+02  0.16572013490E+02 -0.24247591332E+02  0.40294717788E+02  0.51100000000E-03 0. -1.
        -11    1    3    3    0    0  0.55930036692E+01  0.40912648067E+00 -0.36363143830E+01  0.66837008516E+01  0.51100000000E-03 0.  1.
        -12    1    3    3    0    0  0.19351322123E+02 -0.24256452024E+01  0.16402415608E+02  0.25483262357E+02  0.00000000000E+00 0.  1.
</event>
<event>
 7    1  0.3435518E-013  0.7246157E+02  0.7816164E-02  0.1226708E+00
        -11   -1    0    0    0    0  0.00000000000E+00  0.00000000000E+00  0.45593999997E+02  0.45594000000E+02  0.51100000000E-03 0. -1.
         11   -1    0    0    0    0 -0.00000000000E+00 -0.00000000000E+00 -0.45593999997E+02  0.45594000000E+02  0.51100000000E-03 0.  1.
    9900012    2    1    2    0    0  0.18039300464E+02 -0.71393435531E+00  0.49752549161E+01  0.72461568814E+02  0.69999998071E+02 0.  0.
        -12    1    1    2    0    0 -0.18039300464E+02  0.71393435531E+00 -0.49752549161E+01  0.18726431186E+02  0.00000000000E+00 0.  1.
         11    1    3    3    0    0 -0.49158903442E+01 -0.24733442248E+02  0.19856806489E+02  0.32096758520E+02  0.51100000000E-03 0. -1.
        -11    1    3    3    0    0  0.82248029603E+00  0.12754779995E+01  0.34119211785E+01  0.37342367834E+01  0.51100000000E-03 0.  1.
        -12    1    3    3    0    0  0.22132710512E+02  0.22744029893E+02 -0.18293472752E+02  0.36630573510E+02  0.00000000000E+00 0.  1.
</event>
<event>
 7    1  0.3435518E-013  0.7246158E+02  0.7816164E-02  0.1226708E+00
        -11   -1    0    0    0    0  0.00000000000E+00  0.00000000000E+00  0.45593999997E+02  0.45594000000E+02  0.51100000000E-03 0. -1.
         11   -1    0    0    0    0 -0.00000000000E+00 -0.00000000000E+00 -0.45593999997E+02  0.45594000000E+02  0.51100000000E-03 0.  1.
    9900012    2    1    2    0    0  0.89210896163E+01 -0.45054592645E+01  0.15836473027E+02  0.72461577996E+02  0.70000010033E+02 0.  0.
        -12    1    1    2    0    0 -0.89210896163E+01  0.45054592645E+01 -0.15836473027E+02  0.18726422004E+02  0.00000000000E+00 0.  1.
         11    1    3    3    0    0 -0.31426912258E+01  0.47538478924E+01 -0.10138525864E+02  0.11630360479E+02  0.51100000000E-03 0. -1.
        -11    1    3    3    0    0 -0.66279548193E+01 -0.12804229347E+02 -0.11737551611E+02  0.18591616184E+02  0.51100000000E-03 0.  1.
         12    1    3    3    0    0  0.18691735661E+02  0.35449221905E+01  0.37712550502E+02  0.42239601333E+02  0.00000000000E+00 0. -1.
</event>
<event>
 7    1  0.3435518E-013  0.7246156E+02  0.7816164E-02  0.1226708E+00
        -11   -1    0    0    0    0  0.00000000000E+00  0.00000000000E+00  0.45593999997E+02  0.45594000000E+02  0.51100000000E-03 0. -1.
         11   -1    0    0    0    0 -0.00000000000E+00 -0.00000000000E+00 -0.45593999997E+02  0.45594000000E+02  0.51100000000E-03 0.  1.
    9900012    2    1    2    0    0  0.78058672571E+00  0.15152250679E+02 -0.10976325477E+02  0.72461555135E+02  0.69999980253E+02 0.  0.
        -12    1    1    2    0    0 -0.78058672571E+00 -0.15152250679E+02  0.10976325477E+02  0.18726444865E+02  0.00000000000E+00 0.  1.
         11    1    3    3    0    0  0.14598153188E+02  0.28981847365E+02 -0.45813886647E+01  0.32772590309E+02  0.51100000000E-03 0. -1.
        -11    1    3    3    0    0 -0.13939267989E+01 -0.65658781740E+01 -0.19253499360E+02  0.20389973664E+02  0.51100000000E-03 0.  1.
        -12    1    3    3    0    0 -0.12423639664E+02 -0.72637185113E+01  0.12858562548E+02  0.19298991163E+02  0.00000000000E+00 0.  1.
</event>
<event>
 7    1  0.3435518E-013  0.7246169E+02  0.7816164E-02  0.1226708E+00
        -11   -1    0    0    0    0  0.00000000000E+00  0.00000000000E+00  0.45593999997E+02  0.45594000000E+02  0.51100000000E-03 0. -1.
         11   -1    0    0    0    0 -0.00000000000E+00 -0.00000000000E+00 -0.45593999997E+02  0.45594000000E+02  0.51100000000E-03 0.  1.
    9900012    2    1    2    0    0  0.79230271676E+01  0.14302115862E+02  0.91296146264E+01  0.72461688541E+02  0.70000154038E+02 0.  0.
        -12    1    1    2    0    0 -0.79230271676E+01 -0.14302115862E+02 -0.91296146264E+01  0.18726311459E+02  0.00000000000E+00 0.  1.
         11    1    3    3    0    0 -0.42920037621E+00  0.98661221098E+01 -0.60332823100E+01  0.11572600146E+02  0.51100000000E-03 0. -1.
        -11    1    3    3    0    0  0.77910115513E+01  0.29750085154E+02 -0.11396716227E+01  0.30774441983E+02  0.51100000000E-03 0.  1.
         12    1    3    3    0    0  0.56121599254E+00 -0.25314091402E+02  0.16302568559E+02  0.30114646412E+02  0.00000000000E+00 0. -1.
</event>
<event>
 7    1  0.3435518E-013  0.7246152E+02  0.7816164E-02  0.1226708E+00
        -11   -1    0    0    0    0  0.00000000000E+00  0.00000000000E+00  0.45593999997E+02  0.45594000000E+02  0.51100000000E-03 0.  1.
         11   -1    0    0    0    0 -0.00000000000E+00 -0.00000000000E+00 -0.45593999997E+02  0.45594000000E+02  0.51100000000E-03 0. -1.
    9900012    2    1    2    0    0  0.65115776695E+01  0.12096561566E+02 -0.12726101763E+02  0.72461518442E+02  0.69999932453E+02 0.  0.
        -12    1    1    2    0    0 -0.65115776695E+01 -0.12096561566E+02  0.12726101763E+02  0.18726481558E+02  0.00000000000E+00 0.  1.
         11    1    3    3    0    0 -0.19541258237E+02  0.11928475351E+02 -0.17742748551E+02  0.28964709978E+02  0.51100000000E-03 0. -1.
        -11    1    3    3    0    0 -0.57038124076E+01 -0.85310000288E+01  0.66102482018E+00  0.10283403695E+02  0.51100000000E-03 0.  1.
         12    1    3    3    0    0  0.31756648314E+02  0.86990862432E+01  0.43556219678E+01  0.33213404769E+02  0.00000000000E+00 0. -1.
</event>
<event>
 7    1  0.3435518E-013  0.7246158E+02  0.7816164E-02  0.1226708E+00
        -11   -1    0    0    0    0  0.00000000000E+00  0.00000000000E+00  0.45593999997E+02  0.45594000000E+02  0.51100000000E-03 0. -1.
         11   -1    0    0    0    0 -0.00000000000E+00 -0.00000000000E+00 -0.45593999997E+02  0.45594000000E+02  0.51100000000E-03 0.  1.
    9900012    2    1    2    0    0 -0.10123349151E+02 -0.70933865080E+01  0.14067002693E+02  0.72461577625E+02  0.70000009550E+02 0.  0.
        -12    1    1    2    0    0  0.10123349151E+02  0.70933865080E+01 -0.14067002693E+02  0.18726422375E+02  0.00000000000E+00 0.  1.
         11    1    3    3    0    0  0.14577341274E+02  0.94671707797E+01  0.17096285809E+01  0.17465652903E+02  0.51100000000E-03 0. -1.
        -11    1    3    3    0    0  0.59373726288E+01 -0.20682922102E+02 -0.47677660973E+00  0.21523544704E+02  0.51100000000E-03 0.  1.
        -12    1    3    3    0    0 -0.30638063054E+02  0.41223648143E+01  0.12834150722E+02  0.33472380018E+02  0.00000000000E+00 0.  1.
</event>
<event>
 7    1  0.3435518E-013  0.7246217E+02  0.7816164E-02  0.1226706E+00
        -11   -1    0    0    0    0  0.00000000000E+00  0.00000000000E+00  0.45593999997E+02  0.45594000000E+02  0.51100000000E-03 0.  1.
         11   -1    0    0    0    0 -0.00000000000E+00 -0.00000000000E+00 -0.45593999997E+02  0.45594000000E+02  0.51100000000E-03 0. -1.
    9900012    2    1    2    0    0 -0.18425572736E+02 -0.19957308666E+01 -0.26780604950E+01  0.72462170770E+02  0.70000782227E+02 0.  0.
        -12    1    1    2    0    0  0.18425572736E+02  0.19957308666E+01  0.26780604950E+01  0.18725829230E+02  0.00000000000E+00 0.  1.
         11    1    3    3    0    0 -0.16888912933E+02 -0.65272014295E+01  0.39478175058E+01  0.18531729598E+02  0.51100000000E-03 0. -1.
        -11    1    3    3    0    0  0.16782133456E+02 -0.14862507229E+02  0.76329899925E+01  0.23681145685E+02  0.51100000000E-03 0.  1.
         12    1    3    3    0    0 -0.18318793258E+02  0.19393977792E+02 -0.14258867993E+02  0.30249295487E+02  0.00000000000E+00 0. -1.
</event>
<event>
 7    1  0.3435518E-013  0.7246158E+02  0.7816164E-02  0.1226708E+00
        -11   -1    0    0    0    0  0.00000000000E+00  0.00000000000E+00  0.45593999997E+02  0.45594000000E+02  0.51100000000E-03 0.  1.
         11   -1    0    0    0    0 -0.00000000000E+00 -0.00000000000E+00 -0.45593999997E+02  0.45594000000E+02  0.51100000000E-03 0. -1.
    9900012    2    1    2    0    0  0.25423055719E+00 -0.17461475132E+02 -0.67610058005E+01  0.72461576251E+02  0.70000007760E+02 0.  0.
        -12    1    1    2    0    0 -0.25423055719E+00  0.17461475132E+02  0.67610058005E+01  0.18726423749E+02  0.00000000000E+00 0.  1.
         11    1    3    3    0    0 -0.13399164022E+02 -0.24132594434E+02 -0.55899071793E+01  0.28163216669E+02  0.51100000000E-03 0. -1.
        -11    1    3    3    0    0  0.21949227050E+02 -0.97009343187E+01 -0.70744091282E+01  0.25018472366E+02  0.51100000000E-03 0.  1.
        -12    1    3    3    0    0 -0.82958324707E+01  0.16372053621E+02  0.59033105070E+01  0.19279887217E+02  0.00000000000E+00 0.  1.
</event>
<event>
 7    1  0.3435518E-013  0.7246149E+02  0.7816164E-02  0.1226708E+00
        -11   -1    0    0    0    0  0.00000000000E+00  0.00000000000E+00  0.45593999997E+02  0.45594000000E+02  0.51100000000E-03 0.  1.
         11   -1    0    0    0    0 -0.00000000000E+00 -0.00000000000E+00 -0.45593999997E+02  0.45594000000E+02  0.51100000000E-03 0. -1.
    9900012    2    1    2    0    0  0.17338159172E+02 -0.66912464399E+01 -0.23016477897E+01  0.72461491384E+02  0.69999897205E+02 0.  0.
        -12    1    1    2    0    0 -0.17338159172E+02  0.66912464399E+01  0.23016477897E+01  0.18726508616E+02  0.00000000000E+00 0.  1.
         11    1    3    3    0    0 -0.54326943400E+01  0.13611989032E+02  0.86534248052E+01  0.17020052125E+02  0.51100000000E-03 0. -1.
        -11    1    3    3    0    0  0.45373413722E+01 -0.11908252627E+02  0.16863380404E+02  0.21136876455E+02  0.51100000000E-03 0.  1.
         12    1    3    3    0    0  0.18233512140E+02 -0.83949828450E+01 -0.27818452999E+02  0.34304562804E+02  0.00000000000E+00 0. -1.
</event>
<event>
 7    1  0.3435518E-013  0.7246202E+02  0.7816164E-02  0.1226707E+00
        -11   -1    0    0    0    0  0.00000000000E+00  0.00000000000E+00  0.45593999997E+02  0.45594000000E+02  0.51100000000E-03 0.  1.
         11   -1    0    0    0    0 -0.00000000000E+00 -0.00000000000E+00 -0.45593999997E+02  0.45594000000E+02  0.51100000000E-03 0. -1.
    9900012    2    1    2    0    0  0.64941567308E+01  0.16967152325E+02 -0.45391524630E+01  0.72462022462E+02  0.70000589030E+02 0.  0.
        -12    1    1    2    0    0 -0.64941567308E+01 -0.16967152325E+02  0.45391524630E+01  0.18725977538E+02  0.00000000000E+00 0.  1.
         11    1    3    3    0    0  0.42389105621E+01 -0.90930068509E+01 -0.11114977506E+02  0.14973104607E+02  0.51100000000E-03 0. -1.
        -11    1    3    3    0    0  0.91163097300E+01 -0.83759471986E+01  0.16845124974E+02  0.20905067095E+02  0.51100000000E-03 0.  1.
        -12    1    3    3    0    0 -0.68610635614E+01  0.34436106374E+02 -0.10269299931E+02  0.36583850761E+02  0.00000000000E+00 0.  1.
</event>
<event>
 7    1  0.3435518E-013  0.7246157E+02  0.7816164E-02  0.1226708E+00
        -11   -1    0    0    0    0  0.00000000000E+00  0.00000000000E+00  0.45593999997E+02  0.45594000000E+02  0.51100000000E-03 0. -1.
         11   -1    0    0    0    0 -0.00000000000E+00 -0.00000000000E+00 -0.45593999997E+02  0.45594000000E+02  0.51100000000E-03 0.  1.
    9900012    2    1    2    0    0 -0.11331363758E+02 -0.13080361960E+02  0.71542650292E+01  0.72461569968E+02  0.69999999575E+02 0.  0.
        -12    1    1    2    0    0  0.11331363758E+02  0.13080361960E+02 -0.71542650292E+01  0.18726430032E+02  0.00000000000E+00 0.  1.
         11    1    3    3    0    0 -0.10552525670E+02  0.19492312310E+01 -0.41995883138E+00  0.10739258172E+02  0.51100000000E-03 0. -1.
        -11    1    3    3    0    0 -0.25117294104E+02  0.68783640628E+01  0.12008035476E+02  0.28677225660E+02  0.51100000000E-03 0.  1.
         12    1    3    3    0    0  0.24338456016E+02 -0.21907957254E+02 -0.44338116156E+01  0.33045086136E+02  0.00000000000E+00 0. -1.
</event>
<event>
 7    1  0.3435518E-013  0.7246158E+02  0.7816164E-02  0.1226708E+00
        -11   -1    0    0    0    0  0.00000000000E+00  0.00000000000E+00  0.45593999997E+02  0.45594000000E+02  0.51100000000E-03 0. -1.
         11   -1    0    0    0    0 -0.00000000000E+00 -0.00000000000E+00 -0.45593999997E+02  0.45594000000E+02  0.51100000000E-03 0.  1.
    9900012    2    1    2    0    0  0.77927432199E+01  0.90632020205E+01  0.14415628595E+02  0.72461579479E+02  0.70000011965E+02 0.  0.
        -12    1    1    2    0    0 -0.77927432199E+01 -0.90632020205E+01 -0.14415628595E+02  0.18726420521E+02  0.00000000000E+00 0.  1.
         11    1    3    3    0    0 -0.15178671567E+02 -0.50473873973E+01  0.15188963452E+02  0.22058395252E+02  0.51100000000E-03 0. -1.
        -11    1    3    3    0    0  0.23138877876E+02  0.87349320804E+01  0.18183831853E+02  0.30697857399E+02  0.51100000000E-03 0.  1.
         12    1    3    3    0    0 -0.16746308918E+00  0.53756573374E+01 -0.18957166711E+02  0.19705326828E+02  0.00000000000E+00 0. -1.
</event>
<event>
 7    1  0.3435518E-013  0.7246159E+02  0.7816164E-02  0.1226708E+00
        -11   -1    0    0    0    0  0.00000000000E+00  0.00000000000E+00  0.45593999997E+02  0.45594000000E+02  0.51100000000E-03 0.  1.
         11   -1    0    0    0    0 -0.00000000000E+00 -0.00000000000E+00 -0.45593999997E+02  0.45594000000E+02  0.51100000000E-03 0. -1.
    9900012    2    1    2    0    0  0.64502123560E+01  0.16825758285E+02  0.50957702227E+01  0.72461594700E+02  0.70000031793E+02 0.  0.
        -12    1    1    2    0    0 -0.64502123560E+01 -0.16825758285E+02 -0.50957702227E+01  0.18726405300E+02  0.00000000000E+00 0.  1.
         11    1    3    3    0    0  0.15105443503E+02  0.23397321921E+02  0.32195924043E+00  0.27851620321E+02  0.51100000000E-03 0. -1.
        -11    1    3    3    0    0  0.27578968541E+01  0.11129544643E+02  0.16812736618E+02  0.20350451392E+02  0.51100000000E-03 0.  1.
        -12    1    3    3    0    0 -0.11413128001E+02 -0.17701108279E+02 -0.12038925635E+02  0.24259522987E+02  0.00000000000E+00 0.  1.
</event>
<event>
 7    1  0.3435518E-013  0.7246155E+02  0.7816164E-02  0.1226708E+00
        -11   -1    0    0    0    0  0.00000000000E+00  0.00000000000E+00  0.45593999997E+02  0.45594000000E+02  0.51100000000E-03 0.  1.
         11   -1    0    0    0    0 -0.00000000000E+00 -0.00000000000E+00 -0.45593999997E+02  0.45594000000E+02  0.51100000000E-03 0. -1.
    9900012    2    1    2    0    0 -0.76688881082E+00  0.20195674711E+01 -0.18601432901E+02  0.72461546059E+02  0.69999968429E+02 0.  0.
        -12    1    1    2    0    0  0.76688881082E+00 -0.20195674711E+01  0.18601432901E+02  0.18726453941E+02  0.00000000000E+00 0.  1.
         11    1    3    3    0    0  0.51843549082E+01 -0.12862249426E+01  0.61089127810E+01  0.81148460271E+01  0.51100000000E-03 0.  1.
        -11    1    3    3    0    0  0.67429028146E+01  0.24214089888E+02 -0.30186340941E+02  0.39281090453E+02  0.51100000000E-03 0. -1.
         12    1    3    3    0    0 -0.12694146534E+02 -0.20908297475E+02  0.54759952584E+01  0.25065609579E+02  0.00000000000E+00 0. -1.
</event>
<event>
 7    1  0.3435518E-013  0.7246156E+02  0.7816164E-02  0.1226708E+00
        -11   -1    0    0    0    0  0.00000000000E+00  0.00000000000E+00  0.45593999997E+02  0.45594000000E+02  0.51100000000E-03 0. -1.
         11   -1    0    0    0    0 -0.00000000000E+00 -0.00000000000E+00 -0.45593999997E+02  0.45594000000E+02  0.51100000000E-03 0.  1.
    9900012    2    1    2    0    0 -0.47129285318E+01  0.17117954669E+02 -0.59534558855E+01  0.72461556014E+02  0.69999981397E+02 0.  0.
        -12    1    1    2    0    0  0.47129285318E+01 -0.17117954669E+02  0.59534558855E+01  0.18726443986E+02  0.00000000000E+00 0.  1.
         11    1    3    3    0    0 -0.23618141874E+02  0.68999692821E+01  0.94551793063E+01  0.26359564064E+02  0.51100000000E-03 0. -1.
        -11    1    3    3    0    0  0.62588227189E+01  0.25618758599E+01  0.12674232353E+02  0.14365661689E+02  0.51100000000E-03 0.  1.
        -12    1    3    3    0    0  0.12646390623E+02  0.76561095269E+01 -0.28082867545E+02  0.31736330261E+02  0.00000000000E+00 0.  1.
</event>
<event>
 7    1  0.3435518E-013  0.7246159E+02  0.7816164E-02  0.1226708E+00
        -11   -1    0    0    0    0  0.00000000000E+00  0.00000000000E+00  0.45593999997E+02  0.45594000000E+02  0.51100000000E-03 0.  1.
         11   -1    0    0    0    0 -0.00000000000E+00 -0.00000000000E+00 -0.45593999997E+02  0.45594000000E+02  0.51100000000E-03 0. -1.
    9900012    2    1    2    0    0  0.30285448734E+01  0.90992432930E+01 -0.16084468062E+02  0.72461590163E+02  0.70000025882E+02 0.  0.
        -12    1    1    2    0    0 -0.30285448734E+01 -0.90992432930E+01  0.16084468062E+02  0.18726409837E+02  0.00000000000E+00 0.  1.
         11    1    3    3    0    0  0.19096457455E+02 -0.14172102445E+02  0.15979759162E+01  0.23834359701E+02  0.51100000000E-03 0. -1.
        -11    1    3    3    0    0 -0.53545214536E+00  0.54194279192E+01  0.10499739950E+02  0.11827994220E+02  0.51100000000E-03 0.  1.
         12    1    3    3    0    0 -0.15532460436E+02  0.17851917819E+02 -0.28182183929E+02  0.36799236242E+02  0.00000000000E+00 0. -1.
</event>
<event>
 7    1  0.3435518E-013  0.7246162E+02  0.7816164E-02  0.1226708E+00
        -11   -1    0    0    0    0  0.00000000000E+00  0.00000000000E+00  0.45593999997E+02  0.45594000000E+02  0.51100000000E-03 0. -1.
         11   -1    0    0    0    0 -0.00000000000E+00 -0.00000000000E+00 -0.45593999997E+02  0.45594000000E+02  0.51100000000E-03 0.  1.
    9900012    2    1    2    0    0  0.13942865529E+02 -0.49812424363E+01  0.11465652769E+02  0.72461615704E+02  0.70000059155E+02 0.  0.
        -12    1    1    2    0    0 -0.13942865529E+02  0.49812424363E+01 -0.11465652769E+02  0.18726384296E+02  0.00000000000E+00 0.  1.
         11    1    3    3    0    0  0.56681368300E+01  0.20600147786E+02 -0.18182268057E+01  0.21442943196E+02  0.51100000000E-03 0. -1.
        -11    1    3    3    0    0  0.12600420033E+02  0.79483633571E+01  0.59991299015E+00  0.14909961802E+02  0.51100000000E-03 0.  1.
        -12    1    3    3    0    0 -0.43256913340E+01 -0.33529753579E+02  0.12683966584E+02  0.36108710707E+02  0.00000000000E+00 0.  1.
</event>
<event>
 7    1  0.3435518E-013  0.7246126E+02  0.7816164E-02  0.1226709E+00
        -11   -1    0    0    0    0  0.00000000000E+00  0.00000000000E+00  0.45593999997E+02  0.45594000000E+02  0.51100000000E-03 0.  1.
         11   -1    0    0    0    0 -0.00000000000E+00 -0.00000000000E+00 -0.45593999997E+02  0.45594000000E+02  0.51100000000E-03 0. -1.
    9900012    2    1    2    0    0  0.78999905791E+01 -0.27900142689E+01 -0.16748033282E+02  0.72461263776E+02  0.69999600702E+02 0.  0.
        -12    1    1    2    0    0 -0.78999905791E+01  0.27900142689E+01  0.16748033282E+02  0.18726736224E+02  0.00000000000E+00 0.  1.
         11    1    3    3    0    0  0.11928268617E+02  0.55609891953E+01  0.13125268211E+02  0.18587115400E+02  0.51100000000E-03 0. -1.
        -11    1    3    3    0    0 -0.14639593491E+02  0.12323254679E+02 -0.48834862226E+01  0.19749145334E+02  0.51100000000E-03 0.  1.
         12    1    3    3    0    0  0.10611315452E+02 -0.20674258144E+02 -0.24989815270E+02  0.34125003043E+02  0.00000000000E+00 0. -1.
</event>
<event>
 7    1  0.3435518E-013  0.7246160E+02  0.7816164E-02  0.1226708E+00
        -11   -1    0    0    0    0  0.00000000000E+00  0.00000000000E+00  0.45593999997E+02  0.45594000000E+02  0.51100000000E-03 0.  1.
         11   -1    0    0    0    0 -0.00000000000E+00 -0.00000000000E+00 -0.45593999997E+02  0.45594000000E+02  0.51100000000E-03 0. -1.
    9900012    2    1    2    0    0  0.10956329773E+02  0.13562843273E+02 -0.68327221538E+01  0.72461602275E+02  0.70000041660E+02 0.  0.
        -12    1    1    2    0    0 -0.10956329773E+02 -0.13562843273E+02  0.68327221538E+01  0.18726397725E+02  0.00000000000E+00 0.  1.
         11    1    3    3    0    0 -0.12520021136E+02  0.31887953168E+01 -0.18462933198E+02  0.22534401420E+02  0.51100000000E-03 0. -1.
        -11    1    3    3    0    0  0.28001622470E+01  0.11967717329E+02 -0.12891962785E+02  0.17812070946E+02  0.51100000000E-03 0.  1.
        -12    1    3    3    0    0  0.20676188662E+02 -0.15936693734E+01  0.24522173830E+02  0.32115129908E+02  0.00000000000E+00 0.  1.
</event>
<event>
 7    1  0.3435518E-013  0.7246156E+02  0.7816164E-02  0.1226708E+00
        -11   -1    0    0    0    0  0.00000000000E+00  0.00000000000E+00  0.45593999997E+02  0.45594000000E+02  0.51100000000E-03 0.  1.
         11   -1    0    0    0    0 -0.00000000000E+00 -0.00000000000E+00 -0.45593999997E+02  0.45594000000E+02  0.51100000000E-03 0. -1.
    9900012    2    1    2    0    0 -0.27916435878E+01  0.11497809294E+02 -0.14515054531E+02  0.72461556117E+02  0.69999981531E+02 0.  0.
        -12    1    1    2    0    0  0.27916435878E+01 -0.11497809294E+02  0.14515054531E+02  0.18726443883E+02  0.00000000000E+00 0.  1.
         11    1    3    3    0    0 -0.52161965342E+01  0.66790774251E+01 -0.21762410603E+02  0.23354256508E+02  0.51100000000E-03 0. -1.
        -11    1    3    3    0    0  0.23065318005E+02 -0.19929518012E+01 -0.56532664485E+01  0.23831495407E+02  0.51100000000E-03 0.  1.
        -12    1    3    3    0    0 -0.20640765058E+02  0.68116836703E+01  0.12900622521E+02  0.25275804202E+02  0.00000000000E+00 0.  1.
</event>
<event>
 7    1  0.3435518E-013  0.7246160E+02  0.7816164E-02  0.1226708E+00
        -11   -1    0    0    0    0  0.00000000000E+00  0.00000000000E+00  0.45593999997E+02  0.45594000000E+02  0.51100000000E-03 0. -1.
         11   -1    0    0    0    0 -0.00000000000E+00 -0.00000000000E+00 -0.45593999997E+02  0.45594000000E+02  0.51100000000E-03 0.  1.
    9900012    2    1    2    0    0 -0.69075282797E+01  0.49493690830E+01  0.16687357805E+02  0.72461598537E+02  0.70000036791E+02 0.  0.
        -12    1    1    2    0    0  0.69075282797E+01 -0.49493690830E+01 -0.16687357805E+02  0.18726401463E+02  0.00000000000E+00 0.  1.
         11    1    3    3    0    0  0.13423465979E+01 -0.47666221079E+01  0.21272860516E+02  0.21841638571E+02  0.51100000000E-03 0. -1.
        -11    1    3    3    0    0  0.55133529782E+01 -0.17399557074E+02  0.46587193677E+01  0.18837338290E+02  0.51100000000E-03 0.  1.
         12    1    3    3    0    0 -0.13763227856E+02  0.27115548265E+02 -0.92442220787E+01  0.31782621676E+02  0.00000000000E+00 0. -1.
</event>
<event>
 7    1  0.3435518E-013  0.7246148E+02  0.7816164E-02  0.1226708E+00
        -11   -1    0    0    0    0  0.00000000000E+00  0.00000000000E+00  0.45593999997E+02  0.45594000000E+02  0.51100000000E-03 0.  1.
         11   -1    0    0    0    0 -0.00000000000E+00 -0.00000000000E+00 -0.45593999997E+02  0.45594000000E+02  0.51100000000E-03 0. -1.
    9900012    2    1    2    0    0  0.83766478123E+01 -0.33465604494E+01 -0.16410820665E+02  0.72461475221E+02  0.69999876149E+02 0.  0.
        -12    1    1    2    0    0 -0.83766478123E+01  0.33465604494E+01  0.16410820665E+02  0.18726524779E+02  0.00000000000E+00 0.  1.
         11    1    3    3    0    0  0.10821078006E+02 -0.16716948054E+02 -0.33093389527E+02  0.38622849612E+02  0.51100000000E-03 0. -1.
        -11    1    3    3    0    0 -0.11561898824E+02  0.45956291621E+01 -0.55605215061E+00  0.12454176250E+02  0.51100000000E-03 0.  1.
        -12    1    3    3    0    0  0.91174686302E+01  0.87747584430E+01  0.17238621013E+02  0.21384449359E+02  0.00000000000E+00 0.  1.
</event>
<event>
 7    1  0.3435518E-013  0.7246155E+02  0.7816164E-02  0.1226708E+00
        -11   -1    0    0    0    0  0.00000000000E+00  0.00000000000E+00  0.45593999997E+02  0.45594000000E+02  0.51100000000E-03 0. -1.
         11   -1    0    0    0    0 -0.00000000000E+00 -0.00000000000E+00 -0.45593999997E+02  0.45594000000E+02  0.51100000000E-03 0.  1.
    9900012    2    1    2    0    0  0.14723967002E+02  0.10036305960E+02 -0.57582371854E+01  0.72461549800E+02  0.69999973303E+02 0.  0.
        -12    1    1    2    0    0 -0.14723967002E+02 -0.10036305960E+02  0.57582371854E+01  0.18726450200E+02  0.00000000000E+00 0.  1.
         11    1    3    3    0    0 -0.90666927537E+01  0.19313724653E+01  0.24964683873E+02  0.26630256444E+02  0.51100000000E-03 0. -1.
        -11    1    3    3    0    0 -0.14736113049E+01 -0.49693822259E+01 -0.24824778724E+01  0.57470850554E+01  0.51100000000E-03 0.  1.
        -12    1    3    3    0    0  0.25264271061E+02  0.13074315720E+02 -0.28240443186E+02  0.40084208301E+02  0.00000000000E+00 0.  1.
</event>
<event>
 7    1  0.3435518E-013  0.7246161E+02  0.7816164E-02  0.1226708E+00
        -11   -1    0    0    0    0  0.00000000000E+00  0.00000000000E+00  0.45593999997E+02  0.45594000000E+02  0.51100000000E-03 0. -1.
         11   -1    0    0    0    0 -0.00000000000E+00 -0.00000000000E+00 -0.45593999997E+02  0.45594000000E+02  0.51100000000E-03 0.  1.
    9900012    2    1    2    0    0 -0.17620335955E+02  0.63275598790E+01  0.40405598913E+00  0.72461614485E+02  0.70000057567E+02 0.  0.
        -12    1    1    2    0    0  0.17620335955E+02 -0.63275598790E+01 -0.40405598913E+00  0.18726385515E+02  0.00000000000E+00 0.  1.
         11    1    3    3    0    0 -0.61202920546E+01  0.27829386815E+02  0.17386693979E+01  0.28547429252E+02  0.51100000000E-03 0. -1.
        -11    1    3    3    0    0 -0.16249051848E+02 -0.12870130234E+02 -0.16042694615E+02  0.26211447671E+02  0.51100000000E-03 0.  1.
         12    1    3    3    0    0  0.47490079476E+01 -0.86316967024E+01  0.14708081206E+02  0.17702737563E+02  0.00000000000E+00 0. -1.
</event>
<event>
 7    1  0.3435518E-013  0.7246156E+02  0.7816164E-02  0.1226708E+00
        -11   -1    0    0    0    0  0.00000000000E+00  0.00000000000E+00  0.45593999997E+02  0.45594000000E+02  0.51100000000E-03 0.  1.
         11   -1    0    0    0    0 -0.00000000000E+00 -0.00000000000E+00 -0.45593999997E+02  0.45594000000E+02  0.51100000000E-03 0. -1.
    9900012    2    1    2    0    0 -0.89188327223E+01 -0.12557263038E+02 -0.10651255170E+02  0.72461556963E+02  0.69999982633E+02 0.  0.
        -12    1    1    2    0    0  0.89188327223E+01  0.12557263038E+02  0.10651255170E+02  0.18726443037E+02  0.00000000000E+00 0.  1.
         11    1    3    3    0    0  0.21459441453E+01  0.72689194848E+01 -0.87920059849E+01  0.11607826508E+02  0.51100000000E-03 0.  1.
        -11    1    3    3    0    0  0.20547076163E+01 -0.12581920682E+01  0.25311417542E+02  0.25425827989E+02  0.51100000000E-03 0. -1.
         12    1    3    3    0    0 -0.13119484484E+02 -0.18567990455E+02 -0.27170666727E+02  0.35427902465E+02  0.00000000000E+00 0. -1.
</event>
<event>
 7    1  0.3435518E-013  0.7246157E+02  0.7816164E-02  0.1226708E+00
        -11   -1    0    0    0    0  0.00000000000E+00  0.00000000000E+00  0.45593999997E+02  0.45594000000E+02  0.51100000000E-03 0. -1.
         11   -1    0    0    0    0 -0.00000000000E+00 -0.00000000000E+00 -0.45593999997E+02  0.45594000000E+02  0.51100000000E-03 0.  1.
    9900012    2    1    2    0    0  0.34613935236E+01 -0.18400526007E+02 -0.34461743161E+00  0.72461565112E+02  0.69999993248E+02 0.  0.
        -12    1    1    2    0    0 -0.34613935236E+01  0.18400526007E+02  0.34461743161E+00  0.18726434888E+02  0.00000000000E+00 0.  1.
         11    1    3    3    0    0  0.24355533481E+00 -0.20026075651E+02 -0.24844961051E+02  0.31911990146E+02  0.51100000000E-03 0. -1.
        -11    1    3    3    0    0 -0.63592169259E+01  0.25575476436E+01 -0.56614910231E+01  0.88900602205E+01  0.51100000000E-03 0.  1.
         12    1    3    3    0    0  0.95770551146E+01 -0.93199799945E+00  0.30161834642E+02  0.31659514745E+02  0.00000000000E+00 0. -1.
</event>
<event>
 7    1  0.3435518E-013  0.7246160E+02  0.7816164E-02  0.1226708E+00
        -11   -1    0    0    0    0  0.00000000000E+00  0.00000000000E+00  0.45593999997E+02  0.45594000000E+02  0.51100000000E-03 0. -1.
         11   -1    0    0    0    0 -0.00000000000E+00 -0.00000000000E+00 -0.45593999997E+02  0.45594000000E+02  0.51100000000E-03 0.  1.
    9900012    2    1    2    0    0 -0.46188480402E+01  0.91296536958E+01  0.15684183650E+02  0.72461602840E+02  0.70000042397E+02 0.  0.
        -12    1    1    2    0    0  0.46188480402E+01 -0.91296536958E+01 -0.15684183650E+02  0.18726397160E+02  0.00000000000E+00 0.  1.
         11    1    3    3    0    0 -0.18696872977E+01 -0.26045137565E+01  0.83828570798E+01  0.89750496144E+01  0.51100000000E-03 0. -1.
        -11    1    3    3    0    0 -0.21041012973E+02 -0.18177216857E+02  0.72980880932E+00  0.27814889192E+02  0.51100000000E-03 0.  1.
         12    1    3    3    0    0  0.18291852230E+02  0.29911384309E+02  0.65715177606E+01  0.35671664034E+02  0.00000000000E+00 0. -1.
</event>
<event>
 7    1  0.3435518E-013  0.7246154E+02  0.7816164E-02  0.1226708E+00
        -11   -1    0    0    0    0  0.00000000000E+00  0.00000000000E+00  0.45593999997E+02  0.45594000000E+02  0.51100000000E-03 0. -1.
         11   -1    0    0    0    0 -0.00000000000E+00 -0.00000000000E+00 -0.45593999997E+02  0.45594000000E+02  0.51100000000E-03 0.  1.
    9900012    2    1    2    0    0 -0.36128982547E+00  0.15360700981E+02  0.10705068377E+02  0.72461544011E+02  0.69999965761E+02 0.  0.
        -12    1    1    2    0    0  0.36128982547E+00 -0.15360700981E+02 -0.10705068377E+02  0.18726455989E+02  0.00000000000E+00 0.  1.
         11    1    3    3    0    0 -0.32740883943E+00 -0.97565779148E+01 -0.50800632100E+01  0.11004774038E+02  0.51100000000E-03 0. -1.
        -11    1    3    3    0    0  0.12607656480E+02  0.29205007360E+02  0.28761746197E+02  0.42885003222E+02  0.51100000000E-03 0.  1.
         12    1    3    3    0    0 -0.12641537466E+02 -0.40877284644E+01 -0.12976614610E+02  0.18571766750E+02  0.00000000000E+00 0. -1.
</event>
<event>
 7    1  0.3435518E-013  0.7246171E+02  0.7816164E-02  0.1226708E+00
        -11   -1    0    0    0    0  0.00000000000E+00  0.00000000000E+00  0.45593999997E+02  0.45594000000E+02  0.51100000000E-03 0.  1.
         11   -1    0    0    0    0 -0.00000000000E+00 -0.00000000000E+00 -0.45593999997E+02  0.45594000000E+02  0.51100000000E-03 0. -1.
    9900012    2    1    2    0    0  0.21216503559E+01  0.45071784338E+01 -0.18051535263E+02  0.72461708775E+02  0.70000180397E+02 0.  0.
        -12    1    1    2    0    0 -0.21216503559E+01 -0.45071784338E+01  0.18051535263E+02  0.18726291225E+02  0.00000000000E+00 0.  1.
         11    1    3    3    0    0 -0.60399114577E+01 -0.85052076566E+01  0.29906943835E+01  0.10851881904E+02  0.51100000000E-03 0. -1.
        -11    1    3    3    0    0  0.25080516950E+02  0.17962306871E+02  0.38704091409E+01  0.31091105895E+02  0.51100000000E-03 0.  1.
         12    1    3    3    0    0 -0.16918955137E+02 -0.49499207803E+01 -0.24912638788E+02  0.30518720976E+02  0.00000000000E+00 0. -1.
</event>
<event>
 7    1  0.3435518E-013  0.7246158E+02  0.7816164E-02  0.1226708E+00
        -11   -1    0    0    0    0  0.00000000000E+00  0.00000000000E+00  0.45593999997E+02  0.45594000000E+02  0.51100000000E-03 0.  1.
         11   -1    0    0    0    0 -0.00000000000E+00 -0.00000000000E+00 -0.45593999997E+02  0.45594000000E+02  0.51100000000E-03 0. -1.
    9900012    2    1    2    0    0  0.12056030569E+02 -0.86132027732E+01 -0.11451805335E+02  0.72461575341E+02  0.70000006574E+02 0.  0.
        -12    1    1    2    0    0 -0.12056030569E+02  0.86132027732E+01  0.11451805335E+02  0.18726424659E+02  0.00000000000E+00 0.  1.
         11    1    3    3    0    0  0.92060683899E+00  0.11959090847E+02 -0.17329428730E+02  0.21075494566E+02  0.51100000000E-03 0. -1.
        -11    1    3    3    0    0  0.13945929228E+02 -0.28609649542E+02 -0.10006634885E+02  0.33363658836E+02  0.51100000000E-03 0.  1.
         12    1    3    3    0    0 -0.28105054973E+01  0.80373559224E+01  0.15884258281E+02  0.18022421938E+02  0.00000000000E+00 0. -1.
</event>
<event>
 7    1  0.3435518E-013  0.7246171E+02  0.7816164E-02  0.1226708E+00
        -11   -1    0    0    0    0  0.00000000000E+00  0.00000000000E+00  0.45593999997E+02  0.45594000000E+02  0.51100000000E-03 0.  1.
         11   -1    0    0    0    0 -0.00000000000E+00 -0.00000000000E+00 -0.45593999997E+02  0.45594000000E+02  0.51100000000E-03 0. -1.
    9900012    2    1    2    0    0  0.15866632336E+02 -0.16217030491E+01 -0.98129560579E+01  0.72461707012E+02  0.70000178100E+02 0.  0.
        -12    1    1    2    0    0 -0.15866632336E+02  0.16217030491E+01  0.98129560579E+01  0.18726292988E+02  0.00000000000E+00 0.  1.
         11    1    3    3    0    0 -0.17622035157E+02  0.37264331350E+00  0.18451259366E+01  0.17722287553E+02  0.51100000000E-03 0. -1.
        -11    1    3    3    0    0  0.17287310834E+02 -0.15633816071E+02  0.91590642361E+01  0.25043078460E+02  0.51100000000E-03 0.  1.
         12    1    3    3    0    0  0.16201356659E+02  0.13639469709E+02 -0.20817146231E+02  0.29696340999E+02  0.00000000000E+00 0. -1.
</event>
<event>
 7    1  0.3435518E-013  0.7246157E+02  0.7816164E-02  0.1226708E+00
        -11   -1    0    0    0    0  0.00000000000E+00  0.00000000000E+00  0.45593999997E+02  0.45594000000E+02  0.51100000000E-03 0. -1.
         11   -1    0    0    0    0 -0.00000000000E+00 -0.00000000000E+00 -0.45593999997E+02  0.45594000000E+02  0.51100000000E-03 0.  1.
    9900012    2    1    2    0    0 -0.16407377927E+02  0.15255891138E+01 -0.88966212086E+01  0.72461565702E+02  0.69999994018E+02 0.  0.
        -12    1    1    2    0    0  0.16407377927E+02 -0.15255891138E+01  0.88966212086E+01  0.18726434298E+02  0.00000000000E+00 0.  1.
         11    1    3    3    0    0 -0.15088654195E+02  0.36583911397E+01  0.10993628600E+02  0.19023963341E+02  0.51100000000E-03 0. -1.
        -11    1    3    3    0    0  0.21123197979E+02 -0.30217212752E+01  0.27884802544E+01  0.21519663443E+02  0.51100000000E-03 0.  1.
        -12    1    3    3    0    0 -0.22441921711E+02  0.88891924931E+00 -0.22678730063E+02  0.31917938918E+02  0.00000000000E+00 0.  1.
</event>
<event>
 7    1  0.3435518E-013  0.7246159E+02  0.7816164E-02  0.1226708E+00
        -11   -1    0    0    0    0  0.00000000000E+00  0.00000000000E+00  0.45593999997E+02  0.45594000000E+02  0.51100000000E-03 0.  1.
         11   -1    0    0    0    0 -0.00000000000E+00 -0.00000000000E+00 -0.45593999997E+02  0.45594000000E+02  0.51100000000E-03 0. -1.
    9900012    2    1    2    0    0 -0.14912852614E+02 -0.74839007880E+01 -0.85015601129E+01  0.72461589014E+02  0.70000024385E+02 0.  0.
        -12    1    1    2    0    0  0.14912852614E+02  0.74839007880E+01  0.85015601129E+01  0.18726410986E+02  0.00000000000E+00 0.  1.
         11    1    3    3    0    0  0.18891098808E+02  0.11484704426E+02 -0.69874900846E+01  0.23186139564E+02  0.51100000000E-03 0. -1.
        -11    1    3    3    0    0 -0.19587277826E+02 -0.21637921616E+01 -0.13808674997E+02  0.24062895806E+02  0.51100000000E-03 0.  1.
        -12    1    3    3    0    0 -0.14216673596E+02 -0.16804813053E+02  0.12294604968E+02  0.25212553643E+02  0.00000000000E+00 0.  1.
</event>
<event>
 7    1  0.3435518E-013  0.7246157E+02  0.7816164E-02  0.1226708E+00
        -11   -1    0    0    0    0  0.00000000000E+00  0.00000000000E+00  0.45593999997E+02  0.45594000000E+02  0.51100000000E-03 0.  1.
         11   -1    0    0    0    0 -0.00000000000E+00 -0.00000000000E+00 -0.45593999997E+02  0.45594000000E+02  0.51100000000E-03 0. -1.
    9900012    2    1    2    0    0  0.10949254852E+01  0.18594082794E+02  0.19340291910E+01  0.72461568261E+02  0.69999997352E+02 0.  0.
        -12    1    1    2    0    0 -0.10949254852E+01 -0.18594082794E+02 -0.19340291910E+01  0.18726431739E+02  0.00000000000E+00 0.  1.
         11    1    3    3    0    0  0.12735731945E+02 -0.13403924554E+02 -0.95366309193E+01  0.20804119572E+02  0.51100000000E-03 0. -1.
        -11    1    3    3    0    0 -0.16232815342E+02  0.15466091576E+02 -0.96809236524E+01  0.24421805125E+02  0.51100000000E-03 0.  1.
        -12    1    3    3    0    0  0.45920088818E+01  0.16531915772E+02  0.21151583763E+02  0.27235643564E+02  0.00000000000E+00 0.  1.
</event>
<event>
 7    1  0.3435518E-013  0.7246161E+02  0.7816164E-02  0.1226708E+00
        -11   -1    0    0    0    0  0.00000000000E+00  0.00000000000E+00  0.45593999997E+02  0.45594000000E+02  0.51100000000E-03 0.  1.
         11   -1    0    0    0    0 -0.00000000000E+00 -0.00000000000E+00 -0.45593999997E+02  0.45594000000E+02  0.51100000000E-03 0. -1.
    9900012    2    1    2    0    0 -0.18695140555E+02  0.61361887809E+00  0.89051530546E+00  0.72461606167E+02  0.70000046730E+02 0.  0.
        -12    1    1    2    0    0  0.18695140555E+02 -0.61361887809E+00 -0.89051530546E+00  0.18726393833E+02  0.00000000000E+00 0.  1.
         11    1    3    3    0    0 -0.67964107100E+01  0.24641362971E+01  0.49927531822E+01  0.87858267015E+01  0.51100000000E-03 0. -1.
        -11    1    3    3    0    0 -0.29836721555E+00 -0.74752138396E+01  0.28052459871E+02  0.29032883942E+02  0.51100000000E-03 0.  1.
         12    1    3    3    0    0 -0.11600362629E+02  0.56246964206E+01 -0.32154697748E+02  0.34642895523E+02  0.00000000000E+00 0. -1.
</event>
<event>
 7    1  0.3435518E-013  0.7246156E+02  0.7816164E-02  0.1226708E+00
        -11   -1    0    0    0    0  0.00000000000E+00  0.00000000000E+00  0.45593999997E+02  0.45594000000E+02  0.51100000000E-03 0.  1.
         11   -1    0    0    0    0 -0.00000000000E+00 -0.00000000000E+00 -0.45593999997E+02  0.45594000000E+02  0.51100000000E-03 0. -1.
    9900012    2    1    2    0    0  0.26256508756E+01  0.13038983800E+02 -0.13182203263E+02  0.72461558162E+02  0.69999984195E+02 0.  0.
        -12    1    1    2    0    0 -0.26256508756E+01 -0.13038983800E+02  0.13182203263E+02  0.18726441838E+02  0.00000000000E+00 0.  1.
         11    1    3    3    0    0 -0.15154569455E+01  0.18523000861E+02 -0.15965139060E+02  0.24500690523E+02  0.51100000000E-03 0. -1.
        -11    1    3    3    0    0 -0.78265380578E+01  0.32387604273E+01 -0.19468860158E+02  0.21231598696E+02  0.51100000000E-03 0.  1.
        -12    1    3    3    0    0  0.11967645879E+02 -0.87227774887E+01  0.22251795955E+02  0.26729268943E+02  0.00000000000E+00 0.  1.
</event>
<event>
 7    1  0.3435518E-013  0.7246150E+02  0.7816164E-02  0.1226708E+00
        -11   -1    0    0    0    0  0.00000000000E+00  0.00000000000E+00  0.45593999997E+02  0.45594000000E+02  0.51100000000E-03 0.  1.
         11   -1    0    0    0    0 -0.00000000000E+00 -0.00000000000E+00 -0.45593999997E+02  0.45594000000E+02  0.51100000000E-03 0. -1.
    9900012    2    1    2    0    0  0.12830684247E+02  0.13419091504E+02 -0.24460957818E+01  0.72461498468E+02  0.69999906433E+02 0.  0.
        -12    1    1    2    0    0 -0.12830684247E+02 -0.13419091504E+02  0.24460957818E+01  0.18726501532E+02  0.00000000000E+00 0.  1.
         11    1    3    3    0    0 -0.12405644715E+02  0.15492269580E+02 -0.18176078388E+02  0.26912455543E+02  0.51100000000E-03 0. -1.
        -11    1    3    3    0    0  0.83665726980E+01  0.15691952208E+02  0.33345632437E+01  0.18092988009E+02  0.51100000000E-03 0.  1.
         12    1    3    3    0    0  0.16869756264E+02 -0.17765130283E+02  0.12395419363E+02  0.27456054916E+02  0.00000000000E+00 0. -1.
</event>
<event>
 7    1  0.3435518E-013  0.7246157E+02  0.7816164E-02  0.1226708E+00
        -11   -1    0    0    0    0  0.00000000000E+00  0.00000000000E+00  0.45593999997E+02  0.45594000000E+02  0.51100000000E-03 0.  1.
         11   -1    0    0    0    0 -0.00000000000E+00 -0.00000000000E+00 -0.45593999997E+02  0.45594000000E+02  0.51100000000E-03 0. -1.
    9900012    2    1    2    0    0  0.43002391156E+01 -0.76766684091E+01 -0.16530456008E+02  0.72461567607E+02  0.69999996500E+02 0.  0.
        -12    1    1    2    0    0 -0.43002391156E+01  0.76766684091E+01  0.16530456008E+02  0.18726432393E+02  0.00000000000E+00 0.  1.
         11    1    3    3    0    0  0.30638437464E+01 -0.34554214930E+01 -0.62096392505E+01  0.77386494997E+01  0.51100000000E-03 0. -1.
        -11    1    3    3    0    0  0.29711265749E+02  0.78816250823E+01 -0.13592782861E+02  0.33610163232E+02  0.51100000000E-03 0.  1.
        -12    1    3    3    0    0 -0.28474870380E+02 -0.12102871998E+02  0.32719661028E+01  0.31112754875E+02  0.00000000000E+00 0.  1.
</event>
<event>
 7    1  0.3435518E-013  0.7246160E+02  0.7816164E-02  0.1226708E+00
        -11   -1    0    0    0    0  0.00000000000E+00  0.00000000000E+00  0.45593999997E+02  0.45594000000E+02  0.51100000000E-03 0. -1.
         11   -1    0    0    0    0 -0.00000000000E+00 -0.00000000000E+00 -0.45593999997E+02  0.45594000000E+02  0.51100000000E-03 0.  1.
    9900012    2    1    2    0    0 -0.21287891794E+01  0.16376269029E+02 -0.88297213602E+01  0.72461603925E+02  0.70000043810E+02 0.  0.
        -12    1    1    2    0    0  0.21287891794E+01 -0.16376269029E+02  0.88297213602E+01  0.18726396075E+02  0.00000000000E+00 0.  1.
         11    1    3    3    0    0  0.19601554898E+02  0.12990638102E+02  0.11520175914E+02  0.26185722944E+02  0.51100000000E-03 0. -1.
        -11    1    3    3    0    0 -0.57144813179E+01  0.16804554525E+02 -0.96768621789E+00  0.17775960351E+02  0.51100000000E-03 0.  1.
        -12    1    3    3    0    0 -0.16015862760E+02 -0.13418923599E+02 -0.19382211056E+02  0.28499920630E+02  0.00000000000E+00 0.  1.
</event>
<event>
 7    1  0.3435518E-013  0.7246154E+02  0.7816164E-02  0.1226708E+00
        -11   -1    0    0    0    0  0.00000000000E+00  0.00000000000E+00  0.45593999997E+02  0.45594000000E+02  0.51100000000E-03 0. -1.
         11   -1    0    0    0    0 -0.00000000000E+00 -0.00000000000E+00 -0.45593999997E+02  0.45594000000E+02  0.51100000000E-03 0.  1.
    9900012    2    1    2    0    0 -0.11711378775E+02  0.46816017521E+00  0.14604953642E+02  0.72461541775E+02  0.69999962848E+02 0.  0.
        -12    1    1    2    0    0  0.11711378775E+02 -0.46816017521E+00 -0.14604953642E+02  0.18726458225E+02  0.00000000000E+00 0.  1.
         11    1    3    3    0    0  0.91684972721E+01  0.20810546094E+02  0.17969014924E+02  0.28983196314E+02  0.51100000000E-03 0. -1.
        -11    1    3    3    0    0  0.56740891394E+01 -0.39947821355E+00  0.66895779934E+01  0.87809637509E+01  0.51100000000E-03 0.  1.
        -12    1    3    3    0    0 -0.26553965186E+02 -0.19942907705E+02 -0.10053639275E+02  0.34697381710E+02  0.00000000000E+00 0.  1.
</event>
<event>
 7    1  0.3435518E-013  0.7246156E+02  0.7816164E-02  0.1226708E+00
        -11   -1    0    0    0    0  0.00000000000E+00  0.00000000000E+00  0.45593999997E+02  0.45594000000E+02  0.51100000000E-03 0.  1.
         11   -1    0    0    0    0 -0.00000000000E+00 -0.00000000000E+00 -0.45593999997E+02  0.45594000000E+02  0.51100000000E-03 0. -1.
    9900012    2    1    2    0    0 -0.77052464387E+01  0.10465631452E+01 -0.17035648290E+02  0.72461563346E+02  0.69999990948E+02 0.  0.
        -12    1    1    2    0    0  0.77052464387E+01 -0.10465631452E+01  0.17035648290E+02  0.18726436654E+02  0.00000000000E+00 0.  1.
         11    1    3    3    0    0  0.15891258151E+02  0.18500729963E+02  0.35868904575E+01  0.24651062416E+02  0.51100000000E-03 0. -1.
        -11    1    3    3    0    0  0.55221929254E+01 -0.23604408231E+01  0.36319450036E+01  0.70183559582E+01  0.51100000000E-03 0.  1.
        -12    1    3    3    0    0 -0.29118697515E+02 -0.15093725995E+02 -0.24254483751E+02  0.40792144972E+02  0.00000000000E+00 0.  1.
</event>
<event>
 7    1  0.3435518E-013  0.7246157E+02  0.7816164E-02  0.1226708E+00
        -11   -1    0    0    0    0  0.00000000000E+00  0.00000000000E+00  0.45593999997E+02  0.45594000000E+02  0.51100000000E-03 0. -1.
         11   -1    0    0    0    0 -0.00000000000E+00 -0.00000000000E+00 -0.45593999997E+02  0.45594000000E+02  0.51100000000E-03 0.  1.
    9900012    2    1    2    0    0 -0.73282333797E+01  0.16144799084E+02  0.60267563272E+01  0.72461565909E+02  0.69999994287E+02 0.  0.
        -12    1    1    2    0    0  0.73282333797E+01 -0.16144799084E+02 -0.60267563272E+01  0.18726434091E+02  0.00000000000E+00 0.  1.
         11    1    3    3    0    0 -0.97471069116E+01 -0.23375141998E+02  0.98928752660E+01  0.27189563032E+02  0.51100000000E-03 0. -1.
        -11    1    3    3    0    0  0.29945622564E+01 -0.66254175031E+00 -0.40559010758E+01  0.50849482274E+01  0.51100000000E-03 0.  1.
        -12    1    3    3    0    0 -0.57568872441E+00  0.40182482833E+02  0.18978213693E+00  0.40187054649E+02  0.00000000000E+00 0.  1.
</event>
<event>
 7    1  0.3435518E-013  0.7246107E+02  0.7816164E-02  0.1226709E+00
        -11   -1    0    0    0    0  0.00000000000E+00  0.00000000000E+00  0.45593999997E+02  0.45594000000E+02  0.51100000000E-03 0.  1.
         11   -1    0    0    0    0 -0.00000000000E+00 -0.00000000000E+00 -0.45593999997E+02  0.45594000000E+02  0.51100000000E-03 0. -1.
    9900012    2    1    2    0    0 -0.16015129085E+02  0.65687880205E+01  0.71459572259E+01  0.72461066446E+02  0.69999343641E+02 0.  0.
        -12    1    1    2    0    0  0.16015129085E+02 -0.65687880205E+01 -0.71459572259E+01  0.18726933554E+02  0.00000000000E+00 0.  1.
         11    1    3    3    0    0  0.72594345447E+01 -0.11422291540E+02  0.13109841433E+02  0.18842401031E+02  0.51100000000E-03 0. -1.
        -11    1    3    3    0    0  0.11478808382E+02 -0.27342963246E+01 -0.58135665248E+01  0.13154351913E+02  0.51100000000E-03 0.  1.
        -12    1    3    3    0    0 -0.34753372011E+02  0.20725375886E+02 -0.15031768276E+00  0.40464313502E+02  0.00000000000E+00 0.  1.
</event>
<event>
 7    1  0.3435518E-013  0.7246158E+02  0.7816164E-02  0.1226708E+00
        -11   -1    0    0    0    0  0.00000000000E+00  0.00000000000E+00  0.45593999997E+02  0.45594000000E+02  0.51100000000E-03 0.  1.
         11   -1    0    0    0    0 -0.00000000000E+00 -0.00000000000E+00 -0.45593999997E+02  0.45594000000E+02  0.51100000000E-03 0. -1.
    9900012    2    1    2    0    0  0.38858994991E+01  0.17972039367E+02 -0.35474291902E+01  0.72461583691E+02  0.70000017451E+02 0.  0.
        -12    1    1    2    0    0 -0.38858994991E+01 -0.17972039367E+02  0.35474291902E+01  0.18726416309E+02  0.00000000000E+00 0.  1.
         11    1    3    3    0    0  0.10906290902E+01 -0.16467032223E+02  0.55968753122E-01  0.16503204380E+02  0.51100000000E-03 0. -1.
        -11    1    3    3    0    0 -0.46456823178E+01 -0.68401019243E+01 -0.10590364489E+02  0.13435965868E+02  0.51100000000E-03 0.  1.
         12    1    3    3    0    0  0.74409527267E+01  0.41279173514E+02  0.69869665455E+01  0.42522413443E+02  0.00000000000E+00 0. -1.
</event>
<event>
 7    1  0.3435518E-013  0.7246156E+02  0.7816164E-02  0.1226708E+00
        -11   -1    0    0    0    0  0.00000000000E+00  0.00000000000E+00  0.45593999997E+02  0.45594000000E+02  0.51100000000E-03 0. -1.
         11   -1    0    0    0    0 -0.00000000000E+00 -0.00000000000E+00 -0.45593999997E+02  0.45594000000E+02  0.51100000000E-03 0.  1.
    9900012    2    1    2    0    0 -0.29475003398E+01  0.31527630430E+01  0.18222286443E+02  0.72461564240E+02  0.69999992114E+02 0.  0.
        -12    1    1    2    0    0  0.29475003398E+01 -0.31527630430E+01 -0.18222286443E+02  0.18726435760E+02  0.00000000000E+00 0.  1.
         11    1    3    3    0    0  0.22139136378E+02  0.51970275009E+01 -0.19303548728E+00  0.22741761528E+02  0.51100000000E-03 0. -1.
        -11    1    3    3    0    0  0.98711020539E+01  0.98746789814E+00  0.89880305438E+01  0.13386502229E+02  0.51100000000E-03 0.  1.
        -12    1    3    3    0    0 -0.34957738772E+02 -0.30317323561E+01  0.94272913862E+01  0.36333300484E+02  0.00000000000E+00 0.  1.
</event>
<event>
 7    1  0.3435518E-013  0.7246153E+02  0.7816164E-02  0.1226708E+00
        -11   -1    0    0    0    0  0.00000000000E+00  0.00000000000E+00  0.45593999997E+02  0.45594000000E+02  0.51100000000E-03 0.  1.
         11   -1    0    0    0    0 -0.00000000000E+00 -0.00000000000E+00 -0.45593999997E+02  0.45594000000E+02  0.51100000000E-03 0. -1.
    9900012    2    1    2    0    0 -0.10889608291E+02  0.12599220942E+02 -0.85648502415E+01  0.72461532187E+02  0.69999950358E+02 0.  0.
        -12    1    1    2    0    0  0.10889608291E+02 -0.12599220942E+02  0.85648502415E+01  0.18726467813E+02  0.00000000000E+00 0.  1.
         11    1    3    3    0    0 -0.71680846073E+00 -0.66813860656E+01  0.71939167444E+01  0.98441440721E+01  0.51100000000E-03 0. -1.
        -11    1    3    3    0    0 -0.27630179280E+02 -0.65047288445E+01 -0.13398904668E+02  0.31388994105E+02  0.51100000000E-03 0.  1.
         12    1    3    3    0    0  0.17457379449E+02  0.25785335852E+02 -0.23598623178E+01  0.31228394010E+02  0.00000000000E+00 0. -1.
</event>
<event>
 7    1  0.3435518E-013  0.7246154E+02  0.7816164E-02  0.1226708E+00
        -11   -1    0    0    0    0  0.00000000000E+00  0.00000000000E+00  0.45593999997E+02  0.45594000000E+02  0.51100000000E-03 0.  1.
         11   -1    0    0    0    0 -0.00000000000E+00 -0.00000000000E+00 -0.45593999997E+02  0.45594000000E+02  0.51100000000E-03 0. -1.
    9900012    2    1    2    0    0  0.19526293752E+01 -0.72840603331E+01 -0.17140889398E+02  0.72461537820E+02  0.69999957696E+02 0.  0.
        -12    1    1    2    0    0 -0.19526293752E+01  0.72840603331E+01  0.17140889398E+02  0.18726462180E+02  0.00000000000E+00 0.  1.
         11    1    3    3    0    0  0.17686235105E+02  0.93609081227E+01  0.11670451883E+02  0.23165253301E+02  0.51100000000E-03 0. -1.
        -11    1    3    3    0    0 -0.40188214554E+01  0.81417309831E+01  0.58669091737E+00  0.90985117346E+01  0.51100000000E-03 0.  1.
         12    1    3    3    0    0 -0.11714784275E+02 -0.24786699439E+02 -0.29398032199E+02  0.40197772784E+02  0.00000000000E+00 0. -1.
</event>
<event>
 7    1  0.3435518E-013  0.7246158E+02  0.7816164E-02  0.1226708E+00
        -11   -1    0    0    0    0  0.00000000000E+00  0.00000000000E+00  0.45593999997E+02  0.45594000000E+02  0.51100000000E-03 0. -1.
         11   -1    0    0    0    0 -0.00000000000E+00 -0.00000000000E+00 -0.45593999997E+02  0.45594000000E+02  0.51100000000E-03 0.  1.
    9900012    2    1    2    0    0  0.13977598926E+02  0.36253494036E+01  0.11923193444E+02  0.72461575570E+02  0.70000006872E+02 0.  0.
        -12    1    1    2    0    0 -0.13977598926E+02 -0.36253494036E+01 -0.11923193444E+02  0.18726424430E+02  0.00000000000E+00 0.  1.
         11    1    3    3    0    0  0.23958164830E+00 -0.12331513535E+02  0.23481609947E+02  0.26523755982E+02  0.51100000000E-03 0. -1.
        -11    1    3    3    0    0 -0.75827360847E+01 -0.64293977438E+01  0.47133599038E+01  0.11002309018E+02  0.51100000000E-03 0.  1.
        -12    1    3    3    0    0  0.21320753363E+02  0.22386260682E+02 -0.16271776408E+02  0.34935510570E+02  0.00000000000E+00 0.  1.
</event>
<event>
 7    1  0.3435518E-013  0.7246172E+02  0.7816164E-02  0.1226708E+00
        -11   -1    0    0    0    0  0.00000000000E+00  0.00000000000E+00  0.45593999997E+02  0.45594000000E+02  0.51100000000E-03 0. -1.
         11   -1    0    0    0    0 -0.00000000000E+00 -0.00000000000E+00 -0.45593999997E+02  0.45594000000E+02  0.51100000000E-03 0.  1.
    9900012    2    1    2    0    0 -0.12990322264E+02 -0.90536583809E+01  0.99978169486E+01  0.72461720435E+02  0.70000195586E+02 0.  0.
        -12    1    1    2    0    0  0.12990322264E+02  0.90536583809E+01 -0.99978169486E+01  0.18726279565E+02  0.00000000000E+00 0.  1.
         11    1    3    3    0    0 -0.20624259342E+02  0.81779804692E+00  0.29314222191E+02  0.35851812925E+02  0.51100000000E-03 0. -1.
        -11    1    3    3    0    0  0.38638056379E+01 -0.18705132541E+01  0.73517562978E+01  0.85132916528E+01  0.51100000000E-03 0.  1.
        -12    1    3    3    0    0  0.37701314406E+01 -0.80009431737E+01 -0.26668161540E+02  0.28096615858E+02  0.00000000000E+00 0.  1.
</event>
<event>
 7    1  0.3435518E-013  0.7246158E+02  0.7816164E-02  0.1226708E+00
        -11   -1    0    0    0    0  0.00000000000E+00  0.00000000000E+00  0.45593999997E+02  0.45594000000E+02  0.51100000000E-03 0. -1.
         11   -1    0    0    0    0 -0.00000000000E+00 -0.00000000000E+00 -0.45593999997E+02  0.45594000000E+02  0.51100000000E-03 0.  1.
    9900012    2    1    2    0    0 -0.16414229663E+02 -0.18236568016E+01 -0.88275799087E+01  0.72461579451E+02  0.70000011928E+02 0.  0.
        -12    1    1    2    0    0  0.16414229663E+02  0.18236568016E+01  0.88275799087E+01  0.18726420549E+02  0.00000000000E+00 0.  1.
         11    1    3    3    0    0 -0.18451379763E+02  0.18194804189E+02 -0.15058365084E+02  0.29970963847E+02  0.51100000000E-03 0. -1.
        -11    1    3    3    0    0  0.29412351432E+01 -0.15277773358E+01 -0.14397062519E+02  0.14773637914E+02  0.51100000000E-03 0.  1.
         12    1    3    3    0    0 -0.90408504294E+00 -0.18490683655E+02  0.20627847694E+02  0.27716977690E+02  0.00000000000E+00 0. -1.
</event>
<event>
 7    1  0.3435518E-013  0.7246155E+02  0.7816164E-02  0.1226708E+00
        -11   -1    0    0    0    0  0.00000000000E+00  0.00000000000E+00  0.45593999997E+02  0.45594000000E+02  0.51100000000E-03 0. -1.
         11   -1    0    0    0    0 -0.00000000000E+00 -0.00000000000E+00 -0.45593999997E+02  0.45594000000E+02  0.51100000000E-03 0.  1.
    9900012    2    1    2    0    0  0.15400663053E+02  0.10314260543E+02  0.26674820037E+01  0.72461552038E+02  0.69999976218E+02 0.  0.
        -12    1    1    2    0    0 -0.15400663053E+02 -0.10314260543E+02 -0.26674820037E+01  0.18726447962E+02  0.00000000000E+00 0.  1.
         11    1    3    3    0    0 -0.13653196430E+02 -0.19319157343E+02 -0.77961746366E+01  0.24908230616E+02  0.51100000000E-03 0. -1.
        -11    1    3    3    0    0  0.22618696012E+02  0.13347612898E+02 -0.15632517003E+01  0.26309844840E+02  0.51100000000E-03 0.  1.
        -12    1    3    3    0    0  0.64351634709E+01  0.16285804989E+02  0.12026908341E+02  0.21243476582E+02  0.00000000000E+00 0.  1.
</event>
<event>
 7    1  0.3435518E-013  0.7246150E+02  0.7816164E-02  0.1226708E+00
        -11   -1    0    0    0    0  0.00000000000E+00  0.00000000000E+00  0.45593999997E+02  0.45594000000E+02  0.51100000000E-03 0.  1.
         11   -1    0    0    0    0 -0.00000000000E+00 -0.00000000000E+00 -0.45593999997E+02  0.45594000000E+02  0.51100000000E-03 0. -1.
    9900012    2    1    2    0    0 -0.57948435064E+01  0.65477150105E+01 -0.16559856528E+02  0.72461504563E+02  0.69999914373E+02 0.  0.
        -12    1    1    2    0    0  0.57948435064E+01 -0.65477150105E+01  0.16559856528E+02  0.18726495437E+02  0.00000000000E+00 0.  1.
         11    1    3    3    0    0 -0.18832484512E+02  0.10909903896E+02 -0.33337941049E+02  0.39813399623E+02  0.51100000000E-03 0. -1.
        -11    1    3    3    0    0  0.49690874571E+01 -0.13868094211E+02  0.51694723635E+01  0.15612152702E+02  0.51100000000E-03 0.  1.
        -12    1    3    3    0    0  0.80685535487E+01  0.95059053259E+01  0.11608612158E+02  0.17035952238E+02  0.00000000000E+00 0.  1.
</event>
<event>
 7    1  0.3435518E-013  0.7246155E+02  0.7816164E-02  0.1226708E+00
        -11   -1    0    0    0    0  0.00000000000E+00  0.00000000000E+00  0.45593999997E+02  0.45594000000E+02  0.51100000000E-03 0.  1.
         11   -1    0    0    0    0 -0.00000000000E+00 -0.00000000000E+00 -0.45593999997E+02  0.45594000000E+02  0.51100000000E-03 0. -1.
    9900012    2    1    2    0    0  0.43134652429E+01  0.72761542218E+01 -0.16707229534E+02  0.72461550220E+02  0.69999973850E+02 0.  0.
        -12    1    1    2    0    0 -0.43134652429E+01 -0.72761542218E+01  0.16707229534E+02  0.18726449780E+02  0.00000000000E+00 0.  1.
         11    1    3    3    0    0  0.15337132507E+02  0.18696693337E+02  0.16197410244E+01  0.24236698135E+02  0.51100000000E-03 0. -1.
        -11    1    3    3    0    0  0.10258185811E+02  0.18697059808E+00 -0.21455359317E+02  0.23782299675E+02  0.51100000000E-03 0.  1.
        -12    1    3    3    0    0 -0.21281853075E+02 -0.11607509713E+02  0.31283887593E+01  0.24442552410E+02  0.00000000000E+00 0.  1.
</event>
<event>
 7    1  0.3435518E-013  0.7246157E+02  0.7816164E-02  0.1226708E+00
        -11   -1    0    0    0    0  0.00000000000E+00  0.00000000000E+00  0.45593999997E+02  0.45594000000E+02  0.51100000000E-03 0. -1.
         11   -1    0    0    0    0 -0.00000000000E+00 -0.00000000000E+00 -0.45593999997E+02  0.45594000000E+02  0.51100000000E-03 0.  1.
    9900012    2    1    2    0    0  0.91510849393E+01 -0.29187734601E+01  0.16075376739E+02  0.72461565972E+02  0.69999994370E+02 0.  0.
        -12    1    1    2    0    0 -0.91510849393E+01  0.29187734601E+01 -0.16075376739E+02  0.18726434028E+02  0.00000000000E+00 0.  1.
         11    1    3    3    0    0 -0.64792232782E+00 -0.24262736957E+01  0.41440082128E+02  0.41516105482E+02  0.51100000000E-03 0. -1.
        -11    1    3    3    0    0 -0.35288790068E+01 -0.76397256202E-01 -0.20361321295E+01  0.40748813352E+01  0.51100000000E-03 0.  1.
        -12    1    3    3    0    0  0.13327886274E+02 -0.41610250824E+00 -0.23328573259E+02  0.26870579155E+02  0.00000000000E+00 0.  1.
</event>
<event>
 7    1  0.3435518E-013  0.7246157E+02  0.7816164E-02  0.1226708E+00
        -11   -1    0    0    0    0  0.00000000000E+00  0.00000000000E+00  0.45593999997E+02  0.45594000000E+02  0.51100000000E-03 0.  1.
         11   -1    0    0    0    0 -0.00000000000E+00 -0.00000000000E+00 -0.45593999997E+02  0.45594000000E+02  0.51100000000E-03 0. -1.
    9900012    2    1    2    0    0 -0.13973532865E+02 -0.11650145940E+02 -0.44377745479E+01  0.72461565099E+02  0.69999993233E+02 0.  0.
        -12    1    1    2    0    0  0.13973532865E+02  0.11650145940E+02  0.44377745479E+01  0.18726434901E+02  0.00000000000E+00 0.  1.
         11    1    3    3    0    0  0.61287312255E+00 -0.14257593591E+01  0.66965806203E+01  0.68740523332E+01  0.51100000000E-03 0. -1.
        -11    1    3    3    0    0 -0.25355641682E+02  0.13037747604E+01  0.18907102140E+02  0.31655756275E+02  0.51100000000E-03 0.  1.
         12    1    3    3    0    0  0.10769235695E+02 -0.11528161341E+02 -0.30041457308E+02  0.33931756491E+02  0.00000000000E+00 0. -1.
</event>
<event>
 7    1  0.3435518E-013  0.7246141E+02  0.7816164E-02  0.1226708E+00
        -11   -1    0    0    0    0  0.00000000000E+00  0.00000000000E+00  0.45593999997E+02  0.45594000000E+02  0.51100000000E-03 0. -1.
         11   -1    0    0    0    0 -0.00000000000E+00 -0.00000000000E+00 -0.45593999997E+02  0.45594000000E+02  0.51100000000E-03 0.  1.
    9900012    2    1    2    0    0  0.15380472299E+02  0.10671910720E+02  0.48643571129E+00  0.72461408579E+02  0.69999789336E+02 0.  0.
        -12    1    1    2    0    0 -0.15380472299E+02 -0.10671910720E+02 -0.48643571129E+00  0.18726591421E+02  0.00000000000E+00 0.  1.
         11    1    3    3    0    0  0.15681947701E+02 -0.92057406495E+01 -0.12132810829E+01  0.18224741311E+02  0.51100000000E-03 0. -1.
        -11    1    3    3    0    0 -0.90693802307E+01 -0.70471121876E+01  0.18157345551E+02  0.21484986518E+02  0.51100000000E-03 0.  1.
        -12    1    3    3    0    0  0.87679048278E+01  0.26924763557E+02 -0.16457628757E+02  0.32751680750E+02  0.00000000000E+00 0.  1.
</event>
<event>
 7    1  0.3435518E-013  0.7246176E+02  0.7816164E-02  0.1226708E+00
        -11   -1    0    0    0    0  0.00000000000E+00  0.00000000000E+00  0.45593999997E+02  0.45594000000E+02  0.51100000000E-03 0.  1.
         11   -1    0    0    0    0 -0.00000000000E+00 -0.00000000000E+00 -0.45593999997E+02  0.45594000000E+02  0.51100000000E-03 0. -1.
    9900012    2    1    2    0    0  0.11918429722E+02 -0.35580967781E+01 -0.13998681951E+02  0.72461758624E+02  0.70000245333E+02 0.  0.
        -12    1    1    2    0    0 -0.11918429722E+02  0.35580967781E+01  0.13998681951E+02  0.18726241376E+02  0.00000000000E+00 0.  1.
         11    1    3    3    0    0 -0.18158173004E+02 -0.81541504954E+01 -0.94215594896E+01  0.22022152498E+02  0.51100000000E-03 0. -1.
        -11    1    3    3    0    0  0.29106751926E+01  0.18572663826E+02 -0.63363899528E+01  0.19838490607E+02  0.51100000000E-03 0.  1.
        -12    1    3    3    0    0  0.27165927534E+02 -0.13976610108E+02  0.17592674914E+01  0.30601115519E+02  0.00000000000E+00 0.  1.
</event>
<event>
 7    1  0.3435518E-013  0.7246155E+02  0.7816164E-02  0.1226708E+00
        -11   -1    0    0    0    0  0.00000000000E+00  0.00000000000E+00  0.45593999997E+02  0.45594000000E+02  0.51100000000E-03 0. -1.
         11   -1    0    0    0    0 -0.00000000000E+00 -0.00000000000E+00 -0.45593999997E+02  0.45594000000E+02  0.51100000000E-03 0.  1.
    9900012    2    1    2    0    0  0.45762260436E+01  0.16281158303E+02 -0.80412616247E+01  0.72461552152E+02  0.69999976366E+02 0.  0.
        -12    1    1    2    0    0 -0.45762260436E+01 -0.16281158303E+02  0.80412616247E+01  0.18726447848E+02  0.00000000000E+00 0.  1.
         11    1    3    3    0    0  0.51440565937E+01  0.28733716483E+01 -0.12576755902E+02  0.13888569838E+02  0.51100000000E-03 0. -1.
        -11    1    3    3    0    0 -0.88776067765E+01 -0.21049291374E+02  0.35129172987E+01  0.23113311265E+02  0.51100000000E-03 0.  1.
         12    1    3    3    0    0  0.83097762264E+01  0.34457078029E+02  0.10225769788E+01  0.35459671049E+02  0.00000000000E+00 0. -1.
</event>
<event>
 7    1  0.3435518E-013  0.7246156E+02  0.7816164E-02  0.1226708E+00
        -11   -1    0    0    0    0  0.00000000000E+00  0.00000000000E+00  0.45593999997E+02  0.45594000000E+02  0.51100000000E-03 0. -1.
         11   -1    0    0    0    0 -0.00000000000E+00 -0.00000000000E+00 -0.45593999997E+02  0.45594000000E+02  0.51100000000E-03 0.  1.
    9900012    2    1    2    0    0  0.12907351624E+02 -0.13537150562E+02 -0.90859531779E+00  0.72461555684E+02  0.69999980967E+02 0.  0.
        -12    1    1    2    0    0 -0.12907351624E+02  0.13537150562E+02  0.90859531779E+00  0.18726444316E+02  0.00000000000E+00 0.  1.
         11    1    3    3    0    0  0.87129362947E+01  0.11695305831E+02  0.24488633239E+02  0.28502431397E+02  0.51100000000E-03 0. -1.
        -11    1    3    3    0    0  0.12381292959E+02 -0.46402179968E+01 -0.60453565223E+01  0.14538719824E+02  0.51100000000E-03 0.  1.
        -12    1    3    3    0    0 -0.81868776292E+01 -0.20592238396E+02 -0.19351872035E+02  0.29420404462E+02  0.00000000000E+00 0.  1.
</event>
<event>
 7    1  0.3435518E-013  0.7246158E+02  0.7816164E-02  0.1226708E+00
        -11   -1    0    0    0    0  0.00000000000E+00  0.00000000000E+00  0.45593999997E+02  0.45594000000E+02  0.51100000000E-03 0.  1.
         11   -1    0    0    0    0 -0.00000000000E+00 -0.00000000000E+00 -0.45593999997E+02  0.45594000000E+02  0.51100000000E-03 0. -1.
    9900012    2    1    2    0    0 -0.14372190124E+02 -0.40203971342E+01 -0.11311734917E+02  0.72461580457E+02  0.70000013238E+02 0.  0.
        -12    1    1    2    0    0  0.14372190124E+02  0.40203971342E+01  0.11311734917E+02  0.18726419543E+02  0.00000000000E+00 0.  1.
         11    1    3    3    0    0 -0.60980601287E+01  0.16637379052E-01  0.12967946554E+01  0.62344439027E+01  0.51100000000E-03 0. -1.
        -11    1    3    3    0    0  0.11141561710E+02 -0.30082508144E+02 -0.23740545795E+01  0.32167185593E+02  0.51100000000E-03 0.  1.
         12    1    3    3    0    0 -0.19415691705E+02  0.26045473631E+02 -0.10234474993E+02  0.34059950961E+02  0.00000000000E+00 0. -1.
</event>
<event>
 7    1  0.3435518E-013  0.7246158E+02  0.7816164E-02  0.1226708E+00
        -11   -1    0    0    0    0  0.00000000000E+00  0.00000000000E+00  0.45593999997E+02  0.45594000000E+02  0.51100000000E-03 0.  1.
         11   -1    0    0    0    0 -0.00000000000E+00 -0.00000000000E+00 -0.45593999997E+02  0.45594000000E+02  0.51100000000E-03 0. -1.
    9900012    2    1    2    0    0  0.44366129579E+01  0.43964948720E+01 -0.17654064661E+02  0.72461582811E+02  0.70000016305E+02 0.  0.
        -12    1    1    2    0    0 -0.44366129579E+01 -0.43964948720E+01  0.17654064661E+02  0.18726417189E+02  0.00000000000E+00 0.  1.
         11    1    3    3    0    0 -0.92960459016E+01  0.12454249926E+02 -0.97730357102E+01  0.18358568514E+02  0.51100000000E-03 0. -1.
        -11    1    3    3    0    0  0.63599880903E+01  0.21823097089E+02 -0.26549013235E+01  0.22885487025E+02  0.51100000000E-03 0.  1.
         12    1    3    3    0    0  0.73726707691E+01 -0.29880852143E+02 -0.52261276271E+01  0.31217527272E+02  0.00000000000E+00 0. -1.
</event>
<event>
 7    1  0.3435518E-013  0.7246157E+02  0.7816164E-02  0.1226708E+00
        -11   -1    0    0    0    0  0.00000000000E+00  0.00000000000E+00  0.45593999997E+02  0.45594000000E+02  0.51100000000E-03 0.  1.
         11   -1    0    0    0    0 -0.00000000000E+00 -0.00000000000E+00 -0.45593999997E+02  0.45594000000E+02  0.51100000000E-03 0. -1.
    9900012    2    1    2    0    0 -0.15058976391E+02  0.74536260852E+01 -0.82674071406E+01  0.72461565940E+02  0.69999994328E+02 0.  0.
        -12    1    1    2    0    0  0.15058976391E+02 -0.74536260852E+01  0.82674071406E+01  0.18726434060E+02  0.00000000000E+00 0.  1.
         11    1    3    3    0    0  0.81710881556E+01  0.55781533239E+01 -0.55283960913E+01  0.11333386068E+02  0.51100000000E-03 0. -1.
        -11    1    3    3    0    0  0.16042059208E+02 -0.11322030117E+02 -0.68985475619E+00  0.19647186298E+02  0.51100000000E-03 0.  1.
         12    1    3    3    0    0 -0.39272123755E+02  0.13197502878E+02 -0.20491562931E+01  0.41480993575E+02  0.00000000000E+00 0. -1.
</event>
<event>
 7    1  0.3435518E-013  0.7246153E+02  0.7816164E-02  0.1226708E+00
        -11   -1    0    0    0    0  0.00000000000E+00  0.00000000000E+00  0.45593999997E+02  0.45594000000E+02  0.51100000000E-03 0.  1.
         11   -1    0    0    0    0 -0.00000000000E+00 -0.00000000000E+00 -0.45593999997E+02  0.45594000000E+02  0.51100000000E-03 0. -1.
    9900012    2    1    2    0    0 -0.45588650369E+01 -0.40817604760E+01 -0.17698493551E+02  0.72461529618E+02  0.69999947011E+02 0.  0.
        -12    1    1    2    0    0  0.45588650369E+01  0.40817604760E+01  0.17698493551E+02  0.18726470382E+02  0.00000000000E+00 0.  1.
         11    1    3    3    0    0 -0.15048519117E+02  0.12498735251E+02  0.19845463856E+01  0.19662521077E+02  0.51100000000E-03 0. -1.
        -11    1    3    3    0    0 -0.29366048101E+00 -0.13442719571E+02  0.12717381121E+02  0.18507423613E+02  0.51100000000E-03 0.  1.
         12    1    3    3    0    0  0.10783314562E+02 -0.31377761555E+01 -0.32400421058E+02  0.34291584928E+02  0.00000000000E+00 0. -1.
</event>
<event>
 7    1  0.3435518E-013  0.7246157E+02  0.7816164E-02  0.1226708E+00
        -11   -1    0    0    0    0  0.00000000000E+00  0.00000000000E+00  0.45593999997E+02  0.45594000000E+02  0.51100000000E-03 0.  1.
         11   -1    0    0    0    0 -0.00000000000E+00 -0.00000000000E+00 -0.45593999997E+02  0.45594000000E+02  0.51100000000E-03 0. -1.
    9900012    2    1    2    0    0 -0.91888101935E+01 -0.15742376409E+02 -0.42921485095E+01  0.72461569839E+02  0.69999999406E+02 0.  0.
        -12    1    1    2    0    0  0.91888101935E+01  0.15742376409E+02  0.42921485095E+01  0.18726430161E+02  0.00000000000E+00 0.  1.
         11    1    3    3    0    0  0.61273851305E+00  0.20580860841E+01  0.23442182739E+01  0.31790763426E+01  0.51100000000E-03 0. -1.
        -11    1    3    3    0    0 -0.18762359717E+02  0.20773140909E+02 -0.95462146597E+01  0.29574985037E+02  0.51100000000E-03 0.  1.
         12    1    3    3    0    0  0.89608110100E+01 -0.38573603402E+02  0.29098478762E+01  0.39707508459E+02  0.00000000000E+00 0. -1.
</event>
<event>
 7    1  0.3435518E-013  0.7246159E+02  0.7816164E-02  0.1226708E+00
        -11   -1    0    0    0    0  0.00000000000E+00  0.00000000000E+00  0.45593999997E+02  0.45594000000E+02  0.51100000000E-03 0.  1.
         11   -1    0    0    0    0 -0.00000000000E+00 -0.00000000000E+00 -0.45593999997E+02  0.45594000000E+02  0.51100000000E-03 0. -1.
    9900012    2    1    2    0    0 -0.50143627620E+01  0.17517304073E+02 -0.43219010982E+01  0.72461585367E+02  0.70000019635E+02 0.  0.
        -12    1    1    2    0    0  0.50143627620E+01 -0.17517304073E+02  0.43219010982E+01  0.18726414633E+02  0.00000000000E+00 0.  1.
         11    1    3    3    0    0 -0.35962123281E+01 -0.66798735449E+01 -0.27078801487E+02  0.28121432110E+02  0.51100000000E-03 0. -1.
        -11    1    3    3    0    0  0.64285587011E+01  0.14239513985E+02 -0.27432366555E+01  0.15862391784E+02  0.51100000000E-03 0.  1.
        -12    1    3    3    0    0 -0.78467091350E+01  0.99576636333E+01  0.25500137044E+02  0.28477761474E+02  0.00000000000E+00 0.  1.
</event>
<event>
 7    1  0.3435518E-013  0.7246162E+02  0.7816164E-02  0.1226708E+00
        -11   -1    0    0    0    0  0.00000000000E+00  0.00000000000E+00  0.45593999997E+02  0.45594000000E+02  0.51100000000E-03 0.  1.
         11   -1    0    0    0    0 -0.00000000000E+00 -0.00000000000E+00 -0.45593999997E+02  0.45594000000E+02  0.51100000000E-03 0. -1.
    9900012    2    1    2    0    0 -0.16550194434E-01  0.24991437311E+01 -0.18558858701E+02  0.72461622091E+02  0.70000067475E+02 0.  0.
        -12    1    1    2    0    0  0.16550194434E-01 -0.24991437311E+01  0.18558858701E+02  0.18726377909E+02  0.00000000000E+00 0.  1.
         11    1    3    3    0    0  0.10977904501E+02  0.23078663920E+01 -0.29336792964E+02  0.31408407412E+02  0.51100000000E-03 0. -1.
        -11    1    3    3    0    0  0.77687738309E+01 -0.13905150776E+02  0.22647155756E+01  0.16088380957E+02  0.51100000000E-03 0.  1.
        -12    1    3    3    0    0 -0.18763228526E+02  0.14096428115E+02  0.85132186874E+01  0.24964833721E+02  0.00000000000E+00 0.  1.
</event>
<event>
 7    1  0.3435518E-013  0.7246161E+02  0.7816164E-02  0.1226708E+00
        -11   -1    0    0    0    0  0.00000000000E+00  0.00000000000E+00  0.45593999997E+02  0.45594000000E+02  0.51100000000E-03 0. -1.
         11   -1    0    0    0    0 -0.00000000000E+00 -0.00000000000E+00 -0.45593999997E+02  0.45594000000E+02  0.51100000000E-03 0.  1.
    9900012    2    1    2    0    0  0.85682924539E+00 -0.88844263869E+01  0.16462394821E+02  0.72461611352E+02  0.70000053485E+02 0.  0.
        -12    1    1    2    0    0 -0.85682924539E+00  0.88844263869E+01 -0.16462394821E+02  0.18726388648E+02  0.00000000000E+00 0.  1.
         11    1    3    3    0    0 -0.15537967910E+02 -0.22432075673E+02  0.29390309104E+02  0.40105071191E+02  0.51100000000E-03 0. -1.
        -11    1    3    3    0    0  0.58564443513E+01  0.14461487994E-01  0.48861561085E+01  0.76271011107E+01  0.51100000000E-03 0.  1.
        -12    1    3    3    0    0  0.10538352804E+02  0.13533187798E+02 -0.17814070392E+02  0.24729439050E+02  0.00000000000E+00 0.  1.
</event>
<event>
 7    1  0.3435518E-013  0.7246160E+02  0.7816164E-02  0.1226708E+00
        -11   -1    0    0    0    0  0.00000000000E+00  0.00000000000E+00  0.45593999997E+02  0.45594000000E+02  0.51100000000E-03 0.  1.
         11   -1    0    0    0    0 -0.00000000000E+00 -0.00000000000E+00 -0.45593999997E+02  0.45594000000E+02  0.51100000000E-03 0. -1.
    9900012    2    1    2    0    0  0.10219883722E+02 -0.29092081333E+01 -0.15419741238E+02  0.72461603253E+02  0.70000042935E+02 0.  0.
        -12    1    1    2    0    0 -0.10219883722E+02  0.29092081333E+01  0.15419741238E+02  0.18726396747E+02  0.00000000000E+00 0.  1.
         11    1    3    3    0    0 -0.44700450525E+01 -0.10209080997E+02 -0.16170964954E+02  0.19639418152E+02  0.51100000000E-03 0. -1.
        -11    1    3    3    0    0 -0.63050204173E+01  0.77489379042E+01 -0.20587576561E+02  0.22883348313E+02  0.51100000000E-03 0.  1.
        -12    1    3    3    0    0  0.20994949192E+02 -0.44906504074E+00  0.21338800276E+02  0.29938836788E+02  0.00000000000E+00 0.  1.
</event>
<event>
 7    1  0.3435518E-013  0.7246156E+02  0.7816164E-02  0.1226708E+00
        -11   -1    0    0    0    0  0.00000000000E+00  0.00000000000E+00  0.45593999997E+02  0.45594000000E+02  0.51100000000E-03 0.  1.
         11   -1    0    0    0    0 -0.00000000000E+00 -0.00000000000E+00 -0.45593999997E+02  0.45594000000E+02  0.51100000000E-03 0. -1.
    9900012    2    1    2    0    0 -0.13501502273E+02 -0.97095869369E+01 -0.86088937409E+01  0.72461556303E+02  0.69999981773E+02 0.  0.
        -12    1    1    2    0    0  0.13501502273E+02  0.97095869369E+01  0.86088937409E+01  0.18726443697E+02  0.00000000000E+00 0.  1.
         11    1    3    3    0    0 -0.44565220978E+01  0.82353354362E+01 -0.19251650864E+02  0.21408115289E+02  0.51100000000E-03 0. -1.
        -11    1    3    3    0    0  0.67314977831E+01  0.12651381146E+02 -0.18130707336E+01  0.14444989894E+02  0.51100000000E-03 0.  1.
         12    1    3    3    0    0 -0.15776477958E+02 -0.30596303519E+02  0.12455827857E+02  0.36608451120E+02  0.00000000000E+00 0. -1.
</event>
<event>
 7    1  0.3435518E-013  0.7246168E+02  0.7816164E-02  0.1226708E+00
        -11   -1    0    0    0    0  0.00000000000E+00  0.00000000000E+00  0.45593999997E+02  0.45594000000E+02  0.51100000000E-03 0. -1.
         11   -1    0    0    0    0 -0.00000000000E+00 -0.00000000000E+00 -0.45593999997E+02  0.45594000000E+02  0.51100000000E-03 0.  1.
    9900012    2    1    2    0    0  0.14591102883E+02 -0.11429602061E+02 -0.26718657839E+01  0.72461682866E+02  0.70000146646E+02 0.  0.
        -12    1    1    2    0    0 -0.14591102883E+02  0.11429602061E+02  0.26718657839E+01  0.18726317134E+02  0.00000000000E+00 0.  1.
         11    1    3    3    0    0  0.37587005229E+02 -0.35711695373E+00  0.71060863722E+01  0.38254502459E+02  0.51100000000E-03 0. -1.
        -11    1    3    3    0    0 -0.38474173944E+00 -0.86537568016E+01  0.15529466059E+01  0.88004077410E+01  0.51100000000E-03 0.  1.
        -12    1    3    3    0    0 -0.22611160606E+02 -0.24187283058E+01 -0.11330898762E+02  0.25406772666E+02  0.00000000000E+00 0.  1.
</event>
<event>
 7    1  0.3435518E-013  0.7246159E+02  0.7816164E-02  0.1226708E+00
        -11   -1    0    0    0    0  0.00000000000E+00  0.00000000000E+00  0.45593999997E+02  0.45594000000E+02  0.51100000000E-03 0.  1.
         11   -1    0    0    0    0 -0.00000000000E+00 -0.00000000000E+00 -0.45593999997E+02  0.45594000000E+02  0.51100000000E-03 0. -1.
    9900012    2    1    2    0    0 -0.38874135118E+00 -0.10366318383E+02 -0.15590597061E+02  0.72461591018E+02  0.70000026996E+02 0.  0.
        -12    1    1    2    0    0  0.38874135118E+00  0.10366318383E+02  0.15590597061E+02  0.18726408982E+02  0.00000000000E+00 0.  1.
         11    1    3    3    0    0  0.14431065717E+02 -0.17580200890E+02 -0.90456562440E+01  0.24477398110E+02  0.51100000000E-03 0. -1.
        -11    1    3    3    0    0  0.72411683637E+01  0.96261838479E+01  0.13490462677E+02  0.18085643982E+02  0.51100000000E-03 0.  1.
        -12    1    3    3    0    0 -0.22060975432E+02 -0.24123013402E+01 -0.20035403493E+02  0.29898548926E+02  0.00000000000E+00 0.  1.
</event>
<event>
 7    1  0.3435518E-013  0.7246155E+02  0.7816164E-02  0.1226708E+00
        -11   -1    0    0    0    0  0.00000000000E+00  0.00000000000E+00  0.45593999997E+02  0.45594000000E+02  0.51100000000E-03 0. -1.
         11   -1    0    0    0    0 -0.00000000000E+00 -0.00000000000E+00 -0.45593999997E+02  0.45594000000E+02  0.51100000000E-03 0.  1.
    9900012    2    1    2    0    0  0.47466759868E+01  0.15924709127E+01  0.18044747135E+02  0.72461553576E+02  0.69999978221E+02 0.  0.
        -12    1    1    2    0    0 -0.47466759868E+01 -0.15924709127E+01 -0.18044747135E+02  0.18726446424E+02  0.00000000000E+00 0.  1.
         11    1    3    3    0    0  0.10737150215E+01 -0.12058592750E+01  0.17470759902E+01  0.23789147347E+01  0.51100000000E-03 0. -1.
        -11    1    3    3    0    0  0.18547302552E+02 -0.27208260030E+02  0.15954100663E+02  0.36589960017E+02  0.51100000000E-03 0.  1.
         12    1    3    3    0    0 -0.14874341587E+02  0.30006590218E+02  0.34357048088E+00  0.33492678824E+02  0.00000000000E+00 0. -1.
</event>
<event>
 7    1  0.3435518E-013  0.7246160E+02  0.7816164E-02  0.1226708E+00
        -11   -1    0    0    0    0  0.00000000000E+00  0.00000000000E+00  0.45593999997E+02  0.45594000000E+02  0.51100000000E-03 0. -1.
         11   -1    0    0    0    0 -0.00000000000E+00 -0.00000000000E+00 -0.45593999997E+02  0.45594000000E+02  0.51100000000E-03 0.  1.
    9900012    2    1    2    0    0  0.15552847394E+01 -0.16997198655E+02  0.77041779108E+01  0.72461600719E+02  0.70000039634E+02 0.  0.
        -12    1    1    2    0    0 -0.15552847394E+01  0.16997198655E+02 -0.77041779108E+01  0.18726399281E+02  0.00000000000E+00 0.  1.
         11    1    3    3    0    0  0.23223101896E+01  0.91944436571E+01 -0.38808675779E+01  0.10246562946E+02  0.51100000000E-03 0. -1.
        -11    1    3    3    0    0 -0.70631784813E+00  0.10071647908E+02  0.22235221287E+02  0.24420115528E+02  0.51100000000E-03 0.  1.
        -12    1    3    3    0    0 -0.60707602095E-01 -0.36263290220E+02 -0.10650175798E+02  0.37794922245E+02  0.00000000000E+00 0.  1.
</event>
<event>
 7    1  0.3435518E-013  0.7246156E+02  0.7816164E-02  0.1226708E+00
        -11   -1    0    0    0    0  0.00000000000E+00  0.00000000000E+00  0.45593999997E+02  0.45594000000E+02  0.51100000000E-03 0. -1.
         11   -1    0    0    0    0 -0.00000000000E+00 -0.00000000000E+00 -0.45593999997E+02  0.45594000000E+02  0.51100000000E-03 0.  1.
    9900012    2    1    2    0    0  0.14119311520E+02  0.19810937594E+01  0.12140840105E+02  0.72461556431E+02  0.69999981941E+02 0.  0.
        -12    1    1    2    0    0 -0.14119311520E+02 -0.19810937594E+01 -0.12140840105E+02  0.18726443569E+02  0.00000000000E+00 0.  1.
         11    1    3    3    0    0  0.19263763683E+02  0.20279208977E+02 -0.67042817510E+00  0.27978355602E+02  0.51100000000E-03 0. -1.
        -11    1    3    3    0    0  0.84711026554E+01  0.44956863975E+00 -0.92073710728E+01  0.12519479801E+02  0.51100000000E-03 0.  1.
         12    1    3    3    0    0 -0.13615554819E+02 -0.18747683857E+02  0.22018639353E+02  0.31963721028E+02  0.00000000000E+00 0. -1.
</event>
<event>
 7    1  0.3435518E-013  0.7246143E+02  0.7816164E-02  0.1226708E+00
        -11   -1    0    0    0    0  0.00000000000E+00  0.00000000000E+00  0.45593999997E+02  0.45594000000E+02  0.51100000000E-03 0.  1.
         11   -1    0    0    0    0 -0.00000000000E+00 -0.00000000000E+00 -0.45593999997E+02  0.45594000000E+02  0.51100000000E-03 0. -1.
    9900012    2    1    2    0    0  0.88959828576E+00 -0.74358608165E+01 -0.17163941931E+02  0.72461432941E+02  0.69999821072E+02 0.  0.
        -12    1    1    2    0    0 -0.88959828576E+00  0.74358608165E+01  0.17163941931E+02  0.18726567059E+02  0.00000000000E+00 0.  1.
         11    1    3    3    0    0 -0.82660329332E+01 -0.12424905082E+02 -0.14661618281E+02  0.20920531007E+02  0.51100000000E-03 0. -1.
        -11    1    3    3    0    0  0.10419369117E+02 -0.20505635696E+02  0.73991833744E+01  0.24161793455E+02  0.51100000000E-03 0.  1.
         12    1    3    3    0    0 -0.12637378984E+01  0.25494679961E+02 -0.99015070244E+01  0.27379108479E+02  0.00000000000E+00 0. -1.
</event>
<event>
 7    1  0.3435518E-013  0.7246162E+02  0.7816164E-02  0.1226708E+00
        -11   -1    0    0    0    0  0.00000000000E+00  0.00000000000E+00  0.45593999997E+02  0.45594000000E+02  0.51100000000E-03 0.  1.
         11   -1    0    0    0    0 -0.00000000000E+00 -0.00000000000E+00 -0.45593999997E+02  0.45594000000E+02  0.51100000000E-03 0. -1.
    9900012    2    1    2    0    0  0.12828120963E+02  0.10223050004E+02 -0.90336009921E+01  0.72461617923E+02  0.70000062045E+02 0.  0.
        -12    1    1    2    0    0 -0.12828120963E+02 -0.10223050004E+02  0.90336009921E+01  0.18726382077E+02  0.00000000000E+00 0.  1.
         11    1    3    3    0    0  0.66683218156E+01  0.40204272251E+01  0.15629156734E+02  0.17461411495E+02  0.51100000000E-03 0.  1.
        -11    1    3    3    0    0  0.22680111478E+01 -0.19241633478E+02 -0.33330856104E-01  0.19374866314E+02  0.51100000000E-03 0. -1.
         12    1    3    3    0    0  0.38917879999E+01  0.25444256257E+02 -0.24629426870E+02  0.35625340114E+02  0.00000000000E+00 0. -1.
</event>
<event>
 7    1  0.3435518E-013  0.7246173E+02  0.7816164E-02  0.1226708E+00
        -11   -1    0    0    0    0  0.00000000000E+00  0.00000000000E+00  0.45593999997E+02  0.45594000000E+02  0.51100000000E-03 0. -1.
         11   -1    0    0    0    0 -0.00000000000E+00 -0.00000000000E+00 -0.45593999997E+02  0.45594000000E+02  0.51100000000E-03 0.  1.
    9900012    2    1    2    0    0 -0.13256796745E+02  0.81680803646E+01  0.10402543013E+02  0.72461732408E+02  0.70000211183E+02 0.  0.
        -12    1    1    2    0    0  0.13256796745E+02 -0.81680803646E+01 -0.10402543013E+02  0.18726267592E+02  0.00000000000E+00 0.  1.
         11    1    3    3    0    0  0.17942179733E+00  0.29457008231E+01  0.35005348363E+02  0.35129528317E+02  0.51100000000E-03 0. -1.
        -11    1    3    3    0    0  0.37572703418E+01  0.90232884248E+01 -0.49893424323E+01  0.10974076389E+02  0.51100000000E-03 0.  1.
        -12    1    3    3    0    0 -0.17193488884E+02 -0.38009088832E+01 -0.19613462918E+02  0.26358127702E+02  0.00000000000E+00 0.  1.
</event>
<event>
 7    1  0.3435518E-013  0.7246188E+02  0.7816164E-02  0.1226707E+00
        -11   -1    0    0    0    0  0.00000000000E+00  0.00000000000E+00  0.45593999997E+02  0.45594000000E+02  0.51100000000E-03 0. -1.
         11   -1    0    0    0    0 -0.00000000000E+00 -0.00000000000E+00 -0.45593999997E+02  0.45594000000E+02  0.51100000000E-03 0.  1.
    9900012    2    1    2    0    0  0.92115043905E+01  0.16302956702E+02  0.17118202043E+00  0.72461881511E+02  0.70000405417E+02 0.  0.
        -12    1    1    2    0    0 -0.92115043905E+01 -0.16302956702E+02 -0.17118202043E+00  0.18726118489E+02  0.00000000000E+00 0.  1.
         11    1    3    3    0    0  0.25500425612E+01  0.52534460200E+01  0.26463554042E+02  0.27100204887E+02  0.51100000000E-03 0. -1.
        -11    1    3    3    0    0  0.81500051655E+01 -0.11648899508E+02 -0.10249636125E+02  0.17526393950E+02  0.51100000000E-03 0.  1.
        -12    1    3    3    0    0 -0.14885433362E+01  0.22698410191E+02 -0.16042735897E+02  0.27835282673E+02  0.00000000000E+00 0.  1.
</event>
<event>
 7    1  0.3435518E-013  0.7246156E+02  0.7816164E-02  0.1226708E+00
        -11   -1    0    0    0    0  0.00000000000E+00  0.00000000000E+00  0.45593999997E+02  0.45594000000E+02  0.51100000000E-03 0. -1.
         11   -1    0    0    0    0 -0.00000000000E+00 -0.00000000000E+00 -0.45593999997E+02  0.45594000000E+02  0.51100000000E-03 0.  1.
    9900012    2    1    2    0    0  0.95026430743E+01  0.13149270718E+01  0.16082609085E+02  0.72461559505E+02  0.69999985945E+02 0.  0.
        -12    1    1    2    0    0 -0.95026430743E+01 -0.13149270718E+01 -0.16082609085E+02  0.18726440495E+02  0.00000000000E+00 0.  1.
         11    1    3    3    0    0  0.24295429283E+02  0.14486024649E+02  0.54697766550E+01  0.28810262947E+02  0.51100000000E-03 0. -1.
        -11    1    3    3    0    0 -0.44869851794E+01  0.10158838579E+02 -0.65651678922E+01  0.12901025811E+02  0.51100000000E-03 0.  1.
        -12    1    3    3    0    0 -0.10305801029E+02 -0.23329936156E+02  0.17178000323E+02  0.30750270747E+02  0.00000000000E+00 0.  1.
</event>
<event>
 7    1  0.3435518E-013  0.7246158E+02  0.7816164E-02  0.1226708E+00
        -11   -1    0    0    0    0  0.00000000000E+00  0.00000000000E+00  0.45593999997E+02  0.45594000000E+02  0.51100000000E-03 0.  1.
         11   -1    0    0    0    0 -0.00000000000E+00 -0.00000000000E+00 -0.45593999997E+02  0.45594000000E+02  0.51100000000E-03 0. -1.
    9900012    2    1    2    0    0 -0.18573815817E+02 -0.45091280014E+00  0.23428086341E+01  0.72461582599E+02  0.70000016030E+02 0.  0.
        -12    1    1    2    0    0  0.18573815817E+02  0.45091280014E+00 -0.23428086341E+01  0.18726417401E+02  0.00000000000E+00 0.  1.
         11    1    3    3    0    0 -0.30123058644E+00 -0.12724623325E+01 -0.10602280665E+02  0.10682614653E+02  0.51100000000E-03 0. -1.
        -11    1    3    3    0    0  0.33590919139E+00  0.26914475017E+02  0.12621086715E+02  0.29728666814E+02  0.51100000000E-03 0.  1.
         12    1    3    3    0    0 -0.18608494422E+02 -0.26092925485E+02  0.32400258449E+00  0.32050301132E+02  0.00000000000E+00 0. -1.
</event>
<event>
 7    1  0.3435518E-013  0.7246157E+02  0.7816164E-02  0.1226708E+00
        -11   -1    0    0    0    0  0.00000000000E+00  0.00000000000E+00  0.45593999997E+02  0.45594000000E+02  0.51100000000E-03 0.  1.
         11   -1    0    0    0    0 -0.00000000000E+00 -0.00000000000E+00 -0.45593999997E+02  0.45594000000E+02  0.51100000000E-03 0. -1.
    9900012    2    1    2    0    0 -0.88864456407E+01 -0.92280599796E+01 -0.13658449681E+02  0.72461568018E+02  0.69999997034E+02 0.  0.
        -12    1    1    2    0    0  0.88864456407E+01  0.92280599796E+01  0.13658449681E+02  0.18726431982E+02  0.00000000000E+00 0.  1.
         11    1    3    3    0    0 -0.63290301857E+01  0.15166798825E+02 -0.77762856530E+01  0.18181282367E+02  0.51100000000E-03 0.  1.
        -11    1    3    3    0    0 -0.61439626684E+01 -0.58230456170E+01  0.20292034022E+02  0.21986877507E+02  0.51100000000E-03 0. -1.
         12    1    3    3    0    0  0.35865472133E+01 -0.18571813188E+02 -0.26174198049E+02  0.32293408143E+02  0.00000000000E+00 0. -1.
</event>
<event>
 7    1  0.3435518E-013  0.7246151E+02  0.7816164E-02  0.1226708E+00
        -11   -1    0    0    0    0  0.00000000000E+00  0.00000000000E+00  0.45593999997E+02  0.45594000000E+02  0.51100000000E-03 0. -1.
         11   -1    0    0    0    0 -0.00000000000E+00 -0.00000000000E+00 -0.45593999997E+02  0.45594000000E+02  0.51100000000E-03 0.  1.
    9900012    2    1    2    0    0  0.58060957682E+01 -0.22625563078E+01  0.17659318370E+02  0.72461509821E+02  0.69999921222E+02 0.  0.
        -12    1    1    2    0    0 -0.58060957682E+01  0.22625563078E+01 -0.17659318370E+02  0.18726490179E+02  0.00000000000E+00 0.  1.
         11    1    3    3    0    0  0.14189855091E+02  0.12780790483E+01  0.56430268607E+01  0.15324138670E+02  0.51100000000E-03 0.  1.
        -11    1    3    3    0    0  0.48428561853E+01  0.22259228037E+02 -0.52711981235E+01  0.23381873722E+02  0.51100000000E-03 0. -1.
         12    1    3    3    0    0 -0.13226615508E+02 -0.25799863393E+02  0.17287489633E+02  0.33755497429E+02  0.00000000000E+00 0. -1.
</event>
<event>
 7    1  0.3435518E-013  0.7246155E+02  0.7816164E-02  0.1226708E+00
        -11   -1    0    0    0    0  0.00000000000E+00  0.00000000000E+00  0.45593999997E+02  0.45594000000E+02  0.51100000000E-03 0.  1.
         11   -1    0    0    0    0 -0.00000000000E+00 -0.00000000000E+00 -0.45593999997E+02  0.45594000000E+02  0.51100000000E-03 0. -1.
    9900012    2    1    2    0    0 -0.16016358398E+01  0.18615126676E+02 -0.12616306402E+01  0.72461551047E+02  0.69999974926E+02 0.  0.
        -12    1    1    2    0    0  0.16016358398E+01 -0.18615126676E+02  0.12616306402E+01  0.18726448953E+02  0.00000000000E+00 0.  1.
         11    1    3    3    0    0  0.89252765600E+01 -0.13703652183E+02  0.47948848204E+01  0.17042346245E+02  0.51100000000E-03 0. -1.
        -11    1    3    3    0    0 -0.74034680527E+01 -0.49874954558E+00  0.14697511506E+02  0.16464414203E+02  0.51100000000E-03 0.  1.
         12    1    3    3    0    0 -0.31234443471E+01  0.32817528405E+02 -0.20754026967E+02  0.38954790598E+02  0.00000000000E+00 0. -1.
</event>
<event>
 7    1  0.3435518E-013  0.7246172E+02  0.7816164E-02  0.1226708E+00
        -11   -1    0    0    0    0  0.00000000000E+00  0.00000000000E+00  0.45593999997E+02  0.45594000000E+02  0.51100000000E-03 0.  1.
         11   -1    0    0    0    0 -0.00000000000E+00 -0.00000000000E+00 -0.45593999997E+02  0.45594000000E+02  0.51100000000E-03 0. -1.
    9900012    2    1    2    0    0 -0.12906866422E+02 -0.13114546924E+02 -0.34778095171E+01  0.72461716309E+02  0.70000190210E+02 0.  0.
        -12    1    1    2    0    0  0.12906866422E+02  0.13114546924E+02  0.34778095171E+01  0.18726283691E+02  0.00000000000E+00 0.  1.
         11    1    3    3    0    0 -0.10135728035E+02  0.56432996792E+01  0.39215655017E+01  0.12245753971E+02  0.51100000000E-03 0. -1.
        -11    1    3    3    0    0 -0.86071531925E+01  0.81056660967E+01  0.18820895694E+02  0.22226358765E+02  0.51100000000E-03 0.  1.
         12    1    3    3    0    0  0.58360148057E+01 -0.26863512700E+02 -0.26220270713E+02  0.37989603573E+02  0.00000000000E+00 0. -1.
</event>
<event>
 7    1  0.3435518E-013  0.7246151E+02  0.7816164E-02  0.1226708E+00
        -11   -1    0    0    0    0  0.00000000000E+00  0.00000000000E+00  0.45593999997E+02  0.45594000000E+02  0.51100000000E-03 0.  1.
         11   -1    0    0    0    0 -0.00000000000E+00 -0.00000000000E+00 -0.45593999997E+02  0.45594000000E+02  0.51100000000E-03 0. -1.
    9900012    2    1    2    0    0 -0.10691696819E+01 -0.10731197330E+02  0.15309460603E+02  0.72461513306E+02  0.69999925762E+02 0.  0.
        -12    1    1    2    0    0  0.10691696819E+01  0.10731197330E+02 -0.15309460603E+02  0.18726486694E+02  0.00000000000E+00 0.  1.
         11    1    3    3    0    0 -0.76494409627E+01 -0.29635682572E+02  0.88814386093E+01  0.31869540012E+02  0.51100000000E-03 0. -1.
        -11    1    3    3    0    0  0.62016266064E+01 -0.20953404511E+01  0.16166016702E+02  0.17441064200E+02  0.51100000000E-03 0.  1.
        -12    1    3    3    0    0  0.37864467435E+00  0.20999825693E+02 -0.97379947078E+01  0.23150909093E+02  0.00000000000E+00 0.  1.
</event>
<event>
 7    1  0.3435518E-013  0.7246155E+02  0.7816164E-02  0.1226708E+00
        -11   -1    0    0    0    0  0.00000000000E+00  0.00000000000E+00  0.45593999997E+02  0.45594000000E+02  0.51100000000E-03 0. -1.
         11   -1    0    0    0    0 -0.00000000000E+00 -0.00000000000E+00 -0.45593999997E+02  0.45594000000E+02  0.51100000000E-03 0.  1.
    9900012    2    1    2    0    0  0.16755010502E+02  0.14858675609E+01  0.82305373673E+01  0.72461550131E+02  0.69999973734E+02 0.  0.
        -12    1    1    2    0    0 -0.16755010502E+02 -0.14858675609E+01 -0.82305373673E+01  0.18726449869E+02  0.00000000000E+00 0.  1.
         11    1    3    3    0    0 -0.27072288075E+01 -0.18158246540E+02 -0.81389613980E+01  0.20082173640E+02  0.51100000000E-03 0. -1.
        -11    1    3    3    0    0  0.19751727980E+01  0.11895954192E+02 -0.12744104494E+02  0.17545005937E+02  0.51100000000E-03 0.  1.
         12    1    3    3    0    0  0.17487066512E+02  0.77481599088E+01  0.29113603259E+02  0.34834370554E+02  0.00000000000E+00 0. -1.
</event>
<event>
 7    1  0.3435518E-013  0.7246156E+02  0.7816164E-02  0.1226708E+00
        -11   -1    0    0    0    0  0.00000000000E+00  0.00000000000E+00  0.45593999997E+02  0.45594000000E+02  0.51100000000E-03 0.  1.
         11   -1    0    0    0    0 -0.00000000000E+00 -0.00000000000E+00 -0.45593999997E+02  0.45594000000E+02  0.51100000000E-03 0. -1.
    9900012    2    1    2    0    0  0.52426858916E+01  0.14648636223E+02 -0.10421668921E+02  0.72461561960E+02  0.69999989143E+02 0.  0.
        -12    1    1    2    0    0 -0.52426858916E+01 -0.14648636223E+02  0.10421668921E+02  0.18726438040E+02  0.00000000000E+00 0.  1.
         11    1    3    3    0    0 -0.65750532816E+01  0.13751014687E+02  0.21961520918E+02  0.26732566878E+02  0.51100000000E-03 0. -1.
        -11    1    3    3    0    0  0.51761015504E+01 -0.71848806648E+01  0.25888097408E+01  0.92258589607E+01  0.51100000000E-03 0.  1.
         12    1    3    3    0    0  0.66416376228E+01  0.80825022011E+01 -0.34971999579E+02  0.36503136122E+02  0.00000000000E+00 0. -1.
</event>
<event>
 7    1  0.3435518E-013  0.7246156E+02  0.7816164E-02  0.1226708E+00
        -11   -1    0    0    0    0  0.00000000000E+00  0.00000000000E+00  0.45593999997E+02  0.45594000000E+02  0.51100000000E-03 0.  1.
         11   -1    0    0    0    0 -0.00000000000E+00 -0.00000000000E+00 -0.45593999997E+02  0.45594000000E+02  0.51100000000E-03 0. -1.
    9900012    2    1    2    0    0 -0.18599906778E+00  0.16229144770E+02 -0.93413040034E+01  0.72461556234E+02  0.69999981684E+02 0.  0.
        -12    1    1    2    0    0  0.18599906778E+00 -0.16229144770E+02  0.93413040034E+01  0.18726443766E+02  0.00000000000E+00 0.  1.
         11    1    3    3    0    0  0.21687634798E+02  0.58132107442E+01  0.49986743444E+01  0.23002905638E+02  0.51100000000E-03 0.  1.
        -11    1    3    3    0    0 -0.19149160880E+02 -0.68120839632E+01  0.73612834280E+01  0.21616737596E+02  0.51100000000E-03 0. -1.
         12    1    3    3    0    0 -0.27244729864E+01  0.17228017989E+02 -0.21701261776E+02  0.27841913001E+02  0.00000000000E+00 0. -1.
</event>
<event>
 7    1  0.3435518E-013  0.7246163E+02  0.7816164E-02  0.1226708E+00
        -11   -1    0    0    0    0  0.00000000000E+00  0.00000000000E+00  0.45593999997E+02  0.45594000000E+02  0.51100000000E-03 0. -1.
         11   -1    0    0    0    0 -0.00000000000E+00 -0.00000000000E+00 -0.45593999997E+02  0.45594000000E+02  0.51100000000E-03 0.  1.
    9900012    2    1    2    0    0 -0.12313196360E+02  0.10190689475E+02  0.97576583546E+01  0.72461632142E+02  0.70000080568E+02 0.  0.
        -12    1    1    2    0    0  0.12313196360E+02 -0.10190689475E+02 -0.97576583546E+01  0.18726367858E+02  0.00000000000E+00 0.  1.
         11    1    3    3    0    0  0.86716793191E+01  0.17678546478E+01  0.11499753750E+01  0.89244482122E+01  0.51100000000E-03 0. -1.
        -11    1    3    3    0    0  0.61573596632E+01 -0.21610323637E+02  0.31600631237E+01  0.22691521874E+02  0.51100000000E-03 0.  1.
         12    1    3    3    0    0 -0.27142235342E+02  0.30033158465E+02  0.54476198559E+01  0.40845662056E+02  0.00000000000E+00 0. -1.
</event>
<event>
 7    1  0.3435518E-013  0.7246153E+02  0.7816164E-02  0.1226708E+00
        -11   -1    0    0    0    0  0.00000000000E+00  0.00000000000E+00  0.45593999997E+02  0.45594000000E+02  0.51100000000E-03 0.  1.
         11   -1    0    0    0    0 -0.00000000000E+00 -0.00000000000E+00 -0.45593999997E+02  0.45594000000E+02  0.51100000000E-03 0. -1.
    9900012    2    1    2    0    0 -0.73628844296E+01 -0.91979317590E+01 -0.14555636078E+02  0.72461533238E+02  0.69999951727E+02 0.  0.
        -12    1    1    2    0    0  0.73628844296E+01  0.91979317590E+01  0.14555636078E+02  0.18726466762E+02  0.00000000000E+00 0.  1.
         11    1    3    3    0    0 -0.19598608861E+02 -0.29582521417E+02 -0.11861545452E+02  0.37415602407E+02  0.51100000000E-03 0.  1.
        -11    1    3    3    0    0 -0.12466720294E+01  0.12301807335E+02 -0.11620781628E+02  0.16968536199E+02  0.51100000000E-03 0. -1.
        -12    1    3    3    0    0  0.13482396461E+02  0.80827823237E+01  0.89266910022E+01  0.18077394632E+02  0.00000000000E+00 0.  1.
</event>
<event>
 7    1  0.3435518E-013  0.7246171E+02  0.7816164E-02  0.1226708E+00
        -11   -1    0    0    0    0  0.00000000000E+00  0.00000000000E+00  0.45593999997E+02  0.45594000000E+02  0.51100000000E-03 0.  1.
         11   -1    0    0    0    0 -0.00000000000E+00 -0.00000000000E+00 -0.45593999997E+02  0.45594000000E+02  0.51100000000E-03 0. -1.
    9900012    2    1    2    0    0 -0.18216780784E+02  0.40152714982E+01  0.16433146412E+01  0.72461708580E+02  0.70000180142E+02 0.  0.
        -12    1    1    2    0    0  0.18216780784E+02 -0.40152714982E+01 -0.16433146412E+01  0.18726291420E+02  0.00000000000E+00 0.  1.
         11    1    3    3    0    0  0.11027254243E+02  0.19483623754E+02  0.40902497235E+01  0.22758340752E+02  0.51100000000E-03 0. -1.
        -11    1    3    3    0    0 -0.16401296032E+02  0.28050444365E+01  0.14177675197E+02  0.21860403933E+02  0.51100000000E-03 0.  1.
        -12    1    3    3    0    0 -0.12842738995E+02 -0.18273396692E+02 -0.16624610280E+02  0.27842963896E+02  0.00000000000E+00 0.  1.
</event>
<event>
 7    1  0.3435518E-013  0.7246157E+02  0.7816164E-02  0.1226708E+00
        -11   -1    0    0    0    0  0.00000000000E+00  0.00000000000E+00  0.45593999997E+02  0.45594000000E+02  0.51100000000E-03 0. -1.
         11   -1    0    0    0    0 -0.00000000000E+00 -0.00000000000E+00 -0.45593999997E+02  0.45594000000E+02  0.51100000000E-03 0.  1.
    9900012    2    1    2    0    0  0.15062599528E+02 -0.10111474706E+02 -0.46427924969E+01  0.72461565544E+02  0.69999993812E+02 0.  0.
        -12    1    1    2    0    0 -0.15062599528E+02  0.10111474706E+02  0.46427924969E+01  0.18726434456E+02  0.00000000000E+00 0.  1.
         11    1    3    3    0    0  0.46033320881E+01  0.51972743654E+00  0.10973687164E+02  0.11911447988E+02  0.51100000000E-03 0. -1.
        -11    1    3    3    0    0  0.18470274973E+02  0.18297506924E+02 -0.16004429513E+02  0.30530174935E+02  0.51100000000E-03 0.  1.
        -12    1    3    3    0    0 -0.80110075336E+01 -0.28928709066E+02  0.38794985220E+00  0.30019942622E+02  0.00000000000E+00 0.  1.
</event>
<event>
 7    1  0.3435518E-013  0.7246152E+02  0.7816164E-02  0.1226708E+00
        -11   -1    0    0    0    0  0.00000000000E+00  0.00000000000E+00  0.45593999997E+02  0.45594000000E+02  0.51100000000E-03 0. -1.
         11   -1    0    0    0    0 -0.00000000000E+00 -0.00000000000E+00 -0.45593999997E+02  0.45594000000E+02  0.51100000000E-03 0.  1.
    9900012    2    1    2    0    0 -0.10998946212E+02 -0.13781162961E+02 -0.63074527443E+01  0.72461515267E+02  0.69999928317E+02 0.  0.
        -12    1    1    2    0    0  0.10998946212E+02  0.13781162961E+02  0.63074527443E+01  0.18726484733E+02  0.00000000000E+00 0.  1.
         11    1    3    3    0    0 -0.22674246373E+02 -0.74745947612E+01  0.15193507370E+02  0.28299004963E+02  0.51100000000E-03 0. -1.
        -11    1    3    3    0    0  0.28523521302E+01 -0.20012433728E+02 -0.47001441937E+01  0.20753909803E+02  0.51100000000E-03 0.  1.
        -12    1    3    3    0    0  0.88229480310E+01  0.13705865528E+02 -0.16800815921E+02  0.23408600501E+02  0.00000000000E+00 0.  1.
</event>
<event>
 7    1  0.3435518E-013  0.7246166E+02  0.7816164E-02  0.1226708E+00
        -11   -1    0    0    0    0  0.00000000000E+00  0.00000000000E+00  0.45593999997E+02  0.45594000000E+02  0.51100000000E-03 0.  1.
         11   -1    0    0    0    0 -0.00000000000E+00 -0.00000000000E+00 -0.45593999997E+02  0.45594000000E+02  0.51100000000E-03 0. -1.
    9900012    2    1    2    0    0  0.31893178351E+01  0.10361020795E+01 -0.18423636528E+02  0.72461664569E+02  0.70000122810E+02 0.  0.
        -12    1    1    2    0    0 -0.31893178351E+01 -0.10361020795E+01  0.18423636528E+02  0.18726335431E+02  0.00000000000E+00 0.  1.
         11    1    3    3    0    0 -0.36622831294E+01 -0.87626641423E+00  0.45627914254E+01  0.59160144018E+01  0.51100000000E-03 0. -1.
        -11    1    3    3    0    0  0.30931030442E+02 -0.13585450066E+02 -0.13482503374E+02  0.36374042877E+02  0.51100000000E-03 0.  1.
         12    1    3    3    0    0 -0.24079429478E+02  0.15497818560E+02 -0.95039245785E+01  0.30171607290E+02  0.00000000000E+00 0. -1.
</event>
<event>
 7    1  0.3435518E-013  0.7246128E+02  0.7816164E-02  0.1226709E+00
        -11   -1    0    0    0    0  0.00000000000E+00  0.00000000000E+00  0.45593999997E+02  0.45594000000E+02  0.51100000000E-03 0.  1.
         11   -1    0    0    0    0 -0.00000000000E+00 -0.00000000000E+00 -0.45593999997E+02  0.45594000000E+02  0.51100000000E-03 0. -1.
    9900012    2    1    2    0    0 -0.81252960928E+01 -0.11555683622E+02  0.12293729144E+02  0.72461280137E+02  0.69999622015E+02 0.  0.
        -12    1    1    2    0    0  0.81252960928E+01  0.11555683622E+02 -0.12293729144E+02  0.18726719863E+02  0.00000000000E+00 0.  1.
         11    1    3    3    0    0 -0.35236992201E+01  0.18543358924E+01 -0.71122212679E+01  0.81509943823E+01  0.51100000000E-03 0. -1.
        -11    1    3    3    0    0 -0.23761323202E+02 -0.23330931940E+02  0.25440391200E+02  0.41906400110E+02  0.51100000000E-03 0.  1.
        -12    1    3    3    0    0  0.19159726329E+02  0.99209124259E+01 -0.60344407875E+01  0.22403885645E+02  0.00000000000E+00 0.  1.
</event>
<event>
 7    1  0.3435518E-013  0.7246154E+02  0.7816164E-02  0.1226708E+00
        -11   -1    0    0    0    0  0.00000000000E+00  0.00000000000E+00  0.45593999997E+02  0.45594000000E+02  0.51100000000E-03 0. -1.
         11   -1    0    0    0    0 -0.00000000000E+00 -0.00000000000E+00 -0.45593999997E+02  0.45594000000E+02  0.51100000000E-03 0.  1.
    9900012    2    1    2    0    0 -0.12316617672E+01 -0.12423741042E+02  0.13957583711E+02  0.72461535432E+02  0.69999954585E+02 0.  0.
        -12    1    1    2    0    0  0.12316617672E+01  0.12423741042E+02 -0.13957583711E+02  0.18726464568E+02  0.00000000000E+00 0.  1.
         11    1    3    3    0    0  0.88603467990E+01 -0.62169036714E+01  0.23645276855E+02  0.26004898663E+02  0.51100000000E-03 0. -1.
        -11    1    3    3    0    0  0.73137636626E+01  0.74254185029E+01 -0.19622149685E+02  0.22218387371E+02  0.51100000000E-03 0.  1.
         12    1    3    3    0    0 -0.17405772229E+02 -0.13632255874E+02  0.99344565414E+01  0.24238249398E+02  0.00000000000E+00 0. -1.
</event>
<event>
 7    1  0.3435518E-013  0.7246149E+02  0.7816164E-02  0.1226708E+00
        -11   -1    0    0    0    0  0.00000000000E+00  0.00000000000E+00  0.45593999997E+02  0.45594000000E+02  0.51100000000E-03 0.  1.
         11   -1    0    0    0    0 -0.00000000000E+00 -0.00000000000E+00 -0.45593999997E+02  0.45594000000E+02  0.51100000000E-03 0. -1.
    9900012    2    1    2    0    0 -0.16408436874E+02 -0.61756757046E+01  0.65807558622E+01  0.72461491548E+02  0.69999897419E+02 0.  0.
        -12    1    1    2    0    0  0.16408436874E+02  0.61756757046E+01 -0.65807558622E+01  0.18726508452E+02  0.00000000000E+00 0.  1.
         11    1    3    3    0    0 -0.48889087757E+00 -0.18983451034E+02 -0.22461220572E+01  0.19122120489E+02  0.51100000000E-03 0. -1.
        -11    1    3    3    0    0 -0.52087328933E+01 -0.97723534404E+01  0.22335838628E+02  0.24930292369E+02  0.51100000000E-03 0.  1.
         12    1    3    3    0    0 -0.10710813104E+02  0.22580128770E+02 -0.13508960709E+02  0.28409078690E+02  0.00000000000E+00 0. -1.
</event>
<event>
 7    1  0.3435518E-013  0.7246154E+02  0.7816164E-02  0.1226708E+00
        -11   -1    0    0    0    0  0.00000000000E+00  0.00000000000E+00  0.45593999997E+02  0.45594000000E+02  0.51100000000E-03 0. -1.
         11   -1    0    0    0    0 -0.00000000000E+00 -0.00000000000E+00 -0.45593999997E+02  0.45594000000E+02  0.51100000000E-03 0.  1.
    9900012    2    1    2    0    0  0.10097318330E+01  0.15618638607E+02  0.10281971497E+02  0.72461538290E+02  0.69999958308E+02 0.  0.
        -12    1    1    2    0    0 -0.10097318330E+01 -0.15618638607E+02 -0.10281971497E+02  0.18726461710E+02  0.00000000000E+00 0.  1.
         11    1    3    3    0    0  0.22137746351E+02  0.28927009529E+01  0.21398468403E+02  0.30924779426E+02  0.51100000000E-03 0. -1.
        -11    1    3    3    0    0  0.69927911482E+01  0.80771236927E+01 -0.69151870678E+01  0.12726306127E+02  0.51100000000E-03 0.  1.
        -12    1    3    3    0    0 -0.28120805666E+02  0.46488139612E+01 -0.42013098380E+01  0.28810452737E+02  0.00000000000E+00 0.  1.
</event>
<event>
 7    1  0.3435518E-013  0.7246158E+02  0.7816164E-02  0.1226708E+00
        -11   -1    0    0    0    0  0.00000000000E+00  0.00000000000E+00  0.45593999997E+02  0.45594000000E+02  0.51100000000E-03 0.  1.
         11   -1    0    0    0    0 -0.00000000000E+00 -0.00000000000E+00 -0.45593999997E+02  0.45594000000E+02  0.51100000000E-03 0. -1.
    9900012    2    1    2    0    0 -0.58848318919E+00 -0.13904114998E+02 -0.12530286730E+02  0.72461579844E+02  0.70000012440E+02 0.  0.
        -12    1    1    2    0    0  0.58848318919E+00  0.13904114998E+02  0.12530286730E+02  0.18726420156E+02  0.00000000000E+00 0.  1.
         11    1    3    3    0    0  0.17812159508E+02 -0.15800233382E+02 -0.30130751545E+02  0.38402898200E+02  0.51100000000E-03 0. -1.
        -11    1    3    3    0    0  0.33544522806E+01  0.17855067850E+01 -0.24101467365E+01  0.44999102363E+01  0.51100000000E-03 0.  1.
        -12    1    3    3    0    0 -0.21755094978E+02  0.11061159909E+00  0.20010611552E+02  0.29558771407E+02  0.00000000000E+00 0.  1.
</event>
<event>
 7    1  0.3435518E-013  0.7246159E+02  0.7816164E-02  0.1226708E+00
        -11   -1    0    0    0    0  0.00000000000E+00  0.00000000000E+00  0.45593999997E+02  0.45594000000E+02  0.51100000000E-03 0.  1.
         11   -1    0    0    0    0 -0.00000000000E+00 -0.00000000000E+00 -0.45593999997E+02  0.45594000000E+02  0.51100000000E-03 0. -1.
    9900012    2    1    2    0    0  0.62266895167E+01  0.91326634294E+01 -0.15116252354E+02  0.72461593808E+02  0.70000030631E+02 0.  0.
        -12    1    1    2    0    0 -0.62266895167E+01 -0.91326634294E+01  0.15116252354E+02  0.18726406192E+02  0.00000000000E+00 0.  1.
         11    1    3    3    0    0 -0.31813011242E+01 -0.68163661923E+00  0.59202907751E+00  0.33069327198E+01  0.51100000000E-03 0. -1.
        -11    1    3    3    0    0 -0.16366154789E+02 -0.21050520139E+02 -0.10286757867E+02  0.28579587267E+02  0.51100000000E-03 0.  1.
         12    1    3    3    0    0  0.25774145429E+02  0.30864820188E+02 -0.54215235646E+01  0.40575073821E+02  0.00000000000E+00 0. -1.
</event>
<event>
 7    1  0.3435518E-013  0.7246157E+02  0.7816164E-02  0.1226708E+00
        -11   -1    0    0    0    0  0.00000000000E+00  0.00000000000E+00  0.45593999997E+02  0.45594000000E+02  0.51100000000E-03 0. -1.
         11   -1    0    0    0    0 -0.00000000000E+00 -0.00000000000E+00 -0.45593999997E+02  0.45594000000E+02  0.51100000000E-03 0.  1.
    9900012    2    1    2    0    0 -0.17648964067E+02 -0.12322621266E+01  0.61379803039E+01  0.72461569352E+02  0.69999998773E+02 0.  0.
        -12    1    1    2    0    0  0.17648964067E+02  0.12322621266E+01 -0.61379803039E+01  0.18726430648E+02  0.00000000000E+00 0.  1.
         11    1    3    3    0    0 -0.16402000142E+02 -0.14779573781E+02  0.24092061407E+02  0.32678568404E+02  0.51100000000E-03 0. -1.
        -11    1    3    3    0    0  0.22854131324E+01 -0.76343791884E+01  0.41333018919E+01  0.89772514485E+01  0.51100000000E-03 0.  1.
        -12    1    3    3    0    0 -0.35323770573E+01  0.21181690843E+02 -0.22087382995E+02  0.30805749500E+02  0.00000000000E+00 0.  1.
</event>
<event>
 7    1  0.3435518E-013  0.7246158E+02  0.7816164E-02  0.1226708E+00
        -11   -1    0    0    0    0  0.00000000000E+00  0.00000000000E+00  0.45593999997E+02  0.45594000000E+02  0.51100000000E-03 0.  1.
         11   -1    0    0    0    0 -0.00000000000E+00 -0.00000000000E+00 -0.45593999997E+02  0.45594000000E+02  0.51100000000E-03 0. -1.
    9900012    2    1    2    0    0 -0.18709743025E+02 -0.75328473838E+00 -0.23887026736E+00  0.72461575329E+02  0.70000006559E+02 0.  0.
        -12    1    1    2    0    0  0.18709743025E+02  0.75328473838E+00  0.23887026736E+00  0.18726424671E+02  0.00000000000E+00 0.  1.
         11    1    3    3    0    0 -0.51101148355E+01 -0.22374604651E+02  0.89997155577E+01  0.24652202484E+02  0.51100000000E-03 0.  1.
        -11    1    3    3    0    0 -0.63104811833E+01 -0.89965448671E+01 -0.11931278398E+02  0.16220832185E+02  0.51100000000E-03 0. -1.
        -12    1    3    3    0    0 -0.72891470060E+01  0.30617864780E+02  0.26926925731E+01  0.31588540660E+02  0.00000000000E+00 0.  1.
</event>
<event>
 7    1  0.3435518E-013  0.7246153E+02  0.7816164E-02  0.1226708E+00
        -11   -1    0    0    0    0  0.00000000000E+00  0.00000000000E+00  0.45593999997E+02  0.45594000000E+02  0.51100000000E-03 0.  1.
         11   -1    0    0    0    0 -0.00000000000E+00 -0.00000000000E+00 -0.45593999997E+02  0.45594000000E+02  0.51100000000E-03 0. -1.
    9900012    2    1    2    0    0 -0.15886834136E+02  0.39918902566E+01 -0.90749127014E+01  0.72461528703E+02  0.69999945820E+02 0.  0.
        -12    1    1    2    0    0  0.15886834136E+02 -0.39918902566E+01  0.90749127014E+01  0.18726471297E+02  0.00000000000E+00 0.  1.
         11    1    3    3    0    0 -0.64246934771E+00 -0.23041576034E-01 -0.38406148499E+01  0.38940493658E+01  0.51100000000E-03 0. -1.
        -11    1    3    3    0    0  0.14411897628E+01 -0.29701956270E+02 -0.81544347255E+01  0.30834688910E+02  0.51100000000E-03 0.  1.
         12    1    3    3    0    0 -0.16685554552E+02  0.33716888103E+02  0.29201368740E+01  0.37732790427E+02  0.00000000000E+00 0. -1.
</event>
<event>
 7    1  0.3435518E-013  0.7246158E+02  0.7816164E-02  0.1226708E+00
        -11   -1    0    0    0    0  0.00000000000E+00  0.00000000000E+00  0.45593999997E+02  0.45594000000E+02  0.51100000000E-03 0.  1.
         11   -1    0    0    0    0 -0.00000000000E+00 -0.00000000000E+00 -0.45593999997E+02  0.45594000000E+02  0.51100000000E-03 0. -1.
    9900012    2    1    2    0    0 -0.10304984221E+02 -0.57411403070E+01 -0.14543910676E+02  0.72461582041E+02  0.70000015302E+02 0.  0.
        -12    1    1    2    0    0  0.10304984221E+02  0.57411403070E+01  0.14543910676E+02  0.18726417959E+02  0.00000000000E+00 0.  1.
         11    1    3    3    0    0 -0.12654705097E+02 -0.18522075165E+02 -0.55937095683E+01  0.23119221797E+02  0.51100000000E-03 0. -1.
        -11    1    3    3    0    0  0.15424132451E+02 -0.11565298918E+02  0.24793791582E+01  0.19437266326E+02  0.51100000000E-03 0.  1.
        -12    1    3    3    0    0 -0.13074411576E+02  0.24346233777E+02 -0.11429580266E+02  0.29905093918E+02  0.00000000000E+00 0.  1.
</event>
<event>
 7    1  0.3435518E-013  0.7246157E+02  0.7816164E-02  0.1226708E+00
        -11   -1    0    0    0    0  0.00000000000E+00  0.00000000000E+00  0.45593999997E+02  0.45594000000E+02  0.51100000000E-03 0. -1.
         11   -1    0    0    0    0 -0.00000000000E+00 -0.00000000000E+00 -0.45593999997E+02  0.45594000000E+02  0.51100000000E-03 0.  1.
    9900012    2    1    2    0    0  0.93007717392E+01 -0.64781360712E+01  0.14906667459E+02  0.72461565832E+02  0.69999994187E+02 0.  0.
        -12    1    1    2    0    0 -0.93007717392E+01  0.64781360712E+01 -0.14906667459E+02  0.18726434168E+02  0.00000000000E+00 0.  1.
         11    1    3    3    0    0  0.92126488870E+01  0.17216172297E+02  0.71774882448E+01  0.20803505133E+02  0.51100000000E-03 0. -1.
        -11    1    3    3    0    0  0.15704169006E+02 -0.23704694606E+01 -0.10951998460E+02  0.19292131042E+02  0.51100000000E-03 0.  1.
         12    1    3    3    0    0 -0.15616046154E+02 -0.21323838907E+02  0.18681177674E+02  0.32365929656E+02  0.00000000000E+00 0. -1.
</event>
<event>
 7    1  0.3435518E-013  0.7246159E+02  0.7816164E-02  0.1226708E+00
        -11   -1    0    0    0    0  0.00000000000E+00  0.00000000000E+00  0.45593999997E+02  0.45594000000E+02  0.51100000000E-03 0.  1.
         11   -1    0    0    0    0 -0.00000000000E+00 -0.00000000000E+00 -0.45593999997E+02  0.45594000000E+02  0.51100000000E-03 0. -1.
    9900012    2    1    2    0    0  0.10839736226E+02  0.14501601803E+02 -0.47835158096E+01  0.72461591914E+02  0.70000028163E+02 0.  0.
        -12    1    1    2    0    0 -0.10839736226E+02 -0.14501601803E+02  0.47835158096E+01  0.18726408086E+02  0.00000000000E+00 0.  1.
         11    1    3    3    0    0 -0.14938003459E+00  0.24805799787E+02 -0.12264313587E+02  0.27672430422E+02  0.51100000000E-03 0. -1.
        -11    1    3    3    0    0  0.89876519873E+01  0.15564645315E+02  0.53651783673E+01  0.18756897696E+02  0.51100000000E-03 0.  1.
        -12    1    3    3    0    0  0.20014642734E+01 -0.25868843298E+02  0.21156194099E+01  0.26032263795E+02  0.00000000000E+00 0.  1.
</event>
<event>
 7    1  0.3435518E-013  0.7246159E+02  0.7816164E-02  0.1226708E+00
        -11   -1    0    0    0    0  0.00000000000E+00  0.00000000000E+00  0.45593999997E+02  0.45594000000E+02  0.51100000000E-03 0.  1.
         11   -1    0    0    0    0 -0.00000000000E+00 -0.00000000000E+00 -0.45593999997E+02  0.45594000000E+02  0.51100000000E-03 0. -1.
    9900012    2    1    2    0    0 -0.16538121218E+02 -0.74756237464E+01 -0.46134519097E+01  0.72461592380E+02  0.70000028771E+02 0.  0.
        -12    1    1    2    0    0  0.16538121218E+02  0.74756237464E+01  0.46134519097E+01  0.18726407620E+02  0.00000000000E+00 0.  1.
         11    1    3    3    0    0 -0.12133919657E+02  0.14824871900E+01 -0.71692107939E+00  0.12245152127E+02  0.51100000000E-03 0.  1.
        -11    1    3    3    0    0  0.25260385075E+01 -0.12978821573E+02 -0.30067556272E+02  0.32846439996E+02  0.51100000000E-03 0. -1.
         12    1    3    3    0    0 -0.69302400683E+01  0.40207106367E+01  0.26171025442E+02  0.27370000258E+02  0.00000000000E+00 0. -1.
</event>
<event>
 7    1  0.3435518E-013  0.7246155E+02  0.7816164E-02  0.1226708E+00
        -11   -1    0    0    0    0  0.00000000000E+00  0.00000000000E+00  0.45593999997E+02  0.45594000000E+02  0.51100000000E-03 0.  1.
         11   -1    0    0    0    0 -0.00000000000E+00 -0.00000000000E+00 -0.45593999997E+02  0.45594000000E+02  0.51100000000E-03 0. -1.
    9900012    2    1    2    0    0  0.16318899426E+02 -0.13152431217E+01  0.90908604853E+01  0.72461545790E+02  0.69999968078E+02 0.  0.
        -12    1    1    2    0    0 -0.16318899426E+02  0.13152431217E+01 -0.90908604853E+01  0.18726454210E+02  0.00000000000E+00 0.  1.
         11    1    3    3    0    0 -0.47945927209E+01  0.95435281242E+01 -0.79426173329E+01  0.13309854198E+02  0.51100000000E-03 0. -1.
        -11    1    3    3    0    0  0.29567598148E+02 -0.22891222716E+01 -0.85615066379E+01  0.30867172484E+02  0.51100000000E-03 0.  1.
        -12    1    3    3    0    0 -0.84541060013E+01 -0.85696489744E+01  0.25594984456E+02  0.28284519107E+02  0.00000000000E+00 0.  1.
</event>
<event>
 7    1  0.3435518E-013  0.7246156E+02  0.7816164E-02  0.1226708E+00
        -11   -1    0    0    0    0  0.00000000000E+00  0.00000000000E+00  0.45593999997E+02  0.45594000000E+02  0.51100000000E-03 0. -1.
         11   -1    0    0    0    0 -0.00000000000E+00 -0.00000000000E+00 -0.45593999997E+02  0.45594000000E+02  0.51100000000E-03 0.  1.
    9900012    2    1    2    0    0 -0.15908583845E+02  0.68221409382E+01  0.71452743126E+01  0.72461559016E+02  0.69999985307E+02 0.  0.
        -12    1    1    2    0    0  0.15908583845E+02 -0.68221409382E+01 -0.71452743126E+01  0.18726440984E+02  0.00000000000E+00 0.  1.
         11    1    3    3    0    0  0.14254850765E+02 -0.61510332359E+01  0.63597227372E+00  0.15538353877E+02  0.51100000000E-03 0. -1.
        -11    1    3    3    0    0 -0.29130522197E+02 -0.11148358250E+02 -0.21714706928E+01  0.31266411697E+02  0.51100000000E-03 0.  1.
         12    1    3    3    0    0 -0.10329124129E+01  0.24121532424E+02  0.86807727316E+01  0.25656793442E+02  0.00000000000E+00 0. -1.
</event>
<event>
 7    1  0.3435518E-013  0.7246153E+02  0.7816164E-02  0.1226708E+00
        -11   -1    0    0    0    0  0.00000000000E+00  0.00000000000E+00  0.45593999997E+02  0.45594000000E+02  0.51100000000E-03 0.  1.
         11   -1    0    0    0    0 -0.00000000000E+00 -0.00000000000E+00 -0.45593999997E+02  0.45594000000E+02  0.51100000000E-03 0. -1.
    9900012    2    1    2    0    0  0.10872494988E+02 -0.11909668256E+01 -0.15200361181E+02  0.72461533988E+02  0.69999952705E+02 0.  0.
        -12    1    1    2    0    0 -0.10872494988E+02  0.11909668256E+01  0.15200361181E+02  0.18726466012E+02  0.00000000000E+00 0.  1.
         11    1    3    3    0    0 -0.13643383345E+02 -0.94311989830E+01 -0.97274596762E+01  0.19227919684E+02  0.51100000000E-03 0. -1.
        -11    1    3    3    0    0 -0.77835150080E+01  0.33810913054E+01 -0.16669270090E+02  0.18705064819E+02  0.51100000000E-03 0.  1.
        -12    1    3    3    0    0  0.32299393342E+02  0.48591408519E+01  0.11196368585E+02  0.34528549485E+02  0.00000000000E+00 0.  1.
</event>
<event>
 7    1  0.3435518E-013  0.7246157E+02  0.7816164E-02  0.1226708E+00
        -11   -1    0    0    0    0  0.00000000000E+00  0.00000000000E+00  0.45593999997E+02  0.45594000000E+02  0.51100000000E-03 0. -1.
         11   -1    0    0    0    0 -0.00000000000E+00 -0.00000000000E+00 -0.45593999997E+02  0.45594000000E+02  0.51100000000E-03 0.  1.
    9900012    2    1    2    0    0  0.12798243228E+02 -0.55853314066E+01  0.12477509625E+02  0.72461569398E+02  0.69999998833E+02 0.  0.
        -12    1    1    2    0    0 -0.12798243228E+02  0.55853314066E+01 -0.12477509625E+02  0.18726430602E+02  0.00000000000E+00 0.  1.
         11    1    3    3    0    0 -0.37440809427E+01  0.15340051903E+02  0.99113484106E+01  0.18643233681E+02  0.51100000000E-03 0. -1.
        -11    1    3    3    0    0 -0.16234987421E+02 -0.36878855308E+01  0.21119611878E+01  0.16782005142E+02  0.51100000000E-03 0.  1.
         12    1    3    3    0    0  0.32777311592E+02 -0.17237497779E+02  0.45420002692E+00  0.37036330576E+02  0.00000000000E+00 0. -1.
</event>
<event>
 7    1  0.3959544E-013  0.7246158E+02  0.7816164E-02  0.1226708E+00
        -11   -1    0    0    0    0  0.00000000000E+00  0.00000000000E+00  0.45593999997E+02  0.45594000000E+02  0.51100000000E-03 0. -1.
         11   -1    0    0    0    0 -0.00000000000E+00 -0.00000000000E+00 -0.45593999997E+02  0.45594000000E+02  0.51100000000E-03 0.  1.
    9900012    2    1    2    0    0 -0.17054888769E+02 -0.93887151507E+00  0.76764699549E+01  0.72461577448E+02  0.70000009319E+02 0.  0.
        -12    1    1    2    0    0  0.17054888769E+02  0.93887151507E+00 -0.76764699549E+01  0.18726422552E+02  0.00000000000E+00 0.  1.
         11    1    3    3    0    0 -0.16632098871E+02 -0.42172987341E+01 -0.10531298974E+01  0.17190736002E+02  0.51100000000E-03 0. -1.
        -11    1    3    3    0    0 -0.79533599437E+01  0.11410501113E+02 -0.20066430827E+02  0.24415509752E+02  0.51100000000E-03 0.  1.
         12    1    3    3    0    0  0.75305700460E+01 -0.81320738940E+01  0.28796030679E+02  0.30855331694E+02  0.00000000000E+00 0. -1.
</event>
<event>
 7    1  0.3435518E-013  0.7246160E+02  0.7816164E-02  0.1226708E+00
        -11   -1    0    0    0    0  0.00000000000E+00  0.00000000000E+00  0.45593999997E+02  0.45594000000E+02  0.51100000000E-03 0.  1.
         11   -1    0    0    0    0 -0.00000000000E+00 -0.00000000000E+00 -0.45593999997E+02  0.45594000000E+02  0.51100000000E-03 0. -1.
    9900012    2    1    2    0    0  0.15464379863E+02 -0.68378378515E+01 -0.80482925706E+01  0.72461599269E+02  0.70000037745E+02 0.  0.
        -12    1    1    2    0    0 -0.15464379863E+02  0.68378378515E+01  0.80482925706E+01  0.18726400731E+02  0.00000000000E+00 0.  1.
         11    1    3    3    0    0  0.34573038745E+02 -0.27901217056E+00 -0.13606792153E+02  0.37155317908E+02  0.51100000000E-03 0. -1.
        -11    1    3    3    0    0  0.52049474640E+01 -0.45694578304E+01 -0.51835659611E+01  0.86510565425E+01  0.51100000000E-03 0.  1.
        -12    1    3    3    0    0 -0.24313606346E+02 -0.19893678506E+01  0.10742065544E+02  0.26655224819E+02  0.00000000000E+00 0.  1.
</event>
<event>
 7    1  0.3435518E-013  0.7246156E+02  0.7816164E-02  0.1226708E+00
        -11   -1    0    0    0    0  0.00000000000E+00  0.00000000000E+00  0.45593999997E+02  0.45594000000E+02  0.51100000000E-03 0. -1.
         11   -1    0    0    0    0 -0.00000000000E+00 -0.00000000000E+00 -0.45593999997E+02  0.45594000000E+02  0.51100000000E-03 0.  1.
    9900012    2    1    2    0    0  0.17358730425E+02  0.23753804296E+01  0.66114632524E+01  0.72461564128E+02  0.69999991967E+02 0.  0.
        -12    1    1    2    0    0 -0.17358730425E+02 -0.23753804296E+01 -0.66114632524E+01  0.18726435872E+02  0.00000000000E+00 0.  1.
         11    1    3    3    0    0  0.29668954903E+02 -0.13723859617E+02 -0.20018982419E+02  0.38332112715E+02  0.51100000000E-03 0.  1.
        -11    1    3    3    0    0 -0.38239829479E+01  0.66140240052E+01  0.15247300587E+02  0.17054276138E+02  0.51100000000E-03 0. -1.
        -12    1    3    3    0    0 -0.84862415303E+01  0.94852160418E+01  0.11383145084E+02  0.17075175275E+02  0.00000000000E+00 0.  1.
</event>
<event>
 7    1  0.3435518E-013  0.7246151E+02  0.7816164E-02  0.1226708E+00
        -11   -1    0    0    0    0  0.00000000000E+00  0.00000000000E+00  0.45593999997E+02  0.45594000000E+02  0.51100000000E-03 0. -1.
         11   -1    0    0    0    0 -0.00000000000E+00 -0.00000000000E+00 -0.45593999997E+02  0.45594000000E+02  0.51100000000E-03 0.  1.
    9900012    2    1    2    0    0 -0.59203693495E+01 -0.16525854637E+02  0.65212659489E+01  0.72461506621E+02  0.69999917053E+02 0.  0.
        -12    1    1    2    0    0  0.59203693495E+01  0.16525854637E+02 -0.65212659489E+01  0.18726493379E+02  0.00000000000E+00 0.  1.
         11    1    3    3    0    0 -0.22066939590E+01 -0.42811007367E+02  0.12051339065E+02  0.44529615129E+02  0.51100000000E-03 0. -1.
        -11    1    3    3    0    0 -0.44181246180E+00  0.66096232959E+01  0.14844989635E+01  0.67886711365E+01  0.51100000000E-03 0.  1.
        -12    1    3    3    0    0 -0.32718629287E+01  0.19675529434E+02 -0.70145720792E+01  0.21143220355E+02  0.00000000000E+00 0.  1.
</event>
<event>
 7    1  0.3435518E-013  0.7246152E+02  0.7816164E-02  0.1226708E+00
        -11   -1    0    0    0    0  0.00000000000E+00  0.00000000000E+00  0.45593999997E+02  0.45594000000E+02  0.51100000000E-03 0.  1.
         11   -1    0    0    0    0 -0.00000000000E+00 -0.00000000000E+00 -0.45593999997E+02  0.45594000000E+02  0.51100000000E-03 0. -1.
    9900012    2    1    2    0    0 -0.29879109219E+01 -0.56771936781E+00 -0.18477855070E+02  0.72461520220E+02  0.69999934769E+02 0.  0.
        -12    1    1    2    0    0  0.29879109219E+01  0.56771936781E+00  0.18477855070E+02  0.18726479780E+02  0.00000000000E+00 0.  1.
         11    1    3    3    0    0  0.12648394873E+02 -0.10341290291E+02 -0.10811851269E+02  0.19591332417E+02  0.51100000000E-03 0. -1.
        -11    1    3    3    0    0 -0.45345533545E+01 -0.19143878289E+02  0.34243189158E+01  0.19969381822E+02  0.51100000000E-03 0.  1.
        -12    1    3    3    0    0 -0.11101752440E+02  0.28917449212E+02 -0.11090322717E+02  0.32900805980E+02  0.00000000000E+00 0.  1.
</event>
<event>
 7    1  0.3435518E-013  0.7246155E+02  0.7816164E-02  0.1226708E+00
        -11   -1    0    0    0    0  0.00000000000E+00  0.00000000000E+00  0.45593999997E+02  0.45594000000E+02  0.51100000000E-03 0.  1.
         11   -1    0    0    0    0 -0.00000000000E+00 -0.00000000000E+00 -0.45593999997E+02  0.45594000000E+02  0.51100000000E-03 0. -1.
    9900012    2    1    2    0    0  0.49552703334E+01  0.24642110642E+01 -0.17890024348E+02  0.72461547815E+02  0.69999970717E+02 0.  0.
        -12    1    1    2    0    0 -0.49552703334E+01 -0.24642110642E+01  0.17890024348E+02  0.18726452185E+02  0.00000000000E+00 0.  1.
         11    1    3    3    0    0  0.38384183723E+01  0.44592656714E+01  0.25387873594E+02  0.26060748873E+02  0.51100000000E-03 0.  1.
        -11    1    3    3    0    0  0.61126730329E+01 -0.65787757376E+01 -0.16584019561E+02  0.18859341634E+02  0.51100000000E-03 0. -1.
        -12    1    3    3    0    0 -0.49958210718E+01  0.45837211304E+01 -0.26693878381E+02  0.27541457308E+02  0.00000000000E+00 0.  1.
</event>
<event>
 7    1  0.3435518E-013  0.7246151E+02  0.7816164E-02  0.1226708E+00
        -11   -1    0    0    0    0  0.00000000000E+00  0.00000000000E+00  0.45593999997E+02  0.45594000000E+02  0.51100000000E-03 0. -1.
         11   -1    0    0    0    0 -0.00000000000E+00 -0.00000000000E+00 -0.45593999997E+02  0.45594000000E+02  0.51100000000E-03 0.  1.
    9900012    2    1    2    0    0 -0.13962576799E+02  0.21340549139E+01  0.12295266550E+02  0.72461512856E+02  0.69999925175E+02 0.  0.
        -12    1    1    2    0    0  0.13962576799E+02 -0.21340549139E+01 -0.12295266550E+02  0.18726487144E+02  0.00000000000E+00 0.  1.
         11    1    3    3    0    0  0.58375010634E+01 -0.14510536907E+01  0.38252720933E+01  0.71284417882E+01  0.51100000000E-03 0. -1.
        -11    1    3    3    0    0  0.12475080052E+01  0.15739766723E+02 -0.21545156681E+02  0.26711239383E+02  0.51100000000E-03 0.  1.
         12    1    3    3    0    0 -0.21047585867E+02 -0.12154658119E+02  0.30015151138E+02  0.38621831684E+02  0.00000000000E+00 0. -1.
</event>
<event>
 7    1  0.3435518E-013  0.7246160E+02  0.7816164E-02  0.1226708E+00
        -11   -1    0    0    0    0  0.00000000000E+00  0.00000000000E+00  0.45593999997E+02  0.45594000000E+02  0.51100000000E-03 0. -1.
         11   -1    0    0    0    0 -0.00000000000E+00 -0.00000000000E+00 -0.45593999997E+02  0.45594000000E+02  0.51100000000E-03 0.  1.
    9900012    2    1    2    0    0 -0.80836565865E+01 -0.12777424936E+02  0.11048527593E+02  0.72461600085E+02  0.70000038808E+02 0.  0.
        -12    1    1    2    0    0  0.80836565865E+01  0.12777424936E+02 -0.11048527593E+02  0.18726399915E+02  0.00000000000E+00 0.  1.
         11    1    3    3    0    0 -0.18013076930E+02 -0.26331203975E+02 -0.46616756265E+01  0.32241812344E+02  0.51100000000E-03 0. -1.
        -11    1    3    3    0    0  0.59372575296E+01 -0.54496082850E+01  0.18895226473E+02  0.20542123580E+02  0.51100000000E-03 0.  1.
        -12    1    3    3    0    0  0.39921628140E+01  0.19003387324E+02 -0.31850232536E+01  0.19677664162E+02  0.00000000000E+00 0.  1.
</event>
<event>
 7    1  0.3435518E-013  0.7246149E+02  0.7816164E-02  0.1226708E+00
        -11   -1    0    0    0    0  0.00000000000E+00  0.00000000000E+00  0.45593999997E+02  0.45594000000E+02  0.51100000000E-03 0. -1.
         11   -1    0    0    0    0 -0.00000000000E+00 -0.00000000000E+00 -0.45593999997E+02  0.45594000000E+02  0.51100000000E-03 0.  1.
    9900012    2    1    2    0    0 -0.14216874315E+02  0.50555033654E+00  0.12178134305E+02  0.72461493343E+02  0.69999899756E+02 0.  0.
        -12    1    1    2    0    0  0.14216874315E+02 -0.50555033654E+00 -0.12178134305E+02  0.18726506657E+02  0.00000000000E+00 0.  1.
         11    1    3    3    0    0  0.19322133796E+01 -0.20626368663E+02 -0.46775804173E+01  0.21238180044E+02  0.51100000000E-03 0. -1.
        -11    1    3    3    0    0 -0.20181763187E+02  0.22893972299E+01 -0.61424444167E+01  0.21219673152E+02  0.51100000000E-03 0.  1.
         12    1    3    3    0    0  0.40326754919E+01  0.18842521770E+02  0.22998159139E+02  0.30003640147E+02  0.00000000000E+00 0. -1.
</event>
<event>
 7    1  0.3435518E-013  0.7246157E+02  0.7816164E-02  0.1226708E+00
        -11   -1    0    0    0    0  0.00000000000E+00  0.00000000000E+00  0.45593999997E+02  0.45594000000E+02  0.51100000000E-03 0.  1.
         11   -1    0    0    0    0 -0.00000000000E+00 -0.00000000000E+00 -0.45593999997E+02  0.45594000000E+02  0.51100000000E-03 0. -1.
    9900012    2    1    2    0    0  0.14936384223E+02 -0.11250423827E+02  0.10058459725E+01  0.72461565848E+02  0.69999994208E+02 0.  0.
        -12    1    1    2    0    0 -0.14936384223E+02  0.11250423827E+02 -0.10058459725E+01  0.18726434152E+02  0.00000000000E+00 0.  1.
         11    1    3    3    0    0  0.18000873824E+01 -0.30695443598E+01 -0.30282785341E+02  0.30491138146E+02  0.51100000000E-03 0. -1.
        -11    1    3    3    0    0  0.63204703003E+01 -0.32217110091E+01 -0.22077335781E+01  0.74297950481E+01  0.51100000000E-03 0.  1.
        -12    1    3    3    0    0  0.68158265400E+01 -0.49591684579E+01  0.33496364891E+02  0.34540632654E+02  0.00000000000E+00 0.  1.
</event>
<event>
 7    1  0.3435518E-013  0.7246157E+02  0.7816164E-02  0.1226708E+00
        -11   -1    0    0    0    0  0.00000000000E+00  0.00000000000E+00  0.45593999997E+02  0.45594000000E+02  0.51100000000E-03 0.  1.
         11   -1    0    0    0    0 -0.00000000000E+00 -0.00000000000E+00 -0.45593999997E+02  0.45594000000E+02  0.51100000000E-03 0. -1.
    9900012    2    1    2    0    0  0.81901220605E+01  0.90527712311E+01 -0.14200301165E+02  0.72461566290E+02  0.69999994783E+02 0.  0.
        -12    1    1    2    0    0 -0.81901220605E+01 -0.90527712311E+01  0.14200301165E+02  0.18726433710E+02  0.00000000000E+00 0.  1.
         11    1    3    3    0    0 -0.57156206873E+01 -0.20406946672E+02 -0.25206904858E+01  0.21341641762E+02  0.51100000000E-03 0. -1.
        -11    1    3    3    0    0 -0.80284913546E+01  0.78647413665E+01  0.86925643568E+01  0.14208149265E+02  0.51100000000E-03 0.  1.
         12    1    3    3    0    0  0.21934234102E+02  0.21594976537E+02 -0.20372175036E+02  0.36911775262E+02  0.00000000000E+00 0. -1.
</event>
<event>
 7    1  0.3435518E-013  0.7246191E+02  0.7816164E-02  0.1226707E+00
        -11   -1    0    0    0    0  0.00000000000E+00  0.00000000000E+00  0.45593999997E+02  0.45594000000E+02  0.51100000000E-03 0. -1.
         11   -1    0    0    0    0 -0.00000000000E+00 -0.00000000000E+00 -0.45593999997E+02  0.45594000000E+02  0.51100000000E-03 0.  1.
    9900012    2    1    2    0    0 -0.28143928934E+01  0.11245488663E+02  0.14706619368E+02  0.72461909221E+02  0.70000441514E+02 0.  0.
        -12    1    1    2    0    0  0.28143928934E+01 -0.11245488663E+02 -0.14706619368E+02  0.18726090779E+02  0.00000000000E+00 0.  1.
         11    1    3    3    0    0 -0.14837866656E+02 -0.81535790220E+01  0.26596455760E+02  0.31527997035E+02  0.51100000000E-03 0. -1.
        -11    1    3    3    0    0 -0.76991662462E+01 -0.36829361051E+00 -0.10433998173E+02  0.12972321273E+02  0.51100000000E-03 0.  1.
        -12    1    3    3    0    0  0.19722640008E+02  0.19767361296E+02 -0.14558382194E+01  0.27961590914E+02  0.00000000000E+00 0.  1.
</event>
<event>
 7    1  0.3435518E-013  0.7246128E+02  0.7816164E-02  0.1226709E+00
        -11   -1    0    0    0    0  0.00000000000E+00  0.00000000000E+00  0.45593999997E+02  0.45594000000E+02  0.51100000000E-03 0.  1.
         11   -1    0    0    0    0 -0.00000000000E+00 -0.00000000000E+00 -0.45593999997E+02  0.45594000000E+02  0.51100000000E-03 0. -1.
    9900012    2    1    2    0    0 -0.46532176222E+00 -0.11708095913E+02 -0.14608016211E+02  0.72461276531E+02  0.69999617318E+02 0.  0.
        -12    1    1    2    0    0  0.46532176222E+00  0.11708095913E+02  0.14608016211E+02  0.18726723469E+02  0.00000000000E+00 0.  1.
         11    1    3    3    0    0  0.30177350611E+01 -0.19913116138E+02 -0.36828139967E+02  0.41975597827E+02  0.51100000000E-03 0. -1.
        -11    1    3    3    0    0 -0.29255567450E+01 -0.29640873565E+01 -0.13657643359E+01  0.43829223821E+01  0.51100000000E-03 0.  1.
        -12    1    3    3    0    0 -0.55750007839E+00  0.11169107581E+02  0.23585888093E+02  0.26102756322E+02  0.00000000000E+00 0.  1.
</event>
<event>
 7    1  0.3435518E-013  0.7246162E+02  0.7816164E-02  0.1226708E+00
        -11   -1    0    0    0    0  0.00000000000E+00  0.00000000000E+00  0.45593999997E+02  0.45594000000E+02  0.51100000000E-03 0. -1.
         11   -1    0    0    0    0 -0.00000000000E+00 -0.00000000000E+00 -0.45593999997E+02  0.45594000000E+02  0.51100000000E-03 0.  1.
    9900012    2    1    2    0    0 -0.97692404532E+01  0.22345877876E+01  0.15819156756E+02  0.72461623894E+02  0.70000069823E+02 0.  0.
        -12    1    1    2    0    0  0.97692404532E+01 -0.22345877876E+01 -0.15819156756E+02  0.18726376106E+02  0.00000000000E+00 0.  1.
         11    1    3    3    0    0 -0.19424208608E+02 -0.40077284607E+01  0.16358295980E+02  0.25709057064E+02  0.51100000000E-03 0. -1.
        -11    1    3    3    0    0  0.22476466243E+02 -0.11188136191E+02 -0.60107463466E+00  0.25114283131E+02  0.51100000000E-03 0.  1.
         12    1    3    3    0    0 -0.12821498088E+02  0.17430452439E+02  0.61935410162E-01  0.21638283699E+02  0.00000000000E+00 0. -1.
</event>
<event>
 7    1  0.3435518E-013  0.7246195E+02  0.7816164E-02  0.1226707E+00
        -11   -1    0    0    0    0  0.00000000000E+00  0.00000000000E+00  0.45593999997E+02  0.45594000000E+02  0.51100000000E-03 0.  1.
         11   -1    0    0    0    0 -0.00000000000E+00 -0.00000000000E+00 -0.45593999997E+02  0.45594000000E+02  0.51100000000E-03 0. -1.
    9900012    2    1    2    0    0 -0.38344298411E+00 -0.13010072046E+02  0.13463135180E+02  0.72461948306E+02  0.70000492429E+02 0.  0.
        -12    1    1    2    0    0  0.38344298411E+00  0.13010072046E+02 -0.13463135180E+02  0.18726051694E+02  0.00000000000E+00 0.  1.
         11    1    3    3    0    0 -0.59285173962E+01 -0.45317886383E+01  0.19059629199E+02  0.20468363204E+02  0.51100000000E-03 0. -1.
        -11    1    3    3    0    0 -0.17930373469E+02  0.11124465396E+02 -0.18709089705E+01  0.21183775011E+02  0.51100000000E-03 0.  1.
        -12    1    3    3    0    0  0.23475447881E+02 -0.19602748804E+02 -0.37255850487E+01  0.30809810091E+02  0.00000000000E+00 0.  1.
</event>
<event>
 7    1  0.3435518E-013  0.7246158E+02  0.7816164E-02  0.1226708E+00
        -11   -1    0    0    0    0  0.00000000000E+00  0.00000000000E+00  0.45593999997E+02  0.45594000000E+02  0.51100000000E-03 0. -1.
         11   -1    0    0    0    0 -0.00000000000E+00 -0.00000000000E+00 -0.45593999997E+02  0.45594000000E+02  0.51100000000E-03 0.  1.
    9900012    2    1    2    0    0  0.12825258793E+02 -0.13589612020E+02 -0.12304922688E+01  0.72461576711E+02  0.70000008359E+02 0.  0.
        -12    1    1    2    0    0 -0.12825258793E+02  0.13589612020E+02  0.12304922688E+01  0.18726423289E+02  0.00000000000E+00 0.  1.
         11    1    3    3    0    0  0.19265343645E+02 -0.31794504888E+02 -0.62937254142E+01  0.37704840362E+02  0.51100000000E-03 0.  1.
        -11    1    3    3    0    0  0.28736153429E+01  0.58370595118E+01  0.15006580881E+02  0.16356234252E+02  0.51100000000E-03 0. -1.
        -12    1    3    3    0    0 -0.93137001943E+01  0.12367833356E+02 -0.99433477359E+01  0.18400502098E+02  0.00000000000E+00 0.  1.
</event>
<event>
 7    1  0.3435518E-013  0.7246155E+02  0.7816164E-02  0.1226708E+00
        -11   -1    0    0    0    0  0.00000000000E+00  0.00000000000E+00  0.45593999997E+02  0.45594000000E+02  0.51100000000E-03 0. -1.
         11   -1    0    0    0    0 -0.00000000000E+00 -0.00000000000E+00 -0.45593999997E+02  0.45594000000E+02  0.51100000000E-03 0.  1.
    9900012    2    1    2    0    0  0.78927557041E+01  0.19752705850E+01  0.16866611318E+02  0.72461551756E+02  0.69999975850E+02 0.  0.
        -12    1    1    2    0    0 -0.78927557041E+01 -0.19752705850E+01 -0.16866611318E+02  0.18726448244E+02  0.00000000000E+00 0.  1.
         11    1    3    3    0    0 -0.10577008857E+02  0.53664045784E+00  0.11083204484E+02  0.15329661485E+02  0.51100000000E-03 0. -1.
        -11    1    3    3    0    0 -0.48248963689E+01 -0.22362656499E+02 -0.18911495481E+01  0.22955271237E+02  0.51100000000E-03 0.  1.
        -12    1    3    3    0    0  0.23294660930E+02  0.23801286627E+02  0.76745563827E+01  0.34176619034E+02  0.00000000000E+00 0.  1.
</event>
<event>
 7    1  0.3435518E-013  0.7246155E+02  0.7816164E-02  0.1226708E+00
        -11   -1    0    0    0    0  0.00000000000E+00  0.00000000000E+00  0.45593999997E+02  0.45594000000E+02  0.51100000000E-03 0.  1.
         11   -1    0    0    0    0 -0.00000000000E+00 -0.00000000000E+00 -0.45593999997E+02  0.45594000000E+02  0.51100000000E-03 0. -1.
    9900012    2    1    2    0    0 -0.94633949823E+01 -0.30552556532E+01 -0.15867880650E+02  0.72461546304E+02  0.69999968749E+02 0.  0.
        -12    1    1    2    0    0  0.94633949823E+01  0.30552556532E+01  0.15867880650E+02  0.18726453696E+02  0.00000000000E+00 0.  1.
         11    1    3    3    0    0 -0.16897461753E+01  0.71048099188E+01  0.10566780130E+02  0.12844859232E+02  0.51100000000E-03 0. -1.
        -11    1    3    3    0    0  0.11888878295E+02  0.11643013370E+02  0.42231566769E+01  0.17168000467E+02  0.51100000000E-03 0.  1.
         12    1    3    3    0    0 -0.19662527102E+02 -0.21803078942E+02 -0.30657817456E+02  0.42448686606E+02  0.00000000000E+00 0. -1.
</event>
<event>
 7    1  0.3435518E-013  0.7246156E+02  0.7816164E-02  0.1226708E+00
        -11   -1    0    0    0    0  0.00000000000E+00  0.00000000000E+00  0.45593999997E+02  0.45594000000E+02  0.51100000000E-03 0.  1.
         11   -1    0    0    0    0 -0.00000000000E+00 -0.00000000000E+00 -0.45593999997E+02  0.45594000000E+02  0.51100000000E-03 0. -1.
    9900012    2    1    2    0    0 -0.95772841053E+01  0.13845342197E+02  0.82013210813E+01  0.72461560433E+02  0.69999987153E+02 0.  0.
        -12    1    1    2    0    0  0.95772841053E+01 -0.13845342197E+02 -0.82013210813E+01  0.18726439567E+02  0.00000000000E+00 0.  1.
         11    1    3    3    0    0  0.20553787175E+02  0.53028675083E+01  0.11832052412E+02  0.24301770215E+02  0.51100000000E-03 0. -1.
        -11    1    3    3    0    0 -0.63471638392E+01 -0.45583321118E+01 -0.16390370176E+02  0.18157894019E+02  0.51100000000E-03 0.  1.
         12    1    3    3    0    0 -0.23783907441E+02  0.13100806801E+02  0.12759638846E+02  0.30001896198E+02  0.00000000000E+00 0. -1.
</event>
<event>
 7    1  0.3435518E-013  0.7246156E+02  0.7816164E-02  0.1226708E+00
        -11   -1    0    0    0    0  0.00000000000E+00  0.00000000000E+00  0.45593999997E+02  0.45594000000E+02  0.51100000000E-03 0.  1.
         11   -1    0    0    0    0 -0.00000000000E+00 -0.00000000000E+00 -0.45593999997E+02  0.45594000000E+02  0.51100000000E-03 0. -1.
    9900012    2    1    2    0    0 -0.50730191966E+01 -0.16125176326E+02 -0.80574668464E+01  0.72461558606E+02  0.69999984774E+02 0.  0.
        -12    1    1    2    0    0  0.50730191966E+01  0.16125176326E+02  0.80574668464E+01  0.18726441394E+02  0.00000000000E+00 0.  1.
         11    1    3    3    0    0 -0.14787742297E+01 -0.94289456570E+01 -0.37560551207E+02  0.38754184247E+02  0.51100000000E-03 0. -1.
        -11    1    3    3    0    0  0.36207773093E+01 -0.73000786866E+01  0.99749565589E+01  0.12880253715E+02  0.51100000000E-03 0.  1.
        -12    1    3    3    0    0 -0.72150222761E+01  0.60384801780E+00  0.19528127802E+02  0.20827120644E+02  0.00000000000E+00 0.  1.
</event>
<event>
 7    1  0.3435518E-013  0.7246158E+02  0.7816164E-02  0.1226708E+00
        -11   -1    0    0    0    0  0.00000000000E+00  0.00000000000E+00  0.45593999997E+02  0.45594000000E+02  0.51100000000E-03 0.  1.
         11   -1    0    0    0    0 -0.00000000000E+00 -0.00000000000E+00 -0.45593999997E+02  0.45594000000E+02  0.51100000000E-03 0. -1.
    9900012    2    1    2    0    0 -0.82097300481E+01  0.15897606439E+02 -0.55267595497E+01  0.72461584725E+02  0.70000018798E+02 0.  0.
        -12    1    1    2    0    0  0.82097300481E+01 -0.15897606439E+02  0.55267595497E+01  0.18726415275E+02  0.00000000000E+00 0.  1.
         11    1    3    3    0    0 -0.18243414579E+02 -0.69030574476E+00 -0.17521051084E+02  0.25303871816E+02  0.51100000000E-03 0. -1.
        -11    1    3    3    0    0  0.30918364533E+01  0.16237404439E+02 -0.13117522361E+02  0.21101709616E+02  0.51100000000E-03 0.  1.
        -12    1    3    3    0    0  0.69418480776E+01  0.35050774451E+00  0.25111813896E+02  0.26056003292E+02  0.00000000000E+00 0.  1.
</event>
<event>
 7    1  0.3435518E-013  0.7246158E+02  0.7816164E-02  0.1226708E+00
        -11   -1    0    0    0    0  0.00000000000E+00  0.00000000000E+00  0.45593999997E+02  0.45594000000E+02  0.51100000000E-03 0. -1.
         11   -1    0    0    0    0 -0.00000000000E+00 -0.00000000000E+00 -0.45593999997E+02  0.45594000000E+02  0.51100000000E-03 0.  1.
    9900012    2    1    2    0    0  0.18433928266E+02 -0.30889400640E+01 -0.11522024108E+01  0.72461579294E+02  0.70000011724E+02 0.  0.
        -12    1    1    2    0    0 -0.18433928266E+02  0.30889400640E+01  0.11522024108E+01  0.18726420706E+02  0.00000000000E+00 0.  1.
         11    1    3    3    0    0 -0.22835602892E+02 -0.97356780701E+01  0.27811524059E+01  0.24979651636E+02  0.51100000000E-03 0. -1.
        -11    1    3    3    0    0  0.12368446895E+02 -0.29301212999E+01  0.77313352627E+01  0.14877420295E+02  0.51100000000E-03 0.  1.
        -12    1    3    3    0    0  0.28901084263E+02  0.95768593061E+01 -0.11664690079E+02  0.32604507363E+02  0.00000000000E+00 0.  1.
</event>
<event>
 7    1  0.3435518E-013  0.7246153E+02  0.7816164E-02  0.1226708E+00
        -11   -1    0    0    0    0  0.00000000000E+00  0.00000000000E+00  0.45593999997E+02  0.45594000000E+02  0.51100000000E-03 0. -1.
         11   -1    0    0    0    0 -0.00000000000E+00 -0.00000000000E+00 -0.45593999997E+02  0.45594000000E+02  0.51100000000E-03 0.  1.
    9900012    2    1    2    0    0 -0.22544817284E+01  0.98861416106E+01  0.15743642201E+02  0.72461528000E+02  0.69999944903E+02 0.  0.
        -12    1    1    2    0    0  0.22544817284E+01 -0.98861416106E+01 -0.15743642201E+02  0.18726472000E+02  0.00000000000E+00 0.  1.
         11    1    3    3    0    0  0.56057685422E+01  0.23459281366E+02  0.11540000776E+02  0.26738252398E+02  0.51100000000E-03 0. -1.
        -11    1    3    3    0    0 -0.81010776965E+01 -0.30122148252E+01 -0.18645000987E+02  0.20550838427E+02  0.51100000000E-03 0.  1.
         12    1    3    3    0    0  0.24082742587E+00 -0.10560924930E+02  0.22848642412E+02  0.25172437175E+02  0.00000000000E+00 0. -1.
</event>
<event>
 7    1  0.3435518E-013  0.7246156E+02  0.7816164E-02  0.1226708E+00
        -11   -1    0    0    0    0  0.00000000000E+00  0.00000000000E+00  0.45593999997E+02  0.45594000000E+02  0.51100000000E-03 0.  1.
         11   -1    0    0    0    0 -0.00000000000E+00 -0.00000000000E+00 -0.45593999997E+02  0.45594000000E+02  0.51100000000E-03 0. -1.
    9900012    2    1    2    0    0 -0.72683326978E+01 -0.16897263738E+02  0.35118968332E+01  0.72461558763E+02  0.69999984978E+02 0.  0.
        -12    1    1    2    0    0  0.72683326978E+01  0.16897263738E+02 -0.35118968332E+01  0.18726441237E+02  0.00000000000E+00 0.  1.
         11    1    3    3    0    0 -0.95838787097E+01 -0.48247770259E+01 -0.23781073649E+02  0.26089627606E+02  0.51100000000E-03 0. -1.
        -11    1    3    3    0    0 -0.31615786425E+01 -0.21683190506E+02  0.65613241059E+01  0.22873725196E+02  0.51100000000E-03 0.  1.
        -12    1    3    3    0    0  0.54771246545E+01  0.96107037937E+01  0.20731646376E+02  0.23498205961E+02  0.00000000000E+00 0.  1.
</event>
<event>
 7    1  0.3435518E-013  0.7246167E+02  0.7816164E-02  0.1226708E+00
        -11   -1    0    0    0    0  0.00000000000E+00  0.00000000000E+00  0.45593999997E+02  0.45594000000E+02  0.51100000000E-03 0. -1.
         11   -1    0    0    0    0 -0.00000000000E+00 -0.00000000000E+00 -0.45593999997E+02  0.45594000000E+02  0.51100000000E-03 0.  1.
    9900012    2    1    2    0    0 -0.71218305018E+01 -0.58079112406E+00  0.17309467005E+02  0.72461669980E+02  0.70000129859E+02 0.  0.
        -12    1    1    2    0    0  0.71218305018E+01  0.58079112406E+00 -0.17309467005E+02  0.18726330020E+02  0.00000000000E+00 0.  1.
         11    1    3    3    0    0 -0.10929059303E+02 -0.76212416274E+01 -0.41364156651E+01  0.13951257865E+02  0.51100000000E-03 0. -1.
        -11    1    3    3    0    0  0.32049795468E+01 -0.22903172922E+02  0.29597683979E+01  0.23314961999E+02  0.51100000000E-03 0.  1.
         12    1    3    3    0    0  0.60224925467E+00  0.29943623425E+02  0.18486114272E+02  0.35195450116E+02  0.00000000000E+00 0. -1.
</event>
<event>
 7    1  0.3435518E-013  0.7246156E+02  0.7816164E-02  0.1226708E+00
        -11   -1    0    0    0    0  0.00000000000E+00  0.00000000000E+00  0.45593999997E+02  0.45594000000E+02  0.51100000000E-03 0. -1.
         11   -1    0    0    0    0 -0.00000000000E+00 -0.00000000000E+00 -0.45593999997E+02  0.45594000000E+02  0.51100000000E-03 0.  1.
    9900012    2    1    2    0    0  0.65330341489E+01 -0.17277385938E+02  0.30807687058E+01  0.72461555173E+02  0.69999980301E+02 0.  0.
        -12    1    1    2    0    0 -0.65330341489E+01  0.17277385938E+02 -0.30807687058E+01  0.18726444827E+02  0.00000000000E+00 0.  1.
         11    1    3    3    0    0  0.24416861699E+01 -0.41515589273E+02  0.48163408643E+01  0.41865297367E+02  0.51100000000E-03 0. -1.
        -11    1    3    3    0    0  0.11124946638E+01  0.17072057821E+01  0.61979157682E+01  0.65242897001E+01  0.51100000000E-03 0.  1.
        -12    1    3    3    0    0  0.29788533152E+01  0.22530997553E+02 -0.79334879267E+01  0.24071968106E+02  0.00000000000E+00 0.  1.
</event>
<event>
 7    1  0.3435518E-013  0.7246155E+02  0.7816164E-02  0.1226708E+00
        -11   -1    0    0    0    0  0.00000000000E+00  0.00000000000E+00  0.45593999997E+02  0.45594000000E+02  0.51100000000E-03 0.  1.
         11   -1    0    0    0    0 -0.00000000000E+00 -0.00000000000E+00 -0.45593999997E+02  0.45594000000E+02  0.51100000000E-03 0. -1.
    9900012    2    1    2    0    0 -0.56235216034E+01  0.97201678082E+01 -0.14985803967E+02  0.72461548708E+02  0.69999971880E+02 0.  0.
        -12    1    1    2    0    0  0.56235216034E+01 -0.97201678082E+01  0.14985803967E+02  0.18726451292E+02  0.00000000000E+00 0.  1.
         11    1    3    3    0    0  0.23400649160E+02 -0.58385305147E+01 -0.18316367761E+02  0.30284784099E+02  0.51100000000E-03 0. -1.
        -11    1    3    3    0    0 -0.29801053643E+00  0.10712978320E+02 -0.50726670178E+01  0.11857009138E+02  0.51100000000E-03 0.  1.
        -12    1    3    3    0    0 -0.28726160227E+02  0.48457200033E+01  0.84032308120E+01  0.30319755471E+02  0.00000000000E+00 0.  1.
</event>
<event>
 7    1  0.3444230E-013  0.7246158E+02  0.7816164E-02  0.1226708E+00
        -11   -1    0    0    0    0  0.00000000000E+00  0.00000000000E+00  0.45593999997E+02  0.45594000000E+02  0.51100000000E-03 0. -1.
         11   -1    0    0    0    0 -0.00000000000E+00 -0.00000000000E+00 -0.45593999997E+02  0.45594000000E+02  0.51100000000E-03 0.  1.
    9900012    2    1    2    0    0 -0.87594839437E+01 -0.46259120627E+01  0.15891863142E+02  0.72461576543E+02  0.70000008140E+02 0.  0.
        -12    1    1    2    0    0  0.87594839437E+01  0.46259120627E+01 -0.15891863142E+02  0.18726423457E+02  0.00000000000E+00 0.  1.
         11    1    3    3    0    0 -0.22122659923E+01  0.13171557220E+02  0.12157319957E+02  0.18060577766E+02  0.51100000000E-03 0. -1.
        -11    1    3    3    0    0 -0.16451186909E+02  0.11843415267E+02 -0.68632856773E+01  0.21401231891E+02  0.51100000000E-03 0.  1.
         12    1    3    3    0    0  0.99039689572E+01 -0.29640884550E+02  0.10597828862E+02  0.32999766887E+02  0.00000000000E+00 0. -1.
</event>
<event>
 7    1  0.3435518E-013  0.7246162E+02  0.7816164E-02  0.1226708E+00
        -11   -1    0    0    0    0  0.00000000000E+00  0.00000000000E+00  0.45593999997E+02  0.45594000000E+02  0.51100000000E-03 0.  1.
         11   -1    0    0    0    0 -0.00000000000E+00 -0.00000000000E+00 -0.45593999997E+02  0.45594000000E+02  0.51100000000E-03 0. -1.
    9900012    2    1    2    0    0  0.52248268571E+01 -0.46457278958E+01 -0.17372265244E+02  0.72461622799E+02  0.70000068397E+02 0.  0.
        -12    1    1    2    0    0 -0.52248268571E+01  0.46457278958E+01  0.17372265244E+02  0.18726377201E+02  0.00000000000E+00 0.  1.
         11    1    3    3    0    0  0.24124785901E+02 -0.23254415341E+02 -0.10336561917E+02  0.35065904240E+02  0.51100000000E-03 0. -1.
        -11    1    3    3    0    0  0.61493894879E+01  0.14026956552E+01 -0.17945359526E+01  0.65576600797E+01  0.51100000000E-03 0.  1.
        -12    1    3    3    0    0 -0.25049348532E+02  0.17205991790E+02 -0.52411673742E+01  0.30838058480E+02  0.00000000000E+00 0.  1.
</event>
<event>
 7    1  0.3435518E-013  0.7246154E+02  0.7816164E-02  0.1226708E+00
        -11   -1    0    0    0    0  0.00000000000E+00  0.00000000000E+00  0.45593999997E+02  0.45594000000E+02  0.51100000000E-03 0.  1.
         11   -1    0    0    0    0 -0.00000000000E+00 -0.00000000000E+00 -0.45593999997E+02  0.45594000000E+02  0.51100000000E-03 0. -1.
    9900012    2    1    2    0    0  0.52893860814E+01 -0.57941126909E+01 -0.17003856200E+02  0.72461535500E+02  0.69999954674E+02 0.  0.
        -12    1    1    2    0    0 -0.52893860814E+01  0.57941126909E+01  0.17003856200E+02  0.18726464500E+02  0.00000000000E+00 0.  1.
         11    1    3    3    0    0  0.29156470079E+01 -0.13847606752E+02 -0.60032312770E+01  0.15371922335E+02  0.51100000000E-03 0. -1.
        -11    1    3    3    0    0 -0.10082355161E+02  0.37509070272E+01  0.20385139706E+02  0.23049449239E+02  0.51100000000E-03 0.  1.
         12    1    3    3    0    0  0.12456094234E+02  0.43025870341E+01 -0.31385764629E+02  0.34040163926E+02  0.00000000000E+00 0. -1.
</event>
<event>
 7    1  0.3435518E-013  0.7246154E+02  0.7816164E-02  0.1226708E+00
        -11   -1    0    0    0    0  0.00000000000E+00  0.00000000000E+00  0.45593999997E+02  0.45594000000E+02  0.51100000000E-03 0. -1.
         11   -1    0    0    0    0 -0.00000000000E+00 -0.00000000000E+00 -0.45593999997E+02  0.45594000000E+02  0.51100000000E-03 0.  1.
    9900012    2    1    2    0    0 -0.15654774261E+02  0.93587267436E+01  0.42452807794E+01  0.72461544587E+02  0.69999966512E+02 0.  0.
        -12    1    1    2    0    0  0.15654774261E+02 -0.93587267436E+01 -0.42452807794E+01  0.18726455413E+02  0.00000000000E+00 0.  1.
         11    1    3    3    0    0  0.32721203563E+01 -0.14593429591E+02  0.43433413999E+01  0.15573682084E+02  0.51100000000E-03 0. -1.
        -11    1    3    3    0    0 -0.25786022614E+02 -0.57306650135E+01 -0.50987978466E+00  0.26420057937E+02  0.51100000000E-03 0.  1.
         12    1    3    3    0    0  0.68591279962E+01  0.29682821349E+02  0.41181916416E+00  0.30467804566E+02  0.00000000000E+00 0. -1.
</event>
<event>
 7    1  0.3435518E-013  0.7246157E+02  0.7816164E-02  0.1226708E+00
        -11   -1    0    0    0    0  0.00000000000E+00  0.00000000000E+00  0.45593999997E+02  0.45594000000E+02  0.51100000000E-03 0.  1.
         11   -1    0    0    0    0 -0.00000000000E+00 -0.00000000000E+00 -0.45593999997E+02  0.45594000000E+02  0.51100000000E-03 0. -1.
    9900012    2    1    2    0    0 -0.16001200510E+02 -0.96563181666E+01 -0.11816552304E+01  0.72461569284E+02  0.69999998684E+02 0.  0.
        -12    1    1    2    0    0  0.16001200510E+02  0.96563181666E+01  0.11816552304E+01  0.18726430716E+02  0.00000000000E+00 0.  1.
         11    1    3    3    0    0 -0.22021372907E+02 -0.34080131296E+01 -0.12440536207E+02  0.25521017996E+02  0.51100000000E-03 0. -1.
        -11    1    3    3    0    0 -0.13906265428E+02  0.96512975223E+01 -0.37780843705E+01  0.17343750569E+02  0.51100000000E-03 0.  1.
        -12    1    3    3    0    0  0.19926437825E+02 -0.15899602559E+02  0.15036965347E+02  0.29596800719E+02  0.00000000000E+00 0.  1.
</event>
<event>
 7    1  0.3435518E-013  0.7246162E+02  0.7816164E-02  0.1226708E+00
        -11   -1    0    0    0    0  0.00000000000E+00  0.00000000000E+00  0.45593999997E+02  0.45594000000E+02  0.51100000000E-03 0.  1.
         11   -1    0    0    0    0 -0.00000000000E+00 -0.00000000000E+00 -0.45593999997E+02  0.45594000000E+02  0.51100000000E-03 0. -1.
    9900012    2    1    2    0    0 -0.34579399053E+01 -0.91846839213E+01 -0.15948714214E+02  0.72461621487E+02  0.70000066688E+02 0.  0.
        -12    1    1    2    0    0  0.34579399053E+01  0.91846839213E+01  0.15948714214E+02  0.18726378513E+02  0.00000000000E+00 0.  1.
         11    1    3    3    0    0 -0.41811092750E+01 -0.31895479517E+02 -0.21943529382E+02  0.38939976507E+02  0.51100000000E-03 0. -1.
        -11    1    3    3    0    0  0.32004567145E+01 -0.25492355561E+01 -0.44769765721E+01  0.60650510790E+01  0.51100000000E-03 0.  1.
        -12    1    3    3    0    0 -0.24772873448E+01  0.25260031152E+02  0.10471791740E+02  0.27456593901E+02  0.00000000000E+00 0.  1.
</event>
<event>
 7    1  0.3435518E-013  0.7246165E+02  0.7816164E-02  0.1226708E+00
        -11   -1    0    0    0    0  0.00000000000E+00  0.00000000000E+00  0.45593999997E+02  0.45594000000E+02  0.51100000000E-03 0. -1.
         11   -1    0    0    0    0 -0.00000000000E+00 -0.00000000000E+00 -0.45593999997E+02  0.45594000000E+02  0.51100000000E-03 0.  1.
    9900012    2    1    2    0    0  0.27234281171E+01  0.12937814227E+02  0.13261683054E+02  0.72461645974E+02  0.70000098586E+02 0.  0.
        -12    1    1    2    0    0 -0.27234281171E+01 -0.12937814227E+02 -0.13261683054E+02  0.18726354026E+02  0.00000000000E+00 0.  1.
         11    1    3    3    0    0  0.89123923959E+01  0.55863716090E+01  0.22989090090E+02  0.25281150081E+02  0.51100000000E-03 0. -1.
        -11    1    3    3    0    0  0.16726071496E+02  0.56612585048E+00  0.68626575720E+01  0.18088063339E+02  0.51100000000E-03 0.  1.
        -12    1    3    3    0    0 -0.22915035774E+02  0.67853167677E+01 -0.16590064608E+02  0.29092432553E+02  0.00000000000E+00 0.  1.
</event>
<event>
 7    1  0.3435518E-013  0.7246161E+02  0.7816164E-02  0.1226708E+00
        -11   -1    0    0    0    0  0.00000000000E+00  0.00000000000E+00  0.45593999997E+02  0.45594000000E+02  0.51100000000E-03 0. -1.
         11   -1    0    0    0    0 -0.00000000000E+00 -0.00000000000E+00 -0.45593999997E+02  0.45594000000E+02  0.51100000000E-03 0.  1.
    9900012    2    1    2    0    0 -0.13561558906E+02 -0.10972225647E+02  0.68097158230E+01  0.72461605654E+02  0.70000046062E+02 0.  0.
        -12    1    1    2    0    0  0.13561558906E+02  0.10972225647E+02 -0.68097158230E+01  0.18726394346E+02  0.00000000000E+00 0.  1.
         11    1    3    3    0    0  0.30020133610E+01  0.12885838832E+02  0.91352751608E+01  0.16078251744E+02  0.51100000000E-03 0. -1.
        -11    1    3    3    0    0  0.80719004277E+01  0.10047990708E+02 -0.61835014754E+01  0.14295222438E+02  0.51100000000E-03 0.  1.
         12    1    3    3    0    0 -0.24635472695E+02 -0.33906055187E+02  0.38579421376E+01  0.42088131472E+02  0.00000000000E+00 0. -1.
</event>
<event>
 7    1  0.3435518E-013  0.7246155E+02  0.7816164E-02  0.1226708E+00
        -11   -1    0    0    0    0  0.00000000000E+00  0.00000000000E+00  0.45593999997E+02  0.45594000000E+02  0.51100000000E-03 0.  1.
         11   -1    0    0    0    0 -0.00000000000E+00 -0.00000000000E+00 -0.45593999997E+02  0.45594000000E+02  0.51100000000E-03 0. -1.
    9900012    2    1    2    0    0  0.49952415810E+01 -0.14514030554E+02 -0.10727089077E+02  0.72461549150E+02  0.69999972455E+02 0.  0.
        -12    1    1    2    0    0 -0.49952415810E+01  0.14514030554E+02  0.10727089077E+02  0.18726450850E+02  0.00000000000E+00 0.  1.
         11    1    3    3    0    0  0.26316907198E+02 -0.17282848452E+02 -0.11843127521E+02  0.33638313347E+02  0.51100000000E-03 0. -1.
        -11    1    3    3    0    0  0.49543455133E+01  0.91213694493E+01  0.49845983534E+01  0.11514822669E+02  0.51100000000E-03 0.  1.
        -12    1    3    3    0    0 -0.26276011130E+02 -0.63525515518E+01 -0.38685599090E+01  0.27308413134E+02  0.00000000000E+00 0.  1.
</event>
<event>
 7    1  0.3435518E-013  0.7246122E+02  0.7816164E-02  0.1226709E+00
        -11   -1    0    0    0    0  0.00000000000E+00  0.00000000000E+00  0.45593999997E+02  0.45594000000E+02  0.51100000000E-03 0.  1.
         11   -1    0    0    0    0 -0.00000000000E+00 -0.00000000000E+00 -0.45593999997E+02  0.45594000000E+02  0.51100000000E-03 0. -1.
    9900012    2    1    2    0    0 -0.75611072082E+01 -0.16765403594E+02 -0.35274705820E+01  0.72461223753E+02  0.69999548564E+02 0.  0.
        -12    1    1    2    0    0  0.75611072082E+01  0.16765403594E+02  0.35274705820E+01  0.18726776247E+02  0.00000000000E+00 0.  1.
         11    1    3    3    0    0 -0.14905762076E+02 -0.23488480122E+02 -0.48969860811E+01  0.28246608902E+02  0.51100000000E-03 0. -1.
        -11    1    3    3    0    0 -0.13539385363E+02  0.79741445079E+01  0.12896456219E+02  0.20327826247E+02  0.51100000000E-03 0.  1.
         12    1    3    3    0    0  0.20884040231E+02 -0.12510679802E+01 -0.11526940720E+02  0.23886788604E+02  0.00000000000E+00 0. -1.
</event>
<event>
 7    1  0.3435518E-013  0.7246188E+02  0.7816164E-02  0.1226707E+00
        -11   -1    0    0    0    0  0.00000000000E+00  0.00000000000E+00  0.45593999997E+02  0.45594000000E+02  0.51100000000E-03 0.  1.
         11   -1    0    0    0    0 -0.00000000000E+00 -0.00000000000E+00 -0.45593999997E+02  0.45594000000E+02  0.51100000000E-03 0. -1.
    9900012    2    1    2    0    0  0.49093212183E+01 -0.14790518510E+02 -0.10383007477E+02  0.72461876085E+02  0.70000398348E+02 0.  0.
        -12    1    1    2    0    0 -0.49093212183E+01  0.14790518510E+02  0.10383007477E+02  0.18726123915E+02  0.00000000000E+00 0.  1.
         11    1    3    3    0    0 -0.46347126533E+01  0.17351303694E+02 -0.27302159352E+01  0.18165967648E+02  0.51100000000E-03 0. -1.
        -11    1    3    3    0    0  0.14694312432E+02 -0.32682499474E+02 -0.19907170390E+02  0.40992243449E+02  0.51100000000E-03 0.  1.
         12    1    3    3    0    0 -0.51502785604E+01  0.54067727031E+00  0.12254378848E+02  0.13303664988E+02  0.00000000000E+00 0. -1.
</event>
<event>
 7    1  0.3435518E-013  0.7246156E+02  0.7816164E-02  0.1226708E+00
        -11   -1    0    0    0    0  0.00000000000E+00  0.00000000000E+00  0.45593999997E+02  0.45594000000E+02  0.51100000000E-03 0. -1.
         11   -1    0    0    0    0 -0.00000000000E+00 -0.00000000000E+00 -0.45593999997E+02  0.45594000000E+02  0.51100000000E-03 0.  1.
    9900012    2    1    2    0    0  0.78376673800E+01  0.16878830769E+02  0.20870035381E+01  0.72461560353E+02  0.69999987049E+02 0.  0.
        -12    1    1    2    0    0 -0.78376673800E+01 -0.16878830769E+02 -0.20870035381E+01  0.18726439647E+02  0.00000000000E+00 0.  1.
         11    1    3    3    0    0  0.57387920782E+01 -0.48536182002E+01  0.19204065084E+02  0.20622498883E+02  0.51100000000E-03 0. -1.
        -11    1    3    3    0    0  0.91935204200E+01  0.22807857446E+02  0.78876757813E+01  0.25825077124E+02  0.51100000000E-03 0.  1.
        -12    1    3    3    0    0 -0.70946451183E+01 -0.10754084765E+01 -0.25004737327E+02  0.26013984346E+02  0.00000000000E+00 0.  1.
</event>
<event>
 7    1  0.3435518E-013  0.7246158E+02  0.7816164E-02  0.1226708E+00
        -11   -1    0    0    0    0  0.00000000000E+00  0.00000000000E+00  0.45593999997E+02  0.45594000000E+02  0.51100000000E-03 0. -1.
         11   -1    0    0    0    0 -0.00000000000E+00 -0.00000000000E+00 -0.45593999997E+02  0.45594000000E+02  0.51100000000E-03 0.  1.
    9900012    2    1    2    0    0  0.59225804442E+01 -0.15229025646E+02  0.91476004952E+01  0.72461580800E+02  0.70000013685E+02 0.  0.
        -12    1    1    2    0    0 -0.59225804442E+01  0.15229025646E+02 -0.91476004952E+01  0.18726419200E+02  0.00000000000E+00 0.  1.
         11    1    3    3    0    0  0.34035283244E+02  0.20847775334E+01  0.61251402708E+01  0.34644828568E+02  0.51100000000E-03 0. -1.
        -11    1    3    3    0    0  0.88446717658E+00 -0.40258330883E+01 -0.33234615199E+01  0.52948098150E+01  0.51100000000E-03 0.  1.
        -12    1    3    3    0    0 -0.28997169977E+02 -0.13287970091E+02  0.63459217443E+01  0.32521942417E+02  0.00000000000E+00 0.  1.
</event>
<event>
 7    1  0.3435518E-013  0.7246157E+02  0.7816164E-02  0.1226708E+00
        -11   -1    0    0    0    0  0.00000000000E+00  0.00000000000E+00  0.45593999997E+02  0.45594000000E+02  0.51100000000E-03 0. -1.
         11   -1    0    0    0    0 -0.00000000000E+00 -0.00000000000E+00 -0.45593999997E+02  0.45594000000E+02  0.51100000000E-03 0.  1.
    9900012    2    1    2    0    0 -0.71627540772E+01  0.36203950872E+01  0.16919423791E+02  0.72461569267E+02  0.69999998662E+02 0.  0.
        -12    1    1    2    0    0  0.71627540772E+01 -0.36203950872E+01 -0.16919423791E+02  0.18726430733E+02  0.00000000000E+00 0.  1.
         11    1    3    3    0    0  0.15816608716E+01  0.41383440250E+01 -0.37580455054E+01  0.58095136341E+01  0.51100000000E-03 0. -1.
        -11    1    3    3    0    0  0.22666097085E+02 -0.16450551821E+02  0.11337240297E+02  0.30214328226E+02  0.51100000000E-03 0.  1.
         12    1    3    3    0    0 -0.31410512034E+02  0.15932602884E+02  0.93402289995E+01  0.36437727408E+02  0.00000000000E+00 0. -1.
</event>
<event>
 7    1  0.3435518E-013  0.7246155E+02  0.7816164E-02  0.1226708E+00
        -11   -1    0    0    0    0  0.00000000000E+00  0.00000000000E+00  0.45593999997E+02  0.45594000000E+02  0.51100000000E-03 0.  1.
         11   -1    0    0    0    0 -0.00000000000E+00 -0.00000000000E+00 -0.45593999997E+02  0.45594000000E+02  0.51100000000E-03 0. -1.
    9900012    2    1    2    0    0  0.15608296703E+02  0.60559975364E+01 -0.83896366435E+01  0.72461547182E+02  0.69999969892E+02 0.  0.
        -12    1    1    2    0    0 -0.15608296703E+02 -0.60559975364E+01  0.83896366435E+01  0.18726452818E+02  0.00000000000E+00 0.  1.
         11    1    3    3    0    0 -0.26824860291E+01  0.56913302616E+01 -0.15921890601E+02  0.17119975818E+02  0.51100000000E-03 0. -1.
        -11    1    3    3    0    0  0.12980002599E+02 -0.21673747591E+02  0.17340016556E+02  0.30641605319E+02  0.51100000000E-03 0.  1.
         12    1    3    3    0    0  0.53107801331E+01  0.22038414866E+02 -0.98077625992E+01  0.24699966045E+02  0.00000000000E+00 0. -1.
</event>
<event>
 7    1  0.3435518E-013  0.7246152E+02  0.7816164E-02  0.1226708E+00
        -11   -1    0    0    0    0  0.00000000000E+00  0.00000000000E+00  0.45593999997E+02  0.45594000000E+02  0.51100000000E-03 0. -1.
         11   -1    0    0    0    0 -0.00000000000E+00 -0.00000000000E+00 -0.45593999997E+02  0.45594000000E+02  0.51100000000E-03 0.  1.
    9900012    2    1    2    0    0 -0.15068316699E+02  0.32597408228E+01  0.10630189155E+02  0.72461521424E+02  0.69999936338E+02 0.  0.
        -12    1    1    2    0    0  0.15068316699E+02 -0.32597408228E+01 -0.10630189155E+02  0.18726478576E+02  0.00000000000E+00 0.  1.
         11    1    3    3    0    0 -0.26710578114E+01 -0.14259487658E+01 -0.18207081123E+02  0.18457130952E+02  0.51100000000E-03 0.  1.
        -11    1    3    3    0    0  0.13625433200E+02  0.34754926954E+01 -0.13550155790E+01  0.14126837822E+02  0.51100000000E-03 0. -1.
        -12    1    3    3    0    0 -0.26022692088E+02  0.12101968932E+01  0.30192285857E+02  0.39877552649E+02  0.00000000000E+00 0.  1.
</event>
<event>
 7    1  0.3435518E-013  0.7246153E+02  0.7816164E-02  0.1226708E+00
        -11   -1    0    0    0    0  0.00000000000E+00  0.00000000000E+00  0.45593999997E+02  0.45594000000E+02  0.51100000000E-03 0.  1.
         11   -1    0    0    0    0 -0.00000000000E+00 -0.00000000000E+00 -0.45593999997E+02  0.45594000000E+02  0.51100000000E-03 0. -1.
    9900012    2    1    2    0    0 -0.44580048553E+01 -0.17782386734E+02  0.38201539809E+01  0.72461530453E+02  0.69999948099E+02 0.  0.
        -12    1    1    2    0    0  0.44580048553E+01  0.17782386734E+02 -0.38201539809E+01  0.18726469547E+02  0.00000000000E+00 0.  1.
         11    1    3    3    0    0 -0.12204610651E+02 -0.33977932900E+02  0.18850630917E+02  0.40728352919E+02  0.51100000000E-03 0. -1.
        -11    1    3    3    0    0  0.16973487536E+01 -0.52691672753E+01 -0.18939128506E+01  0.58508138505E+01  0.51100000000E-03 0.  1.
        -12    1    3    3    0    0  0.60492570419E+01  0.21464713441E+02 -0.13136564085E+02  0.25882363683E+02  0.00000000000E+00 0.  1.
</event>
<event>
 7    1  0.3435518E-013  0.7246155E+02  0.7816164E-02  0.1226708E+00
        -11   -1    0    0    0    0  0.00000000000E+00  0.00000000000E+00  0.45593999997E+02  0.45594000000E+02  0.51100000000E-03 0.  1.
         11   -1    0    0    0    0 -0.00000000000E+00 -0.00000000000E+00 -0.45593999997E+02  0.45594000000E+02  0.51100000000E-03 0. -1.
    9900012    2    1    2    0    0  0.71770383483E+01 -0.15408747133E+02 -0.78575081663E+01  0.72461553400E+02  0.69999977992E+02 0.  0.
        -12    1    1    2    0    0 -0.71770383483E+01  0.15408747133E+02  0.78575081663E+01  0.18726446600E+02  0.00000000000E+00 0.  1.
         11    1    3    3    0    0  0.56743195113E+01 -0.14669084666E+02 -0.32960196158E+02  0.36520603471E+02  0.51100000000E-03 0. -1.
        -11    1    3    3    0    0 -0.99667469607E+01 -0.83585453313E+00  0.20748019607E+01  0.10214670881E+02  0.51100000000E-03 0.  1.
        -12    1    3    3    0    0  0.11469465798E+02  0.96192065896E-01  0.23027886031E+02  0.25726279048E+02  0.00000000000E+00 0.  1.
</event>
<event>
 7    1  0.3435518E-013  0.7246156E+02  0.7816164E-02  0.1226708E+00
        -11   -1    0    0    0    0  0.00000000000E+00  0.00000000000E+00  0.45593999997E+02  0.45594000000E+02  0.51100000000E-03 0. -1.
         11   -1    0    0    0    0 -0.00000000000E+00 -0.00000000000E+00 -0.45593999997E+02  0.45594000000E+02  0.51100000000E-03 0.  1.
    9900012    2    1    2    0    0 -0.12490319781E+02 -0.10584171748E+02  0.90910300652E+01  0.72461558601E+02  0.69999984767E+02 0.  0.
        -12    1    1    2    0    0  0.12490319781E+02  0.10584171748E+02 -0.90910300652E+01  0.18726441399E+02  0.00000000000E+00 0.  1.
         11    1    3    3    0    0  0.22415087967E+01 -0.19054854525E+02 -0.50175754378E+01  0.19831487745E+02  0.51100000000E-03 0. -1.
        -11    1    3    3    0    0 -0.59703753828E+00  0.74842480382E+01 -0.16924595381E+02  0.18515192454E+02  0.51100000000E-03 0.  1.
        -12    1    3    3    0    0 -0.14134791040E+02  0.98643473861E+00  0.31033200884E+02  0.34114878402E+02  0.00000000000E+00 0.  1.
</event>
<event>
 7    1  0.3435518E-013  0.7246158E+02  0.7816164E-02  0.1226708E+00
        -11   -1    0    0    0    0  0.00000000000E+00  0.00000000000E+00  0.45593999997E+02  0.45594000000E+02  0.51100000000E-03 0. -1.
         11   -1    0    0    0    0 -0.00000000000E+00 -0.00000000000E+00 -0.45593999997E+02  0.45594000000E+02  0.51100000000E-03 0.  1.
    9900012    2    1    2    0    0 -0.72945126203E+01 -0.12568900291E+02  0.11810657354E+02  0.72461580267E+02  0.70000012991E+02 0.  0.
        -12    1    1    2    0    0  0.72945126203E+01  0.12568900291E+02 -0.11810657354E+02  0.18726419733E+02  0.00000000000E+00 0.  1.
         11    1    3    3    0    0  0.91230750096E+01 -0.30210076751E+02  0.23655708118E+02  0.39439469593E+02  0.51100000000E-03 0. -1.
        -11    1    3    3    0    0 -0.25250236402E+01 -0.10095326726E+01  0.40317987673E+01  0.48631576328E+01  0.51100000000E-03 0.  1.
        -12    1    3    3    0    0 -0.13892563990E+02  0.18650709132E+02 -0.15876849531E+02  0.28158953041E+02  0.00000000000E+00 0.  1.
</event>
<event>
 7    1  0.3435518E-013  0.7246160E+02  0.7816164E-02  0.1226708E+00
        -11   -1    0    0    0    0  0.00000000000E+00  0.00000000000E+00  0.45593999997E+02  0.45594000000E+02  0.51100000000E-03 0.  1.
         11   -1    0    0    0    0 -0.00000000000E+00 -0.00000000000E+00 -0.45593999997E+02  0.45594000000E+02  0.51100000000E-03 0. -1.
    9900012    2    1    2    0    0 -0.12433115488E+02  0.13963377374E+02 -0.10581262515E+01  0.72461604202E+02  0.70000044172E+02 0.  0.
        -12    1    1    2    0    0  0.12433115488E+02 -0.13963377374E+02  0.10581262515E+01  0.18726395798E+02  0.00000000000E+00 0.  1.
         11    1    3    3    0    0 -0.35951670747E+01  0.19045156977E+02 -0.11604124116E+02  0.22589796975E+02  0.51100000000E-03 0. -1.
        -11    1    3    3    0    0  0.18847520841E+02  0.13977335677E+01  0.10113007729E+02  0.21434916062E+02  0.51100000000E-03 0.  1.
        -12    1    3    3    0    0 -0.27685469254E+02 -0.64795131713E+01  0.43299013543E+00  0.28436891166E+02  0.00000000000E+00 0.  1.
</event>
<event>
 7    1  0.3435518E-013  0.7246155E+02  0.7816164E-02  0.1226708E+00
        -11   -1    0    0    0    0  0.00000000000E+00  0.00000000000E+00  0.45593999997E+02  0.45594000000E+02  0.51100000000E-03 0.  1.
         11   -1    0    0    0    0 -0.00000000000E+00 -0.00000000000E+00 -0.45593999997E+02  0.45594000000E+02  0.51100000000E-03 0. -1.
    9900012    2    1    2    0    0  0.75903834566E+01  0.13850820502E+02 -0.10060845264E+02  0.72461554607E+02  0.69999979565E+02 0.  0.
        -12    1    1    2    0    0 -0.75903834566E+01 -0.13850820502E+02  0.10060845264E+02  0.18726445393E+02  0.00000000000E+00 0.  1.
         11    1    3    3    0    0  0.93789222880E+01  0.12305940544E+02 -0.20017330274E+02  0.25300076433E+02  0.51100000000E-03 0. -1.
        -11    1    3    3    0    0  0.35248985176E+01  0.14003632240E+02 -0.13697910944E+02  0.19903753163E+02  0.51100000000E-03 0.  1.
        -12    1    3    3    0    0 -0.53134373490E+01 -0.12458752281E+02  0.23654395954E+02  0.27257725012E+02  0.00000000000E+00 0.  1.
</event>
<event>
 7    1  0.3435518E-013  0.7246151E+02  0.7816164E-02  0.1226708E+00
        -11   -1    0    0    0    0  0.00000000000E+00  0.00000000000E+00  0.45593999997E+02  0.45594000000E+02  0.51100000000E-03 0. -1.
         11   -1    0    0    0    0 -0.00000000000E+00 -0.00000000000E+00 -0.45593999997E+02  0.45594000000E+02  0.51100000000E-03 0.  1.
    9900012    2    1    2    0    0 -0.14887600164E+02  0.10386800443E+02  0.45994798374E+01  0.72461508688E+02  0.69999919746E+02 0.  0.
        -12    1    1    2    0    0  0.14887600164E+02 -0.10386800443E+02 -0.45994798374E+01  0.18726491312E+02  0.00000000000E+00 0.  1.
         11    1    3    3    0    0 -0.64748544879E+01  0.11160682235E+02  0.93659448809E+01  0.15943823016E+02  0.51100000000E-03 0. -1.
        -11    1    3    3    0    0  0.20283220085E+02 -0.30989817242E+01  0.11427059736E+02  0.23485961748E+02  0.51100000000E-03 0.  1.
         12    1    3    3    0    0 -0.28695965760E+02  0.23250999320E+01 -0.16193524780E+02  0.33031723924E+02  0.00000000000E+00 0. -1.
</event>
<event>
 7    1  0.3435518E-013  0.7246171E+02  0.7816164E-02  0.1226708E+00
        -11   -1    0    0    0    0  0.00000000000E+00  0.00000000000E+00  0.45593999997E+02  0.45594000000E+02  0.51100000000E-03 0. -1.
         11   -1    0    0    0    0 -0.00000000000E+00 -0.00000000000E+00 -0.45593999997E+02  0.45594000000E+02  0.51100000000E-03 0.  1.
    9900012    2    1    2    0    0 -0.13390074420E+02 -0.11754953969E+02  0.57620134716E+01  0.72461712727E+02  0.70000185544E+02 0.  0.
        -12    1    1    2    0    0  0.13390074420E+02  0.11754953969E+02 -0.57620134716E+01  0.18726287273E+02  0.00000000000E+00 0.  1.
         11    1    3    3    0    0 -0.14863326922E+02 -0.37767264324E+02 -0.36585324836E+01  0.40751314112E+02  0.51100000000E-03 0. -1.
        -11    1    3    3    0    0  0.59085212071E+01  0.36992433337E+01  0.48872074986E+01  0.85135081777E+01  0.51100000000E-03 0.  1.
        -12    1    3    3    0    0 -0.44352687057E+01  0.22313067021E+02  0.45333384566E+01  0.23196890437E+02  0.00000000000E+00 0.  1.
</event>
<event>
 7    1  0.3435518E-013  0.7246156E+02  0.7816164E-02  0.1226708E+00
        -11   -1    0    0    0    0  0.00000000000E+00  0.00000000000E+00  0.45593999997E+02  0.45594000000E+02  0.51100000000E-03 0. -1.
         11   -1    0    0    0    0 -0.00000000000E+00 -0.00000000000E+00 -0.45593999997E+02  0.45594000000E+02  0.51100000000E-03 0.  1.
    9900012    2    1    2    0    0 -0.20184663716E+01  0.58345109432E+01  0.17679477033E+02  0.72461557930E+02  0.69999983893E+02 0.  0.
        -12    1    1    2    0    0  0.20184663716E+01 -0.58345109432E+01 -0.17679477033E+02  0.18726442070E+02  0.00000000000E+00 0.  1.
         11    1    3    3    0    0  0.75943733144E+01 -0.98460656654E+01  0.50793519614E+01  0.13432026345E+02  0.51100000000E-03 0. -1.
        -11    1    3    3    0    0 -0.23473189731E+02  0.19438420436E+02  0.25490769777E+02  0.39731878502E+02  0.51100000000E-03 0.  1.
         12    1    3    3    0    0  0.13860350045E+02 -0.37578438278E+01 -0.12890644705E+02  0.19297653083E+02  0.00000000000E+00 0. -1.
</event>
<event>
 7    1  0.3435518E-013  0.7246166E+02  0.7816164E-02  0.1226708E+00
        -11   -1    0    0    0    0  0.00000000000E+00  0.00000000000E+00  0.45593999997E+02  0.45594000000E+02  0.51100000000E-03 0.  1.
         11   -1    0    0    0    0 -0.00000000000E+00 -0.00000000000E+00 -0.45593999997E+02  0.45594000000E+02  0.51100000000E-03 0. -1.
    9900012    2    1    2    0    0 -0.15523854689E+01  0.14676889637E+02  0.11526264614E+02  0.72461661169E+02  0.70000118381E+02 0.  0.
        -12    1    1    2    0    0  0.15523854689E+01 -0.14676889637E+02 -0.11526264614E+02  0.18726338831E+02  0.00000000000E+00 0.  1.
         11    1    3    3    0    0  0.19049598469E+02  0.10486562008E+02  0.54915032463E+01  0.22427924397E+02  0.51100000000E-03 0. -1.
        -11    1    3    3    0    0  0.72077741675E+01  0.13968163206E+02 -0.77110981679E+01  0.17507787610E+02  0.51100000000E-03 0.  1.
         12    1    3    3    0    0 -0.27809758106E+02 -0.97778355767E+01  0.13745859536E+02  0.32525949161E+02  0.00000000000E+00 0. -1.
</event>
<event>
 7    1  0.3435518E-013  0.7246155E+02  0.7816164E-02  0.1226708E+00
        -11   -1    0    0    0    0  0.00000000000E+00  0.00000000000E+00  0.45593999997E+02  0.45594000000E+02  0.51100000000E-03 0.  1.
         11   -1    0    0    0    0 -0.00000000000E+00 -0.00000000000E+00 -0.45593999997E+02  0.45594000000E+02  0.51100000000E-03 0. -1.
    9900012    2    1    2    0    0 -0.15000302732E+02  0.24098177074E+01 -0.10948225929E+02  0.72461549337E+02  0.69999972699E+02 0.  0.
        -12    1    1    2    0    0  0.15000302732E+02 -0.24098177074E+01  0.10948225929E+02  0.18726450663E+02  0.00000000000E+00 0.  1.
         11    1    3    3    0    0 -0.87982516610E+01 -0.18298220071E+02  0.59670520832E+01  0.21162225802E+02  0.51100000000E-03 0. -1.
        -11    1    3    3    0    0  0.36926597070E+01  0.24513365547E+01  0.13647629894E+02  0.14349306206E+02  0.51100000000E-03 0.  1.
        -12    1    3    3    0    0 -0.98947107777E+01  0.18256701224E+02 -0.30562907907E+02  0.36950017329E+02  0.00000000000E+00 0.  1.
</event>
<event>
 7    1  0.3435518E-013  0.7246141E+02  0.7816164E-02  0.1226708E+00
        -11   -1    0    0    0    0  0.00000000000E+00  0.00000000000E+00  0.45593999997E+02  0.45594000000E+02  0.51100000000E-03 0. -1.
         11   -1    0    0    0    0 -0.00000000000E+00 -0.00000000000E+00 -0.45593999997E+02  0.45594000000E+02  0.51100000000E-03 0.  1.
    9900012    2    1    2    0    0 -0.18621938317E+02 -0.12246447002E+00  0.19732387291E+01  0.72461407803E+02  0.69999788325E+02 0.  0.
        -12    1    1    2    0    0  0.18621938317E+02  0.12246447002E+00 -0.19732387291E+01  0.18726592197E+02  0.00000000000E+00 0.  1.
         11    1    3    3    0    0  0.93405361668E+01 -0.13032820386E+02 -0.24976965133E+01  0.16227708132E+02  0.51100000000E-03 0. -1.
        -11    1    3    3    0    0 -0.76093114444E+01  0.24771796146E+02 -0.10891440612E+02  0.28109908997E+02  0.51100000000E-03 0.  1.
         12    1    3    3    0    0 -0.20353163039E+02 -0.11861440230E+02  0.15362375854E+02  0.28123790674E+02  0.00000000000E+00 0. -1.
</event>
<event>
 7    1  0.3435518E-013  0.7246162E+02  0.7816164E-02  0.1226708E+00
        -11   -1    0    0    0    0  0.00000000000E+00  0.00000000000E+00  0.45593999997E+02  0.45594000000E+02  0.51100000000E-03 0. -1.
         11   -1    0    0    0    0 -0.00000000000E+00 -0.00000000000E+00 -0.45593999997E+02  0.45594000000E+02  0.51100000000E-03 0.  1.
    9900012    2    1    2    0    0 -0.97131057232E+00 -0.74454570642E+01  0.17155141568E+02  0.72461624020E+02  0.70000069988E+02 0.  0.
        -12    1    1    2    0    0  0.97131057232E+00  0.74454570642E+01 -0.17155141568E+02  0.18726375980E+02  0.00000000000E+00 0.  1.
         11    1    3    3    0    0  0.32150140445E+00 -0.11907918935E+02  0.13591732854E+02  0.18073104293E+02  0.51100000000E-03 0. -1.
        -11    1    3    3    0    0 -0.15103359723E+02 -0.20489104894E+02  0.45271034364E+01  0.25853617930E+02  0.51100000000E-03 0.  1.
        -12    1    3    3    0    0  0.13810547746E+02  0.24951566765E+02 -0.96369472322E+00  0.28534901798E+02  0.00000000000E+00 0.  1.
</event>
<event>
 7    1  0.3435518E-013  0.7246155E+02  0.7816164E-02  0.1226708E+00
        -11   -1    0    0    0    0  0.00000000000E+00  0.00000000000E+00  0.45593999997E+02  0.45594000000E+02  0.51100000000E-03 0. -1.
         11   -1    0    0    0    0 -0.00000000000E+00 -0.00000000000E+00 -0.45593999997E+02  0.45594000000E+02  0.51100000000E-03 0.  1.
    9900012    2    1    2    0    0  0.18572985828E+01 -0.21694279745E+00  0.18632851328E+02  0.72461554240E+02  0.69999979086E+02 0.  0.
        -12    1    1    2    0    0 -0.18572985828E+01  0.21694279745E+00 -0.18632851328E+02  0.18726445760E+02  0.00000000000E+00 0.  1.
         11    1    3    3    0    0 -0.38412601126E+01  0.17256890405E+00  0.10123786138E+02  0.10829409278E+02  0.51100000000E-03 0. -1.
        -11    1    3    3    0    0  0.20650814169E+02  0.20152986194E+02  0.18559931393E+02  0.34308454235E+02  0.51100000000E-03 0.  1.
         12    1    3    3    0    0 -0.14952255474E+02 -0.20542497896E+02 -0.10050866203E+02  0.27323690728E+02  0.00000000000E+00 0. -1.
</event>
<event>
 7    1  0.3435518E-013  0.7246156E+02  0.7816164E-02  0.1226708E+00
        -11   -1    0    0    0    0  0.00000000000E+00  0.00000000000E+00  0.45593999997E+02  0.45594000000E+02  0.51100000000E-03 0.  1.
         11   -1    0    0    0    0 -0.00000000000E+00 -0.00000000000E+00 -0.45593999997E+02  0.45594000000E+02  0.51100000000E-03 0. -1.
    9900012    2    1    2    0    0  0.47195440865E+00 -0.74175067802E+01 -0.17188291646E+02  0.72461561003E+02  0.69999987896E+02 0.  0.
        -12    1    1    2    0    0 -0.47195440865E+00  0.74175067802E+01  0.17188291646E+02  0.18726438997E+02  0.00000000000E+00 0.  1.
         11    1    3    3    0    0 -0.12126239096E+02  0.41965798427E+01  0.56892534163E+01  0.14036543794E+02  0.51100000000E-03 0. -1.
        -11    1    3    3    0    0  0.82073610004E+01  0.17667080663E+02  0.22254947418E+01  0.19607124747E+02  0.51100000000E-03 0.  1.
         12    1    3    3    0    0  0.43908325038E+01 -0.29281167286E+02 -0.25103039804E+02  0.38817892461E+02  0.00000000000E+00 0. -1.
</event>
<event>
 7    1  0.3435518E-013  0.7246164E+02  0.7816164E-02  0.1226708E+00
        -11   -1    0    0    0    0  0.00000000000E+00  0.00000000000E+00  0.45593999997E+02  0.45594000000E+02  0.51100000000E-03 0.  1.
         11   -1    0    0    0    0 -0.00000000000E+00 -0.00000000000E+00 -0.45593999997E+02  0.45594000000E+02  0.51100000000E-03 0. -1.
    9900012    2    1    2    0    0 -0.91818577124E+01  0.14252720253E+01 -0.16258494214E+02  0.72461640356E+02  0.70000091269E+02 0.  0.
        -12    1    1    2    0    0  0.91818577124E+01 -0.14252720253E+01  0.16258494214E+02  0.18726359644E+02  0.00000000000E+00 0.  1.
         11    1    3    3    0    0 -0.81324387095E+01 -0.98476675719E+01  0.15832915548E+02  0.20341935281E+02  0.51100000000E-03 0. -1.
        -11    1    3    3    0    0  0.98789593146E+00 -0.11284290371E+02  0.16853742018E+01  0.11452145389E+02  0.51100000000E-03 0.  1.
         12    1    3    3    0    0 -0.20373149343E+01  0.22557229968E+02 -0.33776783963E+02  0.40667559687E+02  0.00000000000E+00 0. -1.
</event>
<event>
 7    1  0.3435518E-013  0.7246159E+02  0.7816164E-02  0.1226708E+00
        -11   -1    0    0    0    0  0.00000000000E+00  0.00000000000E+00  0.45593999997E+02  0.45594000000E+02  0.51100000000E-03 0. -1.
         11   -1    0    0    0    0 -0.00000000000E+00 -0.00000000000E+00 -0.45593999997E+02  0.45594000000E+02  0.51100000000E-03 0.  1.
    9900012    2    1    2    0    0  0.14057435603E+02  0.26902307060E+01  0.12075987578E+02  0.72461593165E+02  0.70000029793E+02 0.  0.
        -12    1    1    2    0    0 -0.14057435603E+02 -0.26902307060E+01 -0.12075987578E+02  0.18726406835E+02  0.00000000000E+00 0.  1.
         11    1    3    3    0    0  0.86696576738E+00  0.79090762793E+01  0.81356499300E+01  0.11379539414E+02  0.51100000000E-03 0. -1.
        -11    1    3    3    0    0  0.24011328225E+02 -0.11041229717E+01 -0.22057242766E+02  0.32623380103E+02  0.51100000000E-03 0.  1.
         12    1    3    3    0    0 -0.10820858389E+02 -0.41147226016E+01  0.25997580414E+02  0.28458673648E+02  0.00000000000E+00 0. -1.
</event>
<event>
 7    1  0.3435518E-013  0.7246151E+02  0.7816164E-02  0.1226708E+00
        -11   -1    0    0    0    0  0.00000000000E+00  0.00000000000E+00  0.45593999997E+02  0.45594000000E+02  0.51100000000E-03 0. -1.
         11   -1    0    0    0    0 -0.00000000000E+00 -0.00000000000E+00 -0.45593999997E+02  0.45594000000E+02  0.51100000000E-03 0.  1.
    9900012    2    1    2    0    0  0.12636614924E+02 -0.11098171335E+02  0.82357651533E+01  0.72461514174E+02  0.69999926893E+02 0.  0.
        -12    1    1    2    0    0 -0.12636614924E+02  0.11098171335E+02 -0.82357651533E+01  0.18726485826E+02  0.00000000000E+00 0.  1.
         11    1    3    3    0    0  0.69426463477E+01 -0.51939675356E+00  0.17269611165E+02  0.18620139134E+02  0.51100000000E-03 0. -1.
        -11    1    3    3    0    0  0.82148148054E+01  0.18387032230E+02  0.61279011656E+01  0.21050351766E+02  0.51100000000E-03 0.  1.
         12    1    3    3    0    0 -0.25208462289E+01 -0.28965806811E+02 -0.15161747178E+02  0.32791023275E+02  0.00000000000E+00 0. -1.
</event>
<event>
 7    1  0.3435518E-013  0.7246156E+02  0.7816164E-02  0.1226708E+00
        -11   -1    0    0    0    0  0.00000000000E+00  0.00000000000E+00  0.45593999997E+02  0.45594000000E+02  0.51100000000E-03 0.  1.
         11   -1    0    0    0    0 -0.00000000000E+00 -0.00000000000E+00 -0.45593999997E+02  0.45594000000E+02  0.51100000000E-03 0. -1.
    9900012    2    1    2    0    0  0.20308429865E+01 -0.16441415234E+02  0.87312815792E+01  0.72461555165E+02  0.69999980292E+02 0.  0.
        -12    1    1    2    0    0 -0.20308429865E+01  0.16441415234E+02 -0.87312815792E+01  0.18726444835E+02  0.00000000000E+00 0.  1.
         11    1    3    3    0    0  0.11397638643E+02  0.64624958748E+01  0.29402637534E+01  0.13428148449E+02  0.51100000000E-03 0. -1.
        -11    1    3    3    0    0 -0.21410757645E+02 -0.18533039780E+02  0.23759323405E+02  0.36964842152E+02  0.51100000000E-03 0.  1.
         12    1    3    3    0    0  0.12043961989E+02 -0.43708713290E+01 -0.17968305579E+02  0.22068564565E+02  0.00000000000E+00 0. -1.
</event>
<event>
 7    1  0.3435518E-013  0.7246157E+02  0.7816164E-02  0.1226708E+00
        -11   -1    0    0    0    0  0.00000000000E+00  0.00000000000E+00  0.45593999997E+02  0.45594000000E+02  0.51100000000E-03 0.  1.
         11   -1    0    0    0    0 -0.00000000000E+00 -0.00000000000E+00 -0.45593999997E+02  0.45594000000E+02  0.51100000000E-03 0. -1.
    9900012    2    1    2    0    0 -0.59811656444E+01  0.12768363711E+02 -0.12323700344E+02  0.72461573633E+02  0.70000004349E+02 0.  0.
        -12    1    1    2    0    0  0.59811656444E+01 -0.12768363711E+02  0.12323700344E+02  0.18726426367E+02  0.00000000000E+00 0.  1.
         11    1    3    3    0    0 -0.97417394464E+01  0.27970948076E+02 -0.50669194475E+01  0.30049111412E+02  0.51100000000E-03 0. -1.
        -11    1    3    3    0    0 -0.15251816282E+02 -0.90154261902E+00  0.44281563991E+01  0.15907207434E+02  0.51100000000E-03 0.  1.
        -12    1    3    3    0    0  0.19012390084E+02 -0.14301041746E+02 -0.11684937295E+02  0.26505254787E+02  0.00000000000E+00 0.  1.
</event>
<event>
 7    1  0.3435518E-013  0.7246159E+02  0.7816164E-02  0.1226708E+00
        -11   -1    0    0    0    0  0.00000000000E+00  0.00000000000E+00  0.45593999997E+02  0.45594000000E+02  0.51100000000E-03 0. -1.
         11   -1    0    0    0    0 -0.00000000000E+00 -0.00000000000E+00 -0.45593999997E+02  0.45594000000E+02  0.51100000000E-03 0.  1.
    9900012    2    1    2    0    0 -0.14343511456E+02 -0.66740643333E+01  0.10019932557E+02  0.72461588062E+02  0.70000023146E+02 0.  0.
        -12    1    1    2    0    0  0.14343511456E+02  0.66740643333E+01 -0.10019932557E+02  0.18726411938E+02  0.00000000000E+00 0.  1.
         11    1    3    3    0    0 -0.22647069857E+02 -0.99310517268E+01  0.12649222774E+01  0.24761171017E+02  0.51100000000E-03 0. -1.
        -11    1    3    3    0    0 -0.12065221651E+01 -0.13380136654E+02 -0.13009874534E+02  0.18701352579E+02  0.51100000000E-03 0.  1.
         12    1    3    3    0    0  0.95100805659E+01  0.16637124048E+02  0.21764884814E+02  0.28999064466E+02  0.00000000000E+00 0. -1.
</event>
<event>
 7    1  0.3435518E-013  0.7246154E+02  0.7816164E-02  0.1226708E+00
        -11   -1    0    0    0    0  0.00000000000E+00  0.00000000000E+00  0.45593999997E+02  0.45594000000E+02  0.51100000000E-03 0.  1.
         11   -1    0    0    0    0 -0.00000000000E+00 -0.00000000000E+00 -0.45593999997E+02  0.45594000000E+02  0.51100000000E-03 0. -1.
    9900012    2    1    2    0    0 -0.90587878227E+01  0.15580242506E+02  0.50867278674E+01  0.72461537607E+02  0.69999957418E+02 0.  0.
        -12    1    1    2    0    0  0.90587878227E+01 -0.15580242506E+02 -0.50867278674E+01  0.18726462393E+02  0.00000000000E+00 0.  1.
         11    1    3    3    0    0 -0.66614487091E+01  0.15795606338E+02 -0.23608734989E+00  0.17144439798E+02  0.51100000000E-03 0. -1.
        -11    1    3    3    0    0  0.24828136896E+02  0.85790587163E+01  0.30836932221E+00  0.26270358241E+02  0.51100000000E-03 0.  1.
         12    1    3    3    0    0 -0.27225476010E+02 -0.87944225479E+01  0.50144458951E+01  0.29046739568E+02  0.00000000000E+00 0. -1.
</event>
<event>
 7    1  0.3435518E-013  0.7246156E+02  0.7816164E-02  0.1226708E+00
        -11   -1    0    0    0    0  0.00000000000E+00  0.00000000000E+00  0.45593999997E+02  0.45594000000E+02  0.51100000000E-03 0. -1.
         11   -1    0    0    0    0 -0.00000000000E+00 -0.00000000000E+00 -0.45593999997E+02  0.45594000000E+02  0.51100000000E-03 0.  1.
    9900012    2    1    2    0    0 -0.12335477429E+02 -0.13449203923E+02  0.41993582192E+01  0.72461556156E+02  0.69999981583E+02 0.  0.
        -12    1    1    2    0    0  0.12335477429E+02  0.13449203923E+02 -0.41993582192E+01  0.18726443844E+02  0.00000000000E+00 0.  1.
         11    1    3    3    0    0 -0.10118701979E+02 -0.37075105729E+00  0.17287117534E+02  0.20034221197E+02  0.51100000000E-03 0. -1.
        -11    1    3    3    0    0  0.15551834416E+02 -0.26685805762E+01  0.12105867061E+02  0.19888008788E+02  0.51100000000E-03 0.  1.
        -12    1    3    3    0    0 -0.17768609866E+02 -0.10409872290E+02 -0.25193626376E+02  0.32539326171E+02  0.00000000000E+00 0.  1.
</event>
<event>
 7    1  0.3435518E-013  0.7246156E+02  0.7816164E-02  0.1226708E+00
        -11   -1    0    0    0    0  0.00000000000E+00  0.00000000000E+00  0.45593999997E+02  0.45594000000E+02  0.51100000000E-03 0.  1.
         11   -1    0    0    0    0 -0.00000000000E+00 -0.00000000000E+00 -0.45593999997E+02  0.45594000000E+02  0.51100000000E-03 0. -1.
    9900012    2    1    2    0    0 -0.20052805025E+01 -0.14407263529E+02 -0.11793602673E+02  0.72461562638E+02  0.69999990026E+02 0.  0.
        -12    1    1    2    0    0  0.20052805025E+01  0.14407263529E+02  0.11793602673E+02  0.18726437362E+02  0.00000000000E+00 0.  1.
         11    1    3    3    0    0  0.19322070567E+02  0.83592057733E+01 -0.40699396308E+01  0.21442554442E+02  0.51100000000E-03 0. -1.
        -11    1    3    3    0    0  0.78203678680E+01 -0.47390233470E+01 -0.13457811524E+02  0.16270500520E+02  0.51100000000E-03 0.  1.
        -12    1    3    3    0    0 -0.29147718937E+02 -0.18027445955E+02  0.57341484824E+01  0.34748507676E+02  0.00000000000E+00 0.  1.
</event>
<event>
 7    1  0.3435518E-013  0.7246161E+02  0.7816164E-02  0.1226708E+00
        -11   -1    0    0    0    0  0.00000000000E+00  0.00000000000E+00  0.45593999997E+02  0.45594000000E+02  0.51100000000E-03 0.  1.
         11   -1    0    0    0    0 -0.00000000000E+00 -0.00000000000E+00 -0.45593999997E+02  0.45594000000E+02  0.51100000000E-03 0. -1.
    9900012    2    1    2    0    0 -0.18588194268E+02 -0.22495326264E+01 -0.31027236738E+00  0.72461611343E+02  0.70000053474E+02 0.  0.
        -12    1    1    2    0    0  0.18588194268E+02  0.22495326264E+01  0.31027236738E+00  0.18726388657E+02  0.00000000000E+00 0.  1.
         11    1    3    3    0    0  0.13861209038E+02  0.60115295408E+01 -0.51590516884E+01  0.15965193955E+02  0.51100000000E-03 0. -1.
        -11    1    3    3    0    0 -0.15558680380E+02  0.47670611082E+01  0.23213348138E+02  0.28348843694E+02  0.51100000000E-03 0.  1.
         12    1    3    3    0    0 -0.16890722927E+02 -0.13028123275E+02 -0.18364568817E+02  0.28147573695E+02  0.00000000000E+00 0. -1.
</event>
<event>
 7    1  0.3435518E-013  0.7246120E+02  0.7816164E-02  0.1226709E+00
        -11   -1    0    0    0    0  0.00000000000E+00  0.00000000000E+00  0.45593999997E+02  0.45594000000E+02  0.51100000000E-03 0.  1.
         11   -1    0    0    0    0 -0.00000000000E+00 -0.00000000000E+00 -0.45593999997E+02  0.45594000000E+02  0.51100000000E-03 0. -1.
    9900012    2    1    2    0    0 -0.15110964180E+02  0.11046077832E+02  0.57956060907E+00  0.72461201971E+02  0.69999520189E+02 0.  0.
        -12    1    1    2    0    0  0.15110964180E+02 -0.11046077832E+02 -0.57956060907E+00  0.18726798029E+02  0.00000000000E+00 0.  1.
         11    1    3    3    0    0  0.76217302450E+01 -0.11742327692E+02  0.89187076626E+01  0.16598686038E+02  0.51100000000E-03 0. -1.
        -11    1    3    3    0    0  0.40104167546E+01  0.10600628339E+02  0.14669487898E+02  0.18537816462E+02  0.51100000000E-03 0.  1.
         12    1    3    3    0    0 -0.26743111179E+02  0.12187777186E+02 -0.23008634952E+02  0.37324699471E+02  0.00000000000E+00 0. -1.
</event>
<event>
 7    1  0.3435518E-013  0.7246157E+02  0.7816164E-02  0.1226708E+00
        -11   -1    0    0    0    0  0.00000000000E+00  0.00000000000E+00  0.45593999997E+02  0.45594000000E+02  0.51100000000E-03 0. -1.
         11   -1    0    0    0    0 -0.00000000000E+00 -0.00000000000E+00 -0.45593999997E+02  0.45594000000E+02  0.51100000000E-03 0.  1.
    9900012    2    1    2    0    0 -0.16995694650E+02 -0.36102012576E+01  0.69851317980E+01  0.72461567986E+02  0.69999996993E+02 0.  0.
        -12    1    1    2    0    0  0.16995694650E+02  0.36102012576E+01 -0.69851317980E+01  0.18726432014E+02  0.00000000000E+00 0.  1.
         11    1    3    3    0    0  0.15097496166E+02 -0.61898531748E+01  0.94028087658E+01  0.18832458304E+02  0.51100000000E-03 0. -1.
        -11    1    3    3    0    0 -0.11602305294E+02 -0.94517890587E+01  0.17211854054E+02  0.22807843492E+02  0.51100000000E-03 0.  1.
        -12    1    3    3    0    0 -0.20490885522E+02  0.12031440976E+02 -0.19629531021E+02  0.30821266190E+02  0.00000000000E+00 0.  1.
</event>
<event>
 7    1  0.3435518E-013  0.7246157E+02  0.7816164E-02  0.1226708E+00
        -11   -1    0    0    0    0  0.00000000000E+00  0.00000000000E+00  0.45593999997E+02  0.45594000000E+02  0.51100000000E-03 0.  1.
         11   -1    0    0    0    0 -0.00000000000E+00 -0.00000000000E+00 -0.45593999997E+02  0.45594000000E+02  0.51100000000E-03 0. -1.
    9900012    2    1    2    0    0 -0.10792375175E+02 -0.96236632464E+01 -0.11899110791E+02  0.72461572316E+02  0.70000002633E+02 0.  0.
        -12    1    1    2    0    0  0.10792375175E+02  0.96236632464E+01  0.11899110791E+02  0.18726427684E+02  0.00000000000E+00 0.  1.
         11    1    3    3    0    0 -0.15357223045E+02 -0.12520269858E+02 -0.17253843082E+02  0.26273495358E+02  0.51100000000E-03 0. -1.
        -11    1    3    3    0    0 -0.19935447538E+02  0.27292695242E+01 -0.29101454521E+01  0.20330763081E+02  0.51100000000E-03 0.  1.
        -12    1    3    3    0    0  0.24500295408E+02  0.16733708718E+00  0.82648777430E+01  0.25857313876E+02  0.00000000000E+00 0.  1.
</event>
<event>
 7    1  0.3435518E-013  0.7246156E+02  0.7816164E-02  0.1226708E+00
        -11   -1    0    0    0    0  0.00000000000E+00  0.00000000000E+00  0.45593999997E+02  0.45594000000E+02  0.51100000000E-03 0. -1.
         11   -1    0    0    0    0 -0.00000000000E+00 -0.00000000000E+00 -0.45593999997E+02  0.45594000000E+02  0.51100000000E-03 0.  1.
    9900012    2    1    2    0    0  0.28204985055E+01  0.94993804070E+01  0.15889805963E+02  0.72461564849E+02  0.69999992906E+02 0.  0.
        -12    1    1    2    0    0 -0.28204985055E+01 -0.94993804070E+01 -0.15889805963E+02  0.18726435151E+02  0.00000000000E+00 0.  1.
         11    1    3    3    0    0 -0.83412704541E+01  0.63835170103E+01  0.32251096434E+02  0.33918421303E+02  0.51100000000E-03 0. -1.
        -11    1    3    3    0    0  0.62814070196E+00  0.17065822971E+02 -0.10772666405E+02  0.20191265839E+02  0.51100000000E-03 0.  1.
        -12    1    3    3    0    0  0.10533628258E+02 -0.13949959575E+02 -0.55886240661E+01  0.18351877707E+02  0.00000000000E+00 0.  1.
</event>
<event>
 7    1  0.3435518E-013  0.7246158E+02  0.7816164E-02  0.1226708E+00
        -11   -1    0    0    0    0  0.00000000000E+00  0.00000000000E+00  0.45593999997E+02  0.45594000000E+02  0.51100000000E-03 0. -1.
         11   -1    0    0    0    0 -0.00000000000E+00 -0.00000000000E+00 -0.45593999997E+02  0.45594000000E+02  0.51100000000E-03 0.  1.
    9900012    2    1    2    0    0 -0.39310872216E+01 -0.17993283784E+02  0.33862955439E+01  0.72461582681E+02  0.70000016136E+02 0.  0.
        -12    1    1    2    0    0  0.39310872216E+01  0.17993283784E+02 -0.33862955439E+01  0.18726417319E+02  0.00000000000E+00 0.  1.
         11    1    3    3    0    0 -0.14857714776E+02  0.40799968878E+01 -0.12062551138E+02  0.19567912591E+02  0.51100000000E-03 0. -1.
        -11    1    3    3    0    0  0.16266328739E+02 -0.12073784584E+02 -0.11755934432E+02  0.23421607960E+02  0.51100000000E-03 0.  1.
        -12    1    3    3    0    0 -0.53397011848E+01 -0.99994960884E+01  0.27204781113E+02  0.29472062130E+02  0.00000000000E+00 0.  1.
</event>
<event>
 7    1  0.3435518E-013  0.7246157E+02  0.7816164E-02  0.1226708E+00
        -11   -1    0    0    0    0  0.00000000000E+00  0.00000000000E+00  0.45593999997E+02  0.45594000000E+02  0.51100000000E-03 0. -1.
         11   -1    0    0    0    0 -0.00000000000E+00 -0.00000000000E+00 -0.45593999997E+02  0.45594000000E+02  0.51100000000E-03 0.  1.
    9900012    2    1    2    0    0  0.18551247621E+02 -0.25542556311E+01  0.79344704285E-01  0.72461566658E+02  0.69999995263E+02 0.  0.
        -12    1    1    2    0    0 -0.18551247621E+02  0.25542556311E+01 -0.79344704285E-01  0.18726433342E+02  0.00000000000E+00 0.  1.
         11    1    3    3    0    0  0.12970509945E+02 -0.14156183824E+02  0.25895651428E+02  0.32236879995E+02  0.51100000000E-03 0. -1.
        -11    1    3    3    0    0  0.89981652007E+01 -0.58460845768E+01 -0.27058420507E+01  0.11066402456E+02  0.51100000000E-03 0.  1.
        -12    1    3    3    0    0 -0.34174275249E+01  0.17448012770E+02 -0.23110464673E+02  0.29158284207E+02  0.00000000000E+00 0.  1.
</event>
<event>
 7    1  0.3435518E-013  0.7246153E+02  0.7816164E-02  0.1226708E+00
        -11   -1    0    0    0    0  0.00000000000E+00  0.00000000000E+00  0.45593999997E+02  0.45594000000E+02  0.51100000000E-03 0.  1.
         11   -1    0    0    0    0 -0.00000000000E+00 -0.00000000000E+00 -0.45593999997E+02  0.45594000000E+02  0.51100000000E-03 0. -1.
    9900012    2    1    2    0    0 -0.15066768258E+01  0.10924003436E+02 -0.15135276802E+02  0.72461533969E+02  0.69999952680E+02 0.  0.
        -12    1    1    2    0    0  0.15066768258E+01 -0.10924003436E+02  0.15135276802E+02  0.18726466031E+02  0.00000000000E+00 0.  1.
         11    1    3    3    0    0  0.18681963663E+02  0.18038267771E+02  0.10337151655E+02  0.27950877895E+02  0.51100000000E-03 0. -1.
        -11    1    3    3    0    0 -0.17511092096E+00 -0.35623424481E+01  0.60382334869E+01  0.70129317305E+01  0.51100000000E-03 0.  1.
        -12    1    3    3    0    0 -0.20013529568E+02 -0.35519218874E+01 -0.31510661944E+02  0.37497724344E+02  0.00000000000E+00 0.  1.
</event>
<event>
 7    1  0.3435518E-013  0.7246155E+02  0.7816164E-02  0.1226708E+00
        -11   -1    0    0    0    0  0.00000000000E+00  0.00000000000E+00  0.45593999997E+02  0.45594000000E+02  0.51100000000E-03 0.  1.
         11   -1    0    0    0    0 -0.00000000000E+00 -0.00000000000E+00 -0.45593999997E+02  0.45594000000E+02  0.51100000000E-03 0. -1.
    9900012    2    1    2    0    0 -0.18337843390E+02 -0.37808441893E+01 -0.32953570699E+00  0.72461551411E+02  0.69999975401E+02 0.  0.
        -12    1    1    2    0    0  0.18337843390E+02  0.37808441893E+01  0.32953570699E+00  0.18726448589E+02  0.00000000000E+00 0.  1.
         11    1    3    3    0    0 -0.75050410081E+01  0.35021769086E+01  0.41351694142E+01  0.92569168722E+01  0.51100000000E-03 0. -1.
        -11    1    3    3    0    0  0.13128376352E+02  0.12369333951E+02  0.17569489357E+02  0.25180183569E+02  0.51100000000E-03 0.  1.
         12    1    3    3    0    0 -0.23961178734E+02 -0.19652355049E+02 -0.22034194478E+02  0.38024450970E+02  0.00000000000E+00 0. -1.
</event>
<event>
 7    1  0.3435518E-013  0.7246158E+02  0.7816164E-02  0.1226708E+00
        -11   -1    0    0    0    0  0.00000000000E+00  0.00000000000E+00  0.45593999997E+02  0.45594000000E+02  0.51100000000E-03 0.  1.
         11   -1    0    0    0    0 -0.00000000000E+00 -0.00000000000E+00 -0.45593999997E+02  0.45594000000E+02  0.51100000000E-03 0. -1.
    9900012    2    1    2    0    0  0.15903160410E+02  0.37953458758E+01 -0.91303723200E+01  0.72461578557E+02  0.70000010764E+02 0.  0.
        -12    1    1    2    0    0 -0.15903160410E+02 -0.37953458758E+01  0.91303723200E+01  0.18726421443E+02  0.00000000000E+00 0.  1.
         11    1    3    3    0    0  0.23272583843E+02  0.14614785246E+02 -0.11325384735E+02  0.29723213927E+02  0.51100000000E-03 0. -1.
        -11    1    3    3    0    0 -0.12924285848E+02  0.12723584000E+02 -0.17838038451E+01  0.18223850058E+02  0.51100000000E-03 0.  1.
        -12    1    3    3    0    0  0.55548624155E+01 -0.23543023371E+02  0.39788162601E+01  0.24514514573E+02  0.00000000000E+00 0.  1.
</event>
<event>
 7    1  0.3435518E-013  0.7246163E+02  0.7816164E-02  0.1226708E+00
        -11   -1    0    0    0    0  0.00000000000E+00  0.00000000000E+00  0.45593999997E+02  0.45594000000E+02  0.51100000000E-03 0.  1.
         11   -1    0    0    0    0 -0.00000000000E+00 -0.00000000000E+00 -0.45593999997E+02  0.45594000000E+02  0.51100000000E-03 0. -1.
    9900012    2    1    2    0    0 -0.22557154569E+01 -0.13306455425E+02 -0.12981789004E+02  0.72461632121E+02  0.70000080541E+02 0.  0.
        -12    1    1    2    0    0  0.22557154569E+01  0.13306455425E+02  0.12981789004E+02  0.18726367879E+02  0.00000000000E+00 0.  1.
         11    1    3    3    0    0 -0.64548025115E+01  0.17814187545E+02  0.20580087884E+01  0.19058991416E+02  0.51100000000E-03 0. -1.
        -11    1    3    3    0    0  0.60983526591E+01 -0.24635457417E+02  0.10141557037E+02  0.27330328331E+02  0.51100000000E-03 0.  1.
        -12    1    3    3    0    0 -0.18992656045E+01 -0.64851855527E+01 -0.25181354829E+02  0.26072312374E+02  0.00000000000E+00 0.  1.
</event>
<event>
 7    1  0.3435518E-013  0.7246155E+02  0.7816164E-02  0.1226708E+00
        -11   -1    0    0    0    0  0.00000000000E+00  0.00000000000E+00  0.45593999997E+02  0.45594000000E+02  0.51100000000E-03 0.  1.
         11   -1    0    0    0    0 -0.00000000000E+00 -0.00000000000E+00 -0.45593999997E+02  0.45594000000E+02  0.51100000000E-03 0. -1.
    9900012    2    1    2    0    0  0.82053693154E-01  0.18725358803E+02 -0.18492949620E+00  0.72461548280E+02  0.69999971322E+02 0.  0.
        -12    1    1    2    0    0 -0.82053693154E-01 -0.18725358803E+02  0.18492949620E+00  0.18726451720E+02  0.00000000000E+00 0.  1.
         11    1    3    3    0    0 -0.26895396214E+02  0.63089189134E+01 -0.73019910212E+01  0.28574181852E+02  0.51100000000E-03 0. -1.
        -11    1    3    3    0    0  0.28254781309E+01 -0.99305142257E+01  0.28249132465E+01  0.10704138198E+02  0.51100000000E-03 0.  1.
        -12    1    3    3    0    0  0.24151971776E+02  0.22346954115E+02  0.42921482786E+01  0.33183228230E+02  0.00000000000E+00 0.  1.
</event>
<event>
 7    1  0.3435518E-013  0.7246151E+02  0.7816164E-02  0.1226708E+00
        -11   -1    0    0    0    0  0.00000000000E+00  0.00000000000E+00  0.45593999997E+02  0.45594000000E+02  0.51100000000E-03 0.  1.
         11   -1    0    0    0    0 -0.00000000000E+00 -0.00000000000E+00 -0.45593999997E+02  0.45594000000E+02  0.51100000000E-03 0. -1.
    9900012    2    1    2    0    0 -0.77231089890E+00 -0.16473149573E+02 -0.88724495443E+01  0.72461508554E+02  0.69999919571E+02 0.  0.
        -12    1    1    2    0    0  0.77231089890E+00  0.16473149573E+02  0.88724495443E+01  0.18726491446E+02  0.00000000000E+00 0.  1.
         11    1    3    3    0    0 -0.50295444212E+01 -0.27750496881E+01 -0.57975268553E+01  0.81614052562E+01  0.51100000000E-03 0. -1.
        -11    1    3    3    0    0  0.21219967063E+02  0.66477643837E+01 -0.22359487075E+02  0.31534527680E+02  0.51100000000E-03 0.  1.
         12    1    3    3    0    0 -0.16962733541E+02 -0.20345864268E+02  0.19284564386E+02  0.32765575618E+02  0.00000000000E+00 0. -1.
</event>
<event>
 7    1  0.3435518E-013  0.7246159E+02  0.7816164E-02  0.1226708E+00
        -11   -1    0    0    0    0  0.00000000000E+00  0.00000000000E+00  0.45593999997E+02  0.45594000000E+02  0.51100000000E-03 0.  1.
         11   -1    0    0    0    0 -0.00000000000E+00 -0.00000000000E+00 -0.45593999997E+02  0.45594000000E+02  0.51100000000E-03 0. -1.
    9900012    2    1    2    0    0  0.83607896265E+01  0.15386167896E+02  0.66363717806E+01  0.72461590945E+02  0.70000026901E+02 0.  0.
        -12    1    1    2    0    0 -0.83607896265E+01 -0.15386167896E+02 -0.66363717806E+01  0.18726409055E+02  0.00000000000E+00 0.  1.
         11    1    3    3    0    0  0.61398728028E+01 -0.18649776199E+01  0.13730278819E+02  0.15155749281E+02  0.51100000000E-03 0. -1.
        -11    1    3    3    0    0  0.26089712461E+02  0.25759595343E+01 -0.12047193984E+02  0.28852097792E+02  0.51100000000E-03 0.  1.
         12    1    3    3    0    0 -0.23868795637E+02  0.14675185981E+02  0.49532869457E+01  0.28453743872E+02  0.00000000000E+00 0. -1.
</event>
<event>
 7    1  0.3435518E-013  0.7246154E+02  0.7816164E-02  0.1226708E+00
        -11   -1    0    0    0    0  0.00000000000E+00  0.00000000000E+00  0.45593999997E+02  0.45594000000E+02  0.51100000000E-03 0.  1.
         11   -1    0    0    0    0 -0.00000000000E+00 -0.00000000000E+00 -0.45593999997E+02  0.45594000000E+02  0.51100000000E-03 0. -1.
    9900012    2    1    2    0    0 -0.42112576414E+00 -0.50596766257E+01 -0.18025060471E+02  0.72461535319E+02  0.69999954438E+02 0.  0.
        -12    1    1    2    0    0  0.42112576414E+00  0.50596766257E+01  0.18025060471E+02  0.18726464681E+02  0.00000000000E+00 0.  1.
         11    1    3    3    0    0  0.35918676379E+01 -0.19359289278E+01 -0.10105488212E+02  0.10898175361E+02  0.51100000000E-03 0. -1.
        -11    1    3    3    0    0  0.26661178539E+02  0.78171921779E+01  0.98473565786E+00  0.27801018672E+02  0.51100000000E-03 0.  1.
         12    1    3    3    0    0 -0.30674171941E+02 -0.10940939876E+02 -0.89043079173E+01  0.33762341286E+02  0.00000000000E+00 0. -1.
</event>
<event>
 7    1  0.3435518E-013  0.7246165E+02  0.7816164E-02  0.1226708E+00
        -11   -1    0    0    0    0  0.00000000000E+00  0.00000000000E+00  0.45593999997E+02  0.45594000000E+02  0.51100000000E-03 0. -1.
         11   -1    0    0    0    0 -0.00000000000E+00 -0.00000000000E+00 -0.45593999997E+02  0.45594000000E+02  0.51100000000E-03 0.  1.
    9900012    2    1    2    0    0 -0.13263314936E+02 -0.31607470247E+01  0.12836293418E+02  0.72461647618E+02  0.70000100728E+02 0.  0.
        -12    1    1    2    0    0  0.13263314936E+02  0.31607470247E+01 -0.12836293418E+02  0.18726352382E+02  0.00000000000E+00 0.  1.
         11    1    3    3    0    0  0.63250878124E+00 -0.15445322779E+02  0.19041428054E+02  0.24526191015E+02  0.51100000000E-03 0. -1.
        -11    1    3    3    0    0 -0.23953550955E+02 -0.32636480517E+01 -0.13896070833E+02  0.27884131452E+02  0.51100000000E-03 0.  1.
         12    1    3    3    0    0  0.10057727238E+02  0.15548223806E+02  0.76909361969E+01  0.20051325151E+02  0.00000000000E+00 0. -1.
</event>
<event>
 7    1  0.3435518E-013  0.7246157E+02  0.7816164E-02  0.1226708E+00
        -11   -1    0    0    0    0  0.00000000000E+00  0.00000000000E+00  0.45593999997E+02  0.45594000000E+02  0.51100000000E-03 0. -1.
         11   -1    0    0    0    0 -0.00000000000E+00 -0.00000000000E+00 -0.45593999997E+02  0.45594000000E+02  0.51100000000E-03 0.  1.
    9900012    2    1    2    0    0  0.55772987523E+01 -0.90516936075E+01  0.15415565122E+02  0.72461573043E+02  0.70000003581E+02 0.  0.
        -12    1    1    2    0    0 -0.55772987523E+01  0.90516936075E+01 -0.15415565122E+02  0.18726426957E+02  0.00000000000E+00 0.  1.
         11    1    3    3    0    0  0.17564082604E+02  0.85529592100E+00  0.82196536369E+01  0.19411111122E+02  0.51100000000E-03 0. -1.
        -11    1    3    3    0    0  0.16946433049E+02 -0.15543978896E+02  0.46719630229E+01  0.23465381134E+02  0.51100000000E-03 0.  1.
        -12    1    3    3    0    0 -0.28933216901E+02  0.56369893670E+01  0.25239484624E+01  0.29585080787E+02  0.00000000000E+00 0.  1.
</event>
<event>
 7    1  0.3435518E-013  0.7246157E+02  0.7816164E-02  0.1226708E+00
        -11   -1    0    0    0    0  0.00000000000E+00  0.00000000000E+00  0.45593999997E+02  0.45594000000E+02  0.51100000000E-03 0. -1.
         11   -1    0    0    0    0 -0.00000000000E+00 -0.00000000000E+00 -0.45593999997E+02  0.45594000000E+02  0.51100000000E-03 0.  1.
    9900012    2    1    2    0    0 -0.60057335231E+01  0.15069300192E+02 -0.93555605279E+01  0.72461570650E+02  0.70000000463E+02 0.  0.
        -12    1    1    2    0    0  0.60057335231E+01 -0.15069300192E+02  0.93555605279E+01  0.18726429350E+02  0.00000000000E+00 0.  1.
         11    1    3    3    0    0  0.20875058181E+02  0.87308350636E+01 -0.51104191291E+01  0.23197239467E+02  0.51100000000E-03 0. -1.
        -11    1    3    3    0    0 -0.10333073959E+02 -0.10929800905E+02 -0.16553321102E+02  0.22366166525E+02  0.51100000000E-03 0.  1.
         12    1    3    3    0    0 -0.16547717745E+02  0.17268266034E+02  0.12308179703E+02  0.26898164658E+02  0.00000000000E+00 0. -1.
</event>
<event>
 7    1  0.3435518E-013  0.7246152E+02  0.7816164E-02  0.1226708E+00
        -11   -1    0    0    0    0  0.00000000000E+00  0.00000000000E+00  0.45593999997E+02  0.45594000000E+02  0.51100000000E-03 0. -1.
         11   -1    0    0    0    0 -0.00000000000E+00 -0.00000000000E+00 -0.45593999997E+02  0.45594000000E+02  0.51100000000E-03 0.  1.
    9900012    2    1    2    0    0  0.48445059803E+01  0.17981317581E+02 -0.19707587049E+01  0.72461523822E+02  0.69999939462E+02 0.  0.
        -12    1    1    2    0    0 -0.48445059803E+01 -0.17981317581E+02  0.19707587049E+01  0.18726476178E+02  0.00000000000E+00 0.  1.
         11    1    3    3    0    0  0.12549257320E+02  0.27806109178E+02  0.94388420654E+01  0.31933607794E+02  0.51100000000E-03 0. -1.
        -11    1    3    3    0    0  0.39174373414E+01  0.12822787019E+02 -0.32440602214E+01  0.13794713090E+02  0.51100000000E-03 0.  1.
        -12    1    3    3    0    0 -0.11622188682E+02 -0.22647578616E+02 -0.81655405489E+01  0.26733202939E+02  0.00000000000E+00 0.  1.
</event>
<event>
 7    1  0.3435518E-013  0.7246226E+02  0.7816164E-02  0.1226706E+00
        -11   -1    0    0    0    0  0.00000000000E+00  0.00000000000E+00  0.45593999997E+02  0.45594000000E+02  0.51100000000E-03 0. -1.
         11   -1    0    0    0    0 -0.00000000000E+00 -0.00000000000E+00 -0.45593999997E+02  0.45594000000E+02  0.51100000000E-03 0.  1.
    9900012    2    1    2    0    0 -0.61084083156E+00  0.99335384702E+01  0.15862059298E+02  0.72462262678E+02  0.70000901953E+02 0.  0.
        -12    1    1    2    0    0  0.61084083156E+00 -0.99335384702E+01 -0.15862059298E+02  0.18725737322E+02  0.00000000000E+00 0.  1.
         11    1    3    3    0    0 -0.22138524015E+02  0.61096487025E+01  0.78379377776E+00  0.22979477491E+02  0.51100000000E-03 0. -1.
        -11    1    3    3    0    0 -0.10174517913E+02 -0.57759328302E+01  0.11088683883E+02  0.16119588250E+02  0.51100000000E-03 0.  1.
        -12    1    3    3    0    0  0.31702201096E+02  0.95998225980E+01  0.39895816370E+01  0.33363196937E+02  0.00000000000E+00 0.  1.
</event>
<event>
 7    1  0.3435518E-013  0.7246154E+02  0.7816164E-02  0.1226708E+00
        -11   -1    0    0    0    0  0.00000000000E+00  0.00000000000E+00  0.45593999997E+02  0.45594000000E+02  0.51100000000E-03 0. -1.
         11   -1    0    0    0    0 -0.00000000000E+00 -0.00000000000E+00 -0.45593999997E+02  0.45594000000E+02  0.51100000000E-03 0.  1.
    9900012    2    1    2    0    0  0.11367404669E+02  0.14774972687E+02  0.17783843040E+01  0.72461538574E+02  0.69999958678E+02 0.  0.
        -12    1    1    2    0    0 -0.11367404669E+02 -0.14774972687E+02 -0.17783843040E+01  0.18726461426E+02  0.00000000000E+00 0.  1.
         11    1    3    3    0    0  0.22676539221E+02  0.32098727737E+02 -0.97850591870E+01  0.40500631315E+02  0.51100000000E-03 0. -1.
        -11    1    3    3    0    0 -0.64365315693E+00  0.32282632671E+01 -0.31261654485E+01  0.45397008470E+01  0.51100000000E-03 0.  1.
        -12    1    3    3    0    0 -0.10665481395E+02 -0.20552018317E+02  0.14689608940E+02  0.27421206412E+02  0.00000000000E+00 0.  1.
</event>
<event>
 7    1  0.3435518E-013  0.7246155E+02  0.7816164E-02  0.1226708E+00
        -11   -1    0    0    0    0  0.00000000000E+00  0.00000000000E+00  0.45593999997E+02  0.45594000000E+02  0.51100000000E-03 0.  1.
         11   -1    0    0    0    0 -0.00000000000E+00 -0.00000000000E+00 -0.45593999997E+02  0.45594000000E+02  0.51100000000E-03 0. -1.
    9900012    2    1    2    0    0  0.77812557336E+01 -0.16557682317E+02 -0.39968842665E+01  0.72461551636E+02  0.69999975694E+02 0.  0.
        -12    1    1    2    0    0 -0.77812557336E+01  0.16557682317E+02  0.39968842665E+01  0.18726448364E+02  0.00000000000E+00 0.  1.
         11    1    3    3    0    0  0.11779303195E+02  0.92367610833E+01  0.12789482979E+01  0.15023496533E+02  0.51100000000E-03 0. -1.
        -11    1    3    3    0    0 -0.24361852715E+02 -0.20582078297E+02  0.76030523370E+01  0.32786097966E+02  0.51100000000E-03 0.  1.
         12    1    3    3    0    0  0.20363805253E+02 -0.52123651036E+01 -0.12878884901E+02  0.24651957137E+02  0.00000000000E+00 0. -1.
</event>
<event>
 7    1  0.3435518E-013  0.7246155E+02  0.7816164E-02  0.1226708E+00
        -11   -1    0    0    0    0  0.00000000000E+00  0.00000000000E+00  0.45593999997E+02  0.45594000000E+02  0.51100000000E-03 0. -1.
         11   -1    0    0    0    0 -0.00000000000E+00 -0.00000000000E+00 -0.45593999997E+02  0.45594000000E+02  0.51100000000E-03 0.  1.
    9900012    2    1    2    0    0  0.83642206749E+01  0.15994466648E+02  0.49896845282E+01  0.72461545383E+02  0.69999967548E+02 0.  0.
        -12    1    1    2    0    0 -0.83642206749E+01 -0.15994466648E+02 -0.49896845282E+01  0.18726454617E+02  0.00000000000E+00 0.  1.
         11    1    3    3    0    0 -0.10333030734E+02  0.14294847038E+02  0.10186547563E+02  0.20368601511E+02  0.51100000000E-03 0. -1.
        -11    1    3    3    0    0 -0.18591777399E+01  0.81859657048E+01  0.18344390767E+02  0.20173825846E+02  0.51100000000E-03 0.  1.
        -12    1    3    3    0    0  0.20556429148E+02 -0.64863460953E+01 -0.23541253802E+02  0.31919118026E+02  0.00000000000E+00 0.  1.
</event>
<event>
 7    1  0.3435518E-013  0.7246157E+02  0.7816164E-02  0.1226708E+00
        -11   -1    0    0    0    0  0.00000000000E+00  0.00000000000E+00  0.45593999997E+02  0.45594000000E+02  0.51100000000E-03 0.  1.
         11   -1    0    0    0    0 -0.00000000000E+00 -0.00000000000E+00 -0.45593999997E+02  0.45594000000E+02  0.51100000000E-03 0. -1.
    9900012    2    1    2    0    0  0.85546077053E+01  0.16284862288E+02  0.35072856784E+01  0.72461572002E+02  0.70000002225E+02 0.  0.
        -12    1    1    2    0    0 -0.85546077053E+01 -0.16284862288E+02 -0.35072856784E+01  0.18726427998E+02  0.00000000000E+00 0.  1.
         11    1    3    3    0    0 -0.36562282453E+01  0.86943678916E+01 -0.17425618558E+02  0.19814444741E+02  0.51100000000E-03 0. -1.
        -11    1    3    3    0    0  0.22474902800E+02  0.20381195339E+02  0.70217218640E+01  0.31141916407E+02  0.51100000000E-03 0.  1.
        -12    1    3    3    0    0 -0.10264066849E+02 -0.12790700942E+02  0.13911182372E+02  0.21505210854E+02  0.00000000000E+00 0.  1.
</event>
<event>
 7    1  0.3435518E-013  0.7246159E+02  0.7816164E-02  0.1226708E+00
        -11   -1    0    0    0    0  0.00000000000E+00  0.00000000000E+00  0.45593999997E+02  0.45594000000E+02  0.51100000000E-03 0. -1.
         11   -1    0    0    0    0 -0.00000000000E+00 -0.00000000000E+00 -0.45593999997E+02  0.45594000000E+02  0.51100000000E-03 0.  1.
    9900012    2    1    2    0    0 -0.14047030748E+02 -0.59413935051E+01  0.10865508708E+02  0.72461587928E+02  0.70000022971E+02 0.  0.
        -12    1    1    2    0    0  0.14047030748E+02  0.59413935051E+01 -0.10865508708E+02  0.18726412072E+02  0.00000000000E+00 0.  1.
         11    1    3    3    0    0  0.20861205359E+02 -0.92838748499E+00  0.13317565346E+02  0.24767101957E+02  0.51100000000E-03 0. -1.
        -11    1    3    3    0    0 -0.19234758985E+02 -0.34313308336E+01  0.14666531077E+02  0.24430659398E+02  0.51100000000E-03 0.  1.
        -12    1    3    3    0    0 -0.15673477121E+02 -0.15816751865E+01 -0.17118587715E+02  0.23263826573E+02  0.00000000000E+00 0.  1.
</event>
<event>
 7    1  0.3435518E-013  0.7246164E+02  0.7816164E-02  0.1226708E+00
        -11   -1    0    0    0    0  0.00000000000E+00  0.00000000000E+00  0.45593999997E+02  0.45594000000E+02  0.51100000000E-03 0.  1.
         11   -1    0    0    0    0 -0.00000000000E+00 -0.00000000000E+00 -0.45593999997E+02  0.45594000000E+02  0.51100000000E-03 0. -1.
    9900012    2    1    2    0    0 -0.12910936450E+02 -0.81756624282E+01 -0.10823259543E+02  0.72461636678E+02  0.70000086477E+02 0.  0.
        -12    1    1    2    0    0  0.12910936450E+02  0.81756624282E+01  0.10823259543E+02  0.18726363322E+02  0.00000000000E+00 0.  1.
         11    1    3    3    0    0 -0.13302157109E+02 -0.59299926738E+01 -0.56953692386E+01  0.15638076221E+02  0.51100000000E-03 0. -1.
        -11    1    3    3    0    0 -0.17850332613E+02  0.20268627906E+02 -0.66222427992E+01  0.27808375565E+02  0.51100000000E-03 0.  1.
         12    1    3    3    0    0  0.18241553272E+02 -0.22514297661E+02  0.14943524950E+01  0.29015184892E+02  0.00000000000E+00 0. -1.
</event>
<event>
 7    1  0.3435518E-013  0.7246158E+02  0.7816164E-02  0.1226708E+00
        -11   -1    0    0    0    0  0.00000000000E+00  0.00000000000E+00  0.45593999997E+02  0.45594000000E+02  0.51100000000E-03 0.  1.
         11   -1    0    0    0    0 -0.00000000000E+00 -0.00000000000E+00 -0.45593999997E+02  0.45594000000E+02  0.51100000000E-03 0. -1.
    9900012    2    1    2    0    0 -0.99288806250E+00  0.65310661338E+01 -0.17522508490E+02  0.72461576013E+02  0.70000007450E+02 0.  0.
        -12    1    1    2    0    0  0.99288806250E+00 -0.65310661338E+01  0.17522508490E+02  0.18726423987E+02  0.00000000000E+00 0.  1.
         11    1    3    3    0    0 -0.15363307935E+02 -0.25880852082E+02 -0.11795302570E+01  0.30120442013E+02  0.51100000000E-03 0. -1.
        -11    1    3    3    0    0  0.63656589087E+00  0.13866737950E+02  0.30706858101E+00  0.13884737264E+02  0.51100000000E-03 0.  1.
        -12    1    3    3    0    0  0.13733853982E+02  0.18545180265E+02 -0.16650046814E+02  0.28456396736E+02  0.00000000000E+00 0.  1.
</event>
<event>
 7    1  0.3435518E-013  0.7246164E+02  0.7816164E-02  0.1226708E+00
        -11   -1    0    0    0    0  0.00000000000E+00  0.00000000000E+00  0.45593999997E+02  0.45594000000E+02  0.51100000000E-03 0. -1.
         11   -1    0    0    0    0 -0.00000000000E+00 -0.00000000000E+00 -0.45593999997E+02  0.45594000000E+02  0.51100000000E-03 0.  1.
    9900012    2    1    2    0    0 -0.14711982163E+01 -0.17428822149E+02  0.66894271078E+01  0.72461636212E+02  0.70000085870E+02 0.  0.
        -12    1    1    2    0    0  0.14711982163E+01  0.17428822149E+02 -0.66894271078E+01  0.18726363788E+02  0.00000000000E+00 0.  1.
         11    1    3    3    0    0 -0.12829160359E+00  0.10897148812E+01 -0.18621685386E+02  0.18653983599E+02  0.51100000000E-03 0.  1.
        -11    1    3    3    0    0  0.20581411619E+02 -0.41901360909E+01  0.14221934508E+02  0.25365629622E+02  0.51100000000E-03 0. -1.
         12    1    3    3    0    0 -0.21924318232E+02 -0.14328400939E+02  0.11089177986E+02  0.28442022991E+02  0.00000000000E+00 0. -1.
</event>
<event>
 7    1  0.3435518E-013  0.7246150E+02  0.7816164E-02  0.1226708E+00
        -11   -1    0    0    0    0  0.00000000000E+00  0.00000000000E+00  0.45593999997E+02  0.45594000000E+02  0.51100000000E-03 0.  1.
         11   -1    0    0    0    0 -0.00000000000E+00 -0.00000000000E+00 -0.45593999997E+02  0.45594000000E+02  0.51100000000E-03 0. -1.
    9900012    2    1    2    0    0  0.17028179736E+02 -0.32413639929E+01 -0.70863641353E+01  0.72461497328E+02  0.69999904948E+02 0.  0.
        -12    1    1    2    0    0 -0.17028179736E+02  0.32413639929E+01  0.70863641353E+01  0.18726502672E+02  0.00000000000E+00 0.  1.
         11    1    3    3    0    0  0.19639941621E+02  0.15852727074E+02  0.10604029127E+01  0.25261843107E+02  0.51100000000E-03 0. -1.
        -11    1    3    3    0    0 -0.37401993239E+01  0.13040550183E+02 -0.63936235475E+01  0.14997448529E+02  0.51100000000E-03 0.  1.
        -12    1    3    3    0    0  0.11284374390E+01 -0.32134641250E+02 -0.17531435005E+01  0.32202205692E+02  0.00000000000E+00 0.  1.
</event>
<event>
 7    1  0.3435518E-013  0.7246165E+02  0.7816164E-02  0.1226708E+00
        -11   -1    0    0    0    0  0.00000000000E+00  0.00000000000E+00  0.45593999997E+02  0.45594000000E+02  0.51100000000E-03 0. -1.
         11   -1    0    0    0    0 -0.00000000000E+00 -0.00000000000E+00 -0.45593999997E+02  0.45594000000E+02  0.51100000000E-03 0.  1.
    9900012    2    1    2    0    0  0.17500138101E+02 -0.66438178427E+01  0.53019186976E+00  0.72461648180E+02  0.70000101461E+02 0.  0.
        -12    1    1    2    0    0 -0.17500138101E+02  0.66438178427E+01 -0.53019186976E+00  0.18726351820E+02  0.00000000000E+00 0.  1.
         11    1    3    3    0    0  0.34622332044E+02  0.25180567710E+01 -0.19908981695E+02  0.40017671577E+02  0.51100000000E-03 0. -1.
        -11    1    3    3    0    0 -0.89060567896E-01 -0.70931827550E+01  0.10323463025E+02  0.12525775923E+02  0.51100000000E-03 0.  1.
        -12    1    3    3    0    0 -0.17033133376E+02 -0.20686918587E+01  0.10115710540E+02  0.19918200680E+02  0.00000000000E+00 0.  1.
</event>
<event>
 7    1  0.3435518E-013  0.7246145E+02  0.7816164E-02  0.1226708E+00
        -11   -1    0    0    0    0  0.00000000000E+00  0.00000000000E+00  0.45593999997E+02  0.45594000000E+02  0.51100000000E-03 0.  1.
         11   -1    0    0    0    0 -0.00000000000E+00 -0.00000000000E+00 -0.45593999997E+02  0.45594000000E+02  0.51100000000E-03 0. -1.
    9900012    2    1    2    0    0  0.13386309895E+02  0.13082987370E+02  0.57094683260E+00  0.72461445821E+02  0.69999837851E+02 0.  0.
        -12    1    1    2    0    0 -0.13386309895E+02 -0.13082987370E+02 -0.57094683260E+00  0.18726554179E+02  0.00000000000E+00 0.  1.
         11    1    3    3    0    0  0.12314009218E+02 -0.19393924828E+02 -0.90354445022E+01  0.24685996048E+02  0.51100000000E-03 0. -1.
        -11    1    3    3    0    0 -0.35989647311E+01 -0.87487802803E+00  0.13383896987E+02  0.13886923976E+02  0.51100000000E-03 0.  1.
         12    1    3    3    0    0  0.46712654076E+01  0.33351790226E+02 -0.37775056518E+01  0.33888525798E+02  0.00000000000E+00 0. -1.
</event>
<event>
 7    1  0.3435518E-013  0.7246161E+02  0.7816164E-02  0.1226708E+00
        -11   -1    0    0    0    0  0.00000000000E+00  0.00000000000E+00  0.45593999997E+02  0.45594000000E+02  0.51100000000E-03 0. -1.
         11   -1    0    0    0    0 -0.00000000000E+00 -0.00000000000E+00 -0.45593999997E+02  0.45594000000E+02  0.51100000000E-03 0.  1.
    9900012    2    1    2    0    0 -0.13004788703E+01  0.16672030705E+01  0.18606633965E+02  0.72461611163E+02  0.70000053239E+02 0.  0.
        -12    1    1    2    0    0  0.13004788703E+01 -0.16672030705E+01 -0.18606633965E+02  0.18726388837E+02  0.00000000000E+00 0.  1.
         11    1    3    3    0    0  0.92708378631E+00 -0.10021765203E+02 -0.12560436217E+02  0.16095335360E+02  0.51100000000E-03 0. -1.
        -11    1    3    3    0    0  0.25392558166E+01  0.63698599538E+01 -0.11346072917E+02  0.13257311448E+02  0.51100000000E-03 0.  1.
         12    1    3    3    0    0 -0.47668184733E+01  0.53191083193E+01  0.42513143099E+02  0.43108964355E+02  0.00000000000E+00 0. -1.
</event>
<event>
 7    1  0.3435518E-013  0.7246123E+02  0.7816164E-02  0.1226709E+00
        -11   -1    0    0    0    0  0.00000000000E+00  0.00000000000E+00  0.45593999997E+02  0.45594000000E+02  0.51100000000E-03 0.  1.
         11   -1    0    0    0    0 -0.00000000000E+00 -0.00000000000E+00 -0.45593999997E+02  0.45594000000E+02  0.51100000000E-03 0. -1.
    9900012    2    1    2    0    0  0.12379159922E+02 -0.72540456473E+01 -0.12034420326E+02  0.72461226354E+02  0.69999551952E+02 0.  0.
        -12    1    1    2    0    0 -0.12379159922E+02  0.72540456473E+01  0.12034420326E+02  0.18726773646E+02  0.00000000000E+00 0.  1.
         11    1    3    3    0    0 -0.12890471845E+02  0.42930523302E+01  0.48724088739E+01  0.14433812081E+02  0.51100000000E-03 0. -1.
        -11    1    3    3    0    0  0.25692704641E+01  0.16521917480E+02  0.27154915379E+01  0.16939563232E+02  0.51100000000E-03 0.  1.
        -12    1    3    3    0    0  0.22700361302E+02 -0.28069015458E+02 -0.19622320737E+02  0.41087851041E+02  0.00000000000E+00 0.  1.
</event>
<event>
 7    1  0.3435518E-013  0.7246148E+02  0.7816164E-02  0.1226708E+00
        -11   -1    0    0    0    0  0.00000000000E+00  0.00000000000E+00  0.45593999997E+02  0.45594000000E+02  0.51100000000E-03 0.  1.
         11   -1    0    0    0    0 -0.00000000000E+00 -0.00000000000E+00 -0.45593999997E+02  0.45594000000E+02  0.51100000000E-03 0. -1.
    9900012    2    1    2    0    0  0.14947195393E+02  0.14964865035E+01 -0.11181425439E+02  0.72461484125E+02  0.69999887748E+02 0.  0.
        -12    1    1    2    0    0 -0.14947195393E+02 -0.14964865035E+01  0.11181425439E+02  0.18726515875E+02  0.00000000000E+00 0.  1.
         11    1    3    3    0    0  0.24215011260E+02  0.17145506772E+02  0.10497218910E+02  0.31472635382E+02  0.51100000000E-03 0. -1.
        -11    1    3    3    0    0  0.48185414789E+01 -0.92864964014E+01  0.38479370925E+01  0.11147375365E+02  0.51100000000E-03 0.  1.
         12    1    3    3    0    0 -0.14086357346E+02 -0.63625238674E+01 -0.25526581442E+02  0.29841473378E+02  0.00000000000E+00 0. -1.
</event>
<event>
 7    1  0.3435518E-013  0.7246149E+02  0.7816164E-02  0.1226708E+00
        -11   -1    0    0    0    0  0.00000000000E+00  0.00000000000E+00  0.45593999997E+02  0.45594000000E+02  0.51100000000E-03 0.  1.
         11   -1    0    0    0    0 -0.00000000000E+00 -0.00000000000E+00 -0.45593999997E+02  0.45594000000E+02  0.51100000000E-03 0. -1.
    9900012    2    1    2    0    0 -0.26671480512E+01  0.15826005524E+02  0.96491548896E+01  0.72461486185E+02  0.69999890433E+02 0.  0.
        -12    1    1    2    0    0  0.26671480512E+01 -0.15826005524E+02 -0.96491548896E+01  0.18726513815E+02  0.00000000000E+00 0.  1.
         11    1    3    3    0    0  0.89957522201E+01  0.24813329831E+02  0.11384343753E+02  0.28744185121E+02  0.51100000000E-03 0. -1.
        -11    1    3    3    0    0  0.15051676892E+02  0.99554846496E+00 -0.18548190031E+01  0.15198172516E+02  0.51100000000E-03 0.  1.
        -12    1    3    3    0    0 -0.26714577164E+02 -0.99828727725E+01  0.11963014015E+00  0.28519128549E+02  0.00000000000E+00 0.  1.
</event>
<event>
 7    1  0.3435518E-013  0.7246156E+02  0.7816164E-02  0.1226708E+00
        -11   -1    0    0    0    0  0.00000000000E+00  0.00000000000E+00  0.45593999997E+02  0.45594000000E+02  0.51100000000E-03 0.  1.
         11   -1    0    0    0    0 -0.00000000000E+00 -0.00000000000E+00 -0.45593999997E+02  0.45594000000E+02  0.51100000000E-03 0. -1.
    9900012    2    1    2    0    0 -0.11353414022E+02  0.14886358669E+02 -0.41923558447E+00  0.72461562997E+02  0.69999990493E+02 0.  0.
        -12    1    1    2    0    0  0.11353414022E+02 -0.14886358669E+02  0.41923558447E+00  0.18726437003E+02  0.00000000000E+00 0.  1.
         11    1    3    3    0    0 -0.10946460266E+02  0.14941844489E+02 -0.14466763596E+02  0.23502573440E+02  0.51100000000E-03 0. -1.
        -11    1    3    3    0    0  0.93151057191E+01  0.15555219529E+02 -0.83644293624E+01  0.19967466739E+02  0.51100000000E-03 0.  1.
        -12    1    3    3    0    0 -0.97220594749E+01 -0.15610705349E+02  0.22411957374E+02  0.28991522818E+02  0.00000000000E+00 0.  1.
</event>
<event>
 7    1  0.3435518E-013  0.7246149E+02  0.7816164E-02  0.1226708E+00
        -11   -1    0    0    0    0  0.00000000000E+00  0.00000000000E+00  0.45593999997E+02  0.45594000000E+02  0.51100000000E-03 0.  1.
         11   -1    0    0    0    0 -0.00000000000E+00 -0.00000000000E+00 -0.45593999997E+02  0.45594000000E+02  0.51100000000E-03 0. -1.
    9900012    2    1    2    0    0 -0.10884843872E+02 -0.11150726292E+02  0.10385735654E+02  0.72461493972E+02  0.69999900576E+02 0.  0.
        -12    1    1    2    0    0  0.10884843872E+02  0.11150726292E+02 -0.10385735654E+02  0.18726506028E+02  0.00000000000E+00 0.  1.
         11    1    3    3    0    0 -0.13099992657E+02 -0.14085926459E+02  0.27366809179E+01  0.19429682307E+02  0.51100000000E-03 0. -1.
        -11    1    3    3    0    0  0.52495345108E+01 -0.19636005819E+02  0.18788515529E+02  0.27679209764E+02  0.51100000000E-03 0.  1.
        -12    1    3    3    0    0 -0.30343857252E+01  0.22571205986E+02 -0.11139460793E+02  0.25352601901E+02  0.00000000000E+00 0.  1.
</event>
<event>
 7    1  0.3435518E-013  0.7246160E+02  0.7816164E-02  0.1226708E+00
        -11   -1    0    0    0    0  0.00000000000E+00  0.00000000000E+00  0.45593999997E+02  0.45594000000E+02  0.51100000000E-03 0. -1.
         11   -1    0    0    0    0 -0.00000000000E+00 -0.00000000000E+00 -0.45593999997E+02  0.45594000000E+02  0.51100000000E-03 0.  1.
    9900012    2    1    2    0    0  0.74365473117E+01 -0.28826418166E+00  0.17184088888E+02  0.72461595031E+02  0.70000032224E+02 0.  0.
        -12    1    1    2    0    0 -0.74365473117E+01  0.28826418166E+00 -0.17184088888E+02  0.18726404969E+02  0.00000000000E+00 0.  1.
         11    1    3    3    0    0  0.12787134705E+02  0.16740502366E+02  0.22693390968E+02  0.30963611342E+02  0.51100000000E-03 0. -1.
        -11    1    3    3    0    0 -0.20766607263E+02 -0.49350742950E+01 -0.87045615823E+00  0.21362692473E+02  0.51100000000E-03 0.  1.
        -12    1    3    3    0    0  0.15416019869E+02 -0.12093692253E+02 -0.46388459221E+01  0.20135291217E+02  0.00000000000E+00 0.  1.
</event>
<event>
 7    1  0.3435518E-013  0.7246154E+02  0.7816164E-02  0.1226708E+00
        -11   -1    0    0    0    0  0.00000000000E+00  0.00000000000E+00  0.45593999997E+02  0.45594000000E+02  0.51100000000E-03 0.  1.
         11   -1    0    0    0    0 -0.00000000000E+00 -0.00000000000E+00 -0.45593999997E+02  0.45594000000E+02  0.51100000000E-03 0. -1.
    9900012    2    1    2    0    0  0.96253336934E+01 -0.15709779996E+02 -0.33520136936E+01  0.72461541925E+02  0.69999963044E+02 0.  0.
        -12    1    1    2    0    0 -0.96253336934E+01  0.15709779996E+02  0.33520136936E+01  0.18726458075E+02  0.00000000000E+00 0.  1.
         11    1    3    3    0    0  0.11367707908E+02 -0.23152914033E+02  0.37571218899E+01  0.26065267626E+02  0.51100000000E-03 0. -1.
        -11    1    3    3    0    0  0.50907170314E+01 -0.12933898069E+02  0.11443354568E+02  0.18004207374E+02  0.51100000000E-03 0.  1.
        -12    1    3    3    0    0 -0.68330912458E+01  0.20377032106E+02 -0.18552490151E+02  0.28392066924E+02  0.00000000000E+00 0.  1.
</event>
<event>
 7    1  0.3435518E-013  0.7246161E+02  0.7816164E-02  0.1226708E+00
        -11   -1    0    0    0    0  0.00000000000E+00  0.00000000000E+00  0.45593999997E+02  0.45594000000E+02  0.51100000000E-03 0.  1.
         11   -1    0    0    0    0 -0.00000000000E+00 -0.00000000000E+00 -0.45593999997E+02  0.45594000000E+02  0.51100000000E-03 0. -1.
    9900012    2    1    2    0    0 -0.80429133498E+01  0.53085529830E+00 -0.16902880281E+02  0.72461611552E+02  0.70000053746E+02 0.  0.
        -12    1    1    2    0    0  0.80429133498E+01 -0.53085529830E+00  0.16902880281E+02  0.18726388448E+02  0.00000000000E+00 0.  1.
         11    1    3    3    0    0 -0.19743472543E+02 -0.24571707639E-01  0.13285081661E+02  0.23797031471E+02  0.51100000000E-03 0. -1.
        -11    1    3    3    0    0 -0.95079159614E+01  0.10974946736E+02 -0.12244852624E+02  0.18994376479E+02  0.51100000000E-03 0.  1.
        -12    1    3    3    0    0  0.21208475155E+02 -0.10419519730E+02 -0.17943109317E+02  0.29670203602E+02  0.00000000000E+00 0.  1.
</event>
<event>
 7    1  0.3435518E-013  0.7246157E+02  0.7816164E-02  0.1226708E+00
        -11   -1    0    0    0    0  0.00000000000E+00  0.00000000000E+00  0.45593999997E+02  0.45594000000E+02  0.51100000000E-03 0.  1.
         11   -1    0    0    0    0 -0.00000000000E+00 -0.00000000000E+00 -0.45593999997E+02  0.45594000000E+02  0.51100000000E-03 0. -1.
    9900012    2    1    2    0    0  0.14083056750E+02 -0.73937792234E+01 -0.98832535445E+01  0.72461570569E+02  0.70000000358E+02 0.  0.
        -12    1    1    2    0    0 -0.14083056750E+02  0.73937792234E+01  0.98832535445E+01  0.18726429431E+02  0.00000000000E+00 0.  1.
         11    1    3    3    0    0  0.63518089598E+01 -0.44304105044E+01  0.12639396725E+02  0.14823237303E+02  0.51100000000E-03 0. -1.
        -11    1    3    3    0    0 -0.12247126598E+01 -0.21103579404E+02  0.66294382495E+01  0.22154241954E+02  0.51100000000E-03 0.  1.
         12    1    3    3    0    0  0.89559604495E+01  0.18140210685E+02 -0.29152088519E+02  0.35484091313E+02  0.00000000000E+00 0. -1.
</event>
<event>
 7    1  0.3435518E-013  0.7246157E+02  0.7816164E-02  0.1226708E+00
        -11   -1    0    0    0    0  0.00000000000E+00  0.00000000000E+00  0.45593999997E+02  0.45594000000E+02  0.51100000000E-03 0.  1.
         11   -1    0    0    0    0 -0.00000000000E+00 -0.00000000000E+00 -0.45593999997E+02  0.45594000000E+02  0.51100000000E-03 0. -1.
    9900012    2    1    2    0    0 -0.15087038917E+02 -0.63456513925E+01 -0.90990673939E+01  0.72461573157E+02  0.70000003729E+02 0.  0.
        -12    1    1    2    0    0  0.15087038917E+02  0.63456513925E+01  0.90990673939E+01  0.18726426843E+02  0.00000000000E+00 0.  1.
         11    1    3    3    0    0 -0.33354196311E+01 -0.33179254540E+02 -0.70724161585E+01  0.34088224162E+02  0.51100000000E-03 0. -1.
        -11    1    3    3    0    0 -0.89472992657E+01  0.30212324358E+01  0.80074574168E+01  0.12381493614E+02  0.51100000000E-03 0.  1.
        -12    1    3    3    0    0 -0.28043200204E+01  0.23812370711E+02 -0.10034108652E+02  0.25991855380E+02  0.00000000000E+00 0.  1.
</event>
<event>
 7    1  0.3435518E-013  0.7246156E+02  0.7816164E-02  0.1226708E+00
        -11   -1    0    0    0    0  0.00000000000E+00  0.00000000000E+00  0.45593999997E+02  0.45594000000E+02  0.51100000000E-03 0.  1.
         11   -1    0    0    0    0 -0.00000000000E+00 -0.00000000000E+00 -0.45593999997E+02  0.45594000000E+02  0.51100000000E-03 0. -1.
    9900012    2    1    2    0    0  0.13219610908E+02  0.12402575668E+02  0.47007859566E+01  0.72461564558E+02  0.69999992527E+02 0.  0.
        -12    1    1    2    0    0 -0.13219610908E+02 -0.12402575668E+02 -0.47007859566E+01  0.18726435442E+02  0.00000000000E+00 0.  1.
         11    1    3    3    0    0  0.19155078266E+02 -0.12239398985E+02  0.82814989052E+01  0.24193038984E+02  0.51100000000E-03 0. -1.
        -11    1    3    3    0    0 -0.19021918777E+02 -0.81439157636E+00 -0.47451524642E+01  0.19621750681E+02  0.51100000000E-03 0.  1.
        -12    1    3    3    0    0  0.13086451419E+02  0.25456366230E+02  0.11644395156E+01  0.28646774893E+02  0.00000000000E+00 0.  1.
</event>
<event>
 7    1  0.3435518E-013  0.7246160E+02  0.7816164E-02  0.1226708E+00
        -11   -1    0    0    0    0  0.00000000000E+00  0.00000000000E+00  0.45593999997E+02  0.45594000000E+02  0.51100000000E-03 0. -1.
         11   -1    0    0    0    0 -0.00000000000E+00 -0.00000000000E+00 -0.45593999997E+02  0.45594000000E+02  0.51100000000E-03 0.  1.
    9900012    2    1    2    0    0 -0.11150009782E+02  0.14775446074E+02  0.28357671233E+01  0.72461598850E+02  0.70000037199E+02 0.  0.
        -12    1    1    2    0    0  0.11150009782E+02 -0.14775446074E+02 -0.28357671233E+01  0.18726401150E+02  0.00000000000E+00 0.  1.
         11    1    3    3    0    0 -0.11671403555E+02  0.28240481162E+02 -0.89361243937E+01  0.31837097177E+02  0.51100000000E-03 0. -1.
        -11    1    3    3    0    0  0.29773886925E+01  0.11618246101E+02 -0.15895008946E+01  0.12098553601E+02  0.51100000000E-03 0.  1.
        -12    1    3    3    0    0 -0.24559949192E+01 -0.25083281189E+02  0.13361392412E+02  0.28525948072E+02  0.00000000000E+00 0.  1.
</event>
<event>
 7    1  0.3435518E-013  0.7246153E+02  0.7816164E-02  0.1226708E+00
        -11   -1    0    0    0    0  0.00000000000E+00  0.00000000000E+00  0.45593999997E+02  0.45594000000E+02  0.51100000000E-03 0.  1.
         11   -1    0    0    0    0 -0.00000000000E+00 -0.00000000000E+00 -0.45593999997E+02  0.45594000000E+02  0.51100000000E-03 0. -1.
    9900012    2    1    2    0    0  0.81818041770E+01  0.16981126760E+01 -0.16758729157E+02  0.72461534525E+02  0.69999953403E+02 0.  0.
        -12    1    1    2    0    0 -0.81818041770E+01 -0.16981126760E+01  0.16758729157E+02  0.18726465475E+02  0.00000000000E+00 0.  1.
         11    1    3    3    0    0 -0.34552101563E+01  0.20938253637E+02 -0.22910310445E+01  0.21344736262E+02  0.51100000000E-03 0. -1.
        -11    1    3    3    0    0  0.17981512210E+02 -0.50017654566E+00  0.92524730195E+01  0.20228524790E+02  0.51100000000E-03 0.  1.
         12    1    3    3    0    0 -0.63444978768E+01 -0.18739964415E+02 -0.23720171132E+02  0.30888273473E+02  0.00000000000E+00 0. -1.
</event>
<event>
 7    1  0.3435518E-013  0.7246169E+02  0.7816164E-02  0.1226708E+00
        -11   -1    0    0    0    0  0.00000000000E+00  0.00000000000E+00  0.45593999997E+02  0.45594000000E+02  0.51100000000E-03 0. -1.
         11   -1    0    0    0    0 -0.00000000000E+00 -0.00000000000E+00 -0.45593999997E+02  0.45594000000E+02  0.51100000000E-03 0.  1.
    9900012    2    1    2    0    0 -0.11034522188E+01  0.18213146303E+02  0.42116760025E+01  0.72461694444E+02  0.70000161727E+02 0.  0.
        -12    1    1    2    0    0  0.11034522188E+01 -0.18213146303E+02 -0.42116760025E+01  0.18726305556E+02  0.00000000000E+00 0.  1.
         11    1    3    3    0    0  0.33188277067E+01  0.57633183342E+01 -0.37722228844E+01  0.76459218750E+01  0.51100000000E-03 0. -1.
        -11    1    3    3    0    0  0.15812602739E+02 -0.15255335418E+02  0.18722208203E+02  0.28866671861E+02  0.51100000000E-03 0.  1.
         12    1    3    3    0    0 -0.20234882664E+02  0.27705163386E+02 -0.10738309317E+02  0.35949100707E+02  0.00000000000E+00 0. -1.
</event>
<event>
 7    1  0.3435518E-013  0.7246159E+02  0.7816164E-02  0.1226708E+00
        -11   -1    0    0    0    0  0.00000000000E+00  0.00000000000E+00  0.45593999997E+02  0.45594000000E+02  0.51100000000E-03 0.  1.
         11   -1    0    0    0    0 -0.00000000000E+00 -0.00000000000E+00 -0.45593999997E+02  0.45594000000E+02  0.51100000000E-03 0. -1.
    9900012    2    1    2    0    0 -0.54506984013E+01  0.10268193046E+01 -0.17886142004E+02  0.72461586923E+02  0.70000021662E+02 0.  0.
        -12    1    1    2    0    0  0.54506984013E+01 -0.10268193046E+01  0.17886142004E+02  0.18726413077E+02  0.00000000000E+00 0.  1.
         11    1    3    3    0    0 -0.18195018672E+02  0.51502758589E+01 -0.26115960069E+02  0.32243253813E+02  0.51100000000E-03 0. -1.
        -11    1    3    3    0    0 -0.83399886043E+00 -0.19089727989E+02  0.29727831642E+01  0.19337805170E+02  0.51100000000E-03 0.  1.
        -12    1    3    3    0    0  0.13578319131E+02  0.14966271435E+02  0.52570349008E+01  0.20880527940E+02  0.00000000000E+00 0.  1.
</event>
<event>
 7    1  0.3435518E-013  0.7246157E+02  0.7816164E-02  0.1226708E+00
        -11   -1    0    0    0    0  0.00000000000E+00  0.00000000000E+00  0.45593999997E+02  0.45594000000E+02  0.51100000000E-03 0. -1.
         11   -1    0    0    0    0 -0.00000000000E+00 -0.00000000000E+00 -0.45593999997E+02  0.45594000000E+02  0.51100000000E-03 0.  1.
    9900012    2    1    2    0    0 -0.43578614541E+01 -0.14285898972E+02  0.11296075545E+02  0.72461569785E+02  0.69999999336E+02 0.  0.
        -12    1    1    2    0    0  0.43578614541E+01  0.14285898972E+02 -0.11296075545E+02  0.18726430215E+02  0.00000000000E+00 0.  1.
         11    1    3    3    0    0  0.43611060405E+01 -0.17111965676E+02 -0.10383145800E+02  0.20485319919E+02  0.51100000000E-03 0. -1.
        -11    1    3    3    0    0 -0.22727414353E+02  0.15227841946E+02  0.71177619198E+01  0.28268092764E+02  0.51100000000E-03 0.  1.
         12    1    3    3    0    0  0.14008446859E+02 -0.12401775242E+02  0.14561459425E+02  0.23708157101E+02  0.00000000000E+00 0. -1.
</event>
<event>
 7    1  0.3435518E-013  0.7246161E+02  0.7816164E-02  0.1226708E+00
        -11   -1    0    0    0    0  0.00000000000E+00  0.00000000000E+00  0.45593999997E+02  0.45594000000E+02  0.51100000000E-03 0.  1.
         11   -1    0    0    0    0 -0.00000000000E+00 -0.00000000000E+00 -0.45593999997E+02  0.45594000000E+02  0.51100000000E-03 0. -1.
    9900012    2    1    2    0    0  0.14625371567E+02  0.10976625123E+02  0.40360652515E+01  0.72461611793E+02  0.70000054060E+02 0.  0.
        -12    1    1    2    0    0 -0.14625371567E+02 -0.10976625123E+02 -0.40360652515E+01  0.18726388207E+02  0.00000000000E+00 0.  1.
         11    1    3    3    0    0 -0.16504374997E+02  0.73646719138E+01 -0.40181198062E+01  0.18514266755E+02  0.51100000000E-03 0. -1.
        -11    1    3    3    0    0  0.31766660446E+01 -0.15964013280E+02 -0.55677856271E+01  0.17202940569E+02  0.51100000000E-03 0.  1.
         12    1    3    3    0    0  0.27953080519E+02  0.19575966490E+02  0.13621970685E+02  0.36744404470E+02  0.00000000000E+00 0. -1.
</event>
<event>
 7    1  0.3435518E-013  0.7246158E+02  0.7816164E-02  0.1226708E+00
        -11   -1    0    0    0    0  0.00000000000E+00  0.00000000000E+00  0.45593999997E+02  0.45594000000E+02  0.51100000000E-03 0.  1.
         11   -1    0    0    0    0 -0.00000000000E+00 -0.00000000000E+00 -0.45593999997E+02  0.45594000000E+02  0.51100000000E-03 0. -1.
    9900012    2    1    2    0    0  0.17285209576E+02  0.31503118608E+01 -0.64788680279E+01  0.72461583743E+02  0.70000017520E+02 0.  0.
        -12    1    1    2    0    0 -0.17285209576E+02 -0.31503118608E+01  0.64788680279E+01  0.18726416257E+02  0.00000000000E+00 0.  1.
         11    1    3    3    0    0  0.19767549222E+02  0.19769001496E+02 -0.67456654243E+01  0.28758884274E+02  0.51100000000E-03 0.  1.
        -11    1    3    3    0    0 -0.71920894045E+01  0.98095328656E+01 -0.91858381254E+01  0.15242463953E+02  0.51100000000E-03 0. -1.
         12    1    3    3    0    0  0.47097497583E+01 -0.26428222501E+02  0.94526355217E+01  0.28460235516E+02  0.00000000000E+00 0. -1.
</event>
<event>
 7    1  0.3435518E-013  0.7246157E+02  0.7816164E-02  0.1226708E+00
        -11   -1    0    0    0    0  0.00000000000E+00  0.00000000000E+00  0.45593999997E+02  0.45594000000E+02  0.51100000000E-03 0. -1.
         11   -1    0    0    0    0 -0.00000000000E+00 -0.00000000000E+00 -0.45593999997E+02  0.45594000000E+02  0.51100000000E-03 0.  1.
    9900012    2    1    2    0    0  0.69909919398E+01 -0.78764209067E+01  0.15484413497E+02  0.72461573861E+02  0.70000004646E+02 0.  0.
        -12    1    1    2    0    0 -0.69909919398E+01  0.78764209067E+01 -0.15484413497E+02  0.18726426139E+02  0.00000000000E+00 0.  1.
         11    1    3    3    0    0  0.32655989929E+01  0.88827071101E+01  0.40456051812E+01  0.10292402243E+02  0.51100000000E-03 0. -1.
        -11    1    3    3    0    0 -0.26617715658E+02 -0.77987262624E+01 -0.19700342213E+01  0.27806545152E+02  0.51100000000E-03 0.  1.
         12    1    3    3    0    0  0.30343108605E+02 -0.89604017544E+01  0.13408842537E+02  0.34362626466E+02  0.00000000000E+00 0. -1.
</event>
<event>
 7    1  0.3435518E-013  0.7246166E+02  0.7816164E-02  0.1226708E+00
        -11   -1    0    0    0    0  0.00000000000E+00  0.00000000000E+00  0.45593999997E+02  0.45594000000E+02  0.51100000000E-03 0.  1.
         11   -1    0    0    0    0 -0.00000000000E+00 -0.00000000000E+00 -0.45593999997E+02  0.45594000000E+02  0.51100000000E-03 0. -1.
    9900012    2    1    2    0    0 -0.12179367842E+02  0.26156715968E+01 -0.13982024626E+02  0.72461661554E+02  0.70000118883E+02 0.  0.
        -12    1    1    2    0    0  0.12179367842E+02 -0.26156715968E+01  0.13982024626E+02  0.18726338446E+02  0.00000000000E+00 0.  1.
         11    1    3    3    0    0 -0.16433811377E+02  0.41087000163E+01  0.53125931030E+01  0.17753174869E+02  0.51100000000E-03 0. -1.
        -11    1    3    3    0    0  0.13751055203E+02  0.47262832710E+00  0.14239060892E+02  0.19800650294E+02  0.51100000000E-03 0.  1.
         12    1    3    3    0    0 -0.94966116684E+01 -0.19656567466E+01 -0.33533678621E+02  0.34907836391E+02  0.00000000000E+00 0. -1.
</event>
<event>
 7    1  0.3435518E-013  0.7246158E+02  0.7816164E-02  0.1226708E+00
        -11   -1    0    0    0    0  0.00000000000E+00  0.00000000000E+00  0.45593999997E+02  0.45594000000E+02  0.51100000000E-03 0. -1.
         11   -1    0    0    0    0 -0.00000000000E+00 -0.00000000000E+00 -0.45593999997E+02  0.45594000000E+02  0.51100000000E-03 0.  1.
    9900012    2    1    2    0    0  0.11468513494E+02 -0.37260179486E+01  0.14327202728E+02  0.72461581509E+02  0.70000014609E+02 0.  0.
        -12    1    1    2    0    0 -0.11468513494E+02  0.37260179486E+01 -0.14327202728E+02  0.18726418491E+02  0.00000000000E+00 0.  1.
         11    1    3    3    0    0  0.22848361530E+02  0.27693927440E+01  0.67149712110E+01  0.23975153794E+02  0.51100000000E-03 0. -1.
        -11    1    3    3    0    0  0.23214356061E+01 -0.24843955895E+02  0.30658104051E+01  0.25139817053E+02  0.51100000000E-03 0.  1.
        -12    1    3    3    0    0 -0.13701283642E+02  0.18348545202E+02  0.45464211115E+01  0.23346610662E+02  0.00000000000E+00 0.  1.
</event>
<event>
 7    1  0.3435518E-013  0.7246153E+02  0.7816164E-02  0.1226708E+00
        -11   -1    0    0    0    0  0.00000000000E+00  0.00000000000E+00  0.45593999997E+02  0.45594000000E+02  0.51100000000E-03 0. -1.
         11   -1    0    0    0    0 -0.00000000000E+00 -0.00000000000E+00 -0.45593999997E+02  0.45594000000E+02  0.51100000000E-03 0.  1.
    9900012    2    1    2    0    0  0.18300283937E+02 -0.36274946464E+00  0.39558468010E+01  0.72461529343E+02  0.69999946654E+02 0.  0.
        -12    1    1    2    0    0 -0.18300283937E+02  0.36274946464E+00 -0.39558468010E+01  0.18726470657E+02  0.00000000000E+00 0.  1.
         11    1    3    3    0    0 -0.83597338921E+01  0.20848079320E+02  0.32003755417E+01  0.22688542614E+02  0.51100000000E-03 0. -1.
        -11    1    3    3    0    0 -0.35484868809E+01 -0.11587362987E+02 -0.10596124507E+02  0.16097720180E+02  0.51100000000E-03 0.  1.
         12    1    3    3    0    0  0.30208504710E+02 -0.96234657971E+01  0.11351595767E+02  0.33675266550E+02  0.00000000000E+00 0. -1.
</event>
<event>
 7    1  0.3435518E-013  0.7246157E+02  0.7816164E-02  0.1226708E+00
        -11   -1    0    0    0    0  0.00000000000E+00  0.00000000000E+00  0.45593999997E+02  0.45594000000E+02  0.51100000000E-03 0.  1.
         11   -1    0    0    0    0 -0.00000000000E+00 -0.00000000000E+00 -0.45593999997E+02  0.45594000000E+02  0.51100000000E-03 0. -1.
    9900012    2    1    2    0    0  0.52776655122E+01  0.11083483320E+02 -0.14141494315E+02  0.72461569021E+02  0.69999998341E+02 0.  0.
        -12    1    1    2    0    0 -0.52776655122E+01 -0.11083483320E+02  0.14141494315E+02  0.18726430979E+02  0.00000000000E+00 0.  1.
         11    1    3    3    0    0 -0.27489944563E+02  0.15453748725E+02  0.43312208505E+01  0.31831978827E+02  0.51100000000E-03 0. -1.
        -11    1    3    3    0    0  0.19733252356E+00  0.28243182457E+01 -0.13784190115E+01  0.31489288512E+01  0.51100000000E-03 0.  1.
         12    1    3    3    0    0  0.32570277551E+02 -0.71945836508E+01 -0.17094296154E+02  0.37480661343E+02  0.00000000000E+00 0. -1.
</event>
<event>
 7    1  0.3435518E-013  0.7246164E+02  0.7816164E-02  0.1226708E+00
        -11   -1    0    0    0    0  0.00000000000E+00  0.00000000000E+00  0.45593999997E+02  0.45594000000E+02  0.51100000000E-03 0.  1.
         11   -1    0    0    0    0 -0.00000000000E+00 -0.00000000000E+00 -0.45593999997E+02  0.45594000000E+02  0.51100000000E-03 0. -1.
    9900012    2    1    2    0    0  0.30846619440E+01 -0.16016702376E+02 -0.91992700851E+01  0.72461642522E+02  0.70000094089E+02 0.  0.
        -12    1    1    2    0    0 -0.30846619440E+01  0.16016702376E+02  0.91992700851E+01  0.18726357478E+02  0.00000000000E+00 0.  1.
         11    1    3    3    0    0 -0.59596842798E+00  0.24286640253E+01  0.44397142212E+01  0.50955519762E+01  0.51100000000E-03 0. -1.
        -11    1    3    3    0    0 -0.28351321749E+02 -0.14303751174E+02  0.12959544652E+01  0.31781665167E+02  0.51100000000E-03 0.  1.
         12    1    3    3    0    0  0.32031952121E+02 -0.41416152276E+01 -0.14934938771E+02  0.35584425378E+02  0.00000000000E+00 0. -1.
</event>
<event>
 7    1  0.3435518E-013  0.7246157E+02  0.7816164E-02  0.1226708E+00
        -11   -1    0    0    0    0  0.00000000000E+00  0.00000000000E+00  0.45593999997E+02  0.45594000000E+02  0.51100000000E-03 0.  1.
         11   -1    0    0    0    0 -0.00000000000E+00 -0.00000000000E+00 -0.45593999997E+02  0.45594000000E+02  0.51100000000E-03 0. -1.
    9900012    2    1    2    0    0  0.28049224056E+01 -0.12831108054E+02 -0.13348192401E+02  0.72461570442E+02  0.70000000193E+02 0.  0.
        -12    1    1    2    0    0 -0.28049224056E+01  0.12831108054E+02  0.13348192401E+02  0.18726429558E+02  0.00000000000E+00 0.  1.
         11    1    3    3    0    0 -0.10122665843E+02 -0.31049296372E+01 -0.30075829273E-01  0.10588194210E+02  0.51100000000E-03 0. -1.
        -11    1    3    3    0    0 -0.14846464084E+02 -0.23909587414E+02 -0.47963027616E+00  0.28148106714E+02  0.51100000000E-03 0.  1.
         12    1    3    3    0    0  0.27774052332E+02  0.14183408997E+02 -0.12838486296E+02  0.33725269518E+02  0.00000000000E+00 0. -1.
</event>
<event>
 7    1  0.3435518E-013  0.7246097E+02  0.7816164E-02  0.1226710E+00
        -11   -1    0    0    0    0  0.00000000000E+00  0.00000000000E+00  0.45593999997E+02  0.45594000000E+02  0.51100000000E-03 0. -1.
         11   -1    0    0    0    0 -0.00000000000E+00 -0.00000000000E+00 -0.45593999997E+02  0.45594000000E+02  0.51100000000E-03 0.  1.
    9900012    2    1    2    0    0 -0.12680450753E+02  0.89482351392E+01  0.10480303270E+02  0.72460974074E+02  0.69999223307E+02 0.  0.
        -12    1    1    2    0    0  0.12680450753E+02 -0.89482351392E+01 -0.10480303270E+02  0.18727025926E+02  0.00000000000E+00 0.  1.
         11    1    3    3    0    0  0.17241173039E+02 -0.90715209776E+01  0.13843711202E+02  0.23899767378E+02  0.51100000000E-03 0. -1.
        -11    1    3    3    0    0 -0.96743058174E+01 -0.84631880768E+01  0.56309005046E+01  0.14032989212E+02  0.51100000000E-03 0.  1.
        -12    1    3    3    0    0 -0.20247317975E+02  0.26482944194E+02 -0.89943084362E+01  0.34528217484E+02  0.00000000000E+00 0.  1.
</event>
<event>
 7    1  0.3435518E-013  0.7246159E+02  0.7816164E-02  0.1226708E+00
        -11   -1    0    0    0    0  0.00000000000E+00  0.00000000000E+00  0.45593999997E+02  0.45594000000E+02  0.51100000000E-03 0.  1.
         11   -1    0    0    0    0 -0.00000000000E+00 -0.00000000000E+00 -0.45593999997E+02  0.45594000000E+02  0.51100000000E-03 0. -1.
    9900012    2    1    2    0    0 -0.15864735676E+02  0.45603292193E+01  0.88426223996E+01  0.72461590532E+02  0.70000026364E+02 0.  0.
        -12    1    1    2    0    0  0.15864735676E+02 -0.45603292193E+01 -0.88426223996E+01  0.18726409468E+02  0.00000000000E+00 0.  1.
         11    1    3    3    0    0 -0.19732878634E+02 -0.13532955570E+02  0.50152139541E+01  0.24447489787E+02  0.51100000000E-03 0. -1.
        -11    1    3    3    0    0 -0.11324796415E+02 -0.62021603451E+01 -0.98715749311E+01  0.16253178110E+02  0.51100000000E-03 0.  1.
        -12    1    3    3    0    0  0.15192939373E+02  0.24295445135E+02  0.13698983377E+02  0.31760922635E+02  0.00000000000E+00 0.  1.
</event>
<event>
 7    1  0.3435518E-013  0.7246141E+02  0.7816164E-02  0.1226708E+00
        -11   -1    0    0    0    0  0.00000000000E+00  0.00000000000E+00  0.45593999997E+02  0.45594000000E+02  0.51100000000E-03 0. -1.
         11   -1    0    0    0    0 -0.00000000000E+00 -0.00000000000E+00 -0.45593999997E+02  0.45594000000E+02  0.51100000000E-03 0.  1.
    9900012    2    1    2    0    0  0.10925835591E+02 -0.10498569212E+02  0.11004154368E+02  0.72461407886E+02  0.69999788432E+02 0.  0.
        -12    1    1    2    0    0 -0.10925835591E+02  0.10498569212E+02 -0.11004154368E+02  0.18726592114E+02  0.00000000000E+00 0.  1.
         11    1    3    3    0    0  0.32397626169E+02 -0.15000695929E+00 -0.85811094769E+00  0.32409335663E+02  0.51100000000E-03 0. -1.
        -11    1    3    3    0    0 -0.13742471213E+02  0.33148502159E+01 -0.67818973590E+01  0.15679218062E+02  0.51100000000E-03 0.  1.
         12    1    3    3    0    0 -0.77293193646E+01 -0.13663412468E+02  0.18644162674E+02  0.24372854161E+02  0.00000000000E+00 0. -1.
</event>
<event>
 7    1  0.3435518E-013  0.7246118E+02  0.7816164E-02  0.1226709E+00
        -11   -1    0    0    0    0  0.00000000000E+00  0.00000000000E+00  0.45593999997E+02  0.45594000000E+02  0.51100000000E-03 0.  1.
         11   -1    0    0    0    0 -0.00000000000E+00 -0.00000000000E+00 -0.45593999997E+02  0.45594000000E+02  0.51100000000E-03 0. -1.
    9900012    2    1    2    0    0 -0.96771566307E+01  0.14331298430E+02  0.71875023294E+01  0.72461183269E+02  0.69999495825E+02 0.  0.
        -12    1    1    2    0    0  0.96771566307E+01 -0.14331298430E+02 -0.71875023294E+01  0.18726816731E+02  0.00000000000E+00 0.  1.
         11    1    3    3    0    0  0.27279120212E+01  0.48240171664E+01  0.50284066539E+01  0.74831490266E+01  0.51100000000E-03 0. -1.
        -11    1    3    3    0    0 -0.16057156105E+02  0.14269439674E+02  0.29776369690E+02  0.36716227515E+02  0.51100000000E-03 0.  1.
         12    1    3    3    0    0  0.36520874534E+01 -0.47621584098E+01 -0.27617274014E+02  0.28261806727E+02  0.00000000000E+00 0. -1.
</event>
<event>
 7    1  0.3435518E-013  0.7246160E+02  0.7816164E-02  0.1226708E+00
        -11   -1    0    0    0    0  0.00000000000E+00  0.00000000000E+00  0.45593999997E+02  0.45594000000E+02  0.51100000000E-03 0. -1.
         11   -1    0    0    0    0 -0.00000000000E+00 -0.00000000000E+00 -0.45593999997E+02  0.45594000000E+02  0.51100000000E-03 0.  1.
    9900012    2    1    2    0    0  0.13070752874E+02 -0.11562185737E+02  0.67933186639E+01  0.72461604240E+02  0.70000044220E+02 0.  0.
        -12    1    1    2    0    0 -0.13070752874E+02  0.11562185737E+02 -0.67933186639E+01  0.18726395760E+02  0.00000000000E+00 0.  1.
         11    1    3    3    0    0 -0.84383526854E+01 -0.43669525701E+01  0.95559812095E+01  0.13475639055E+02  0.51100000000E-03 0. -1.
        -11    1    3    3    0    0 -0.10261537489E+02  0.13408693652E+02  0.92589505867E+01  0.19256697103E+02  0.51100000000E-03 0.  1.
        -12    1    3    3    0    0  0.31770643048E+02 -0.20603926819E+02 -0.12021613132E+02  0.39729268082E+02  0.00000000000E+00 0.  1.
</event>
<event>
 7    1  0.3435518E-013  0.7246165E+02  0.7816164E-02  0.1226708E+00
        -11   -1    0    0    0    0  0.00000000000E+00  0.00000000000E+00  0.45593999997E+02  0.45594000000E+02  0.51100000000E-03 0.  1.
         11   -1    0    0    0    0 -0.00000000000E+00 -0.00000000000E+00 -0.45593999997E+02  0.45594000000E+02  0.51100000000E-03 0. -1.
    9900012    2    1    2    0    0 -0.15588811191E+02 -0.72691890661E+01 -0.74043348813E+01  0.72461646403E+02  0.70000099145E+02 0.  0.
        -12    1    1    2    0    0  0.15588811191E+02  0.72691890661E+01  0.74043348813E+01  0.18726353597E+02  0.00000000000E+00 0.  1.
         11    1    3    3    0    0 -0.37940320034E+01 -0.26258710473E+01  0.13486899269E+02  0.14254344241E+02  0.51100000000E-03 0. -1.
        -11    1    3    3    0    0 -0.52311663840E+01  0.15034088325E+02  0.11573946804E+02  0.19681086311E+02  0.51100000000E-03 0.  1.
         12    1    3    3    0    0 -0.65636128033E+01 -0.19677406344E+02 -0.32465180954E+02  0.38526215851E+02  0.00000000000E+00 0. -1.
</event>
<event>
 7    1  0.3435518E-013  0.7246155E+02  0.7816164E-02  0.1226708E+00
        -11   -1    0    0    0    0  0.00000000000E+00  0.00000000000E+00  0.45593999997E+02  0.45594000000E+02  0.51100000000E-03 0. -1.
         11   -1    0    0    0    0 -0.00000000000E+00 -0.00000000000E+00 -0.45593999997E+02  0.45594000000E+02  0.51100000000E-03 0.  1.
    9900012    2    1    2    0    0  0.56787418086E+01 -0.77948163133E+01  0.16052185398E+02  0.72461550098E+02  0.69999973690E+02 0.  0.
        -12    1    1    2    0    0 -0.56787418086E+01  0.77948163133E+01 -0.16052185398E+02  0.18726449902E+02  0.00000000000E+00 0.  1.
         11    1    3    3    0    0  0.89390396501E+01 -0.12009340277E+02 -0.10889149373E+02  0.18512273174E+02  0.51100000000E-03 0. -1.
        -11    1    3    3    0    0 -0.11898344965E+02 -0.81857172134E+01 -0.75470179793E+01  0.16295215858E+02  0.51100000000E-03 0.  1.
         12    1    3    3    0    0  0.86380471235E+01  0.12400241177E+02  0.34488352750E+02  0.37654061066E+02  0.00000000000E+00 0. -1.
</event>
<event>
 7    1  0.3435518E-013  0.7246159E+02  0.7816164E-02  0.1226708E+00
        -11   -1    0    0    0    0  0.00000000000E+00  0.00000000000E+00  0.45593999997E+02  0.45594000000E+02  0.51100000000E-03 0.  1.
         11   -1    0    0    0    0 -0.00000000000E+00 -0.00000000000E+00 -0.45593999997E+02  0.45594000000E+02  0.51100000000E-03 0. -1.
    9900012    2    1    2    0    0  0.20292339367E+01  0.77173744067E+01 -0.16941152951E+02  0.72461592940E+02  0.70000029500E+02 0.  0.
        -12    1    1    2    0    0 -0.20292339367E+01 -0.77173744067E+01  0.16941152951E+02  0.18726407060E+02  0.00000000000E+00 0.  1.
         11    1    3    3    0    0  0.18221224625E+02 -0.74054577050E+01  0.48754198929E+00  0.19674641753E+02  0.51100000000E-03 0. -1.
        -11    1    3    3    0    0 -0.13198020708E+02 -0.12240972134E+02  0.33347173817E+01  0.18307088509E+02  0.51100000000E-03 0.  1.
         12    1    3    3    0    0 -0.29939699801E+01  0.27363804245E+02 -0.20763412322E+02  0.34479862677E+02  0.00000000000E+00 0. -1.
</event>
<event>
 7    1  0.3435518E-013  0.7246157E+02  0.7816164E-02  0.1226708E+00
        -11   -1    0    0    0    0  0.00000000000E+00  0.00000000000E+00  0.45593999997E+02  0.45594000000E+02  0.51100000000E-03 0.  1.
         11   -1    0    0    0    0 -0.00000000000E+00 -0.00000000000E+00 -0.45593999997E+02  0.45594000000E+02  0.51100000000E-03 0. -1.
    9900012    2    1    2    0    0  0.65439369267E+01  0.11308622023E+02 -0.13415330568E+02  0.72461571167E+02  0.70000001137E+02 0.  0.
        -12    1    1    2    0    0 -0.65439369267E+01 -0.11308622023E+02  0.13415330568E+02  0.18726428833E+02  0.00000000000E+00 0.  1.
         11    1    3    3    0    0  0.81491169119E+01 -0.18072322197E+01 -0.25287610800E+02  0.26629634901E+02  0.51100000000E-03 0. -1.
        -11    1    3    3    0    0  0.17826640685E+01  0.74354222714E+01 -0.15707780267E+02  0.17469910038E+02  0.51100000000E-03 0.  1.
        -12    1    3    3    0    0 -0.33878440538E+01  0.56804319715E+01  0.27580060498E+02  0.28362026229E+02  0.00000000000E+00 0.  1.
</event>
<event>
 7    1  0.3435518E-013  0.7246157E+02  0.7816164E-02  0.1226708E+00
        -11   -1    0    0    0    0  0.00000000000E+00  0.00000000000E+00  0.45593999997E+02  0.45594000000E+02  0.51100000000E-03 0.  1.
         11   -1    0    0    0    0 -0.00000000000E+00 -0.00000000000E+00 -0.45593999997E+02  0.45594000000E+02  0.51100000000E-03 0. -1.
    9900012    2    1    2    0    0 -0.62945829098E+01 -0.12901476351E+02 -0.12025355560E+02  0.72461573689E+02  0.70000004422E+02 0.  0.
        -12    1    1    2    0    0  0.62945829098E+01  0.12901476351E+02  0.12025355560E+02  0.18726426311E+02  0.00000000000E+00 0.  1.
         11    1    3    3    0    0  0.42461007652E+01 -0.12664661588E+02 -0.83295343501E-01  0.13357767898E+02  0.51100000000E-03 0. -1.
        -11    1    3    3    0    0  0.14643678644E+02  0.12834718448E+02  0.11222234205E+02  0.22474560345E+02  0.51100000000E-03 0.  1.
         12    1    3    3    0    0 -0.25184362319E+02 -0.13071533211E+02 -0.23164294422E+02  0.36629245446E+02  0.00000000000E+00 0. -1.
</event>
<event>
 7    1  0.3435518E-013  0.7246158E+02  0.7816164E-02  0.1226708E+00
        -11   -1    0    0    0    0  0.00000000000E+00  0.00000000000E+00  0.45593999997E+02  0.45594000000E+02  0.51100000000E-03 0.  1.
         11   -1    0    0    0    0 -0.00000000000E+00 -0.00000000000E+00 -0.45593999997E+02  0.45594000000E+02  0.51100000000E-03 0. -1.
    9900012    2    1    2    0    0  0.45841330494E+01 -0.89657366775E+00 -0.18134518003E+02  0.72461578469E+02  0.70000010649E+02 0.  0.
        -12    1    1    2    0    0 -0.45841330494E+01  0.89657366775E+00  0.18134518003E+02  0.18726421531E+02  0.00000000000E+00 0.  1.
         11    1    3    3    0    0 -0.73890897368E+00  0.91198310059E+01  0.29037123705E+00  0.91543224634E+01  0.51100000000E-03 0. -1.
        -11    1    3    3    0    0  0.21884381134E+02  0.10031553242E+02  0.88253010245E+01  0.25640673480E+02  0.51100000000E-03 0.  1.
         12    1    3    3    0    0 -0.16561339111E+02 -0.20047957916E+02 -0.27250190265E+02  0.37666582526E+02  0.00000000000E+00 0. -1.
</event>
<event>
 7    1  0.3435518E-013  0.7246157E+02  0.7816164E-02  0.1226708E+00
        -11   -1    0    0    0    0  0.00000000000E+00  0.00000000000E+00  0.45593999997E+02  0.45594000000E+02  0.51100000000E-03 0.  1.
         11   -1    0    0    0    0 -0.00000000000E+00 -0.00000000000E+00 -0.45593999997E+02  0.45594000000E+02  0.51100000000E-03 0. -1.
    9900012    2    1    2    0    0 -0.12436002872E+02 -0.11146491683E+02 -0.84723492124E+01  0.72461570937E+02  0.70000000838E+02 0.  0.
        -12    1    1    2    0    0  0.12436002872E+02  0.11146491683E+02  0.84723492124E+01  0.18726429063E+02  0.00000000000E+00 0.  1.
         11    1    3    3    0    0  0.85163895701E+01 -0.21390457458E+02  0.80217423461E+01  0.24380912864E+02  0.51100000000E-03 0. -1.
        -11    1    3    3    0    0 -0.18220457418E+01 -0.50278543781E+00  0.11982680930E+02  0.12130840301E+02  0.51100000000E-03 0.  1.
        -12    1    3    3    0    0 -0.19130346700E+02  0.10746751213E+02 -0.28476772488E+02  0.35949817772E+02  0.00000000000E+00 0.  1.
</event>
<event>
 7    1  0.3435518E-013  0.7246155E+02  0.7816164E-02  0.1226708E+00
        -11   -1    0    0    0    0  0.00000000000E+00  0.00000000000E+00  0.45593999997E+02  0.45594000000E+02  0.51100000000E-03 0.  1.
         11   -1    0    0    0    0 -0.00000000000E+00 -0.00000000000E+00 -0.45593999997E+02  0.45594000000E+02  0.51100000000E-03 0. -1.
    9900012    2    1    2    0    0  0.10454140181E+02 -0.12596741605E+02 -0.90946632472E+01  0.72461552243E+02  0.69999976485E+02 0.  0.
        -12    1    1    2    0    0 -0.10454140181E+02  0.12596741605E+02  0.90946632472E+01  0.18726447757E+02  0.00000000000E+00 0.  1.
         11    1    3    3    0    0  0.59950565457E+01  0.21810070011E+02 -0.17728581152E+02  0.28738866484E+02  0.51100000000E-03 0. -1.
        -11    1    3    3    0    0 -0.15024653263E+01  0.66785456351E+00  0.79710041575E+01  0.81388168252E+01  0.51100000000E-03 0.  1.
         12    1    3    3    0    0  0.59615489620E+01 -0.35074666180E+02  0.66291374691E+00  0.35583868934E+02  0.00000000000E+00 0. -1.
</event>
<event>
 7    1  0.3435518E-013  0.7246166E+02  0.7816164E-02  0.1226708E+00
        -11   -1    0    0    0    0  0.00000000000E+00  0.00000000000E+00  0.45593999997E+02  0.45594000000E+02  0.51100000000E-03 0.  1.
         11   -1    0    0    0    0 -0.00000000000E+00 -0.00000000000E+00 -0.45593999997E+02  0.45594000000E+02  0.51100000000E-03 0. -1.
    9900012    2    1    2    0    0  0.93672362451E+01 -0.72576098531E+01 -0.14500273167E+02  0.72461656589E+02  0.70000112414E+02 0.  0.
        -12    1    1    2    0    0 -0.93672362451E+01  0.72576098531E+01  0.14500273167E+02  0.18726343411E+02  0.00000000000E+00 0.  1.
         11    1    3    3    0    0 -0.12172363368E+02 -0.21666190317E+02  0.10467349573E+02  0.26965823557E+02  0.51100000000E-03 0. -1.
        -11    1    3    3    0    0 -0.27126129142E+01  0.21580083799E+00  0.41936214050E+01  0.49991298816E+01  0.51100000000E-03 0.  1.
         12    1    3    3    0    0  0.24252212527E+02  0.14192779626E+02 -0.29161244144E+02  0.40496703150E+02  0.00000000000E+00 0. -1.
</event>
<event>
 7    1  0.3435518E-013  0.7246160E+02  0.7816164E-02  0.1226708E+00
        -11   -1    0    0    0    0  0.00000000000E+00  0.00000000000E+00  0.45593999997E+02  0.45594000000E+02  0.51100000000E-03 0. -1.
         11   -1    0    0    0    0 -0.00000000000E+00 -0.00000000000E+00 -0.45593999997E+02  0.45594000000E+02  0.51100000000E-03 0.  1.
    9900012    2    1    2    0    0 -0.54609155615E+01 -0.11712540777E+02  0.13552594073E+02  0.72461601084E+02  0.70000040110E+02 0.  0.
        -12    1    1    2    0    0  0.54609155615E+01  0.11712540777E+02 -0.13552594073E+02  0.18726398916E+02  0.00000000000E+00 0.  1.
         11    1    3    3    0    0  0.13284713082E+02  0.16553281448E+02  0.22094397150E+02  0.30637511551E+02  0.51100000000E-03 0. -1.
        -11    1    3    3    0    0 -0.15036250052E+01 -0.98145540758E+01  0.70207598711E+01  0.12160486392E+02  0.51100000000E-03 0.  1.
        -12    1    3    3    0    0 -0.17242003639E+02 -0.18451268150E+02 -0.15562562947E+02  0.29663603141E+02  0.00000000000E+00 0.  1.
</event>
<event>
 7    1  0.3435518E-013  0.7246156E+02  0.7816164E-02  0.1226708E+00
        -11   -1    0    0    0    0  0.00000000000E+00  0.00000000000E+00  0.45593999997E+02  0.45594000000E+02  0.51100000000E-03 0.  1.
         11   -1    0    0    0    0 -0.00000000000E+00 -0.00000000000E+00 -0.45593999997E+02  0.45594000000E+02  0.51100000000E-03 0. -1.
    9900012    2    1    2    0    0  0.86263988107E+01 -0.14197129653E+02 -0.86432888263E+01  0.72461556436E+02  0.69999981947E+02 0.  0.
        -12    1    1    2    0    0 -0.86263988107E+01  0.14197129653E+02  0.86432888263E+01  0.18726443564E+02  0.00000000000E+00 0.  1.
         11    1    3    3    0    0 -0.11899807985E+02  0.16436703689E+02 -0.74564572314E+01  0.21618728292E+02  0.51100000000E-03 0. -1.
        -11    1    3    3    0    0  0.39557896353E+01  0.76994743542E+01 -0.26589925339E+01  0.90554082474E+01  0.51100000000E-03 0.  1.
        -12    1    3    3    0    0  0.16570417160E+02 -0.38333307696E+02  0.14721609390E+01  0.41787419897E+02  0.00000000000E+00 0.  1.
</event>
<event>
 7    1  0.3435518E-013  0.7246154E+02  0.7816164E-02  0.1226708E+00
        -11   -1    0    0    0    0  0.00000000000E+00  0.00000000000E+00  0.45593999997E+02  0.45594000000E+02  0.51100000000E-03 0.  1.
         11   -1    0    0    0    0 -0.00000000000E+00 -0.00000000000E+00 -0.45593999997E+02  0.45594000000E+02  0.51100000000E-03 0. -1.
    9900012    2    1    2    0    0 -0.83549191004E+01  0.14409798358E+02 -0.85576401732E+01  0.72461543655E+02  0.69999965297E+02 0.  0.
        -12    1    1    2    0    0  0.83549191004E+01 -0.14409798358E+02  0.85576401732E+01  0.18726456345E+02  0.00000000000E+00 0.  1.
         11    1    3    3    0    0  0.16741350010E+02 -0.85784568942E+01 -0.11042607632E+02  0.21812883955E+02  0.51100000000E-03 0. -1.
        -11    1    3    3    0    0  0.19702469435E+01 -0.79294907551E+01 -0.39179343421E+01  0.90613964941E+01  0.51100000000E-03 0.  1.
        -12    1    3    3    0    0 -0.27066516054E+02  0.30917746008E+02  0.64029018004E+01  0.41587263206E+02  0.00000000000E+00 0.  1.
</event>
<event>
 7    1  0.3435518E-013  0.7246157E+02  0.7816164E-02  0.1226708E+00
        -11   -1    0    0    0    0  0.00000000000E+00  0.00000000000E+00  0.45593999997E+02  0.45594000000E+02  0.51100000000E-03 0. -1.
         11   -1    0    0    0    0 -0.00000000000E+00 -0.00000000000E+00 -0.45593999997E+02  0.45594000000E+02  0.51100000000E-03 0.  1.
    9900012    2    1    2    0    0 -0.17311870761E+02 -0.67585512980E+01  0.23022311258E+01  0.72461570734E+02  0.70000000572E+02 0.  0.
        -12    1    1    2    0    0  0.17311870761E+02  0.67585512980E+01 -0.23022311258E+01  0.18726429266E+02  0.00000000000E+00 0.  1.
         11    1    3    3    0    0  0.71714096931E+01  0.11594226270E+02 -0.76486441974E+01  0.15631921127E+02  0.51100000000E-03 0. -1.
        -11    1    3    3    0    0  0.18028795195E+00  0.47334463415E+01 -0.14417243630E+02  0.15175471398E+02  0.51100000000E-03 0.  1.
        -12    1    3    3    0    0 -0.24663568406E+02 -0.23086223910E+02  0.24368118953E+02  0.41654178209E+02  0.00000000000E+00 0.  1.
</event>
<event>
 7    1  0.3435518E-013  0.7246149E+02  0.7816164E-02  0.1226708E+00
        -11   -1    0    0    0    0  0.00000000000E+00  0.00000000000E+00  0.45593999997E+02  0.45594000000E+02  0.51100000000E-03 0.  1.
         11   -1    0    0    0    0 -0.00000000000E+00 -0.00000000000E+00 -0.45593999997E+02  0.45594000000E+02  0.51100000000E-03 0. -1.
    9900012    2    1    2    0    0  0.16464770648E+01 -0.59312012638E+00 -0.18644559244E+02  0.72461487575E+02  0.69999892243E+02 0.  0.
        -12    1    1    2    0    0 -0.16464770648E+01  0.59312012638E+00  0.18644559244E+02  0.18726512425E+02  0.00000000000E+00 0.  1.
         11    1    3    3    0    0  0.54824338793E+01 -0.19157539608E+02 -0.12894339609E+02  0.23734624482E+02  0.51100000000E-03 0. -1.
        -11    1    3    3    0    0  0.16446022253E+02  0.40343213870E+01 -0.14493925230E+02  0.22289487787E+02  0.51100000000E-03 0.  1.
         12    1    3    3    0    0 -0.20281979067E+02  0.14530098095E+02  0.87437055953E+01  0.26437375306E+02  0.00000000000E+00 0. -1.
</event>
<event>
 7    1  0.3457945E-013  0.7246158E+02  0.7816164E-02  0.1226708E+00
        -11   -1    0    0    0    0  0.00000000000E+00  0.00000000000E+00  0.45593999997E+02  0.45594000000E+02  0.51100000000E-03 0. -1.
         11   -1    0    0    0    0 -0.00000000000E+00 -0.00000000000E+00 -0.45593999997E+02  0.45594000000E+02  0.51100000000E-03 0.  1.
    9900012    2    1    2    0    0  0.27684975165E+01  0.11970751836E+02  0.14132063106E+02  0.72461583213E+02  0.70000016830E+02 0.  0.
        -12    1    1    2    0    0 -0.27684975165E+01 -0.11970751836E+02 -0.14132063106E+02  0.18726416787E+02  0.00000000000E+00 0.  1.
         11    1    3    3    0    0 -0.74532979002E+01  0.34953047789E+01  0.12014243805E+01  0.83193885526E+01  0.51100000000E-03 0. -1.
        -11    1    3    3    0    0 -0.60433828066E+01  0.18190273702E+02 -0.19015982129E+02  0.27000298326E+02  0.51100000000E-03 0.  1.
         12    1    3    3    0    0  0.16265178223E+02 -0.97148266446E+01  0.31946620854E+02  0.37141896335E+02  0.00000000000E+00 0. -1.
</event>
<event>
 7    1  0.3435518E-013  0.7246155E+02  0.7816164E-02  0.1226708E+00
        -11   -1    0    0    0    0  0.00000000000E+00  0.00000000000E+00  0.45593999997E+02  0.45594000000E+02  0.51100000000E-03 0. -1.
         11   -1    0    0    0    0 -0.00000000000E+00 -0.00000000000E+00 -0.45593999997E+02  0.45594000000E+02  0.51100000000E-03 0.  1.
    9900012    2    1    2    0    0  0.14232214018E+02 -0.49395142991E+01  0.11123185384E+02  0.72461548909E+02  0.69999972142E+02 0.  0.
        -12    1    1    2    0    0 -0.14232214018E+02  0.49395142991E+01 -0.11123185384E+02  0.18726451091E+02  0.00000000000E+00 0.  1.
         11    1    3    3    0    0  0.12803318251E+02 -0.65331497204E+01  0.25034835914E+02  0.28867802358E+02  0.51100000000E-03 0. -1.
        -11    1    3    3    0    0  0.87943893806E+01 -0.18170833226E+02 -0.77001862288E+01  0.21605863392E+02  0.51100000000E-03 0.  1.
        -12    1    3    3    0    0 -0.73654936129E+01  0.19764468647E+02 -0.62114643017E+01  0.21987883159E+02  0.00000000000E+00 0.  1.
</event>
<event>
 7    1  0.3435518E-013  0.7246156E+02  0.7816164E-02  0.1226708E+00
        -11   -1    0    0    0    0  0.00000000000E+00  0.00000000000E+00  0.45593999997E+02  0.45594000000E+02  0.51100000000E-03 0.  1.
         11   -1    0    0    0    0 -0.00000000000E+00 -0.00000000000E+00 -0.45593999997E+02  0.45594000000E+02  0.51100000000E-03 0. -1.
    9900012    2    1    2    0    0 -0.29202061133E+01 -0.36651563489E+01 -0.18130598777E+02  0.72461559153E+02  0.69999985486E+02 0.  0.
        -12    1    1    2    0    0  0.29202061133E+01  0.36651563489E+01  0.18130598777E+02  0.18726440847E+02  0.00000000000E+00 0.  1.
         11    1    3    3    0    0  0.22507265396E+01 -0.53482072959E+01  0.45331201565E+01  0.73633056334E+01  0.51100000000E-03 0. -1.
        -11    1    3    3    0    0  0.26915351268E+02 -0.68956573690E+01 -0.11302227813E+02  0.29995442625E+02  0.51100000000E-03 0.  1.
         12    1    3    3    0    0 -0.32086283921E+02  0.85787083160E+01 -0.11361491120E+02  0.35102810895E+02  0.00000000000E+00 0. -1.
</event>
<event>
 7    1  0.3435518E-013  0.7246157E+02  0.7816164E-02  0.1226708E+00
        -11   -1    0    0    0    0  0.00000000000E+00  0.00000000000E+00  0.45593999997E+02  0.45594000000E+02  0.51100000000E-03 0.  1.
         11   -1    0    0    0    0 -0.00000000000E+00 -0.00000000000E+00 -0.45593999997E+02  0.45594000000E+02  0.51100000000E-03 0. -1.
    9900012    2    1    2    0    0  0.12658891028E+02 -0.42679839498E-01 -0.13799626364E+02  0.72461573982E+02  0.70000004804E+02 0.  0.
        -12    1    1    2    0    0 -0.12658891028E+02  0.42679839498E-01  0.13799626364E+02  0.18726426018E+02  0.00000000000E+00 0.  1.
         11    1    3    3    0    0  0.62861044288E+01 -0.23166374725E+02  0.51180682789E+00  0.24009539214E+02  0.51100000000E-03 0. -1.
        -11    1    3    3    0    0  0.13772898617E+02 -0.28076040413E+01  0.53912352087E+01  0.15054593787E+02  0.51100000000E-03 0.  1.
        -12    1    3    3    0    0 -0.74001120181E+01  0.25931298927E+02 -0.19702668401E+02  0.33397440980E+02  0.00000000000E+00 0.  1.
</event>
<event>
 7    1  0.3435518E-013  0.7246153E+02  0.7816164E-02  0.1226708E+00
        -11   -1    0    0    0    0  0.00000000000E+00  0.00000000000E+00  0.45593999997E+02  0.45594000000E+02  0.51100000000E-03 0.  1.
         11   -1    0    0    0    0 -0.00000000000E+00 -0.00000000000E+00 -0.45593999997E+02  0.45594000000E+02  0.51100000000E-03 0. -1.
    9900012    2    1    2    0    0 -0.91737834435E+01 -0.53534651590E+01 -0.15422795000E+02  0.72461534837E+02  0.69999953810E+02 0.  0.
        -12    1    1    2    0    0  0.91737834435E+01  0.53534651590E+01  0.15422795000E+02  0.18726465163E+02  0.00000000000E+00 0.  1.
         11    1    3    3    0    0 -0.73502612604E+01 -0.23331351256E+02 -0.26312124380E+02  0.35926399508E+02  0.51100000000E-03 0. -1.
        -11    1    3    3    0    0 -0.27625875077E+01  0.13883915880E+02 -0.86231482779E+01  0.16575695954E+02  0.51100000000E-03 0.  1.
        -12    1    3    3    0    0  0.93906532464E+00  0.40939702169E+01  0.19512477657E+02  0.19959439374E+02  0.00000000000E+00 0.  1.
</event>
<event>
 7    1  0.3435518E-013  0.7246149E+02  0.7816164E-02  0.1226708E+00
        -11   -1    0    0    0    0  0.00000000000E+00  0.00000000000E+00  0.45593999997E+02  0.45594000000E+02  0.51100000000E-03 0.  1.
         11   -1    0    0    0    0 -0.00000000000E+00 -0.00000000000E+00 -0.45593999997E+02  0.45594000000E+02  0.51100000000E-03 0. -1.
    9900012    2    1    2    0    0 -0.45700145505E+01  0.74115269855E+01 -0.16579095488E+02  0.72461490116E+02  0.69999895553E+02 0.  0.
        -12    1    1    2    0    0  0.45700145505E+01 -0.74115269855E+01  0.16579095488E+02  0.18726509884E+02  0.00000000000E+00 0.  1.
         11    1    3    3    0    0 -0.13506008569E+02  0.17680655194E+02 -0.14628717622E+02  0.26627377173E+02  0.51100000000E-03 0. -1.
        -11    1    3    3    0    0  0.10170125214E+02  0.10361900277E+02 -0.15408066877E+02  0.21170945878E+02  0.51100000000E-03 0.  1.
        -12    1    3    3    0    0 -0.12341311949E+01 -0.20631028486E+02  0.13457689011E+02  0.24663167066E+02  0.00000000000E+00 0.  1.
</event>
<event>
 7    1  0.3435518E-013  0.7246158E+02  0.7816164E-02  0.1226708E+00
        -11   -1    0    0    0    0  0.00000000000E+00  0.00000000000E+00  0.45593999997E+02  0.45594000000E+02  0.51100000000E-03 0.  1.
         11   -1    0    0    0    0 -0.00000000000E+00 -0.00000000000E+00 -0.45593999997E+02  0.45594000000E+02  0.51100000000E-03 0. -1.
    9900012    2    1    2    0    0  0.18468885029E+02  0.58720993837E+00  0.30387914481E+01  0.72461580610E+02  0.70000013437E+02 0.  0.
        -12    1    1    2    0    0 -0.18468885029E+02 -0.58720993837E+00 -0.30387914481E+01  0.18726419390E+02  0.00000000000E+00 0.  1.
         11    1    3    3    0    0  0.13954518174E+01 -0.50301403723E+01 -0.15676614106E+02  0.16522888005E+02  0.51100000000E-03 0. -1.
        -11    1    3    3    0    0 -0.44851308868E+01  0.20851325580E+02  0.20364894951E+02  0.29489373071E+02  0.51100000000E-03 0.  1.
         12    1    3    3    0    0  0.21558564098E+02 -0.15233975270E+02 -0.16494893968E+01  0.26449319533E+02  0.00000000000E+00 0. -1.
</event>
<event>
 7    1  0.3435518E-013  0.7246144E+02  0.7816164E-02  0.1226708E+00
        -11   -1    0    0    0    0  0.00000000000E+00  0.00000000000E+00  0.45593999997E+02  0.45594000000E+02  0.51100000000E-03 0.  1.
         11   -1    0    0    0    0 -0.00000000000E+00 -0.00000000000E+00 -0.45593999997E+02  0.45594000000E+02  0.51100000000E-03 0. -1.
    9900012    2    1    2    0    0  0.13133534023E+02  0.23977236609E+01 -0.13131837890E+02  0.72461442360E+02  0.69999833341E+02 0.  0.
        -12    1    1    2    0    0 -0.13133534023E+02 -0.23977236609E+01  0.13131837890E+02  0.18726557640E+02  0.00000000000E+00 0.  1.
         11    1    3    3    0    0 -0.13720555103E+02  0.42200989784E+01  0.13626717359E+02  0.19792682839E+02  0.51100000000E-03 0. -1.
        -11    1    3    3    0    0  0.13521272187E+02 -0.16178480316E+01  0.77534675434E+01  0.15670306092E+02  0.51100000000E-03 0.  1.
         12    1    3    3    0    0  0.13332816939E+02 -0.20452728583E+00 -0.34512022793E+02  0.36998453429E+02  0.00000000000E+00 0. -1.
</event>
<event>
 7    1  0.3435518E-013  0.7246155E+02  0.7816164E-02  0.1226708E+00
        -11   -1    0    0    0    0  0.00000000000E+00  0.00000000000E+00  0.45593999997E+02  0.45594000000E+02  0.51100000000E-03 0.  1.
         11   -1    0    0    0    0 -0.00000000000E+00 -0.00000000000E+00 -0.45593999997E+02  0.45594000000E+02  0.51100000000E-03 0. -1.
    9900012    2    1    2    0    0 -0.16078304527E+02  0.23740900262E+00 -0.95974787503E+01  0.72461552450E+02  0.69999976754E+02 0.  0.
        -12    1    1    2    0    0  0.16078304527E+02 -0.23740900262E+00  0.95974787503E+01  0.18726447550E+02  0.00000000000E+00 0.  1.
         11    1    3    3    0    0  0.82908477627E+01  0.14500549423E+02 -0.16518151813E+02  0.23491560821E+02  0.51100000000E-03 0. -1.
        -11    1    3    3    0    0 -0.13685679194E+02  0.45622083186E+00 -0.15116673541E+02  0.20396562741E+02  0.51100000000E-03 0.  1.
        -12    1    3    3    0    0 -0.10683473095E+02 -0.14719361253E+02  0.22037346604E+02  0.28573428888E+02  0.00000000000E+00 0.  1.
</event>
<event>
 7    1  0.3435518E-013  0.7246158E+02  0.7816164E-02  0.1226708E+00
        -11   -1    0    0    0    0  0.00000000000E+00  0.00000000000E+00  0.45593999997E+02  0.45594000000E+02  0.51100000000E-03 0. -1.
         11   -1    0    0    0    0 -0.00000000000E+00 -0.00000000000E+00 -0.45593999997E+02  0.45594000000E+02  0.51100000000E-03 0.  1.
    9900012    2    1    2    0    0  0.72796221868E+01  0.35662521888E+01  0.16880984457E+02  0.72461583095E+02  0.70000016676E+02 0.  0.
        -12    1    1    2    0    0 -0.72796221868E+01 -0.35662521888E+01 -0.16880984457E+02  0.18726416905E+02  0.00000000000E+00 0.  1.
         11    1    3    3    0    0 -0.30460833322E+00  0.15781916279E+02  0.46804199067E+01  0.16464142809E+02  0.51100000000E-03 0. -1.
        -11    1    3    3    0    0 -0.22625846193E+02 -0.49293404253E+01  0.86478819576E+01  0.24718680701E+02  0.51100000000E-03 0.  1.
         12    1    3    3    0    0  0.30210076713E+02 -0.72863236646E+01  0.35526825926E+01  0.31278759585E+02  0.00000000000E+00 0. -1.
</event>
<event>
 7    1  0.3435518E-013  0.7246158E+02  0.7816164E-02  0.1226708E+00
        -11   -1    0    0    0    0  0.00000000000E+00  0.00000000000E+00  0.45593999997E+02  0.45594000000E+02  0.51100000000E-03 0. -1.
         11   -1    0    0    0    0 -0.00000000000E+00 -0.00000000000E+00 -0.45593999997E+02  0.45594000000E+02  0.51100000000E-03 0.  1.
    9900012    2    1    2    0    0  0.17878182476E+02  0.13922322793E+01  0.53954638326E+01  0.72461581513E+02  0.70000014615E+02 0.  0.
        -12    1    1    2    0    0 -0.17878182476E+02 -0.13922322793E+01 -0.53954638326E+01  0.18726418487E+02  0.00000000000E+00 0.  1.
         11    1    3    3    0    0  0.10913616095E+02  0.18736175994E+02 -0.13979269345E+02  0.25798668160E+02  0.51100000000E-03 0. -1.
        -11    1    3    3    0    0  0.14966737256E+02  0.39915937755E+01 -0.17526499903E+01  0.15588708324E+02  0.51100000000E-03 0.  1.
         12    1    3    3    0    0 -0.80021708750E+01 -0.21335537490E+02  0.21127383168E+02  0.31074205029E+02  0.00000000000E+00 0. -1.
</event>
<event>
 7    1  0.3435518E-013  0.7246156E+02  0.7816164E-02  0.1226708E+00
        -11   -1    0    0    0    0  0.00000000000E+00  0.00000000000E+00  0.45593999997E+02  0.45594000000E+02  0.51100000000E-03 0. -1.
         11   -1    0    0    0    0 -0.00000000000E+00 -0.00000000000E+00 -0.45593999997E+02  0.45594000000E+02  0.51100000000E-03 0.  1.
    9900012    2    1    2    0    0 -0.63426364000E+01  0.17151952085E+02  0.40324797823E+01  0.72461564407E+02  0.69999992330E+02 0.  0.
        -12    1    1    2    0    0  0.63426364000E+01 -0.17151952085E+02 -0.40324797823E+01  0.18726435593E+02  0.00000000000E+00 0.  1.
         11    1    3    3    0    0 -0.11444634118E+00 -0.14181849637E+02  0.22921737200E+02  0.26954480028E+02  0.51100000000E-03 0. -1.
        -11    1    3    3    0    0  0.24369879874E+01  0.94034543326E+01  0.58424586985E+01  0.11335704113E+02  0.51100000000E-03 0.  1.
        -12    1    3    3    0    0 -0.86651780463E+01  0.21930347389E+02 -0.24731716116E+02  0.34171380265E+02  0.00000000000E+00 0.  1.
</event>
<event>
 7    1  0.3435518E-013  0.7246159E+02  0.7816164E-02  0.1226708E+00
        -11   -1    0    0    0    0  0.00000000000E+00  0.00000000000E+00  0.45593999997E+02  0.45594000000E+02  0.51100000000E-03 0.  1.
         11   -1    0    0    0    0 -0.00000000000E+00 -0.00000000000E+00 -0.45593999997E+02  0.45594000000E+02  0.51100000000E-03 0. -1.
    9900012    2    1    2    0    0  0.77458305036E+01  0.96719501122E+01 -0.14040444151E+02  0.72461586005E+02  0.70000020466E+02 0.  0.
        -12    1    1    2    0    0 -0.77458305036E+01 -0.96719501122E+01  0.14040444151E+02  0.18726413995E+02  0.00000000000E+00 0.  1.
         11    1    3    3    0    0  0.17293955593E+01  0.15227720163E+02 -0.28774730700E+02  0.32601524466E+02  0.51100000000E-03 0. -1.
        -11    1    3    3    0    0  0.19556605036E+01 -0.88428360343E+01 -0.10629110875E+02  0.13964181157E+02  0.51100000000E-03 0.  1.
        -12    1    3    3    0    0  0.40607744408E+01  0.32870659831E+01  0.25363397424E+02  0.25895880382E+02  0.00000000000E+00 0.  1.
</event>
<event>
 7    1  0.3435518E-013  0.7246168E+02  0.7816164E-02  0.1226708E+00
        -11   -1    0    0    0    0  0.00000000000E+00  0.00000000000E+00  0.45593999997E+02  0.45594000000E+02  0.51100000000E-03 0.  1.
         11   -1    0    0    0    0 -0.00000000000E+00 -0.00000000000E+00 -0.45593999997E+02  0.45594000000E+02  0.51100000000E-03 0. -1.
    9900012    2    1    2    0    0  0.79879042191E+01  0.12903451498E+02  0.10971292339E+02  0.72461683492E+02  0.70000147461E+02 0.  0.
        -12    1    1    2    0    0 -0.79879042191E+01 -0.12903451498E+02 -0.10971292339E+02  0.18726316508E+02  0.00000000000E+00 0.  1.
         11    1    3    3    0    0 -0.97964502999E+01  0.22245698803E+02 -0.43380515661E+01  0.24691298981E+02  0.51100000000E-03 0. -1.
        -11    1    3    3    0    0 -0.86683319245E+01 -0.13205277891E+02 -0.20004707605E+01  0.15922349891E+02  0.51100000000E-03 0.  1.
        -12    1    3    3    0    0  0.26452686444E+02  0.38630305860E+01  0.17309814666E+02  0.31848034620E+02  0.00000000000E+00 0.  1.
</event>
<event>
 7    1  0.3435518E-013  0.7246158E+02  0.7816164E-02  0.1226708E+00
        -11   -1    0    0    0    0  0.00000000000E+00  0.00000000000E+00  0.45593999997E+02  0.45594000000E+02  0.51100000000E-03 0. -1.
         11   -1    0    0    0    0 -0.00000000000E+00 -0.00000000000E+00 -0.45593999997E+02  0.45594000000E+02  0.51100000000E-03 0.  1.
    9900012    2    1    2    0    0  0.39851310942E+01 -0.17510988503E+02  0.53068624524E+01  0.72461580767E+02  0.70000013643E+02 0.  0.
        -12    1    1    2    0    0 -0.39851310942E+01  0.17510988503E+02 -0.53068624524E+01  0.18726419233E+02  0.00000000000E+00 0.  1.
         11    1    3    3    0    0  0.74224727341E+01  0.75770657104E+01 -0.55629256176E+00  0.10621416475E+02  0.51100000000E-03 0. -1.
        -11    1    3    3    0    0  0.19140843270E+02 -0.17898704461E+02 -0.15063967741E+02  0.30226786578E+02  0.51100000000E-03 0.  1.
        -12    1    3    3    0    0 -0.22578184910E+02 -0.71893497521E+01  0.20927122755E+02  0.31613377714E+02  0.00000000000E+00 0.  1.
</event>
<event>
 7    1  0.3435518E-013  0.7246158E+02  0.7816164E-02  0.1226708E+00
        -11   -1    0    0    0    0  0.00000000000E+00  0.00000000000E+00  0.45593999997E+02  0.45594000000E+02  0.51100000000E-03 0.  1.
         11   -1    0    0    0    0 -0.00000000000E+00 -0.00000000000E+00 -0.45593999997E+02  0.45594000000E+02  0.51100000000E-03 0. -1.
    9900012    2    1    2    0    0  0.16299919334E+02  0.64322657892E+01 -0.66043349348E+01  0.72461584074E+02  0.70000017951E+02 0.  0.
        -12    1    1    2    0    0 -0.16299919334E+02 -0.64322657892E+01  0.66043349348E+01  0.18726415926E+02  0.00000000000E+00 0.  1.
         11    1    3    3    0    0 -0.27567290956E+01  0.18781070830E+02  0.69828662498E+01  0.20225938746E+02  0.51100000000E-03 0. -1.
        -11    1    3    3    0    0 -0.12673334543E+02 -0.18814560087E+01  0.52882040371E+01  0.13860677738E+02  0.51100000000E-03 0.  1.
         12    1    3    3    0    0  0.31729982973E+02 -0.10467349033E+02 -0.18875405222E+02  0.38374967590E+02  0.00000000000E+00 0. -1.
</event>
<event>
 7    1  0.3435518E-013  0.7246151E+02  0.7816164E-02  0.1226708E+00
        -11   -1    0    0    0    0  0.00000000000E+00  0.00000000000E+00  0.45593999997E+02  0.45594000000E+02  0.51100000000E-03 0.  1.
         11   -1    0    0    0    0 -0.00000000000E+00 -0.00000000000E+00 -0.45593999997E+02  0.45594000000E+02  0.51100000000E-03 0. -1.
    9900012    2    1    2    0    0 -0.15146701940E+02 -0.10559214301E+02  0.31244118098E+01  0.72461507123E+02  0.69999917707E+02 0.  0.
        -12    1    1    2    0    0  0.15146701940E+02  0.10559214301E+02 -0.31244118098E+01  0.18726492877E+02  0.00000000000E+00 0.  1.
         11    1    3    3    0    0 -0.51516857103E+01  0.16428395075E+02  0.10462643629E+02  0.20146933820E+02  0.51100000000E-03 0.  1.
        -11    1    3    3    0    0 -0.17739732580E+02 -0.21581374473E+02  0.12298945042E+02  0.30524054212E+02  0.51100000000E-03 0. -1.
        -12    1    3    3    0    0  0.77447163495E+01 -0.54062349039E+01 -0.19637176861E+02  0.21790519090E+02  0.00000000000E+00 0.  1.
</event>
<event>
 7    1  0.3435518E-013  0.7246158E+02  0.7816164E-02  0.1226708E+00
        -11   -1    0    0    0    0  0.00000000000E+00  0.00000000000E+00  0.45593999997E+02  0.45594000000E+02  0.51100000000E-03 0.  1.
         11   -1    0    0    0    0 -0.00000000000E+00 -0.00000000000E+00 -0.45593999997E+02  0.45594000000E+02  0.51100000000E-03 0. -1.
    9900012    2    1    2    0    0  0.69591680714E+01 -0.16267049041E+02  0.61344751617E+01  0.72461583090E+02  0.70000016669E+02 0.  0.
        -12    1    1    2    0    0 -0.69591680714E+01  0.16267049041E+02 -0.61344751617E+01  0.18726416910E+02  0.00000000000E+00 0.  1.
         11    1    3    3    0    0 -0.11427076344E+02 -0.87848472654E+01  0.32973489237E+02  0.35986144667E+02  0.51100000000E-03 0. -1.
        -11    1    3    3    0    0  0.62511724215E+01 -0.14673923259E+01 -0.94495150810E-02  0.64210969807E+01  0.51100000000E-03 0.  1.
        -12    1    3    3    0    0  0.12135071994E+02 -0.60148094501E+01 -0.26829564561E+02  0.30054341442E+02  0.00000000000E+00 0.  1.
</event>
<event>
 7    1  0.3435518E-013  0.7246154E+02  0.7816164E-02  0.1226708E+00
        -11   -1    0    0    0    0  0.00000000000E+00  0.00000000000E+00  0.45593999997E+02  0.45594000000E+02  0.51100000000E-03 0. -1.
         11   -1    0    0    0    0 -0.00000000000E+00 -0.00000000000E+00 -0.45593999997E+02  0.45594000000E+02  0.51100000000E-03 0.  1.
    9900012    2    1    2    0    0 -0.63614777954E+01  0.13669255533E+02  0.11106898512E+02  0.72461544352E+02  0.69999966206E+02 0.  0.
        -12    1    1    2    0    0  0.63614777954E+01 -0.13669255533E+02 -0.11106898512E+02  0.18726455648E+02  0.00000000000E+00 0.  1.
         11    1    3    3    0    0 -0.11029029599E+01 -0.86260127685E+01  0.18548755183E+02  0.20486112621E+02  0.51100000000E-03 0. -1.
        -11    1    3    3    0    0  0.12988296538E+02 -0.31422641591E+01  0.94849890151E+01  0.16387028037E+02  0.51100000000E-03 0.  1.
        -12    1    3    3    0    0 -0.18246871374E+02  0.25437532461E+02 -0.16926845686E+02  0.35588403694E+02  0.00000000000E+00 0.  1.
</event>
<event>
 7    1  0.3435518E-013  0.7246155E+02  0.7816164E-02  0.1226708E+00
        -11   -1    0    0    0    0  0.00000000000E+00  0.00000000000E+00  0.45593999997E+02  0.45594000000E+02  0.51100000000E-03 0. -1.
         11   -1    0    0    0    0 -0.00000000000E+00 -0.00000000000E+00 -0.45593999997E+02  0.45594000000E+02  0.51100000000E-03 0.  1.
    9900012    2    1    2    0    0 -0.55552119324E+01  0.80955742973E+01  0.15946195225E+02  0.72461552259E+02  0.69999976506E+02 0.  0.
        -12    1    1    2    0    0  0.55552119324E+01 -0.80955742973E+01 -0.15946195225E+02  0.18726447741E+02  0.00000000000E+00 0.  1.
         11    1    3    3    0    0 -0.36251582245E+02  0.25771509709E+01  0.11995095477E+02  0.38271415419E+02  0.51100000000E-03 0. -1.
        -11    1    3    3    0    0  0.20698236919E+02 -0.55208415477E+00 -0.24606730313E+01  0.20851300211E+02  0.51100000000E-03 0.  1.
        -12    1    3    3    0    0  0.99981333940E+01  0.60705074811E+01  0.64117727799E+01  0.13338836629E+02  0.00000000000E+00 0.  1.
</event>
<event>
 7    1  0.3435518E-013  0.7246158E+02  0.7816164E-02  0.1226708E+00
        -11   -1    0    0    0    0  0.00000000000E+00  0.00000000000E+00  0.45593999997E+02  0.45594000000E+02  0.51100000000E-03 0. -1.
         11   -1    0    0    0    0 -0.00000000000E+00 -0.00000000000E+00 -0.45593999997E+02  0.45594000000E+02  0.51100000000E-03 0.  1.
    9900012    2    1    2    0    0 -0.15151018221E+02 -0.10702094396E+02  0.25671953177E+01  0.72461583648E+02  0.70000017396E+02 0.  0.
        -12    1    1    2    0    0  0.15151018221E+02  0.10702094396E+02 -0.25671953177E+01  0.18726416352E+02  0.00000000000E+00 0.  1.
         11    1    3    3    0    0  0.70966145412E+01  0.56206752799E+01  0.22301992577E+02  0.24069333221E+02  0.51100000000E-03 0.  1.
        -11    1    3    3    0    0  0.84897345089E+01 -0.15829806477E+01  0.67190714580E+00  0.86621521134E+01  0.51100000000E-03 0. -1.
        -12    1    3    3    0    0 -0.30737367271E+02 -0.14739789028E+02 -0.20406704405E+02  0.39730098314E+02  0.00000000000E+00 0.  1.
</event>
<event>
 7    1  0.3435518E-013  0.7246157E+02  0.7816164E-02  0.1226708E+00
        -11   -1    0    0    0    0  0.00000000000E+00  0.00000000000E+00  0.45593999997E+02  0.45594000000E+02  0.51100000000E-03 0.  1.
         11   -1    0    0    0    0 -0.00000000000E+00 -0.00000000000E+00 -0.45593999997E+02  0.45594000000E+02  0.51100000000E-03 0. -1.
    9900012    2    1    2    0    0 -0.30006274277E+01 -0.16508183134E+02  0.83159742974E+01  0.72461566707E+02  0.69999995327E+02 0.  0.
        -12    1    1    2    0    0  0.30006274277E+01  0.16508183134E+02 -0.83159742974E+01  0.18726433293E+02  0.00000000000E+00 0.  1.
         11    1    3    3    0    0  0.65055569263E+01  0.13490023531E+02 -0.17286909911E+02  0.22872259624E+02  0.51100000000E-03 0. -1.
        -11    1    3    3    0    0 -0.12835357125E+02 -0.10962051369E+02 -0.76649348557E+00  0.16896759313E+02  0.51100000000E-03 0.  1.
        -12    1    3    3    0    0  0.33291727706E+01 -0.19036155295E+02  0.26369377694E+02  0.32692547771E+02  0.00000000000E+00 0.  1.
</event>
<event>
 7    1  0.3435518E-013  0.7246131E+02  0.7816164E-02  0.1226709E+00
        -11   -1    0    0    0    0  0.00000000000E+00  0.00000000000E+00  0.45593999997E+02  0.45594000000E+02  0.51100000000E-03 0. -1.
         11   -1    0    0    0    0 -0.00000000000E+00 -0.00000000000E+00 -0.45593999997E+02  0.45594000000E+02  0.51100000000E-03 0.  1.
    9900012    2    1    2    0    0  0.74363323520E+01  0.16856084006E+02  0.33559420180E+01  0.72461309056E+02  0.69999659688E+02 0.  0.
        -12    1    1    2    0    0 -0.74363323520E+01 -0.16856084006E+02 -0.33559420180E+01  0.18726690944E+02  0.00000000000E+00 0.  1.
         11    1    3    3    0    0 -0.13581877797E+01 -0.40657826202E+01  0.44656989315E+01  0.61901316276E+01  0.51100000000E-03 0. -1.
        -11    1    3    3    0    0 -0.87877903821E+01  0.21231735408E+02  0.25531705867E+02  0.34349379222E+02  0.51100000000E-03 0.  1.
        -12    1    3    3    0    0  0.17582310514E+02 -0.30986878195E+00 -0.26641462780E+02  0.31921798206E+02  0.00000000000E+00 0.  1.
</event>
<event>
 7    1  0.3435518E-013  0.7246089E+02  0.7816164E-02  0.1226710E+00
        -11   -1    0    0    0    0  0.00000000000E+00  0.00000000000E+00  0.45593999997E+02  0.45594000000E+02  0.51100000000E-03 0.  1.
         11   -1    0    0    0    0 -0.00000000000E+00 -0.00000000000E+00 -0.45593999997E+02  0.45594000000E+02  0.51100000000E-03 0. -1.
    9900012    2    1    2    0    0  0.90050012741E+01 -0.53501943033E+01 -0.15523850040E+02  0.72460892719E+02  0.69999117327E+02 0.  0.
        -12    1    1    2    0    0 -0.90050012741E+01  0.53501943033E+01  0.15523850040E+02  0.18727107281E+02  0.00000000000E+00 0.  1.
         11    1    3    3    0    0  0.44914155533E+01 -0.16077317652E+02 -0.17324692477E+02  0.24058219515E+02  0.51100000000E-03 0. -1.
        -11    1    3    3    0    0 -0.10874545202E+02 -0.10816718976E+02 -0.11117963078E+02  0.18943765360E+02  0.51100000000E-03 0.  1.
         12    1    3    3    0    0  0.15388130923E+02  0.21543842325E+02  0.12918805515E+02  0.29458907844E+02  0.00000000000E+00 0. -1.
</event>
<event>
 7    1  0.3435518E-013  0.7246152E+02  0.7816164E-02  0.1226708E+00
        -11   -1    0    0    0    0  0.00000000000E+00  0.00000000000E+00  0.45593999997E+02  0.45594000000E+02  0.51100000000E-03 0.  1.
         11   -1    0    0    0    0 -0.00000000000E+00 -0.00000000000E+00 -0.45593999997E+02  0.45594000000E+02  0.51100000000E-03 0. -1.
    9900012    2    1    2    0    0  0.77519875739E+01  0.99925501682E+01  0.13810747841E+02  0.72461518052E+02  0.69999931945E+02 0.  0.
        -12    1    1    2    0    0 -0.77519875739E+01 -0.99925501682E+01 -0.13810747841E+02  0.18726481948E+02  0.00000000000E+00 0.  1.
         11    1    3    3    0    0 -0.10243118592E+01 -0.10926167143E+02  0.18319789708E+02  0.21355211037E+02  0.51100000000E-03 0. -1.
        -11    1    3    3    0    0 -0.78493468353E+01  0.16864925790E+02  0.15900603478E+02  0.24471762480E+02  0.51100000000E-03 0.  1.
         12    1    3    3    0    0  0.16625646268E+02  0.40537915215E+01 -0.20409645344E+02  0.26634544536E+02  0.00000000000E+00 0. -1.
</event>
<event>
 7    1  0.3435518E-013  0.7246158E+02  0.7816164E-02  0.1226708E+00
        -11   -1    0    0    0    0  0.00000000000E+00  0.00000000000E+00  0.45593999997E+02  0.45594000000E+02  0.51100000000E-03 0.  1.
         11   -1    0    0    0    0 -0.00000000000E+00 -0.00000000000E+00 -0.45593999997E+02  0.45594000000E+02  0.51100000000E-03 0. -1.
    9900012    2    1    2    0    0 -0.94423523296E+01  0.67388273073E+01 -0.14700647240E+02  0.72461579086E+02  0.70000011452E+02 0.  0.
        -12    1    1    2    0    0  0.94423523296E+01 -0.67388273073E+01  0.14700647240E+02  0.18726420914E+02  0.00000000000E+00 0.  1.
         11    1    3    3    0    0  0.17908038903E+02 -0.50771959868E+01 -0.19554971962E+02  0.26997642585E+02  0.51100000000E-03 0. -1.
        -11    1    3    3    0    0 -0.40440923184E+01  0.15817831709E+02 -0.83942603125E+01  0.18358161376E+02  0.51100000000E-03 0.  1.
        -12    1    3    3    0    0 -0.23306298914E+02 -0.40018084149E+01  0.13248585035E+02  0.27105775124E+02  0.00000000000E+00 0.  1.
</event>
<event>
 7    1  0.3435518E-013  0.7246176E+02  0.7816164E-02  0.1226708E+00
        -11   -1    0    0    0    0  0.00000000000E+00  0.00000000000E+00  0.45593999997E+02  0.45594000000E+02  0.51100000000E-03 0.  1.
         11   -1    0    0    0    0 -0.00000000000E+00 -0.00000000000E+00 -0.45593999997E+02  0.45594000000E+02  0.51100000000E-03 0. -1.
    9900012    2    1    2    0    0 -0.45196603272E+01  0.17904677978E+02 -0.31092400330E+01  0.72461756475E+02  0.70000242535E+02 0.  0.
        -12    1    1    2    0    0  0.45196603272E+01 -0.17904677978E+02  0.31092400330E+01  0.18726243525E+02  0.00000000000E+00 0.  1.
         11    1    3    3    0    0 -0.32713194472E+01  0.49256850370E+01 -0.12556905789E+02  0.13879473594E+02  0.51100000000E-03 0. -1.
        -11    1    3    3    0    0 -0.11639449657E+02  0.32822998786E+02  0.16530273552E+01  0.34864861069E+02  0.51100000000E-03 0.  1.
         12    1    3    3    0    0  0.10391108777E+02 -0.19844005845E+02  0.77946384007E+01  0.23717421812E+02  0.00000000000E+00 0. -1.
</event>
<event>
 7    1  0.3435518E-013  0.7246156E+02  0.7816164E-02  0.1226708E+00
        -11   -1    0    0    0    0  0.00000000000E+00  0.00000000000E+00  0.45593999997E+02  0.45594000000E+02  0.51100000000E-03 0.  1.
         11   -1    0    0    0    0 -0.00000000000E+00 -0.00000000000E+00 -0.45593999997E+02  0.45594000000E+02  0.51100000000E-03 0. -1.
    9900012    2    1    2    0    0  0.12302096516E+02 -0.13699839938E+02 -0.34135431372E+01  0.72461562278E+02  0.69999989557E+02 0.  0.
        -12    1    1    2    0    0 -0.12302096516E+02  0.13699839938E+02  0.34135431372E+01  0.18726437722E+02  0.00000000000E+00 0.  1.
         11    1    3    3    0    0  0.11614608692E+02 -0.13486355934E+02 -0.25755284964E+02  0.31306798547E+02  0.51100000000E-03 0. -1.
        -11    1    3    3    0    0 -0.36024691212E+00 -0.12555154107E+02 -0.30304170945E+01  0.12920723684E+02  0.51100000000E-03 0.  1.
        -12    1    3    3    0    0  0.10477347363E+01  0.12341670103E+02  0.25372158921E+02  0.28234040046E+02  0.00000000000E+00 0.  1.
</event>
<event>
 7    1  0.3435518E-013  0.7246155E+02  0.7816164E-02  0.1226708E+00
        -11   -1    0    0    0    0  0.00000000000E+00  0.00000000000E+00  0.45593999997E+02  0.45594000000E+02  0.51100000000E-03 0.  1.
         11   -1    0    0    0    0 -0.00000000000E+00 -0.00000000000E+00 -0.45593999997E+02  0.45594000000E+02  0.51100000000E-03 0. -1.
    9900012    2    1    2    0    0  0.48794197074E+01 -0.44233531611E+01 -0.17530115996E+02  0.72461554616E+02  0.69999979576E+02 0.  0.
        -12    1    1    2    0    0 -0.48794197074E+01  0.44233531611E+01  0.17530115996E+02  0.18726445384E+02  0.00000000000E+00 0.  1.
         11    1    3    3    0    0  0.49099980776E+01 -0.67787553364E+01 -0.24263907267E+02  0.25667037250E+02  0.51100000000E-03 0. -1.
        -11    1    3    3    0    0 -0.22244302262E+02 -0.37131728408E+01 -0.79837484117E+00  0.22566214532E+02  0.51100000000E-03 0.  1.
        -12    1    3    3    0    0  0.22213723892E+02  0.60685750161E+01  0.75321661122E+01  0.24228302834E+02  0.00000000000E+00 0.  1.
</event>
<event>
 7    1  0.3435518E-013  0.7246156E+02  0.7816164E-02  0.1226708E+00
        -11   -1    0    0    0    0  0.00000000000E+00  0.00000000000E+00  0.45593999997E+02  0.45594000000E+02  0.51100000000E-03 0.  1.
         11   -1    0    0    0    0 -0.00000000000E+00 -0.00000000000E+00 -0.45593999997E+02  0.45594000000E+02  0.51100000000E-03 0. -1.
    9900012    2    1    2    0    0  0.44578293602E+01 -0.16739491831E+02  0.71131482161E+01  0.72461555946E+02  0.69999981308E+02 0.  0.
        -12    1    1    2    0    0 -0.44578293602E+01  0.16739491831E+02 -0.71131482161E+01  0.18726444054E+02  0.00000000000E+00 0.  1.
         11    1    3    3    0    0 -0.34171517775E+01 -0.18003379331E+02 -0.80827548679E+01  0.20028218097E+02  0.51100000000E-03 0. -1.
        -11    1    3    3    0    0 -0.17745211616E+02  0.34541701917E+01  0.19243203990E+02  0.26403119647E+02  0.51100000000E-03 0.  1.
         12    1    3    3    0    0  0.25620192754E+02 -0.21902826916E+01 -0.40473009061E+01  0.26030218202E+02  0.00000000000E+00 0. -1.
</event>
<event>
 7    1  0.3435518E-013  0.7246157E+02  0.7816164E-02  0.1226708E+00
        -11   -1    0    0    0    0  0.00000000000E+00  0.00000000000E+00  0.45593999997E+02  0.45594000000E+02  0.51100000000E-03 0. -1.
         11   -1    0    0    0    0 -0.00000000000E+00 -0.00000000000E+00 -0.45593999997E+02  0.45594000000E+02  0.51100000000E-03 0.  1.
    9900012    2    1    2    0    0 -0.15675150376E+02  0.97512039081E+01  0.31436726557E+01  0.72461574961E+02  0.70000006080E+02 0.  0.
        -12    1    1    2    0    0  0.15675150376E+02 -0.97512039081E+01 -0.31436726557E+01  0.18726425039E+02  0.00000000000E+00 0.  1.
         11    1    3    3    0    0  0.16767664799E+01  0.27116440916E+01  0.31001308864E+01  0.44469507847E+01  0.51100000000E-03 0. -1.
        -11    1    3    3    0    0  0.65842657497E+01  0.30275480836E+02 -0.10995166725E+02  0.32876298255E+02  0.51100000000E-03 0.  1.
         12    1    3    3    0    0 -0.23936182606E+02 -0.23235921020E+02  0.11038708495E+02  0.35138325922E+02  0.00000000000E+00 0. -1.
</event>
<event>
 7    1  0.3435518E-013  0.7246203E+02  0.7816164E-02  0.1226707E+00
        -11   -1    0    0    0    0  0.00000000000E+00  0.00000000000E+00  0.45593999997E+02  0.45594000000E+02  0.51100000000E-03 0. -1.
         11   -1    0    0    0    0 -0.00000000000E+00 -0.00000000000E+00 -0.45593999997E+02  0.45594000000E+02  0.51100000000E-03 0.  1.
    9900012    2    1    2    0    0 -0.17154320977E+02 -0.79871693993E+00  0.74668018240E+01  0.72462033899E+02  0.70000603928E+02 0.  0.
        -12    1    1    2    0    0  0.17154320977E+02  0.79871693993E+00 -0.74668018240E+01  0.18725966101E+02  0.00000000000E+00 0.  1.
         11    1    3    3    0    0  0.10198965609E+02  0.13233881648E+02  0.15995076944E+02  0.23130002371E+02  0.51100000000E-03 0. -1.
        -11    1    3    3    0    0 -0.29460678847E+00 -0.19391247922E+02 -0.97790368556E+01  0.21719503936E+02  0.51100000000E-03 0.  1.
         12    1    3    3    0    0 -0.27058679798E+02  0.53586493339E+01  0.12507617357E+01  0.27612527592E+02  0.00000000000E+00 0. -1.
</event>
<event>
 7    1  0.3435518E-013  0.7246157E+02  0.7816164E-02  0.1226708E+00
        -11   -1    0    0    0    0  0.00000000000E+00  0.00000000000E+00  0.45593999997E+02  0.45594000000E+02  0.51100000000E-03 0. -1.
         11   -1    0    0    0    0 -0.00000000000E+00 -0.00000000000E+00 -0.45593999997E+02  0.45594000000E+02  0.51100000000E-03 0.  1.
    9900012    2    1    2    0    0  0.11428951403E+02 -0.12832574750E+02  0.74419822551E+01  0.72461574694E+02  0.70000005731E+02 0.  0.
        -12    1    1    2    0    0 -0.11428951403E+02  0.12832574750E+02 -0.74419822551E+01  0.18726425306E+02  0.00000000000E+00 0.  1.
         11    1    3    3    0    0 -0.11525220961E+02 -0.11464861896E+02 -0.10213944309E+02  0.19198917551E+02  0.51100000000E-03 0. -1.
        -11    1    3    3    0    0  0.19480804871E+02 -0.21866498040E+02  0.81289021580E+01  0.30392837076E+02  0.51100000000E-03 0.  1.
         12    1    3    3    0    0  0.34733674929E+01  0.20498785187E+02  0.95270244063E+01  0.22869820067E+02  0.00000000000E+00 0. -1.
</event>
<event>
 7    1  0.3435518E-013  0.7246155E+02  0.7816164E-02  0.1226708E+00
        -11   -1    0    0    0    0  0.00000000000E+00  0.00000000000E+00  0.45593999997E+02  0.45594000000E+02  0.51100000000E-03 0.  1.
         11   -1    0    0    0    0 -0.00000000000E+00 -0.00000000000E+00 -0.45593999997E+02  0.45594000000E+02  0.51100000000E-03 0. -1.
    9900012    2    1    2    0    0  0.58950220632E+01 -0.10196358022E+02 -0.14558943826E+02  0.72461552196E+02  0.69999976423E+02 0.  0.
        -12    1    1    2    0    0 -0.58950220632E+01  0.10196358022E+02  0.14558943826E+02  0.18726447804E+02  0.00000000000E+00 0.  1.
         11    1    3    3    0    0 -0.37460042583E+01 -0.11800221825E+01 -0.40198682678E+01  0.56199947870E+01  0.51100000000E-03 0. -1.
        -11    1    3    3    0    0 -0.25447799645E+02  0.71606421335E+01  0.11881555162E+01  0.26462747710E+02  0.51100000000E-03 0.  1.
        -12    1    3    3    0    0  0.35088825967E+02 -0.16176977973E+02 -0.11727231074E+02  0.40378809699E+02  0.00000000000E+00 0.  1.
</event>
<event>
 7    1  0.3435518E-013  0.7246159E+02  0.7816164E-02  0.1226708E+00
        -11   -1    0    0    0    0  0.00000000000E+00  0.00000000000E+00  0.45593999997E+02  0.45594000000E+02  0.51100000000E-03 0.  1.
         11   -1    0    0    0    0 -0.00000000000E+00 -0.00000000000E+00 -0.45593999997E+02  0.45594000000E+02  0.51100000000E-03 0. -1.
    9900012    2    1    2    0    0 -0.11176887903E+02  0.14329995464E+02 -0.45173758036E+01  0.72461594116E+02  0.70000031032E+02 0.  0.
        -12    1    1    2    0    0  0.11176887903E+02 -0.14329995464E+02  0.45173758036E+01  0.18726405884E+02  0.00000000000E+00 0.  1.
         11    1    3    3    0    0 -0.10971167918E+02  0.17057638777E+02  0.85769806188E+00  0.20299389458E+02  0.51100000000E-03 0. -1.
        -11    1    3    3    0    0  0.17669243792E+02  0.82678416526E+01  0.13671529485E+02  0.23821630937E+02  0.51100000000E-03 0.  1.
        -12    1    3    3    0    0 -0.17874963777E+02 -0.10995484966E+02 -0.19046603350E+02  0.28340573721E+02  0.00000000000E+00 0.  1.
</event>
<event>
 7    1  0.3435518E-013  0.7246157E+02  0.7816164E-02  0.1226708E+00
        -11   -1    0    0    0    0  0.00000000000E+00  0.00000000000E+00  0.45593999997E+02  0.45594000000E+02  0.51100000000E-03 0.  1.
         11   -1    0    0    0    0 -0.00000000000E+00 -0.00000000000E+00 -0.45593999997E+02  0.45594000000E+02  0.51100000000E-03 0. -1.
    9900012    2    1    2    0    0  0.12349800831E+01  0.83004979198E+01 -0.16740842071E+02  0.72461568552E+02  0.69999997731E+02 0.  0.
        -12    1    1    2    0    0 -0.12349800831E+01 -0.83004979198E+01  0.16740842071E+02  0.18726431448E+02  0.00000000000E+00 0.  1.
         11    1    3    3    0    0  0.76036866201E+01  0.10864930638E+02 -0.16713013735E+02  0.21335125881E+02  0.51100000000E-03 0. -1.
        -11    1    3    3    0    0  0.19963830764E+02 -0.11425177145E+02 -0.29478081711E+01  0.23190057888E+02  0.51100000000E-03 0.  1.
         12    1    3    3    0    0 -0.26332537301E+02  0.88607444267E+01  0.29199798354E+01  0.27936384783E+02  0.00000000000E+00 0. -1.
</event>
<event>
 7    1  0.3435518E-013  0.7246134E+02  0.7816164E-02  0.1226709E+00
        -11   -1    0    0    0    0  0.00000000000E+00  0.00000000000E+00  0.45593999997E+02  0.45594000000E+02  0.51100000000E-03 0. -1.
         11   -1    0    0    0    0 -0.00000000000E+00 -0.00000000000E+00 -0.45593999997E+02  0.45594000000E+02  0.51100000000E-03 0.  1.
    9900012    2    1    2    0    0  0.25617743483E-01  0.80167264366E+01  0.16923921711E+02  0.72461342927E+02  0.69999703811E+02 0.  0.
        -12    1    1    2    0    0 -0.25617743483E-01 -0.80167264366E+01 -0.16923921711E+02  0.18726657073E+02  0.00000000000E+00 0.  1.
         11    1    3    3    0    0 -0.71301424110E+01  0.35819873983E+02  0.21182704486E+02  0.42220957740E+02  0.51100000000E-03 0. -1.
        -11    1    3    3    0    0  0.45078326244E+01 -0.12363823052E+02  0.21145079878E+01  0.13328759122E+02  0.51100000000E-03 0.  1.
        -12    1    3    3    0    0  0.26479275300E+01 -0.15439324494E+02 -0.63732907620E+01  0.16911626065E+02  0.00000000000E+00 0.  1.
</event>
<event>
 7    1  0.3435518E-013  0.7246157E+02  0.7816164E-02  0.1226708E+00
        -11   -1    0    0    0    0  0.00000000000E+00  0.00000000000E+00  0.45593999997E+02  0.45594000000E+02  0.51100000000E-03 0. -1.
         11   -1    0    0    0    0 -0.00000000000E+00 -0.00000000000E+00 -0.45593999997E+02  0.45594000000E+02  0.51100000000E-03 0.  1.
    9900012    2    1    2    0    0 -0.14066432019E+02 -0.40692553650E+01  0.11672861575E+02  0.72461573584E+02  0.70000004285E+02 0.  0.
        -12    1    1    2    0    0  0.14066432019E+02  0.40692553650E+01 -0.11672861575E+02  0.18726426416E+02  0.00000000000E+00 0.  1.
         11    1    3    3    0    0 -0.98155471049E+01  0.24354625913E+02  0.17865165578E+02  0.31759359403E+02  0.51100000000E-03 0. -1.
        -11    1    3    3    0    0 -0.82437349757E+01  0.12293953137E+01  0.37954120595E+01  0.91583695137E+01  0.51100000000E-03 0.  1.
        -12    1    3    3    0    0  0.39928500617E+01 -0.29653276592E+02 -0.99877160616E+01  0.31543844667E+02  0.00000000000E+00 0.  1.
</event>
<event>
 7    1  0.3435518E-013  0.7246155E+02  0.7816164E-02  0.1226708E+00
        -11   -1    0    0    0    0  0.00000000000E+00  0.00000000000E+00  0.45593999997E+02  0.45594000000E+02  0.51100000000E-03 0.  1.
         11   -1    0    0    0    0 -0.00000000000E+00 -0.00000000000E+00 -0.45593999997E+02  0.45594000000E+02  0.51100000000E-03 0. -1.
    9900012    2    1    2    0    0 -0.58540237353E+01 -0.14971107444E+02 -0.96060604461E+01  0.72461546804E+02  0.69999969400E+02 0.  0.
        -12    1    1    2    0    0  0.58540237353E+01  0.14971107444E+02  0.96060604461E+01  0.18726453196E+02  0.00000000000E+00 0.  1.
         11    1    3    3    0    0  0.92659077051E+01  0.15780474338E+01  0.54023709839E+01  0.10841258774E+02  0.51100000000E-03 0. -1.
        -11    1    3    3    0    0  0.11454860563E+02 -0.12092008107E+02  0.14195107717E+02  0.21884505339E+02  0.51100000000E-03 0.  1.
         12    1    3    3    0    0 -0.26574792003E+02 -0.44571467713E+01 -0.29203539147E+02  0.39735782691E+02  0.00000000000E+00 0. -1.
</event>
<event>
 7    1  0.3435518E-013  0.7246147E+02  0.7816164E-02  0.1226708E+00
        -11   -1    0    0    0    0  0.00000000000E+00  0.00000000000E+00  0.45593999997E+02  0.45594000000E+02  0.51100000000E-03 0. -1.
         11   -1    0    0    0    0 -0.00000000000E+00 -0.00000000000E+00 -0.45593999997E+02  0.45594000000E+02  0.51100000000E-03 0.  1.
    9900012    2    1    2    0    0  0.10228048889E+02 -0.13331715042E+02  0.82665076518E+01  0.72461474460E+02  0.69999875158E+02 0.  0.
        -12    1    1    2    0    0 -0.10228048889E+02  0.13331715042E+02 -0.82665076518E+01  0.18726525540E+02  0.00000000000E+00 0.  1.
         11    1    3    3    0    0  0.93200938242E+01  0.33745915640E+01 -0.13114423774E+02  0.16438981973E+02  0.51100000000E-03 0. -1.
        -11    1    3    3    0    0  0.12886843399E+02 -0.10037843190E+02 -0.11779845113E+02  0.20139358974E+02  0.51100000000E-03 0.  1.
         12    1    3    3    0    0 -0.11978888335E+02 -0.66684634161E+01  0.33160776539E+02  0.35883133514E+02  0.00000000000E+00 0. -1.
</event>
<event>
 7    1  0.3435518E-013  0.7246161E+02  0.7816164E-02  0.1226708E+00
        -11   -1    0    0    0    0  0.00000000000E+00  0.00000000000E+00  0.45593999997E+02  0.45594000000E+02  0.51100000000E-03 0. -1.
         11   -1    0    0    0    0 -0.00000000000E+00 -0.00000000000E+00 -0.45593999997E+02  0.45594000000E+02  0.51100000000E-03 0.  1.
    9900012    2    1    2    0    0 -0.10325019838E+02 -0.11887861235E+02  0.10136587682E+02  0.72461609819E+02  0.70000051488E+02 0.  0.
        -12    1    1    2    0    0  0.10325019838E+02  0.11887861235E+02 -0.10136587682E+02  0.18726390181E+02  0.00000000000E+00 0.  1.
         11    1    3    3    0    0 -0.96840429713E+00  0.71552167011E+01  0.41278529595E+01  0.83170970439E+01  0.51100000000E-03 0. -1.
        -11    1    3    3    0    0 -0.43722107788E+01  0.13653517319E+02 -0.18191730767E+02  0.23161904732E+02  0.51100000000E-03 0.  1.
         12    1    3    3    0    0 -0.49844047619E+01 -0.32696595255E+02  0.24200465489E+02  0.40982608043E+02  0.00000000000E+00 0. -1.
</event>
<event>
 7    1  0.3435518E-013  0.7246154E+02  0.7816164E-02  0.1226708E+00
        -11   -1    0    0    0    0  0.00000000000E+00  0.00000000000E+00  0.45593999997E+02  0.45594000000E+02  0.51100000000E-03 0. -1.
         11   -1    0    0    0    0 -0.00000000000E+00 -0.00000000000E+00 -0.45593999997E+02  0.45594000000E+02  0.51100000000E-03 0.  1.
    9900012    2    1    2    0    0 -0.15130680180E+02 -0.10513038186E+02  0.33494332778E+01  0.72461543904E+02  0.69999965622E+02 0.  0.
        -12    1    1    2    0    0  0.15130680180E+02  0.10513038186E+02 -0.33494332778E+01  0.18726456096E+02  0.00000000000E+00 0.  1.
         11    1    3    3    0    0  0.93829112184E+01  0.12373930510E+02 -0.33230681149E+01  0.15880678863E+02  0.51100000000E-03 0. -1.
        -11    1    3    3    0    0 -0.36595787566E+01 -0.66209549897E+01 -0.18550667061E+02  0.20033891542E+02  0.51100000000E-03 0.  1.
         12    1    3    3    0    0 -0.20854012642E+02 -0.16266013706E+02  0.25223168453E+02  0.36546973500E+02  0.00000000000E+00 0. -1.
</event>
<event>
 7    1  0.3435518E-013  0.7246175E+02  0.7816164E-02  0.1226708E+00
        -11   -1    0    0    0    0  0.00000000000E+00  0.00000000000E+00  0.45593999997E+02  0.45594000000E+02  0.51100000000E-03 0.  1.
         11   -1    0    0    0    0 -0.00000000000E+00 -0.00000000000E+00 -0.45593999997E+02  0.45594000000E+02  0.51100000000E-03 0. -1.
    9900012    2    1    2    0    0 -0.48660957255E+01 -0.25563099175E+00 -0.18081158794E+02  0.72461747354E+02  0.70000230653E+02 0.  0.
        -12    1    1    2    0    0  0.48660957255E+01  0.25563099175E+00  0.18081158794E+02  0.18726252646E+02  0.00000000000E+00 0.  1.
         11    1    3    3    0    0 -0.24803401721E+01  0.15167472676E+02 -0.50067414701E+01  0.16163903463E+02  0.51100000000E-03 0. -1.
        -11    1    3    3    0    0 -0.16760507245E+02 -0.14009015905E+02 -0.28009693386E+02  0.35520558182E+02  0.51100000000E-03 0.  1.
         12    1    3    3    0    0  0.14374751692E+02 -0.14140877625E+01  0.14935276062E+02  0.20777285709E+02  0.00000000000E+00 0. -1.
</event>
<event>
 7    1  0.3435518E-013  0.7246166E+02  0.7816164E-02  0.1226708E+00
        -11   -1    0    0    0    0  0.00000000000E+00  0.00000000000E+00  0.45593999997E+02  0.45594000000E+02  0.51100000000E-03 0. -1.
         11   -1    0    0    0    0 -0.00000000000E+00 -0.00000000000E+00 -0.45593999997E+02  0.45594000000E+02  0.51100000000E-03 0.  1.
    9900012    2    1    2    0    0  0.29224250681E+00  0.55083952233E+00  0.18715958913E+02  0.72461656312E+02  0.70000112054E+02 0.  0.
        -12    1    1    2    0    0 -0.29224250681E+00 -0.55083952233E+00 -0.18715958913E+02  0.18726343688E+02  0.00000000000E+00 0.  1.
         11    1    3    3    0    0 -0.19045768292E+01 -0.11737312237E+02  0.23640105448E+02  0.26462171062E+02  0.51100000000E-03 0. -1.
        -11    1    3    3    0    0  0.15301259941E+02 -0.59063644543E+01  0.98642505625E+01  0.19139413164E+02  0.51100000000E-03 0.  1.
        -12    1    3    3    0    0 -0.13104440605E+02  0.18194516213E+02 -0.14788397097E+02  0.26860072087E+02  0.00000000000E+00 0.  1.
</event>
<event>
 7    1  0.3435518E-013  0.7246162E+02  0.7816164E-02  0.1226708E+00
        -11   -1    0    0    0    0  0.00000000000E+00  0.00000000000E+00  0.45593999997E+02  0.45594000000E+02  0.51100000000E-03 0.  1.
         11   -1    0    0    0    0 -0.00000000000E+00 -0.00000000000E+00 -0.45593999997E+02  0.45594000000E+02  0.51100000000E-03 0. -1.
    9900012    2    1    2    0    0  0.23224163110E+00  0.56774842220E+01 -0.17843472698E+02  0.72461620713E+02  0.70000065680E+02 0.  0.
        -12    1    1    2    0    0 -0.23224163110E+00 -0.56774842220E+01  0.17843472698E+02  0.18726379287E+02  0.00000000000E+00 0.  1.
         11    1    3    3    0    0  0.19094666595E+02  0.18329376604E+02  0.27440876822E+01  0.26610192719E+02  0.51100000000E-03 0. -1.
        -11    1    3    3    0    0 -0.82050144383E+01  0.11201675843E+02 -0.25859675816E+01  0.14123987830E+02  0.51100000000E-03 0.  1.
         12    1    3    3    0    0 -0.10657410526E+02 -0.23853568224E+02 -0.18001592799E+02  0.31727440165E+02  0.00000000000E+00 0. -1.
</event>
<event>
 7    1  0.3435518E-013  0.7246160E+02  0.7816164E-02  0.1226708E+00
        -11   -1    0    0    0    0  0.00000000000E+00  0.00000000000E+00  0.45593999997E+02  0.45594000000E+02  0.51100000000E-03 0.  1.
         11   -1    0    0    0    0 -0.00000000000E+00 -0.00000000000E+00 -0.45593999997E+02  0.45594000000E+02  0.51100000000E-03 0. -1.
    9900012    2    1    2    0    0 -0.92359678346E+00 -0.14187991979E+02 -0.12187121637E+02  0.72461599353E+02  0.70000037854E+02 0.  0.
        -12    1    1    2    0    0  0.92359678346E+00  0.14187991979E+02  0.12187121637E+02  0.18726400647E+02  0.00000000000E+00 0.  1.
         11    1    3    3    0    0 -0.45827916302E+01 -0.19442102261E+02  0.16332388768E+02  0.25802020127E+02  0.51100000000E-03 0.  1.
        -11    1    3    3    0    0  0.20580776708E+01  0.11463747851E+02  0.48960452138E+01  0.12634257299E+02  0.51100000000E-03 0. -1.
         12    1    3    3    0    0  0.16011171760E+01 -0.62096375682E+01 -0.33415555619E+02  0.34025321928E+02  0.00000000000E+00 0. -1.
</event>
<event>
 7    1  0.3435518E-013  0.7246145E+02  0.7816164E-02  0.1226708E+00
        -11   -1    0    0    0    0  0.00000000000E+00  0.00000000000E+00  0.45593999997E+02  0.45594000000E+02  0.51100000000E-03 0. -1.
         11   -1    0    0    0    0 -0.00000000000E+00 -0.00000000000E+00 -0.45593999997E+02  0.45594000000E+02  0.51100000000E-03 0.  1.
    9900012    2    1    2    0    0 -0.18606185474E+02  0.14844194024E+01 -0.15132873913E+01  0.72461449929E+02  0.69999843201E+02 0.  0.
        -12    1    1    2    0    0  0.18606185474E+02 -0.14844194024E+01  0.15132873913E+01  0.18726550071E+02  0.00000000000E+00 0.  1.
         11    1    3    3    0    0 -0.28351179363E+02 -0.72081910545E+00  0.13836861024E+02  0.31555786707E+02  0.51100000000E-03 0. -1.
        -11    1    3    3    0    0 -0.68803089244E+01 -0.38692968912E+01 -0.20911897320E+02  0.22352126501E+02  0.51100000000E-03 0.  1.
        -12    1    3    3    0    0  0.16625302814E+02  0.60745353990E+01  0.55617489050E+01  0.18553536721E+02  0.00000000000E+00 0.  1.
</event>
<event>
 7    1  0.3435518E-013  0.7246161E+02  0.7816164E-02  0.1226708E+00
        -11   -1    0    0    0    0  0.00000000000E+00  0.00000000000E+00  0.45593999997E+02  0.45594000000E+02  0.51100000000E-03 0.  1.
         11   -1    0    0    0    0 -0.00000000000E+00 -0.00000000000E+00 -0.45593999997E+02  0.45594000000E+02  0.51100000000E-03 0. -1.
    9900012    2    1    2    0    0  0.46607361226E+01 -0.17344138375E+02  0.53043578069E+01  0.72461606622E+02  0.70000047324E+02 0.  0.
        -12    1    1    2    0    0 -0.46607361226E+01  0.17344138375E+02 -0.53043578069E+01  0.18726393378E+02  0.00000000000E+00 0.  1.
         11    1    3    3    0    0 -0.81207529261E+00  0.26537711718E+01  0.21858573941E+02  0.22034046899E+02  0.51100000000E-03 0.  1.
        -11    1    3    3    0    0 -0.78996789403E+01 -0.72246812072E+01 -0.27101017814E+02  0.29138739038E+02  0.51100000000E-03 0. -1.
         12    1    3    3    0    0  0.13372490355E+02 -0.12773228340E+02  0.10546801679E+02  0.21288820686E+02  0.00000000000E+00 0. -1.
</event>
<event>
 7    1  0.3435518E-013  0.7246163E+02  0.7816164E-02  0.1226708E+00
        -11   -1    0    0    0    0  0.00000000000E+00  0.00000000000E+00  0.45593999997E+02  0.45594000000E+02  0.51100000000E-03 0.  1.
         11   -1    0    0    0    0 -0.00000000000E+00 -0.00000000000E+00 -0.45593999997E+02  0.45594000000E+02  0.51100000000E-03 0. -1.
    9900012    2    1    2    0    0 -0.12306999937E+02 -0.13159079953E+02  0.51042399485E+01  0.72461630942E+02  0.70000079004E+02 0.  0.
        -12    1    1    2    0    0  0.12306999937E+02  0.13159079953E+02 -0.51042399485E+01  0.18726369058E+02  0.00000000000E+00 0.  1.
         11    1    3    3    0    0  0.13291982568E+02  0.20058345430E+01 -0.13204384907E+02  0.18842928483E+02  0.51100000000E-03 0. -1.
        -11    1    3    3    0    0  0.52858251702E+01 -0.18255673545E+02  0.10052862919E+02  0.21500456214E+02  0.51100000000E-03 0.  1.
         12    1    3    3    0    0 -0.30884807675E+02  0.30907590487E+01  0.82557619366E+01  0.32118246244E+02  0.00000000000E+00 0. -1.
</event>
<event>
 7    1  0.3435518E-013  0.7246157E+02  0.7816164E-02  0.1226708E+00
        -11   -1    0    0    0    0  0.00000000000E+00  0.00000000000E+00  0.45593999997E+02  0.45594000000E+02  0.51100000000E-03 0.  1.
         11   -1    0    0    0    0 -0.00000000000E+00 -0.00000000000E+00 -0.45593999997E+02  0.45594000000E+02  0.51100000000E-03 0. -1.
    9900012    2    1    2    0    0 -0.11270901286E+02  0.12525940791E+02 -0.81698784102E+01  0.72461566230E+02  0.69999994706E+02 0.  0.
        -12    1    1    2    0    0  0.11270901286E+02 -0.12525940791E+02  0.81698784102E+01  0.18726433770E+02  0.00000000000E+00 0.  1.
         11    1    3    3    0    0 -0.11121314071E+02 -0.68599616175E+00 -0.27340518829E+02  0.29523857937E+02  0.51100000000E-03 0. -1.
        -11    1    3    3    0    0  0.87186688117E+01  0.32385542013E+01 -0.82559228268E+01  0.12436385373E+02  0.51100000000E-03 0.  1.
        -12    1    3    3    0    0 -0.88682560259E+01  0.99733827513E+01  0.27426563245E+02  0.30501322920E+02  0.00000000000E+00 0.  1.
</event>
<event>
 7    1  0.3435518E-013  0.7246160E+02  0.7816164E-02  0.1226708E+00
        -11   -1    0    0    0    0  0.00000000000E+00  0.00000000000E+00  0.45593999997E+02  0.45594000000E+02  0.51100000000E-03 0.  1.
         11   -1    0    0    0    0 -0.00000000000E+00 -0.00000000000E+00 -0.45593999997E+02  0.45594000000E+02  0.51100000000E-03 0. -1.
    9900012    2    1    2    0    0  0.15831423845E+02  0.42763674692E+01 -0.90419541273E+01  0.72461595269E+02  0.70000032535E+02 0.  0.
        -12    1    1    2    0    0 -0.15831423845E+02 -0.42763674692E+01  0.90419541273E+01  0.18726404731E+02  0.00000000000E+00 0.  1.
         11    1    3    3    0    0  0.51268045894E+01 -0.11755485225E+02  0.64803024110E+01  0.14369059739E+02  0.51100000000E-03 0. -1.
        -11    1    3    3    0    0  0.27487149477E+02  0.24574534207E+02 -0.75127409020E+01  0.37628345618E+02  0.51100000000E-03 0.  1.
         12    1    3    3    0    0 -0.16782530221E+02 -0.85426815122E+01 -0.80095156363E+01  0.20464189912E+02  0.00000000000E+00 0. -1.
</event>
<event>
 7    1  0.3435518E-013  0.7246153E+02  0.7816164E-02  0.1226708E+00
        -11   -1    0    0    0    0  0.00000000000E+00  0.00000000000E+00  0.45593999997E+02  0.45594000000E+02  0.51100000000E-03 0.  1.
         11   -1    0    0    0    0 -0.00000000000E+00 -0.00000000000E+00 -0.45593999997E+02  0.45594000000E+02  0.51100000000E-03 0. -1.
    9900012    2    1    2    0    0  0.94972253362E+01  0.49811986428E+01 -0.15351584189E+02  0.72461527665E+02  0.69999944468E+02 0.  0.
        -12    1    1    2    0    0 -0.94972253362E+01 -0.49811986428E+01  0.15351584189E+02  0.18726472335E+02  0.00000000000E+00 0.  1.
         11    1    3    3    0    0  0.91410809687E+01  0.26757104579E+02 -0.18229012942E+02  0.33642219306E+02  0.51100000000E-03 0. -1.
        -11    1    3    3    0    0  0.36919532034E+01  0.79485595768E+01  0.13672843839E+01  0.88701513318E+01  0.51100000000E-03 0.  1.
        -12    1    3    3    0    0 -0.33358088359E+01 -0.29724465513E+02  0.15101443694E+01  0.29949157027E+02  0.00000000000E+00 0.  1.
</event>
<event>
 7    1  0.3435518E-013  0.7246152E+02  0.7816164E-02  0.1226708E+00
        -11   -1    0    0    0    0  0.00000000000E+00  0.00000000000E+00  0.45593999997E+02  0.45594000000E+02  0.51100000000E-03 0. -1.
         11   -1    0    0    0    0 -0.00000000000E+00 -0.00000000000E+00 -0.45593999997E+02  0.45594000000E+02  0.51100000000E-03 0.  1.
    9900012    2    1    2    0    0 -0.13035150868E+02 -0.29257928100E+01  0.13122709466E+02  0.72461523410E+02  0.69999938925E+02 0.  0.
        -12    1    1    2    0    0  0.13035150868E+02  0.29257928100E+01 -0.13122709466E+02  0.18726476590E+02  0.00000000000E+00 0.  1.
         11    1    3    3    0    0 -0.87403629935E+01  0.12201028063E+02  0.26521446100E+02  0.30473695781E+02  0.51100000000E-03 0. -1.
        -11    1    3    3    0    0 -0.14807208105E+02 -0.98860038483E+01  0.64394675104E+01  0.18932861010E+02  0.51100000000E-03 0.  1.
        -12    1    3    3    0    0  0.10512420230E+02 -0.52408170251E+01 -0.19838204144E+02  0.23054966619E+02  0.00000000000E+00 0.  1.
</event>
<event>
 7    1  0.3435518E-013  0.7246156E+02  0.7816164E-02  0.1226708E+00
        -11   -1    0    0    0    0  0.00000000000E+00  0.00000000000E+00  0.45593999997E+02  0.45594000000E+02  0.51100000000E-03 0. -1.
         11   -1    0    0    0    0 -0.00000000000E+00 -0.00000000000E+00 -0.45593999997E+02  0.45594000000E+02  0.51100000000E-03 0.  1.
    9900012    2    1    2    0    0 -0.61093548932E+01  0.17498962500E+02 -0.26723941148E+01  0.72461558905E+02  0.69999985163E+02 0.  0.
        -12    1    1    2    0    0  0.61093548932E+01 -0.17498962500E+02  0.26723941148E+01  0.18726441095E+02  0.00000000000E+00 0.  1.
         11    1    3    3    0    0 -0.44927607875E+01  0.12365672674E+02 -0.25137303986E+02  0.28372148529E+02  0.51100000000E-03 0.  1.
        -11    1    3    3    0    0 -0.18660308116E+02  0.85715860221E+01  0.11547467160E+02  0.23558930027E+02  0.51100000000E-03 0. -1.
        -12    1    3    3    0    0  0.17043714011E+02 -0.34382961964E+01  0.10917442711E+02  0.20530480349E+02  0.00000000000E+00 0.  1.
</event>
<event>
 7    1  0.3435518E-013  0.7246152E+02  0.7816164E-02  0.1226708E+00
        -11   -1    0    0    0    0  0.00000000000E+00  0.00000000000E+00  0.45593999997E+02  0.45594000000E+02  0.51100000000E-03 0. -1.
         11   -1    0    0    0    0 -0.00000000000E+00 -0.00000000000E+00 -0.45593999997E+02  0.45594000000E+02  0.51100000000E-03 0.  1.
    9900012    2    1    2    0    0 -0.27392877796E+01 -0.39138337584E+01  0.18106887393E+02  0.72461517061E+02  0.69999930653E+02 0.  0.
        -12    1    1    2    0    0  0.27392877796E+01  0.39138337584E+01 -0.18106887393E+02  0.18726482939E+02  0.00000000000E+00 0.  1.
         11    1    3    3    0    0 -0.11622970498E+02 -0.11878287094E+01  0.14280504872E+01  0.11770459154E+02  0.51100000000E-03 0.  1.
        -11    1    3    3    0    0  0.10263425829E+02 -0.11457053385E+02  0.36161444424E+02  0.39296972467E+02  0.51100000000E-03 0. -1.
        -12    1    3    3    0    0 -0.13797431114E+01  0.87310483356E+01 -0.19482607518E+02  0.21394085440E+02  0.00000000000E+00 0.  1.
</event>
<event>
 7    1  0.3435518E-013  0.7246150E+02  0.7816164E-02  0.1226708E+00
        -11   -1    0    0    0    0  0.00000000000E+00  0.00000000000E+00  0.45593999997E+02  0.45594000000E+02  0.51100000000E-03 0.  1.
         11   -1    0    0    0    0 -0.00000000000E+00 -0.00000000000E+00 -0.45593999997E+02  0.45594000000E+02  0.51100000000E-03 0. -1.
    9900012    2    1    2    0    0  0.24609310230E+01  0.66395203375E+01 -0.17336159507E+02  0.72461499038E+02  0.69999907176E+02 0.  0.
        -12    1    1    2    0    0 -0.24609310230E+01 -0.66395203375E+01  0.17336159507E+02  0.18726500962E+02  0.00000000000E+00 0.  1.
         11    1    3    3    0    0 -0.26538442750E+02  0.13709359275E+02 -0.10827752679E+02  0.31772247382E+02  0.51100000000E-03 0. -1.
        -11    1    3    3    0    0  0.12856056028E+02  0.74300570230E+01  0.55651504398E+01  0.15857327128E+02  0.51100000000E-03 0.  1.
        -12    1    3    3    0    0  0.16143317746E+02 -0.14499895960E+02 -0.12073557268E+02  0.24831924529E+02  0.00000000000E+00 0.  1.
</event>
<event>
 7    1  0.3435518E-013  0.7246160E+02  0.7816164E-02  0.1226708E+00
        -11   -1    0    0    0    0  0.00000000000E+00  0.00000000000E+00  0.45593999997E+02  0.45594000000E+02  0.51100000000E-03 0.  1.
         11   -1    0    0    0    0 -0.00000000000E+00 -0.00000000000E+00 -0.45593999997E+02  0.45594000000E+02  0.51100000000E-03 0. -1.
    9900012    2    1    2    0    0 -0.53681322162E+01  0.13412428100E+02 -0.11915027982E+02  0.72461602513E+02  0.70000041970E+02 0.  0.
        -12    1    1    2    0    0  0.53681322162E+01 -0.13412428100E+02  0.11915027982E+02  0.18726397487E+02  0.00000000000E+00 0.  1.
         11    1    3    3    0    0 -0.25344512164E+02  0.15586089690E+02 -0.20428648618E+02  0.36091552658E+02  0.51100000000E-03 0. -1.
        -11    1    3    3    0    0 -0.19239875595E+01 -0.17408027778E+01  0.13630866634E+02  0.13875613425E+02  0.51100000000E-03 0.  1.
        -12    1    3    3    0    0  0.21900367507E+02 -0.43285881178E+00 -0.51172459984E+01  0.22494436430E+02  0.00000000000E+00 0.  1.
</event>
<event>
 7    1  0.3435518E-013  0.7246159E+02  0.7816164E-02  0.1226708E+00
        -11   -1    0    0    0    0  0.00000000000E+00  0.00000000000E+00  0.45593999997E+02  0.45594000000E+02  0.51100000000E-03 0.  1.
         11   -1    0    0    0    0 -0.00000000000E+00 -0.00000000000E+00 -0.45593999997E+02  0.45594000000E+02  0.51100000000E-03 0. -1.
    9900012    2    1    2    0    0 -0.24843343401E+01  0.52331715921E+01 -0.17807880727E+02  0.72461585019E+02  0.70000019182E+02 0.  0.
        -12    1    1    2    0    0  0.24843343401E+01 -0.52331715921E+01  0.17807880727E+02  0.18726414981E+02  0.00000000000E+00 0.  1.
         11    1    3    3    0    0 -0.20391236048E+01  0.99873885187E+01 -0.64165600851E+01  0.12044841140E+02  0.51100000000E-03 0. -1.
        -11    1    3    3    0    0  0.76497343881E+01  0.17913784235E+02  0.15083260229E+02  0.24635885233E+02  0.51100000000E-03 0.  1.
         12    1    3    3    0    0 -0.80949451234E+01 -0.22668001161E+02 -0.26474580871E+02  0.35780858647E+02  0.00000000000E+00 0. -1.
</event>
<event>
 7    1  0.3435518E-013  0.7246158E+02  0.7816164E-02  0.1226708E+00
        -11   -1    0    0    0    0  0.00000000000E+00  0.00000000000E+00  0.45593999997E+02  0.45594000000E+02  0.51100000000E-03 0.  1.
         11   -1    0    0    0    0 -0.00000000000E+00 -0.00000000000E+00 -0.45593999997E+02  0.45594000000E+02  0.51100000000E-03 0. -1.
    9900012    2    1    2    0    0  0.48518394910E+01  0.17539549712E+02  0.44161976669E+01  0.72461576092E+02  0.70000007553E+02 0.  0.
        -12    1    1    2    0    0 -0.48518394910E+01 -0.17539549712E+02 -0.44161976669E+01  0.18726423908E+02  0.00000000000E+00 0.  1.
         11    1    3    3    0    0  0.25432936882E+02  0.12739916521E+02  0.15686112107E+02  0.32483747701E+02  0.51100000000E-03 0.  1.
        -11    1    3    3    0    0  0.41628419464E+01  0.11540005508E+02 -0.85340410684E+00  0.12297531420E+02  0.51100000000E-03 0. -1.
         12    1    3    3    0    0 -0.24743939337E+02 -0.67403723171E+01 -0.10416510333E+02  0.27680296971E+02  0.00000000000E+00 0. -1.
</event>
<event>
 7    1  0.3435518E-013  0.7246157E+02  0.7816164E-02  0.1226708E+00
        -11   -1    0    0    0    0  0.00000000000E+00  0.00000000000E+00  0.45593999997E+02  0.45594000000E+02  0.51100000000E-03 0.  1.
         11   -1    0    0    0    0 -0.00000000000E+00 -0.00000000000E+00 -0.45593999997E+02  0.45594000000E+02  0.51100000000E-03 0. -1.
    9900012    2    1    2    0    0 -0.46327480667E+01 -0.15304402512E+02  0.97463892201E+01  0.72461569648E+02  0.69999999158E+02 0.  0.
        -12    1    1    2    0    0  0.46327480667E+01  0.15304402512E+02 -0.97463892201E+01  0.18726430352E+02  0.00000000000E+00 0.  1.
         11    1    3    3    0    0 -0.84914432553E+01 -0.18527439600E+02 -0.11700213453E+02  0.23500332376E+02  0.51100000000E-03 0. -1.
        -11    1    3    3    0    0  0.71960728855E+01 -0.88345499313E+01 -0.99729643555E+01  0.15142415783E+02  0.51100000000E-03 0.  1.
         12    1    3    3    0    0 -0.33373776969E+01  0.12057587020E+02  0.31419567028E+02  0.33818821489E+02  0.00000000000E+00 0. -1.
</event>
<event>
 7    1  0.3435518E-013  0.7246155E+02  0.7816164E-02  0.1226708E+00
        -11   -1    0    0    0    0  0.00000000000E+00  0.00000000000E+00  0.45593999997E+02  0.45594000000E+02  0.51100000000E-03 0.  1.
         11   -1    0    0    0    0 -0.00000000000E+00 -0.00000000000E+00 -0.45593999997E+02  0.45594000000E+02  0.51100000000E-03 0. -1.
    9900012    2    1    2    0    0 -0.15386416304E+02 -0.26072127847E+01 -0.10350875021E+02  0.72461548685E+02  0.69999971849E+02 0.  0.
        -12    1    1    2    0    0  0.15386416304E+02  0.26072127847E+01  0.10350875021E+02  0.18726451315E+02  0.00000000000E+00 0.  1.
         11    1    3    3    0    0 -0.18912628700E+02  0.17386553870E+02  0.11228381617E+02  0.28036696200E+02  0.51100000000E-03 0. -1.
        -11    1    3    3    0    0  0.10569556642E+02 -0.12962640932E+01  0.45093968949E+01  0.11564189933E+02  0.51100000000E-03 0.  1.
         12    1    3    3    0    0 -0.70433442448E+01 -0.18697502561E+02 -0.26088653532E+02  0.32860662551E+02  0.00000000000E+00 0. -1.
</event>
<event>
 7    1  0.3435518E-013  0.7246158E+02  0.7816164E-02  0.1226708E+00
        -11   -1    0    0    0    0  0.00000000000E+00  0.00000000000E+00  0.45593999997E+02  0.45594000000E+02  0.51100000000E-03 0.  1.
         11   -1    0    0    0    0 -0.00000000000E+00 -0.00000000000E+00 -0.45593999997E+02  0.45594000000E+02  0.51100000000E-03 0. -1.
    9900012    2    1    2    0    0 -0.16044348630E+02 -0.35928129654E+01 -0.89637896223E+01  0.72461576093E+02  0.70000007554E+02 0.  0.
        -12    1    1    2    0    0  0.16044348630E+02  0.35928129654E+01  0.89637896223E+01  0.18726423907E+02  0.00000000000E+00 0.  1.
         11    1    3    3    0    0 -0.17616331576E+02  0.68014189618E+01 -0.10382088416E+02  0.21549528956E+02  0.51100000000E-03 0. -1.
        -11    1    3    3    0    0 -0.12430611622E+02  0.43717288354E+00 -0.19735475773E+02  0.23328099572E+02  0.51100000000E-03 0.  1.
        -12    1    3    3    0    0  0.14002594569E+02 -0.10831404811E+02  0.21153774566E+02  0.27583947564E+02  0.00000000000E+00 0.  1.
</event>
<event>
 7    1  0.3435518E-013  0.7246184E+02  0.7816164E-02  0.1226707E+00
        -11   -1    0    0    0    0  0.00000000000E+00  0.00000000000E+00  0.45593999997E+02  0.45594000000E+02  0.51100000000E-03 0.  1.
         11   -1    0    0    0    0 -0.00000000000E+00 -0.00000000000E+00 -0.45593999997E+02  0.45594000000E+02  0.51100000000E-03 0. -1.
    9900012    2    1    2    0    0 -0.49760971043E+01 -0.17963481762E+02 -0.17946904726E+01  0.72461838266E+02  0.70000349082E+02 0.  0.
        -12    1    1    2    0    0  0.49760971043E+01  0.17963481762E+02  0.17946904726E+01  0.18726161734E+02  0.00000000000E+00 0.  1.
         11    1    3    3    0    0 -0.11476380378E+02 -0.66706958956E+01 -0.11872674695E+02  0.17809152001E+02  0.51100000000E-03 0. -1.
        -11    1    3    3    0    0  0.23409509059E+01 -0.26767356100E+02  0.21961923791E+02  0.34702989793E+02  0.51100000000E-03 0.  1.
         12    1    3    3    0    0  0.41593323678E+01  0.15474570234E+02 -0.11883939568E+02  0.19949696472E+02  0.00000000000E+00 0. -1.
</event>
<event>
 7    1  0.3435518E-013  0.7246163E+02  0.7816164E-02  0.1226708E+00
        -11   -1    0    0    0    0  0.00000000000E+00  0.00000000000E+00  0.45593999997E+02  0.45594000000E+02  0.51100000000E-03 0.  1.
         11   -1    0    0    0    0 -0.00000000000E+00 -0.00000000000E+00 -0.45593999997E+02  0.45594000000E+02  0.51100000000E-03 0. -1.
    9900012    2    1    2    0    0 -0.21638616440E+01  0.97096513646E+01 -0.15865600906E+02  0.72461630385E+02  0.70000078280E+02 0.  0.
        -12    1    1    2    0    0  0.21638616440E+01 -0.97096513646E+01  0.15865600906E+02  0.18726369615E+02  0.00000000000E+00 0.  1.
         11    1    3    3    0    0 -0.99101743519E+00  0.34455631921E+01 -0.76483370366E+00  0.36659230929E+01  0.51100000000E-03 0. -1.
        -11    1    3    3    0    0  0.22661977600E+02  0.26468572776E+02 -0.13935186507E+02  0.37527856277E+02  0.51100000000E-03 0.  1.
         12    1    3    3    0    0 -0.23834821809E+02 -0.20204484603E+02 -0.11655806952E+01  0.31267851015E+02  0.00000000000E+00 0. -1.
</event>
<event>
 7    1  0.3435518E-013  0.7246160E+02  0.7816164E-02  0.1226708E+00
        -11   -1    0    0    0    0  0.00000000000E+00  0.00000000000E+00  0.45593999997E+02  0.45594000000E+02  0.51100000000E-03 0. -1.
         11   -1    0    0    0    0 -0.00000000000E+00 -0.00000000000E+00 -0.45593999997E+02  0.45594000000E+02  0.51100000000E-03 0.  1.
    9900012    2    1    2    0    0 -0.42832315368E+01 -0.55063076430E+01  0.17378506172E+02  0.72461602241E+02  0.70000041616E+02 0.  0.
        -12    1    1    2    0    0  0.42832315368E+01  0.55063076430E+01 -0.17378506172E+02  0.18726397759E+02  0.00000000000E+00 0.  1.
         11    1    3    3    0    0  0.12193937102E+02 -0.96353232609E+00  0.78155431962E+01  0.14515619598E+02  0.51100000000E-03 0. -1.
        -11    1    3    3    0    0 -0.79719788521E+01  0.24536739586E+02  0.99343998304E+01  0.27645909943E+02  0.51100000000E-03 0.  1.
         12    1    3    3    0    0 -0.85051897871E+01 -0.29079514903E+02 -0.37143685453E+00  0.30300072700E+02  0.00000000000E+00 0. -1.
</event>
<event>
 7    1  0.3435518E-013  0.7246158E+02  0.7816164E-02  0.1226708E+00
        -11   -1    0    0    0    0  0.00000000000E+00  0.00000000000E+00  0.45593999997E+02  0.45594000000E+02  0.51100000000E-03 0.  1.
         11   -1    0    0    0    0 -0.00000000000E+00 -0.00000000000E+00 -0.45593999997E+02  0.45594000000E+02  0.51100000000E-03 0. -1.
    9900012    2    1    2    0    0  0.12158006848E+02 -0.14209291566E+02  0.97862552674E+00  0.72461580021E+02  0.70000012670E+02 0.  0.
        -12    1    1    2    0    0 -0.12158006848E+02  0.14209291566E+02 -0.97862552674E+00  0.18726419979E+02  0.00000000000E+00 0.  1.
         11    1    3    3    0    0  0.32663105819E+02 -0.10556850688E+02 -0.19010301827E+01  0.34379346914E+02  0.51100000000E-03 0. -1.
        -11    1    3    3    0    0  0.10788126330E+01  0.10891848212E+02 -0.31030869086E+01  0.11376525955E+02  0.51100000000E-03 0.  1.
        -12    1    3    3    0    0 -0.21583911604E+02 -0.14544289090E+02  0.59827426180E+01  0.26705707152E+02  0.00000000000E+00 0.  1.
</event>
<event>
 7    1  0.3435518E-013  0.7246130E+02  0.7816164E-02  0.1226709E+00
        -11   -1    0    0    0    0  0.00000000000E+00  0.00000000000E+00  0.45593999997E+02  0.45594000000E+02  0.51100000000E-03 0.  1.
         11   -1    0    0    0    0 -0.00000000000E+00 -0.00000000000E+00 -0.45593999997E+02  0.45594000000E+02  0.51100000000E-03 0. -1.
    9900012    2    1    2    0    0  0.74017017208E+00 -0.15050445935E+02 -0.11118697518E+02  0.72461302234E+02  0.69999650800E+02 0.  0.
        -12    1    1    2    0    0 -0.74017017208E+00  0.15050445935E+02  0.11118697518E+02  0.18726697766E+02  0.00000000000E+00 0.  1.
         11    1    3    3    0    0 -0.13339709159E+02 -0.12788687157E+02  0.23861714456E+01  0.18633093519E+02  0.51100000000E-03 0.  1.
        -11    1    3    3    0    0 -0.13555296175E+02 -0.13516704669E+02 -0.14433738874E+02  0.23974573566E+02  0.51100000000E-03 0. -1.
         12    1    3    3    0    0  0.27635175507E+02  0.11254945891E+02  0.92886991027E+00  0.29853635149E+02  0.00000000000E+00 0. -1.
</event>
<event>
 7    1  0.3435518E-013  0.7246159E+02  0.7816164E-02  0.1226708E+00
        -11   -1    0    0    0    0  0.00000000000E+00  0.00000000000E+00  0.45593999997E+02  0.45594000000E+02  0.51100000000E-03 0.  1.
         11   -1    0    0    0    0 -0.00000000000E+00 -0.00000000000E+00 -0.45593999997E+02  0.45594000000E+02  0.51100000000E-03 0. -1.
    9900012    2    1    2    0    0  0.98085133807E+01 -0.21742391096E+01 -0.15803295174E+02  0.72461591140E+02  0.70000027155E+02 0.  0.
        -12    1    1    2    0    0 -0.98085133807E+01  0.21742391096E+01  0.15803295174E+02  0.18726408860E+02  0.00000000000E+00 0.  1.
         11    1    3    3    0    0  0.22822854928E+02 -0.53946712257E+01 -0.56443666826E-01  0.23451830863E+02  0.51100000000E-03 0. -1.
        -11    1    3    3    0    0  0.13003563202E+02  0.13135465896E+02 -0.77378137231E+01  0.20037636630E+02  0.51100000000E-03 0.  1.
        -12    1    3    3    0    0 -0.26017904749E+02 -0.99150337798E+01 -0.80090377839E+01  0.28972123647E+02  0.00000000000E+00 0.  1.
</event>
<event>
 7    1  0.3435518E-013  0.7246164E+02  0.7816164E-02  0.1226708E+00
        -11   -1    0    0    0    0  0.00000000000E+00  0.00000000000E+00  0.45593999997E+02  0.45594000000E+02  0.51100000000E-03 0. -1.
         11   -1    0    0    0    0 -0.00000000000E+00 -0.00000000000E+00 -0.45593999997E+02  0.45594000000E+02  0.51100000000E-03 0.  1.
    9900012    2    1    2    0    0  0.12941757994E+02  0.68729343977E+01  0.11659767393E+02  0.72461641494E+02  0.70000092751E+02 0.  0.
        -12    1    1    2    0    0 -0.12941757994E+02 -0.68729343977E+01 -0.11659767393E+02  0.18726358506E+02  0.00000000000E+00 0.  1.
         11    1    3    3    0    0  0.20056404070E+01  0.20894900388E+02  0.56468359555E+01  0.21737208014E+02  0.51100000000E-03 0. -1.
        -11    1    3    3    0    0 -0.43771889406E+01  0.69881749748E+01  0.19690655192E+02  0.21347512142E+02  0.51100000000E-03 0.  1.
         12    1    3    3    0    0  0.15313306528E+02 -0.21010140965E+02 -0.13677723754E+02  0.29376921338E+02  0.00000000000E+00 0. -1.
</event>
<event>
 7    1  0.3435518E-013  0.7246156E+02  0.7816164E-02  0.1226708E+00
        -11   -1    0    0    0    0  0.00000000000E+00  0.00000000000E+00  0.45593999997E+02  0.45594000000E+02  0.51100000000E-03 0.  1.
         11   -1    0    0    0    0 -0.00000000000E+00 -0.00000000000E+00 -0.45593999997E+02  0.45594000000E+02  0.51100000000E-03 0. -1.
    9900012    2    1    2    0    0  0.17338443143E+02  0.23478402816E+01 -0.66742464575E+01  0.72461560659E+02  0.69999987448E+02 0.  0.
        -12    1    1    2    0    0 -0.17338443143E+02 -0.23478402816E+01  0.66742464575E+01  0.18726439341E+02  0.00000000000E+00 0.  1.
         11    1    3    3    0    0 -0.12507531332E+01  0.81641844111E+01  0.22225983546E+02  0.23711023499E+02  0.51100000000E-03 0. -1.
        -11    1    3    3    0    0 -0.90510575136E+01 -0.71289502945E+01 -0.98206096510E+01  0.15138954673E+02  0.51100000000E-03 0.  1.
         12    1    3    3    0    0  0.27640253790E+02  0.13126061649E+01 -0.19079620353E+02  0.33611582487E+02  0.00000000000E+00 0. -1.
</event>
<event>
 7    1  0.3435518E-013  0.7246164E+02  0.7816164E-02  0.1226708E+00
        -11   -1    0    0    0    0  0.00000000000E+00  0.00000000000E+00  0.45593999997E+02  0.45594000000E+02  0.51100000000E-03 0. -1.
         11   -1    0    0    0    0 -0.00000000000E+00 -0.00000000000E+00 -0.45593999997E+02  0.45594000000E+02  0.51100000000E-03 0.  1.
    9900012    2    1    2    0    0 -0.14247015937E+02  0.12113289481E+02  0.98354684893E+00  0.72461638646E+02  0.70000089041E+02 0.  0.
        -12    1    1    2    0    0  0.14247015937E+02 -0.12113289481E+02 -0.98354684893E+00  0.18726361354E+02  0.00000000000E+00 0.  1.
         11    1    3    3    0    0 -0.23107356682E+02 -0.78941651556E+01  0.18916702150E+02  0.30888661299E+02  0.51100000000E-03 0. -1.
        -11    1    3    3    0    0  0.58975495528E+01 -0.58895634865E+01  0.22193646187E+01  0.86251741061E+01  0.51100000000E-03 0.  1.
        -12    1    3    3    0    0  0.29627911927E+01  0.25897018123E+02 -0.20152519920E+02  0.32947803241E+02  0.00000000000E+00 0.  1.
</event>
<event>
 7    1  0.3435518E-013  0.7246144E+02  0.7816164E-02  0.1226708E+00
        -11   -1    0    0    0    0  0.00000000000E+00  0.00000000000E+00  0.45593999997E+02  0.45594000000E+02  0.51100000000E-03 0.  1.
         11   -1    0    0    0    0 -0.00000000000E+00 -0.00000000000E+00 -0.45593999997E+02  0.45594000000E+02  0.51100000000E-03 0. -1.
    9900012    2    1    2    0    0 -0.41977390001E+01  0.12095420485E+02 -0.13666159294E+02  0.72461438135E+02  0.69999827838E+02 0.  0.
        -12    1    1    2    0    0  0.41977390001E+01 -0.12095420485E+02  0.13666159294E+02  0.18726561865E+02  0.00000000000E+00 0.  1.
         11    1    3    3    0    0 -0.39605716386E+01 -0.66690339626E+01 -0.27727698810E+02  0.28792141693E+02  0.51100000000E-03 0. -1.
        -11    1    3    3    0    0  0.11355081214E+02 -0.64360616561E+00 -0.65093779934E+01  0.13104354253E+02  0.51100000000E-03 0.  1.
         12    1    3    3    0    0 -0.11592248576E+02  0.19408060614E+02  0.20570917510E+02  0.30564942189E+02  0.00000000000E+00 0. -1.
</event>
<event>
 7    1  0.3435518E-013  0.7246156E+02  0.7816164E-02  0.1226708E+00
        -11   -1    0    0    0    0  0.00000000000E+00  0.00000000000E+00  0.45593999997E+02  0.45594000000E+02  0.51100000000E-03 0.  1.
         11   -1    0    0    0    0 -0.00000000000E+00 -0.00000000000E+00 -0.45593999997E+02  0.45594000000E+02  0.51100000000E-03 0. -1.
    9900012    2    1    2    0    0 -0.11280857547E+02 -0.11657946362E+02 -0.93548898079E+01  0.72461563508E+02  0.69999991159E+02 0.  0.
        -12    1    1    2    0    0  0.11280857547E+02  0.11657946362E+02  0.93548898079E+01  0.18726436492E+02  0.00000000000E+00 0.  1.
         11    1    3    3    0    0 -0.31589437462E+02 -0.41937279016E+01  0.12946625594E+01  0.31892884226E+02  0.51100000000E-03 0. -1.
        -11    1    3    3    0    0 -0.41993210422E+01  0.26556782639E+01  0.70965193745E+01  0.86629966957E+01  0.51100000000E-03 0.  1.
        -12    1    3    3    0    0  0.24507900957E+02 -0.10119896724E+02 -0.17746071742E+02  0.31905682586E+02  0.00000000000E+00 0.  1.
</event>
<event>
 7    1  0.3435518E-013  0.7246157E+02  0.7816164E-02  0.1226708E+00
        -11   -1    0    0    0    0  0.00000000000E+00  0.00000000000E+00  0.45593999997E+02  0.45594000000E+02  0.51100000000E-03 0.  1.
         11   -1    0    0    0    0 -0.00000000000E+00 -0.00000000000E+00 -0.45593999997E+02  0.45594000000E+02  0.51100000000E-03 0. -1.
    9900012    2    1    2    0    0  0.13418079702E+02 -0.13020455849E+02 -0.10497345157E+01  0.72461572792E+02  0.70000003254E+02 0.  0.
        -12    1    1    2    0    0 -0.13418079702E+02  0.13020455849E+02  0.10497345157E+01  0.18726427208E+02  0.00000000000E+00 0.  1.
         11    1    3    3    0    0  0.10750704048E+02  0.27281627823E+02 -0.20136996795E+01  0.29392513347E+02  0.51100000000E-03 0. -1.
        -11    1    3    3    0    0 -0.53195388422E+01 -0.69610435402E+01 -0.23009313633E+00  0.87639354046E+01  0.51100000000E-03 0.  1.
        -12    1    3    3    0    0  0.79869144971E+01 -0.33341040132E+02  0.11940583001E+01  0.34305124041E+02  0.00000000000E+00 0.  1.
</event>
<event>
 7    1  0.3435518E-013  0.7246155E+02  0.7816164E-02  0.1226708E+00
        -11   -1    0    0    0    0  0.00000000000E+00  0.00000000000E+00  0.45593999997E+02  0.45594000000E+02  0.51100000000E-03 0. -1.
         11   -1    0    0    0    0 -0.00000000000E+00 -0.00000000000E+00 -0.45593999997E+02  0.45594000000E+02  0.51100000000E-03 0.  1.
    9900012    2    1    2    0    0  0.84796193411E+01  0.16665394015E+02  0.10200252375E+01  0.72461554706E+02  0.69999979694E+02 0.  0.
        -12    1    1    2    0    0 -0.84796193411E+01 -0.16665394015E+02 -0.10200252375E+01  0.18726445294E+02  0.00000000000E+00 0.  1.
         11    1    3    3    0    0  0.11237538183E+02  0.26841233904E+02  0.23337877045E+02  0.37301348597E+02  0.51100000000E-03 0. -1.
        -11    1    3    3    0    0 -0.11844404471E+02  0.41062818122E+00 -0.48517136531E+01  0.12806157051E+02  0.51100000000E-03 0.  1.
        -12    1    3    3    0    0  0.90864856292E+01 -0.10586468070E+02 -0.17466138155E+02  0.22354049059E+02  0.00000000000E+00 0.  1.
</event>
<event>
 7    1  0.3435518E-013  0.7246158E+02  0.7816164E-02  0.1226708E+00
        -11   -1    0    0    0    0  0.00000000000E+00  0.00000000000E+00  0.45593999997E+02  0.45594000000E+02  0.51100000000E-03 0.  1.
         11   -1    0    0    0    0 -0.00000000000E+00 -0.00000000000E+00 -0.45593999997E+02  0.45594000000E+02  0.51100000000E-03 0. -1.
    9900012    2    1    2    0    0  0.10581967552E+02 -0.10039854318E+02 -0.11743178516E+02  0.72461576058E+02  0.70000007509E+02 0.  0.
        -12    1    1    2    0    0 -0.10581967552E+02  0.10039854318E+02  0.11743178516E+02  0.18726423942E+02  0.00000000000E+00 0.  1.
         11    1    3    3    0    0 -0.54511625175E+01 -0.86381690988E+01  0.10812576795E+02  0.14874305206E+02  0.51100000000E-03 0. -1.
        -11    1    3    3    0    0  0.28211493767E+01  0.22422546444E+02 -0.20082082494E+02  0.30232755587E+02  0.51100000000E-03 0.  1.
         12    1    3    3    0    0  0.13211980692E+02 -0.23824231663E+02 -0.24736728159E+01  0.27354515265E+02  0.00000000000E+00 0. -1.
</event>
<event>
 7    1  0.3435518E-013  0.7246154E+02  0.7816164E-02  0.1226708E+00
        -11   -1    0    0    0    0  0.00000000000E+00  0.00000000000E+00  0.45593999997E+02  0.45594000000E+02  0.51100000000E-03 0.  1.
         11   -1    0    0    0    0 -0.00000000000E+00 -0.00000000000E+00 -0.45593999997E+02  0.45594000000E+02  0.51100000000E-03 0. -1.
    9900012    2    1    2    0    0  0.14973856908E+02 -0.10730254106E+02 -0.33653711598E+01  0.72461535653E+02  0.69999954874E+02 0.  0.
        -12    1    1    2    0    0 -0.14973856908E+02  0.10730254106E+02  0.33653711598E+01  0.18726464347E+02  0.00000000000E+00 0.  1.
         11    1    3    3    0    0 -0.18258958591E+01 -0.31846406701E+02 -0.54050459200E+01  0.32353392976E+02  0.51100000000E-03 0. -1.
        -11    1    3    3    0    0 -0.16581347136E+00 -0.25253426908E+01 -0.87228978124E+01  0.90826095545E+01  0.51100000000E-03 0.  1.
        -12    1    3    3    0    0  0.16965566239E+02  0.23641495286E+02  0.10762572573E+02  0.31025533122E+02  0.00000000000E+00 0.  1.
</event>
<event>
 7    1  0.3435518E-013  0.7246158E+02  0.7816164E-02  0.1226708E+00
        -11   -1    0    0    0    0  0.00000000000E+00  0.00000000000E+00  0.45593999997E+02  0.45594000000E+02  0.51100000000E-03 0. -1.
         11   -1    0    0    0    0 -0.00000000000E+00 -0.00000000000E+00 -0.45593999997E+02  0.45594000000E+02  0.51100000000E-03 0.  1.
    9900012    2    1    2    0    0 -0.18328423800E+02 -0.35797345317E+01 -0.13904412779E+01  0.72461576282E+02  0.70000007800E+02 0.  0.
        -12    1    1    2    0    0  0.18328423800E+02  0.35797345317E+01  0.13904412779E+01  0.18726423718E+02  0.00000000000E+00 0.  1.
         11    1    3    3    0    0 -0.15186720477E+02 -0.11172831023E+02 -0.83266325129E+00  0.18872253715E+02  0.51100000000E-03 0. -1.
        -11    1    3    3    0    0  0.19815881532E+01 -0.22725916648E+02  0.57887705365E+00  0.22819488995E+02  0.51100000000E-03 0.  1.
        -12    1    3    3    0    0 -0.51232914758E+01  0.30319013139E+02 -0.11366550803E+01  0.30769833572E+02  0.00000000000E+00 0.  1.
</event>
<event>
 7    1  0.3435518E-013  0.7246159E+02  0.7816164E-02  0.1226708E+00
        -11   -1    0    0    0    0  0.00000000000E+00  0.00000000000E+00  0.45593999997E+02  0.45594000000E+02  0.51100000000E-03 0. -1.
         11   -1    0    0    0    0 -0.00000000000E+00 -0.00000000000E+00 -0.45593999997E+02  0.45594000000E+02  0.51100000000E-03 0.  1.
    9900012    2    1    2    0    0 -0.13625665126E+01  0.15503414454E+02  0.10414708828E+02  0.72461585308E+02  0.70000019558E+02 0.  0.
        -12    1    1    2    0    0  0.13625665126E+01 -0.15503414454E+02 -0.10414708828E+02  0.18726414692E+02  0.00000000000E+00 0.  1.
         11    1    3    3    0    0  0.24736266107E+01  0.62813310424E+01 -0.43100752599E+01  0.80094130422E+01  0.51100000000E-03 0. -1.
        -11    1    3    3    0    0 -0.22904409160E+01 -0.45807721507E+01 -0.23359465761E+02  0.23914310234E+02  0.51100000000E-03 0.  1.
         12    1    3    3    0    0 -0.15457522073E+01  0.13802855563E+02  0.38084249849E+02  0.40537862032E+02  0.00000000000E+00 0. -1.
</event>
<event>
 7    1  0.3435518E-013  0.7246160E+02  0.7816164E-02  0.1226708E+00
        -11   -1    0    0    0    0  0.00000000000E+00  0.00000000000E+00  0.45593999997E+02  0.45594000000E+02  0.51100000000E-03 0.  1.
         11   -1    0    0    0    0 -0.00000000000E+00 -0.00000000000E+00 -0.45593999997E+02  0.45594000000E+02  0.51100000000E-03 0. -1.
    9900012    2    1    2    0    0 -0.28894070191E+01  0.45330656751E+01 -0.17938248232E+02  0.72461598664E+02  0.70000036957E+02 0.  0.
        -12    1    1    2    0    0  0.28894070191E+01 -0.45330656751E+01  0.17938248232E+02  0.18726401336E+02  0.00000000000E+00 0.  1.
         11    1    3    3    0    0  0.56514347378E+01 -0.25280643402E+02 -0.61133852985E+01  0.26616219218E+02  0.51100000000E-03 0. -1.
        -11    1    3    3    0    0  0.98373291190E+00  0.80218049646E-02  0.84847128263E+01  0.85415541207E+01  0.51100000000E-03 0.  1.
         12    1    3    3    0    0 -0.95245746689E+01  0.29805687272E+02 -0.20309575760E+02  0.37303825326E+02  0.00000000000E+00 0. -1.
</event>
<event>
 7    1  0.3435518E-013  0.7246156E+02  0.7816164E-02  0.1226708E+00
        -11   -1    0    0    0    0  0.00000000000E+00  0.00000000000E+00  0.45593999997E+02  0.45594000000E+02  0.51100000000E-03 0.  1.
         11   -1    0    0    0    0 -0.00000000000E+00 -0.00000000000E+00 -0.45593999997E+02  0.45594000000E+02  0.51100000000E-03 0. -1.
    9900012    2    1    2    0    0  0.52558912526E+01 -0.15852469414E+02  0.84707859802E+01  0.72461564287E+02  0.69999992175E+02 0.  0.
        -12    1    1    2    0    0 -0.52558912526E+01  0.15852469414E+02 -0.84707859802E+01  0.18726435713E+02  0.00000000000E+00 0.  1.
         11    1    3    3    0    0  0.95743321506E+01 -0.49469947135E+01 -0.21620119824E+01  0.10991582639E+02  0.51100000000E-03 0. -1.
        -11    1    3    3    0    0 -0.19004906162E+02 -0.29157328974E+02 -0.19855804058E+01  0.34860849400E+02  0.51100000000E-03 0.  1.
         12    1    3    3    0    0  0.14686465264E+02  0.18251854274E+02  0.12618378368E+02  0.26609132249E+02  0.00000000000E+00 0. -1.
</event>
<event>
 7    1  0.3435518E-013  0.7246152E+02  0.7816164E-02  0.1226708E+00
        -11   -1    0    0    0    0  0.00000000000E+00  0.00000000000E+00  0.45593999997E+02  0.45594000000E+02  0.51100000000E-03 0.  1.
         11   -1    0    0    0    0 -0.00000000000E+00 -0.00000000000E+00 -0.45593999997E+02  0.45594000000E+02  0.51100000000E-03 0. -1.
    9900012    2    1    2    0    0 -0.60277526392E+01  0.12824822331E+02 -0.12242191171E+02  0.72461518367E+02  0.69999932355E+02 0.  0.
        -12    1    1    2    0    0  0.60277526392E+01 -0.12824822331E+02  0.12242191171E+02  0.18726481633E+02  0.00000000000E+00 0.  1.
         11    1    3    3    0    0 -0.15913722408E+02  0.85697237115E+01 -0.89390189733E+01  0.20164146048E+02  0.51100000000E-03 0. -1.
        -11    1    3    3    0    0  0.11491017742E+02  0.13878272819E+02 -0.23650465748E+02  0.29732044590E+02  0.51100000000E-03 0.  1.
        -12    1    3    3    0    0 -0.16050479730E+01 -0.96231741998E+01  0.20347293550E+02  0.22565327729E+02  0.00000000000E+00 0.  1.
</event>
<event>
 7    1  0.3435518E-013  0.7246156E+02  0.7816164E-02  0.1226708E+00
        -11   -1    0    0    0    0  0.00000000000E+00  0.00000000000E+00  0.45593999997E+02  0.45594000000E+02  0.51100000000E-03 0. -1.
         11   -1    0    0    0    0 -0.00000000000E+00 -0.00000000000E+00 -0.45593999997E+02  0.45594000000E+02  0.51100000000E-03 0.  1.
    9900012    2    1    2    0    0 -0.47793966056E+01 -0.38544029947E+01  0.17691259757E+02  0.72461555433E+02  0.69999980640E+02 0.  0.
        -12    1    1    2    0    0  0.47793966056E+01  0.38544029947E+01 -0.17691259757E+02  0.18726444567E+02  0.00000000000E+00 0.  1.
         11    1    3    3    0    0 -0.40997601456E+00  0.50542382380E+01  0.17230245120E+02  0.17960922907E+02  0.51100000000E-03 0. -1.
        -11    1    3    3    0    0  0.22416825833E+02 -0.14267342421E+02  0.42916930678E+01  0.26916347631E+02  0.51100000000E-03 0.  1.
        -12    1    3    3    0    0 -0.26786246424E+02  0.53587011877E+01 -0.38306784315E+01  0.27584284894E+02  0.00000000000E+00 0.  1.
</event>
<event>
 7    1  0.3435518E-013  0.7246152E+02  0.7816164E-02  0.1226708E+00
        -11   -1    0    0    0    0  0.00000000000E+00  0.00000000000E+00  0.45593999997E+02  0.45594000000E+02  0.51100000000E-03 0. -1.
         11   -1    0    0    0    0 -0.00000000000E+00 -0.00000000000E+00 -0.45593999997E+02  0.45594000000E+02  0.51100000000E-03 0.  1.
    9900012    2    1    2    0    0 -0.18405138431E+02  0.88523993335E+00  0.33388958111E+01  0.72461521536E+02  0.69999936484E+02 0.  0.
        -12    1    1    2    0    0  0.18405138431E+02 -0.88523993335E+00 -0.33388958111E+01  0.18726478464E+02  0.00000000000E+00 0.  1.
         11    1    3    3    0    0  0.10993237644E+02  0.22656713925E+01  0.12078125432E+02  0.16488349068E+02  0.51100000000E-03 0. -1.
        -11    1    3    3    0    0 -0.15911896742E+02  0.22421788007E+02 -0.87582334577E+00  0.27508037047E+02  0.51100000000E-03 0.  1.
         12    1    3    3    0    0 -0.13486479333E+02 -0.23802219466E+02 -0.78634062754E+01  0.28465135422E+02  0.00000000000E+00 0. -1.
</event>
<event>
 7    1  0.3435518E-013  0.7246172E+02  0.7816164E-02  0.1226708E+00
        -11   -1    0    0    0    0  0.00000000000E+00  0.00000000000E+00  0.45593999997E+02  0.45594000000E+02  0.51100000000E-03 0. -1.
         11   -1    0    0    0    0 -0.00000000000E+00 -0.00000000000E+00 -0.45593999997E+02  0.45594000000E+02  0.51100000000E-03 0.  1.
    9900012    2    1    2    0    0 -0.15580797800E+02  0.64555561339E+01  0.81386833016E+01  0.72461718176E+02  0.70000192643E+02 0.  0.
        -12    1    1    2    0    0  0.15580797800E+02 -0.64555561339E+01 -0.81386833016E+01  0.18726281824E+02  0.00000000000E+00 0.  1.
         11    1    3    3    0    0 -0.21027645093E+01 -0.63981991682E+01 -0.15657795174E+02  0.17044797481E+02  0.51100000000E-03 0. -1.
        -11    1    3    3    0    0  0.12921712587E+02  0.12752061670E+02 -0.22953116942E+01  0.18299021532E+02  0.51100000000E-03 0.  1.
         12    1    3    3    0    0 -0.26399745878E+02  0.10169363240E+00  0.26091790170E+02  0.37117899163E+02  0.00000000000E+00 0. -1.
</event>
<event>
 7    1  0.3435518E-013  0.7246158E+02  0.7816164E-02  0.1226708E+00
        -11   -1    0    0    0    0  0.00000000000E+00  0.00000000000E+00  0.45593999997E+02  0.45594000000E+02  0.51100000000E-03 0.  1.
         11   -1    0    0    0    0 -0.00000000000E+00 -0.00000000000E+00 -0.45593999997E+02  0.45594000000E+02  0.51100000000E-03 0. -1.
    9900012    2    1    2    0    0  0.23885181264E+01  0.18125451305E+02 -0.40548580501E+01  0.72461578087E+02  0.70000010151E+02 0.  0.
        -12    1    1    2    0    0 -0.23885181264E+01 -0.18125451305E+02  0.40548580501E+01  0.18726421913E+02  0.00000000000E+00 0.  1.
         11    1    3    3    0    0 -0.87552446236E+01  0.40798044278E+02  0.66390814344E+01  0.42251770707E+02  0.51100000000E-03 0. -1.
        -11    1    3    3    0    0  0.18066516802E+01 -0.15429975106E+01  0.26282324364E+01  0.35429419431E+01  0.51100000000E-03 0.  1.
        -12    1    3    3    0    0  0.93371110699E+01 -0.21129595462E+02 -0.13322171921E+02  0.26666865437E+02  0.00000000000E+00 0.  1.
</event>
<event>
 7    1  0.3435518E-013  0.7246157E+02  0.7816164E-02  0.1226708E+00
        -11   -1    0    0    0    0  0.00000000000E+00  0.00000000000E+00  0.45593999997E+02  0.45594000000E+02  0.51100000000E-03 0. -1.
         11   -1    0    0    0    0 -0.00000000000E+00 -0.00000000000E+00 -0.45593999997E+02  0.45594000000E+02  0.51100000000E-03 0.  1.
    9900012    2    1    2    0    0 -0.63072148030E+01  0.11693497299E+01  0.17593484785E+02  0.72461573639E+02  0.70000004357E+02 0.  0.
        -12    1    1    2    0    0  0.63072148030E+01 -0.11693497299E+01 -0.17593484785E+02  0.18726426361E+02  0.00000000000E+00 0.  1.
         11    1    3    3    0    0 -0.17160034532E+02  0.21714434467E+02  0.38195974035E+01  0.27938732504E+02  0.51100000000E-03 0. -1.
        -11    1    3    3    0    0 -0.10907211540E+02 -0.95832746119E+01 -0.31497196633E+01  0.14856888977E+02  0.51100000000E-03 0.  1.
         12    1    3    3    0    0  0.21760031269E+02 -0.10961810125E+02  0.16923607045E+02  0.29665952158E+02  0.00000000000E+00 0. -1.
</event>
<event>
 7    1  0.3435518E-013  0.7246189E+02  0.7816164E-02  0.1226707E+00
        -11   -1    0    0    0    0  0.00000000000E+00  0.00000000000E+00  0.45593999997E+02  0.45594000000E+02  0.51100000000E-03 0.  1.
         11   -1    0    0    0    0 -0.00000000000E+00 -0.00000000000E+00 -0.45593999997E+02  0.45594000000E+02  0.51100000000E-03 0. -1.
    9900012    2    1    2    0    0  0.16717057781E+02 -0.83723276094E+01 -0.10541688413E+01  0.72461890890E+02  0.70000417634E+02 0.  0.
        -12    1    1    2    0    0 -0.16717057781E+02  0.83723276094E+01  0.10541688413E+01  0.18726109110E+02  0.00000000000E+00 0.  1.
         11    1    3    3    0    0 -0.19968436838E+01  0.12863705896E+02  0.86573223660E+00  0.13046524696E+02  0.51100000000E-03 0. -1.
        -11    1    3    3    0    0  0.11031256845E+02 -0.20331762768E+01  0.23859457796E+02  0.26364676366E+02  0.51100000000E-03 0.  1.
         12    1    3    3    0    0  0.76826446205E+01 -0.19202857229E+02 -0.25779358873E+02  0.33050689827E+02  0.00000000000E+00 0. -1.
</event>
<event>
 7    1  0.3435518E-013  0.7246151E+02  0.7816164E-02  0.1226708E+00
        -11   -1    0    0    0    0  0.00000000000E+00  0.00000000000E+00  0.45593999997E+02  0.45594000000E+02  0.51100000000E-03 0. -1.
         11   -1    0    0    0    0 -0.00000000000E+00 -0.00000000000E+00 -0.45593999997E+02  0.45594000000E+02  0.51100000000E-03 0.  1.
    9900012    2    1    2    0    0  0.16256955089E+02  0.19447006365E+01  0.90890653522E+01  0.72461506513E+02  0.69999916913E+02 0.  0.
        -12    1    1    2    0    0 -0.16256955089E+02 -0.19447006365E+01 -0.90890653522E+01  0.18726493487E+02  0.00000000000E+00 0.  1.
         11    1    3    3    0    0  0.25447040707E+02  0.10906661773E+02  0.29750754981E+02  0.40640061196E+02  0.51100000000E-03 0. -1.
        -11    1    3    3    0    0  0.21636928258E+01 -0.46770337224E+01  0.24586787774E+01  0.57097559209E+01  0.51100000000E-03 0.  1.
        -12    1    3    3    0    0 -0.11353778444E+02 -0.42849274137E+01 -0.23120368406E+02  0.26111689397E+02  0.00000000000E+00 0.  1.
</event>
<event>
 7    1  0.3435518E-013  0.7246162E+02  0.7816164E-02  0.1226708E+00
        -11   -1    0    0    0    0  0.00000000000E+00  0.00000000000E+00  0.45593999997E+02  0.45594000000E+02  0.51100000000E-03 0. -1.
         11   -1    0    0    0    0 -0.00000000000E+00 -0.00000000000E+00 -0.45593999997E+02  0.45594000000E+02  0.51100000000E-03 0.  1.
    9900012    2    1    2    0    0  0.55361711498E+01  0.16190173564E+02  0.76096284769E+01  0.72461618700E+02  0.70000063057E+02 0.  0.
        -12    1    1    2    0    0 -0.55361711498E+01 -0.16190173564E+02 -0.76096284769E+01  0.18726381300E+02  0.00000000000E+00 0.  1.
         11    1    3    3    0    0 -0.18082964142E+02  0.34703371373E+01  0.23562758699E+02  0.29903853093E+02  0.51100000000E-03 0. -1.
        -11    1    3    3    0    0 -0.56104505040E+01  0.81129812850E+01 -0.40453584806E+01  0.10661263794E+02  0.51100000000E-03 0.  1.
         12    1    3    3    0    0  0.29229585795E+02  0.46068551419E+01 -0.11907771742E+02  0.31896501813E+02  0.00000000000E+00 0. -1.
</event>
<event>
 7    1  0.3435518E-013  0.7246160E+02  0.7816164E-02  0.1226708E+00
        -11   -1    0    0    0    0  0.00000000000E+00  0.00000000000E+00  0.45593999997E+02  0.45594000000E+02  0.51100000000E-03 0. -1.
         11   -1    0    0    0    0 -0.00000000000E+00 -0.00000000000E+00 -0.45593999997E+02  0.45594000000E+02  0.51100000000E-03 0.  1.
    9900012    2    1    2    0    0 -0.72364510404E+01 -0.67563753416E+01  0.15895387728E+02  0.72461596649E+02  0.70000034332E+02 0.  0.
        -12    1    1    2    0    0  0.72364510404E+01  0.67563753416E+01 -0.15895387728E+02  0.18726403351E+02  0.00000000000E+00 0.  1.
         11    1    3    3    0    0  0.12785094826E+02  0.42445309008E+01  0.10480332596E+02  0.17067866412E+02  0.51100000000E-03 0. -1.
        -11    1    3    3    0    0  0.12009860664E+02  0.79568296988E+00 -0.12066373766E+02  0.17043099503E+02  0.51100000000E-03 0.  1.
        -12    1    3    3    0    0 -0.32031406531E+02 -0.11796589212E+02  0.17481428898E+02  0.38350630734E+02  0.00000000000E+00 0.  1.
</event>
<event>
 7    1  0.3435518E-013  0.7246155E+02  0.7816164E-02  0.1226708E+00
        -11   -1    0    0    0    0  0.00000000000E+00  0.00000000000E+00  0.45593999997E+02  0.45594000000E+02  0.51100000000E-03 0. -1.
         11   -1    0    0    0    0 -0.00000000000E+00 -0.00000000000E+00 -0.45593999997E+02  0.45594000000E+02  0.51100000000E-03 0.  1.
    9900012    2    1    2    0    0  0.68946437712E+01  0.15417263552E+02  0.80902376648E+01  0.72461546154E+02  0.69999968553E+02 0.  0.
        -12    1    1    2    0    0 -0.68946437712E+01 -0.15417263552E+02 -0.80902376648E+01  0.18726453846E+02  0.00000000000E+00 0.  1.
         11    1    3    3    0    0  0.34298476101E+01 -0.77261608403E+01  0.92949117187E+01  0.12563948427E+02  0.51100000000E-03 0. -1.
        -11    1    3    3    0    0  0.24118847802E+01 -0.18262762972E+02 -0.14378674322E+01  0.18477368930E+02  0.51100000000E-03 0.  1.
         12    1    3    3    0    0  0.10529113809E+01  0.41406187365E+02  0.23319337833E+00  0.41420228797E+02  0.00000000000E+00 0. -1.
</event>
<event>
 7    1  0.3435518E-013  0.7246158E+02  0.7816164E-02  0.1226708E+00
        -11   -1    0    0    0    0  0.00000000000E+00  0.00000000000E+00  0.45593999997E+02  0.45594000000E+02  0.51100000000E-03 0.  1.
         11   -1    0    0    0    0 -0.00000000000E+00 -0.00000000000E+00 -0.45593999997E+02  0.45594000000E+02  0.51100000000E-03 0. -1.
    9900012    2    1    2    0    0  0.17680422029E+02  0.26488733084E+01  0.55735834004E+01  0.72461583235E+02  0.70000016858E+02 0.  0.
        -12    1    1    2    0    0 -0.17680422029E+02 -0.26488733084E+01 -0.55735834004E+01  0.18726416765E+02  0.00000000000E+00 0.  1.
         11    1    3    3    0    0  0.19194882187E+02  0.11689848577E+02 -0.13295204376E+02  0.26112420830E+02  0.51100000000E-03 0. -1.
        -11    1    3    3    0    0  0.15579545610E+02 -0.17290464857E+02  0.89729110244E+01  0.24943847917E+02  0.51100000000E-03 0.  1.
         12    1    3    3    0    0 -0.17094005768E+02  0.82494895885E+01  0.98958767516E+01  0.21405314489E+02  0.00000000000E+00 0. -1.
</event>
<event>
 7    1  0.3435518E-013  0.7246155E+02  0.7816164E-02  0.1226708E+00
        -11   -1    0    0    0    0  0.00000000000E+00  0.00000000000E+00  0.45593999997E+02  0.45594000000E+02  0.51100000000E-03 0.  1.
         11   -1    0    0    0    0 -0.00000000000E+00 -0.00000000000E+00 -0.45593999997E+02  0.45594000000E+02  0.51100000000E-03 0. -1.
    9900012    2    1    2    0    0  0.11411946732E+02 -0.10502157178E+02 -0.10495329538E+02  0.72461554109E+02  0.69999978915E+02 0.  0.
        -12    1    1    2    0    0 -0.11411946732E+02  0.10502157178E+02  0.10495329538E+02  0.18726445891E+02  0.00000000000E+00 0.  1.
         11    1    3    3    0    0 -0.30800299366E+01  0.10496133591E+02 -0.70991958399E+01  0.13040474938E+02  0.51100000000E-03 0. -1.
        -11    1    3    3    0    0  0.24501276245E+02 -0.22411828398E+01  0.17042408018E+02  0.29929569149E+02  0.51100000000E-03 0.  1.
         12    1    3    3    0    0 -0.10009299576E+02 -0.18757107929E+02 -0.20438541716E+02  0.29491510022E+02  0.00000000000E+00 0. -1.
</event>
<event>
 7    1  0.3435518E-013  0.7246160E+02  0.7816164E-02  0.1226708E+00
        -11   -1    0    0    0    0  0.00000000000E+00  0.00000000000E+00  0.45593999997E+02  0.45594000000E+02  0.51100000000E-03 0. -1.
         11   -1    0    0    0    0 -0.00000000000E+00 -0.00000000000E+00 -0.45593999997E+02  0.45594000000E+02  0.51100000000E-03 0.  1.
    9900012    2    1    2    0    0 -0.74516047420E+01 -0.42376019715E+01  0.16649157793E+02  0.72461597811E+02  0.70000035846E+02 0.  0.
        -12    1    1    2    0    0  0.74516047420E+01  0.42376019715E+01 -0.16649157793E+02  0.18726402189E+02  0.00000000000E+00 0.  1.
         11    1    3    3    0    0  0.16124109764E+02  0.19929135937E+02  0.16328860942E+02  0.30393898644E+02  0.51100000000E-03 0. -1.
        -11    1    3    3    0    0  0.38754144260E+01 -0.72468569737E+01  0.47910192261E+01  0.95126041890E+01  0.51100000000E-03 0.  1.
        -12    1    3    3    0    0 -0.27451128932E+02 -0.16919880935E+02 -0.44707223743E+01  0.32555094978E+02  0.00000000000E+00 0.  1.
</event>
<event>
 7    1  0.3435518E-013  0.7246147E+02  0.7816164E-02  0.1226708E+00
        -11   -1    0    0    0    0  0.00000000000E+00  0.00000000000E+00  0.45593999997E+02  0.45594000000E+02  0.51100000000E-03 0.  1.
         11   -1    0    0    0    0 -0.00000000000E+00 -0.00000000000E+00 -0.45593999997E+02  0.45594000000E+02  0.51100000000E-03 0. -1.
    9900012    2    1    2    0    0 -0.16149444396E+02  0.37779381039E+01  0.86951415044E+01  0.72461471854E+02  0.69999871763E+02 0.  0.
        -12    1    1    2    0    0  0.16149444396E+02 -0.37779381039E+01 -0.86951415044E+01  0.18726528146E+02  0.00000000000E+00 0.  1.
         11    1    3    3    0    0 -0.26363542481E+01 -0.22689807901E+01  0.83707320853E+00  0.35776150386E+01  0.51100000000E-03 0. -1.
        -11    1    3    3    0    0 -0.22563514122E+01 -0.29076629936E+01  0.36578295691E+02  0.36762988748E+02  0.51100000000E-03 0.  1.
         12    1    3    3    0    0 -0.11256738736E+02  0.89545818876E+01 -0.28720227395E+02  0.32120868067E+02  0.00000000000E+00 0. -1.
</event>
<event>
 7    1  0.3435518E-013  0.7246156E+02  0.7816164E-02  0.1226708E+00
        -11   -1    0    0    0    0  0.00000000000E+00  0.00000000000E+00  0.45593999997E+02  0.45594000000E+02  0.51100000000E-03 0.  1.
         11   -1    0    0    0    0 -0.00000000000E+00 -0.00000000000E+00 -0.45593999997E+02  0.45594000000E+02  0.51100000000E-03 0. -1.
    9900012    2    1    2    0    0 -0.14519035353E+02 -0.74419952622E+01 -0.91920479502E+01  0.72461563430E+02  0.69999991058E+02 0.  0.
        -12    1    1    2    0    0  0.14519035353E+02  0.74419952622E+01  0.91920479502E+01  0.18726436570E+02  0.00000000000E+00 0.  1.
         11    1    3    3    0    0 -0.52328654830E+01 -0.10577518856E+02  0.77218391615E+01  0.14102963753E+02  0.51100000000E-03 0. -1.
        -11    1    3    3    0    0 -0.12193914544E+02  0.25397604625E+01  0.18783510862E+02  0.22538017119E+02  0.51100000000E-03 0.  1.
         12    1    3    3    0    0  0.29077446731E+01  0.59576313144E+00 -0.35697397973E+02  0.35820582559E+02  0.00000000000E+00 0. -1.
</event>
<event>
 7    1  0.3435518E-013  0.7246158E+02  0.7816164E-02  0.1226708E+00
        -11   -1    0    0    0    0  0.00000000000E+00  0.00000000000E+00  0.45593999997E+02  0.45594000000E+02  0.51100000000E-03 0. -1.
         11   -1    0    0    0    0 -0.00000000000E+00 -0.00000000000E+00 -0.45593999997E+02  0.45594000000E+02  0.51100000000E-03 0.  1.
    9900012    2    1    2    0    0  0.27638930433E-01  0.18190884997E+01  0.18637834620E+02  0.72461582131E+02  0.70000015419E+02 0.  0.
        -12    1    1    2    0    0 -0.27638930433E-01 -0.18190884997E+01 -0.18637834620E+02  0.18726417869E+02  0.00000000000E+00 0.  1.
         11    1    3    3    0    0 -0.18694217116E+02  0.94172280456E+01  0.28609467188E+01  0.21126830193E+02  0.51100000000E-03 0. -1.
        -11    1    3    3    0    0 -0.70041991350E+01  0.12246815623E+02 -0.20791224674E+01  0.14260646862E+02  0.51100000000E-03 0.  1.
         12    1    3    3    0    0  0.25726055181E+02 -0.19844955169E+02  0.17856010369E+02  0.37074105075E+02  0.00000000000E+00 0. -1.
</event>
<event>
 7    1  0.3435518E-013  0.7246155E+02  0.7816164E-02  0.1226708E+00
        -11   -1    0    0    0    0  0.00000000000E+00  0.00000000000E+00  0.45593999997E+02  0.45594000000E+02  0.51100000000E-03 0.  1.
         11   -1    0    0    0    0 -0.00000000000E+00 -0.00000000000E+00 -0.45593999997E+02  0.45594000000E+02  0.51100000000E-03 0. -1.
    9900012    2    1    2    0    0  0.12216555468E+02 -0.20163237121E+01 -0.14048847236E+02  0.72461550858E+02  0.69999974681E+02 0.  0.
        -12    1    1    2    0    0 -0.12216555468E+02  0.20163237121E+01  0.14048847236E+02  0.18726449142E+02  0.00000000000E+00 0.  1.
         11    1    3    3    0    0 -0.21699294454E+01 -0.15827802819E+01 -0.50325876713E+01  0.57044479268E+01  0.51100000000E-03 0.  1.
        -11    1    3    3    0    0  0.22622846655E+02  0.25308420095E+02 -0.17811119459E+02  0.38334648754E+02  0.51100000000E-03 0. -1.
        -12    1    3    3    0    0 -0.82363617415E+01 -0.25741963526E+02  0.87948598945E+01  0.28422454177E+02  0.00000000000E+00 0.  1.
</event>
<event>
 7    1  0.3435518E-013  0.7246161E+02  0.7816164E-02  0.1226708E+00
        -11   -1    0    0    0    0  0.00000000000E+00  0.00000000000E+00  0.45593999997E+02  0.45594000000E+02  0.51100000000E-03 0. -1.
         11   -1    0    0    0    0 -0.00000000000E+00 -0.00000000000E+00 -0.45593999997E+02  0.45594000000E+02  0.51100000000E-03 0.  1.
    9900012    2    1    2    0    0 -0.59921946237E+01 -0.11425939527E+02  0.13572736067E+02  0.72461610737E+02  0.70000052684E+02 0.  0.
        -12    1    1    2    0    0  0.59921946237E+01  0.11425939527E+02 -0.13572736067E+02  0.18726389263E+02  0.00000000000E+00 0.  1.
         11    1    3    3    0    0  0.50216073733E+01  0.16368430333E+02 -0.28347190502E+01  0.17354471601E+02  0.51100000000E-03 0. -1.
        -11    1    3    3    0    0 -0.17020422948E+02 -0.32052842963E+01 -0.87631405253E+01  0.19410339432E+02  0.51100000000E-03 0.  1.
        -12    1    3    3    0    0  0.60066209508E+01 -0.24589085564E+02  0.25170595643E+02  0.35696799704E+02  0.00000000000E+00 0.  1.
</event>
<event>
 7    1  0.3435518E-013  0.7246135E+02  0.7816164E-02  0.1226709E+00
        -11   -1    0    0    0    0  0.00000000000E+00  0.00000000000E+00  0.45593999997E+02  0.45594000000E+02  0.51100000000E-03 0.  1.
         11   -1    0    0    0    0 -0.00000000000E+00 -0.00000000000E+00 -0.45593999997E+02  0.45594000000E+02  0.51100000000E-03 0. -1.
    9900012    2    1    2    0    0  0.87018619873E+00  0.18614889071E+02  0.18482820411E+01  0.72461348787E+02  0.69999711445E+02 0.  0.
        -12    1    1    2    0    0 -0.87018619873E+00 -0.18614889071E+02 -0.18482820411E+01  0.18726651213E+02  0.00000000000E+00 0.  1.
         11    1    3    3    0    0 -0.10982980508E+01  0.17834400497E+02 -0.15185620239E+02  0.23449417093E+02  0.51100000000E-03 0. -1.
        -11    1    3    3    0    0  0.11704283596E+01  0.21531970482E+02 -0.88652487959E+00  0.21581973543E+02  0.51100000000E-03 0.  1.
        -12    1    3    3    0    0  0.79805588989E+00 -0.20751481908E+02  0.17920427160E+02  0.27429958151E+02  0.00000000000E+00 0.  1.
</event>
<event>
 7    1  0.3435518E-013  0.7246155E+02  0.7816164E-02  0.1226708E+00
        -11   -1    0    0    0    0  0.00000000000E+00  0.00000000000E+00  0.45593999997E+02  0.45594000000E+02  0.51100000000E-03 0.  1.
         11   -1    0    0    0    0 -0.00000000000E+00 -0.00000000000E+00 -0.45593999997E+02  0.45594000000E+02  0.51100000000E-03 0. -1.
    9900012    2    1    2    0    0 -0.98254861749E+01  0.15388186786E+02 -0.41645448678E+01  0.72461550654E+02  0.69999974415E+02 0.  0.
        -12    1    1    2    0    0  0.98254861749E+01 -0.15388186786E+02  0.41645448678E+01  0.18726449346E+02  0.00000000000E+00 0.  1.
         11    1    3    3    0    0 -0.43566316186E+00 -0.86957763448E+01  0.78858730282E+01  0.11747055900E+02  0.51100000000E-03 0. -1.
        -11    1    3    3    0    0 -0.19178399655E+02  0.15136387632E+02  0.16331031501E+02  0.29387477504E+02  0.51100000000E-03 0.  1.
         12    1    3    3    0    0  0.97885766422E+01  0.89475754990E+01 -0.28381449397E+02  0.31327017251E+02  0.00000000000E+00 0. -1.
</event>
<event>
 7    1  0.3435518E-013  0.7246156E+02  0.7816164E-02  0.1226708E+00
        -11   -1    0    0    0    0  0.00000000000E+00  0.00000000000E+00  0.45593999997E+02  0.45594000000E+02  0.51100000000E-03 0. -1.
         11   -1    0    0    0    0 -0.00000000000E+00 -0.00000000000E+00 -0.45593999997E+02  0.45594000000E+02  0.51100000000E-03 0.  1.
    9900012    2    1    2    0    0 -0.51772040408E+01 -0.11976251981E+02  0.13433005541E+02  0.72461556369E+02  0.69999981860E+02 0.  0.
        -12    1    1    2    0    0  0.51772040408E+01  0.11976251981E+02 -0.13433005541E+02  0.18726443631E+02  0.00000000000E+00 0.  1.
         11    1    3    3    0    0  0.21256268864E+00  0.78610604490E+01 -0.22969224243E+02  0.24278111888E+02  0.51100000000E-03 0.  1.
        -11    1    3    3    0    0 -0.11644826657E+02 -0.56430993758E+01  0.64623430164E+01  0.14464039407E+02  0.51100000000E-03 0. -1.
        -12    1    3    3    0    0  0.62550599273E+01 -0.14194213054E+02  0.29939886768E+02  0.33719405074E+02  0.00000000000E+00 0.  1.
</event>
<event>
 7    1  0.3435518E-013  0.7246157E+02  0.7816164E-02  0.1226708E+00
        -11   -1    0    0    0    0  0.00000000000E+00  0.00000000000E+00  0.45593999997E+02  0.45594000000E+02  0.51100000000E-03 0.  1.
         11   -1    0    0    0    0 -0.00000000000E+00 -0.00000000000E+00 -0.45593999997E+02  0.45594000000E+02  0.51100000000E-03 0. -1.
    9900012    2    1    2    0    0  0.74988329900E+00  0.40025449383E+01 -0.18278305087E+02  0.72461571408E+02  0.70000001451E+02 0.  0.
        -12    1    1    2    0    0 -0.74988329900E+00 -0.40025449383E+01  0.18278305087E+02  0.18726428592E+02  0.00000000000E+00 0.  1.
         11    1    3    3    0    0 -0.21596569886E+02  0.96406779143E+01 -0.11602630125E+02  0.26343415260E+02  0.51100000000E-03 0. -1.
        -11    1    3    3    0    0 -0.11148509165E+02 -0.37526023440E+01 -0.41558241591E+01  0.12475662534E+02  0.51100000000E-03 0.  1.
        -12    1    3    3    0    0  0.33494962349E+02 -0.18855306319E+01 -0.25198508030E+01  0.33642493615E+02  0.00000000000E+00 0.  1.
</event>
<event>
 7    1  0.3435518E-013  0.7246159E+02  0.7816164E-02  0.1226708E+00
        -11   -1    0    0    0    0  0.00000000000E+00  0.00000000000E+00  0.45593999997E+02  0.45594000000E+02  0.51100000000E-03 0. -1.
         11   -1    0    0    0    0 -0.00000000000E+00 -0.00000000000E+00 -0.45593999997E+02  0.45594000000E+02  0.51100000000E-03 0.  1.
    9900012    2    1    2    0    0 -0.11653955722E+02 -0.12710345458E+02  0.73014183860E+01  0.72461594149E+02  0.70000031075E+02 0.  0.
        -12    1    1    2    0    0  0.11653955722E+02  0.12710345458E+02 -0.73014183860E+01  0.18726405851E+02  0.00000000000E+00 0.  1.
         11    1    3    3    0    0 -0.30107702680E+02 -0.29545762245E+01  0.40825807513E+01  0.30526558063E+02  0.51100000000E-03 0. -1.
        -11    1    3    3    0    0  0.13333175521E+02  0.11584827643E+02  0.81326121361E+01  0.19445338295E+02  0.51100000000E-03 0.  1.
        -12    1    3    3    0    0  0.51205714366E+01 -0.21340596876E+02 -0.49137745015E+01  0.22489697791E+02  0.00000000000E+00 0.  1.
</event>
<event>
 7    1  0.3435518E-013  0.7246152E+02  0.7816164E-02  0.1226708E+00
        -11   -1    0    0    0    0  0.00000000000E+00  0.00000000000E+00  0.45593999997E+02  0.45594000000E+02  0.51100000000E-03 0.  1.
         11   -1    0    0    0    0 -0.00000000000E+00 -0.00000000000E+00 -0.45593999997E+02  0.45594000000E+02  0.51100000000E-03 0. -1.
    9900012    2    1    2    0    0  0.10767869113E+02 -0.14257737432E+02  0.56081111076E+01  0.72461521631E+02  0.69999936607E+02 0.  0.
        -12    1    1    2    0    0 -0.10767869113E+02  0.14257737432E+02 -0.56081111076E+01  0.18726478369E+02  0.00000000000E+00 0.  1.
         11    1    3    3    0    0  0.12949764883E+02 -0.13811428599E+02 -0.16504773832E+02  0.25116917207E+02  0.51100000000E-03 0. -1.
        -11    1    3    3    0    0 -0.40046261987E+01 -0.73794219145E+01 -0.10788909387E+02  0.13670898463E+02  0.51100000000E-03 0.  1.
        -12    1    3    3    0    0  0.18227304285E+01  0.69331130816E+01  0.32901794326E+02  0.33673705960E+02  0.00000000000E+00 0.  1.
</event>
<event>
 7    1  0.3435518E-013  0.7246155E+02  0.7816164E-02  0.1226708E+00
        -11   -1    0    0    0    0  0.00000000000E+00  0.00000000000E+00  0.45593999997E+02  0.45594000000E+02  0.51100000000E-03 0.  1.
         11   -1    0    0    0    0 -0.00000000000E+00 -0.00000000000E+00 -0.45593999997E+02  0.45594000000E+02  0.51100000000E-03 0. -1.
    9900012    2    1    2    0    0  0.88251261526E+01 -0.42923332029E+01 -0.15949071407E+02  0.72461552000E+02  0.69999976169E+02 0.  0.
        -12    1    1    2    0    0 -0.88251261526E+01  0.42923332029E+01  0.15949071407E+02  0.18726448000E+02  0.00000000000E+00 0.  1.
         11    1    3    3    0    0 -0.34780316383E+00 -0.56552634214E+01 -0.13890508914E+02  0.15001640229E+02  0.51100000000E-03 0. -1.
        -11    1    3    3    0    0 -0.85590261606E+01  0.89722029514E+01 -0.24744632918E+02  0.27677684389E+02  0.51100000000E-03 0.  1.
        -12    1    3    3    0    0  0.17731955477E+02 -0.76092727329E+01  0.22686070425E+02  0.29782227383E+02  0.00000000000E+00 0.  1.
</event>
<event>
 7    1  0.3435518E-013  0.7246157E+02  0.7816164E-02  0.1226708E+00
        -11   -1    0    0    0    0  0.00000000000E+00  0.00000000000E+00  0.45593999997E+02  0.45594000000E+02  0.51100000000E-03 0. -1.
         11   -1    0    0    0    0 -0.00000000000E+00 -0.00000000000E+00 -0.45593999997E+02  0.45594000000E+02  0.51100000000E-03 0.  1.
    9900012    2    1    2    0    0  0.15079124414E+02 -0.14912013396E+01  0.11003433553E+02  0.72461568827E+02  0.69999998088E+02 0.  0.
        -12    1    1    2    0    0 -0.15079124414E+02  0.14912013396E+01 -0.11003433553E+02  0.18726431173E+02  0.00000000000E+00 0.  1.
         11    1    3    3    0    0  0.46935235086E+01  0.43245463396E+01 -0.94238364599E+01  0.11381544616E+02  0.51100000000E-03 0. -1.
        -11    1    3    3    0    0 -0.18486795228E+02 -0.18334387636E+02  0.79013875967E+01  0.27209250155E+02  0.51100000000E-03 0.  1.
         12    1    3    3    0    0  0.28872396133E+02  0.12518639956E+02  0.12525882417E+02  0.33870774056E+02  0.00000000000E+00 0. -1.
</event>
<event>
 7    1  0.3435518E-013  0.7246157E+02  0.7816164E-02  0.1226708E+00
        -11   -1    0    0    0    0  0.00000000000E+00  0.00000000000E+00  0.45593999997E+02  0.45594000000E+02  0.51100000000E-03 0. -1.
         11   -1    0    0    0    0 -0.00000000000E+00 -0.00000000000E+00 -0.45593999997E+02  0.45594000000E+02  0.51100000000E-03 0.  1.
    9900012    2    1    2    0    0  0.12319543671E+02 -0.58926239525E+01  0.12813467119E+02  0.72461571806E+02  0.70000001969E+02 0.  0.
        -12    1    1    2    0    0 -0.12319543671E+02  0.58926239525E+01 -0.12813467119E+02  0.18726428194E+02  0.00000000000E+00 0.  1.
         11    1    3    3    0    0 -0.57248080371E+01 -0.16645628824E+02  0.13084363323E+02  0.21932873725E+02  0.51100000000E-03 0. -1.
        -11    1    3    3    0    0  0.47699185605E+01  0.54338452983E+01 -0.22758354635E+02  0.23879311208E+02  0.51100000000E-03 0.  1.
         12    1    3    3    0    0  0.13274433147E+02  0.53191595736E+01  0.22487458432E+02  0.26649386872E+02  0.00000000000E+00 0. -1.
</event>
<event>
 7    1  0.3435518E-013  0.7246163E+02  0.7816164E-02  0.1226708E+00
        -11   -1    0    0    0    0  0.00000000000E+00  0.00000000000E+00  0.45593999997E+02  0.45594000000E+02  0.51100000000E-03 0.  1.
         11   -1    0    0    0    0 -0.00000000000E+00 -0.00000000000E+00 -0.45593999997E+02  0.45594000000E+02  0.51100000000E-03 0. -1.
    9900012    2    1    2    0    0  0.15533482870E+02 -0.22883602283E+01 -0.10205447669E+02  0.72461632367E+02  0.70000080861E+02 0.  0.
        -12    1    1    2    0    0 -0.15533482870E+02  0.22883602283E+01  0.10205447669E+02  0.18726367633E+02  0.00000000000E+00 0.  1.
         11    1    3    3    0    0  0.21296050167E+01  0.14262872640E+02 -0.26450661804E+00  0.14423408664E+02  0.51100000000E-03 0.  1.
        -11    1    3    3    0    0 -0.76615990590E+01 -0.27186176447E+02  0.68652085928E+01  0.29067496955E+02  0.51100000000E-03 0. -1.
         12    1    3    3    0    0  0.21065476912E+02  0.10634943579E+02 -0.16806149644E+02  0.28970726748E+02  0.00000000000E+00 0. -1.
</event>
<event>
 7    1  0.3435518E-013  0.7246158E+02  0.7816164E-02  0.1226708E+00
        -11   -1    0    0    0    0  0.00000000000E+00  0.00000000000E+00  0.45593999997E+02  0.45594000000E+02  0.51100000000E-03 0.  1.
         11   -1    0    0    0    0 -0.00000000000E+00 -0.00000000000E+00 -0.45593999997E+02  0.45594000000E+02  0.51100000000E-03 0. -1.
    9900012    2    1    2    0    0  0.18274612925E+02  0.27886298788E+01  0.29901235379E+01  0.72461580883E+02  0.70000013794E+02 0.  0.
        -12    1    1    2    0    0 -0.18274612925E+02 -0.27886298788E+01 -0.29901235379E+01  0.18726419117E+02  0.00000000000E+00 0.  1.
         11    1    3    3    0    0 -0.45546011737E+00 -0.41719908787E+00  0.28674868983E+01  0.29332542288E+01  0.51100000000E-03 0. -1.
        -11    1    3    3    0    0 -0.79604038529E+01  0.29492231430E+02 -0.71362220881E+01  0.31370135641E+02  0.51100000000E-03 0.  1.
         12    1    3    3    0    0  0.26690476895E+02 -0.26286402463E+02  0.72588587276E+01  0.38158191013E+02  0.00000000000E+00 0. -1.
</event>
<event>
 7    1  0.3435518E-013  0.7246154E+02  0.7816164E-02  0.1226708E+00
        -11   -1    0    0    0    0  0.00000000000E+00  0.00000000000E+00  0.45593999997E+02  0.45594000000E+02  0.51100000000E-03 0. -1.
         11   -1    0    0    0    0 -0.00000000000E+00 -0.00000000000E+00 -0.45593999997E+02  0.45594000000E+02  0.51100000000E-03 0.  1.
    9900012    2    1    2    0    0 -0.67600589833E+01  0.14621402368E+02  0.95496773694E+01  0.72461544315E+02  0.69999966157E+02 0.  0.
        -12    1    1    2    0    0  0.67600589833E+01 -0.14621402368E+02 -0.95496773694E+01  0.18726455685E+02  0.00000000000E+00 0.  1.
         11    1    3    3    0    0  0.86239530070E+01  0.18290337489E+02 -0.55487624505E+01  0.20968971742E+02  0.51100000000E-03 0. -1.
        -11    1    3    3    0    0  0.34480293439E+01  0.67275357461E+01  0.26211825952E+02  0.27280184449E+02  0.51100000000E-03 0.  1.
        -12    1    3    3    0    0 -0.18832041334E+02 -0.10396470867E+02 -0.11113386132E+02  0.24212388123E+02  0.00000000000E+00 0.  1.
</event>
<event>
 7    1  0.3435518E-013  0.7246161E+02  0.7816164E-02  0.1226708E+00
        -11   -1    0    0    0    0  0.00000000000E+00  0.00000000000E+00  0.45593999997E+02  0.45594000000E+02  0.51100000000E-03 0.  1.
         11   -1    0    0    0    0 -0.00000000000E+00 -0.00000000000E+00 -0.45593999997E+02  0.45594000000E+02  0.51100000000E-03 0. -1.
    9900012    2    1    2    0    0 -0.10913115614E+02 -0.25407197874E+01  0.15004214952E+02  0.72461606439E+02  0.70000047086E+02 0.  0.
        -12    1    1    2    0    0  0.10913115614E+02  0.25407197874E+01 -0.15004214952E+02  0.18726393561E+02  0.00000000000E+00 0.  1.
         11    1    3    3    0    0  0.37784924431E+01  0.14715573242E+02 -0.11248724714E+02  0.18903938979E+02  0.51100000000E-03 0. -1.
        -11    1    3    3    0    0  0.41591584388E+01  0.11473255388E+02  0.52490806817E+01  0.13284842355E+02  0.51100000000E-03 0.  1.
        -12    1    3    3    0    0 -0.18850766496E+02 -0.28729548417E+02  0.21003858985E+02  0.40272825106E+02  0.00000000000E+00 0.  1.
</event>
<event>
 7    1  0.3435518E-013  0.7246156E+02  0.7816164E-02  0.1226708E+00
        -11   -1    0    0    0    0  0.00000000000E+00  0.00000000000E+00  0.45593999997E+02  0.45594000000E+02  0.51100000000E-03 0. -1.
         11   -1    0    0    0    0 -0.00000000000E+00 -0.00000000000E+00 -0.45593999997E+02  0.45594000000E+02  0.51100000000E-03 0.  1.
    9900012    2    1    2    0    0  0.88437982081E-02  0.12349060708E+02  0.14077648070E+02  0.72461560035E+02  0.69999986636E+02 0.  0.
        -12    1    1    2    0    0 -0.88437982081E-02 -0.12349060708E+02 -0.14077648070E+02  0.18726439965E+02  0.00000000000E+00 0.  1.
         11    1    3    3    0    0  0.84407582860E+01  0.12759767914E+02 -0.72032266198E+01  0.16909895081E+02  0.51100000000E-03 0. -1.
        -11    1    3    3    0    0  0.14118339800E+02  0.16419884830E+02  0.26788168876E+01  0.21820087001E+02  0.51100000000E-03 0.  1.
         12    1    3    3    0    0 -0.22550254288E+02 -0.16830592036E+02  0.18602057802E+02  0.33731577953E+02  0.00000000000E+00 0. -1.
</event>
<event>
 7    1  0.3435518E-013  0.7246157E+02  0.7816164E-02  0.1226708E+00
        -11   -1    0    0    0    0  0.00000000000E+00  0.00000000000E+00  0.45593999997E+02  0.45594000000E+02  0.51100000000E-03 0.  1.
         11   -1    0    0    0    0 -0.00000000000E+00 -0.00000000000E+00 -0.45593999997E+02  0.45594000000E+02  0.51100000000E-03 0. -1.
    9900012    2    1    2    0    0 -0.12238535831E+02 -0.54112948045E+01  0.13100204705E+02  0.72461568571E+02  0.69999997755E+02 0.  0.
        -12    1    1    2    0    0  0.12238535831E+02  0.54112948045E+01 -0.13100204705E+02  0.18726431429E+02  0.00000000000E+00 0.  1.
         11    1    3    3    0    0 -0.10157810465E+02  0.42252262520E+01 -0.15154431458E+02  0.18726730718E+02  0.51100000000E-03 0. -1.
        -11    1    3    3    0    0 -0.11319703569E+02  0.82908272753E+01  0.30371575054E+02  0.33456032003E+02  0.51100000000E-03 0.  1.
         12    1    3    3    0    0  0.92389782033E+01 -0.17927348332E+02 -0.21169388913E+01  0.20278805850E+02  0.00000000000E+00 0. -1.
</event>
<event>
 7    1  0.3435518E-013  0.7246157E+02  0.7816164E-02  0.1226708E+00
        -11   -1    0    0    0    0  0.00000000000E+00  0.00000000000E+00  0.45593999997E+02  0.45594000000E+02  0.51100000000E-03 0. -1.
         11   -1    0    0    0    0 -0.00000000000E+00 -0.00000000000E+00 -0.45593999997E+02  0.45594000000E+02  0.51100000000E-03 0.  1.
    9900012    2    1    2    0    0 -0.15769696003E+02 -0.36323850901E+01  0.94234661610E+01  0.72461568200E+02  0.69999997271E+02 0.  0.
        -12    1    1    2    0    0  0.15769696003E+02  0.36323850901E+01 -0.94234661610E+01  0.18726431800E+02  0.00000000000E+00 0.  1.
         11    1    3    3    0    0 -0.60207606217E+01 -0.25434474691E+02  0.48811106598E+01  0.26589232836E+02  0.51100000000E-03 0. -1.
        -11    1    3    3    0    0 -0.16676264040E+02 -0.53798601610E+01  0.48195141899E+00  0.17529202923E+02  0.51100000000E-03 0.  1.
         12    1    3    3    0    0  0.69273286587E+01  0.27181949762E+02  0.40604040822E+01  0.28343132440E+02  0.00000000000E+00 0. -1.
</event>
<event>
 7    1  0.3435518E-013  0.7246158E+02  0.7816164E-02  0.1226708E+00
        -11   -1    0    0    0    0  0.00000000000E+00  0.00000000000E+00  0.45593999997E+02  0.45594000000E+02  0.51100000000E-03 0.  1.
         11   -1    0    0    0    0 -0.00000000000E+00 -0.00000000000E+00 -0.45593999997E+02  0.45594000000E+02  0.51100000000E-03 0. -1.
    9900012    2    1    2    0    0  0.13871547309E+01  0.15791546145E+02 -0.99690320412E+01  0.72461582090E+02  0.70000015366E+02 0.  0.
        -12    1    1    2    0    0 -0.13871547309E+01 -0.15791546145E+02  0.99690320412E+01  0.18726417910E+02  0.00000000000E+00 0.  1.
         11    1    3    3    0    0  0.41372129061E+01 -0.85669584550E+01 -0.14385729561E+02  0.17246985913E+02  0.51100000000E-03 0. -1.
        -11    1    3    3    0    0 -0.64826648365E+01 -0.49341714474E+01 -0.16922696133E+02  0.18781603657E+02  0.51100000000E-03 0.  1.
        -12    1    3    3    0    0  0.37326066612E+01  0.29292676047E+02  0.21339393653E+02  0.36432992520E+02  0.00000000000E+00 0.  1.
</event>
<event>
 7    1  0.3435518E-013  0.7246155E+02  0.7816164E-02  0.1226708E+00
        -11   -1    0    0    0    0  0.00000000000E+00  0.00000000000E+00  0.45593999997E+02  0.45594000000E+02  0.51100000000E-03 0.  1.
         11   -1    0    0    0    0 -0.00000000000E+00 -0.00000000000E+00 -0.45593999997E+02  0.45594000000E+02  0.51100000000E-03 0. -1.
    9900012    2    1    2    0    0 -0.18076788291E+02 -0.41230287268E+01 -0.26287665349E+01  0.72461546670E+02  0.69999969225E+02 0.  0.
        -12    1    1    2    0    0  0.18076788291E+02  0.41230287268E+01  0.26287665349E+01  0.18726453330E+02  0.00000000000E+00 0.  1.
         11    1    3    3    0    0 -0.18388543570E+02 -0.27222171974E+02  0.75575149115E+01  0.33709067230E+02  0.51100000000E-03 0. -1.
        -11    1    3    3    0    0  0.10710532997E+01 -0.39282025422E+00  0.85924002517E+01  0.86678027936E+01  0.51100000000E-03 0.  1.
        -12    1    3    3    0    0 -0.75929802113E+00  0.23491963501E+02 -0.18778681698E+02  0.30084676647E+02  0.00000000000E+00 0.  1.
</event>
<event>
 7    1  0.3435518E-013  0.7246157E+02  0.7816164E-02  0.1226708E+00
        -11   -1    0    0    0    0  0.00000000000E+00  0.00000000000E+00  0.45593999997E+02  0.45594000000E+02  0.51100000000E-03 0. -1.
         11   -1    0    0    0    0 -0.00000000000E+00 -0.00000000000E+00 -0.45593999997E+02  0.45594000000E+02  0.51100000000E-03 0.  1.
    9900012    2    1    2    0    0  0.38130632289E+01 -0.17639703825E+02  0.49980732181E+01  0.72461565793E+02  0.69999994136E+02 0.  0.
        -12    1    1    2    0    0 -0.38130632289E+01  0.17639703825E+02 -0.49980732181E+01  0.18726434207E+02  0.00000000000E+00 0.  1.
         11    1    3    3    0    0  0.11301481709E+02 -0.39541672636E+02 -0.22455006855E+01  0.41186279721E+02  0.51100000000E-03 0. -1.
        -11    1    3    3    0    0  0.55836651439E+01  0.10630100366E+02  0.72270270136E+01  0.14014502130E+02  0.51100000000E-03 0.  1.
        -12    1    3    3    0    0 -0.13072083624E+02  0.11271868444E+02  0.16546889953E-01  0.17260783942E+02  0.00000000000E+00 0.  1.
</event>
<event>
 7    1  0.3435518E-013  0.7246163E+02  0.7816164E-02  0.1226708E+00
        -11   -1    0    0    0    0  0.00000000000E+00  0.00000000000E+00  0.45593999997E+02  0.45594000000E+02  0.51100000000E-03 0.  1.
         11   -1    0    0    0    0 -0.00000000000E+00 -0.00000000000E+00 -0.45593999997E+02  0.45594000000E+02  0.51100000000E-03 0. -1.
    9900012    2    1    2    0    0  0.89153377443E+00  0.12085934472E+02 -0.14276280644E+02  0.72461632665E+02  0.70000081249E+02 0.  0.
        -12    1    1    2    0    0 -0.89153377443E+00 -0.12085934472E+02  0.14276280644E+02  0.18726367335E+02  0.00000000000E+00 0.  1.
         11    1    3    3    0    0 -0.12746235672E+02  0.31088172764E+02 -0.24060353598E+02  0.41326040521E+02  0.51100000000E-03 0. -1.
        -11    1    3    3    0    0  0.14014509190E+01 -0.27080056361E+01 -0.50719357018E+01  0.59179296403E+01  0.51100000000E-03 0.  1.
        -12    1    3    3    0    0  0.12236318527E+02 -0.16294232656E+02  0.14856008656E+02  0.25217662503E+02  0.00000000000E+00 0.  1.
</event>
<event>
 7    1  0.3435518E-013  0.7246175E+02  0.7816164E-02  0.1226708E+00
        -11   -1    0    0    0    0  0.00000000000E+00  0.00000000000E+00  0.45593999997E+02  0.45594000000E+02  0.51100000000E-03 0.  1.
         11   -1    0    0    0    0 -0.00000000000E+00 -0.00000000000E+00 -0.45593999997E+02  0.45594000000E+02  0.51100000000E-03 0. -1.
    9900012    2    1    2    0    0 -0.18420386363E+02 -0.32627998910E+01  0.84623805685E+00  0.72461745283E+02  0.70000227955E+02 0.  0.
        -12    1    1    2    0    0  0.18420386363E+02  0.32627998910E+01 -0.84623805685E+00  0.18726254717E+02  0.00000000000E+00 0.  1.
         11    1    3    3    0    0  0.17555886157E+01 -0.18003853912E+02 -0.31048509595E+01  0.18353772005E+02  0.51100000000E-03 0. -1.
        -11    1    3    3    0    0 -0.16291954843E+02 -0.12914504162E+02  0.13273958913E+02  0.24665972429E+02  0.51100000000E-03 0.  1.
        -12    1    3    3    0    0 -0.38840201353E+01  0.27655558184E+02 -0.93228698969E+01  0.29442000849E+02  0.00000000000E+00 0.  1.
</event>
<event>
 7    1  0.3435518E-013  0.7246156E+02  0.7816164E-02  0.1226708E+00
        -11   -1    0    0    0    0  0.00000000000E+00  0.00000000000E+00  0.45593999997E+02  0.45594000000E+02  0.51100000000E-03 0. -1.
         11   -1    0    0    0    0 -0.00000000000E+00 -0.00000000000E+00 -0.45593999997E+02  0.45594000000E+02  0.51100000000E-03 0.  1.
    9900012    2    1    2    0    0 -0.41121921379E+01  0.30262227145E+01  0.18016979751E+02  0.72461555932E+02  0.69999981290E+02 0.  0.
        -12    1    1    2    0    0  0.41121921379E+01 -0.30262227145E+01 -0.18016979751E+02  0.18726444068E+02  0.00000000000E+00 0.  1.
         11    1    3    3    0    0 -0.10108708624E+01  0.91159341176E+01 -0.61034288465E+01  0.11016985009E+02  0.51100000000E-03 0. -1.
        -11    1    3    3    0    0  0.20115712952E+02 -0.37894844834E+01 -0.78013027942E+01  0.21905762387E+02  0.51100000000E-03 0.  1.
         12    1    3    3    0    0 -0.23217034228E+02 -0.23002269197E+01  0.31921711392E+02  0.39538808535E+02  0.00000000000E+00 0. -1.
</event>
<event>
 7    1  0.3435518E-013  0.7246162E+02  0.7816164E-02  0.1226708E+00
        -11   -1    0    0    0    0  0.00000000000E+00  0.00000000000E+00  0.45593999997E+02  0.45594000000E+02  0.51100000000E-03 0. -1.
         11   -1    0    0    0    0 -0.00000000000E+00 -0.00000000000E+00 -0.45593999997E+02  0.45594000000E+02  0.51100000000E-03 0.  1.
    9900012    2    1    2    0    0 -0.78465662633E+01  0.11645736733E+02  0.12388920843E+02  0.72461624327E+02  0.70000070388E+02 0.  0.
        -12    1    1    2    0    0  0.78465662633E+01 -0.11645736733E+02 -0.12388920843E+02  0.18726375673E+02  0.00000000000E+00 0.  1.
         11    1    3    3    0    0  0.31880361106E+01  0.31694440819E+02  0.14363503977E+02  0.34942973540E+02  0.51100000000E-03 0. -1.
        -11    1    3    3    0    0 -0.16103317038E+02 -0.17861837559E+01 -0.73891752465E+01  0.17807503563E+02  0.51100000000E-03 0.  1.
         12    1    3    3    0    0  0.50687146644E+01 -0.18262520330E+02  0.54145921129E+01  0.19711147225E+02  0.00000000000E+00 0. -1.
</event>
<event>
 7    1  0.3435518E-013  0.7246157E+02  0.7816164E-02  0.1226708E+00
        -11   -1    0    0    0    0  0.00000000000E+00  0.00000000000E+00  0.45593999997E+02  0.45594000000E+02  0.51100000000E-03 0. -1.
         11   -1    0    0    0    0 -0.00000000000E+00 -0.00000000000E+00 -0.45593999997E+02  0.45594000000E+02  0.51100000000E-03 0.  1.
    9900012    2    1    2    0    0  0.16708562811E+02  0.84282150701E+01  0.68430373359E+00  0.72461570760E+02  0.70000000607E+02 0.  0.
        -12    1    1    2    0    0 -0.16708562811E+02 -0.84282150701E+01 -0.68430373359E+00  0.18726429240E+02  0.00000000000E+00 0.  1.
         11    1    3    3    0    0  0.14673513755E+01  0.73681095349E+01 -0.22810104206E+00  0.75162616056E+01  0.51100000000E-03 0. -1.
        -11    1    3    3    0    0 -0.21222943041E+01  0.21627323623E+02 -0.21012979559E+02  0.30228969059E+02  0.51100000000E-03 0.  1.
         12    1    3    3    0    0  0.17363505740E+02 -0.20567218087E+02  0.21925384334E+02  0.34716340095E+02  0.00000000000E+00 0. -1.
</event>
<event>
 7    1  0.3435518E-013  0.7246154E+02  0.7816164E-02  0.1226708E+00
        -11   -1    0    0    0    0  0.00000000000E+00  0.00000000000E+00  0.45593999997E+02  0.45594000000E+02  0.51100000000E-03 0.  1.
         11   -1    0    0    0    0 -0.00000000000E+00 -0.00000000000E+00 -0.45593999997E+02  0.45594000000E+02  0.51100000000E-03 0. -1.
    9900012    2    1    2    0    0 -0.18855493785E+01  0.10023113832E+01 -0.18604311270E+02  0.72461539512E+02  0.69999959901E+02 0.  0.
        -12    1    1    2    0    0  0.18855493785E+01 -0.10023113832E+01  0.18604311270E+02  0.18726460488E+02  0.00000000000E+00 0.  1.
         11    1    3    3    0    0 -0.12360539783E+02  0.14262732511E+02 -0.23072994997E+01  0.19013997834E+02  0.51100000000E-03 0. -1.
        -11    1    3    3    0    0  0.15137191406E+02  0.11960789474E+02 -0.19701191950E+02  0.27574118536E+02  0.51100000000E-03 0.  1.
        -12    1    3    3    0    0 -0.46622010011E+01 -0.25221210602E+02  0.34041801800E+01  0.25873423142E+02  0.00000000000E+00 0.  1.
</event>
<event>
 7    1  0.3435518E-013  0.7246158E+02  0.7816164E-02  0.1226708E+00
        -11   -1    0    0    0    0  0.00000000000E+00  0.00000000000E+00  0.45593999997E+02  0.45594000000E+02  0.51100000000E-03 0. -1.
         11   -1    0    0    0    0 -0.00000000000E+00 -0.00000000000E+00 -0.45593999997E+02  0.45594000000E+02  0.51100000000E-03 0.  1.
    9900012    2    1    2    0    0  0.13431311759E+02 -0.36887389574E+00  0.13043868008E+02  0.72461582934E+02  0.70000016466E+02 0.  0.
        -12    1    1    2    0    0 -0.13431311759E+02  0.36887389574E+00 -0.13043868008E+02  0.18726417066E+02  0.00000000000E+00 0.  1.
         11    1    3    3    0    0  0.58521380359E+01  0.22864088127E+01 -0.85554177254E+01  0.10614629413E+02  0.51100000000E-03 0. -1.
        -11    1    3    3    0    0 -0.20090882557E+02  0.14634152183E+02  0.54700807050E+01  0.25450417584E+02  0.51100000000E-03 0.  1.
         12    1    3    3    0    0  0.27670056280E+02 -0.17289434892E+02  0.16129205028E+02  0.36396535937E+02  0.00000000000E+00 0. -1.
</event>
<event>
 7    1  0.3435518E-013  0.7246136E+02  0.7816164E-02  0.1226709E+00
        -11   -1    0    0    0    0  0.00000000000E+00  0.00000000000E+00  0.45593999997E+02  0.45594000000E+02  0.51100000000E-03 0.  1.
         11   -1    0    0    0    0 -0.00000000000E+00 -0.00000000000E+00 -0.45593999997E+02  0.45594000000E+02  0.51100000000E-03 0. -1.
    9900012    2    1    2    0    0  0.18287423600E+01 -0.13778163904E+02 -0.12550098845E+02  0.72461359078E+02  0.69999724851E+02 0.  0.
        -12    1    1    2    0    0 -0.18287423600E+01  0.13778163904E+02  0.12550098845E+02  0.18726640922E+02  0.00000000000E+00 0.  1.
         11    1    3    3    0    0  0.10794587593E+02 -0.22032589042E+02 -0.25942076005E+02  0.35706433719E+02  0.51100000000E-03 0. -1.
        -11    1    3    3    0    0  0.48078865634E+01 -0.49385145872E+01 -0.63020278117E+01  0.93391784614E+01  0.51100000000E-03 0.  1.
        -12    1    3    3    0    0 -0.13773731796E+02  0.13192939725E+02  0.19694004972E+02  0.27415746898E+02  0.00000000000E+00 0.  1.
</event>
<event>
 7    1  0.3435518E-013  0.7246160E+02  0.7816164E-02  0.1226708E+00
        -11   -1    0    0    0    0  0.00000000000E+00  0.00000000000E+00  0.45593999997E+02  0.45594000000E+02  0.51100000000E-03 0.  1.
         11   -1    0    0    0    0 -0.00000000000E+00 -0.00000000000E+00 -0.45593999997E+02  0.45594000000E+02  0.51100000000E-03 0. -1.
    9900012    2    1    2    0    0 -0.38358069150E+01  0.10187880226E+02 -0.15237184886E+02  0.72461598279E+02  0.70000036455E+02 0.  0.
        -12    1    1    2    0    0  0.38358069150E+01 -0.10187880226E+02  0.15237184886E+02  0.18726401721E+02  0.00000000000E+00 0.  1.
         11    1    3    3    0    0 -0.11360716193E+01 -0.67927297109E+01  0.48424600454E+01  0.84191006172E+01  0.51100000000E-03 0. -1.
        -11    1    3    3    0    0  0.42688002743E+01 -0.18263141397E+02  0.59513998253E+01  0.19676995442E+02  0.51100000000E-03 0.  1.
         12    1    3    3    0    0 -0.69685355700E+01  0.35243751334E+02 -0.26031044756E+02  0.44365502220E+02  0.00000000000E+00 0. -1.
</event>
<event>
 7    1  0.3435518E-013  0.7246154E+02  0.7816164E-02  0.1226708E+00
        -11   -1    0    0    0    0  0.00000000000E+00  0.00000000000E+00  0.45593999997E+02  0.45594000000E+02  0.51100000000E-03 0.  1.
         11   -1    0    0    0    0 -0.00000000000E+00 -0.00000000000E+00 -0.45593999997E+02  0.45594000000E+02  0.51100000000E-03 0. -1.
    9900012    2    1    2    0    0  0.83594592161E+01  0.29617136830E+01 -0.16493274474E+02  0.72461537195E+02  0.69999956881E+02 0.  0.
        -12    1    1    2    0    0 -0.83594592161E+01 -0.29617136830E+01  0.16493274474E+02  0.18726462805E+02  0.00000000000E+00 0.  1.
         11    1    3    3    0    0  0.20879201117E+02  0.12026186725E+02 -0.61828777871E+01  0.24875654452E+02  0.51100000000E-03 0. -1.
        -11    1    3    3    0    0  0.51814913488E+01 -0.13214266820E+02 -0.21847331281E+02  0.26053225991E+02  0.51100000000E-03 0.  1.
        -12    1    3    3    0    0 -0.17701233249E+02  0.41497937774E+01  0.11536934594E+02  0.21532656751E+02  0.00000000000E+00 0.  1.
</event>
<event>
 7    1  0.3435518E-013  0.7246162E+02  0.7816164E-02  0.1226708E+00
        -11   -1    0    0    0    0  0.00000000000E+00  0.00000000000E+00  0.45593999997E+02  0.45594000000E+02  0.51100000000E-03 0. -1.
         11   -1    0    0    0    0 -0.00000000000E+00 -0.00000000000E+00 -0.45593999997E+02  0.45594000000E+02  0.51100000000E-03 0.  1.
    9900012    2    1    2    0    0  0.46336579936E+01 -0.15378029775E+02  0.96292615193E+01  0.72461621184E+02  0.70000066293E+02 0.  0.
        -12    1    1    2    0    0 -0.46336579936E+01  0.15378029775E+02 -0.96292615193E+01  0.18726378816E+02  0.00000000000E+00 0.  1.
         11    1    3    3    0    0 -0.15480216178E+00 -0.11025872072E+02  0.23244252371E+02  0.25727205196E+02  0.51100000000E-03 0. -1.
        -11    1    3    3    0    0  0.88464926070E+01 -0.30483932271E+01  0.15067759165E+02  0.17736699220E+02  0.51100000000E-03 0.  1.
        -12    1    3    3    0    0 -0.40580324517E+01 -0.13037644764E+01 -0.28682750017E+02  0.28997716767E+02  0.00000000000E+00 0.  1.
</event>
<event>
 7    1  0.3435518E-013  0.7246154E+02  0.7816164E-02  0.1226708E+00
        -11   -1    0    0    0    0  0.00000000000E+00  0.00000000000E+00  0.45593999997E+02  0.45594000000E+02  0.51100000000E-03 0.  1.
         11   -1    0    0    0    0 -0.00000000000E+00 -0.00000000000E+00 -0.45593999997E+02  0.45594000000E+02  0.51100000000E-03 0. -1.
    9900012    2    1    2    0    0 -0.12354861703E+02 -0.80511598565E+01 -0.11541940636E+02  0.72461543411E+02  0.69999964979E+02 0.  0.
        -12    1    1    2    0    0  0.12354861703E+02  0.80511598565E+01  0.11541940636E+02  0.18726456589E+02  0.00000000000E+00 0.  1.
         11    1    3    3    0    0  0.14145938239E+02  0.36959996093E+01 -0.21491804632E+02  0.25993569365E+02  0.51100000000E-03 0. -1.
        -11    1    3    3    0    0 -0.13519623669E+02  0.18721618349E+01 -0.11563031805E+02  0.17888234091E+02  0.51100000000E-03 0.  1.
        -12    1    3    3    0    0 -0.12981176273E+02 -0.13619321301E+02  0.21512895801E+02  0.28579739954E+02  0.00000000000E+00 0.  1.
</event>
<event>
 7    1  0.3435518E-013  0.7246145E+02  0.7816164E-02  0.1226708E+00
        -11   -1    0    0    0    0  0.00000000000E+00  0.00000000000E+00  0.45593999997E+02  0.45594000000E+02  0.51100000000E-03 0. -1.
         11   -1    0    0    0    0 -0.00000000000E+00 -0.00000000000E+00 -0.45593999997E+02  0.45594000000E+02  0.51100000000E-03 0.  1.
    9900012    2    1    2    0    0  0.88348849087E+01 -0.66899403353E+01  0.15095463033E+02  0.72461454744E+02  0.69999849474E+02 0.  0.
        -12    1    1    2    0    0 -0.88348849087E+01  0.66899403353E+01 -0.15095463033E+02  0.18726545256E+02  0.00000000000E+00 0.  1.
         11    1    3    3    0    0 -0.94220982377E+01  0.99160393706E+00  0.31977970009E+00  0.94795291490E+01  0.51100000000E-03 0. -1.
        -11    1    3    3    0    0 -0.13227607381E+02 -0.11424246480E+02 -0.12231167598E+02  0.21332708823E+02  0.51100000000E-03 0.  1.
         12    1    3    3    0    0  0.31484590528E+02  0.37427022075E+01  0.27006850931E+02  0.41649216772E+02  0.00000000000E+00 0. -1.
</event>
<event>
 7    1  0.3435518E-013  0.7246155E+02  0.7816164E-02  0.1226708E+00
        -11   -1    0    0    0    0  0.00000000000E+00  0.00000000000E+00  0.45593999997E+02  0.45594000000E+02  0.51100000000E-03 0. -1.
         11   -1    0    0    0    0 -0.00000000000E+00 -0.00000000000E+00 -0.45593999997E+02  0.45594000000E+02  0.51100000000E-03 0.  1.
    9900012    2    1    2    0    0  0.12390410322E+02  0.11901303608E+02 -0.74509425452E+01  0.72461552384E+02  0.69999976668E+02 0.  0.
        -12    1    1    2    0    0 -0.12390410322E+02 -0.11901303608E+02  0.74509425452E+01  0.18726447616E+02  0.00000000000E+00 0.  1.
         11    1    3    3    0    0 -0.11741150828E+01 -0.50805492750E+01 -0.92302072258E+01  0.10601285434E+02  0.51100000000E-03 0. -1.
        -11    1    3    3    0    0 -0.32172912812E+01  0.18663531526E+02 -0.24296262900E+02  0.30805628762E+02  0.51100000000E-03 0.  1.
         12    1    3    3    0    0  0.16781816686E+02 -0.16816786433E+01  0.26075527581E+02  0.31054638188E+02  0.00000000000E+00 0. -1.
</event>
<event>
 7    1  0.3435518E-013  0.7246157E+02  0.7816164E-02  0.1226708E+00
        -11   -1    0    0    0    0  0.00000000000E+00  0.00000000000E+00  0.45593999997E+02  0.45594000000E+02  0.51100000000E-03 0.  1.
         11   -1    0    0    0    0 -0.00000000000E+00 -0.00000000000E+00 -0.45593999997E+02  0.45594000000E+02  0.51100000000E-03 0. -1.
    9900012    2    1    2    0    0 -0.15014863325E+02  0.10964783041E+02  0.22375507624E+01  0.72461568914E+02  0.69999998202E+02 0.  0.
        -12    1    1    2    0    0  0.15014863325E+02 -0.10964783041E+02 -0.22375507624E+01  0.18726431086E+02  0.00000000000E+00 0.  1.
         11    1    3    3    0    0 -0.12195502747E+02 -0.81074650913E+01 -0.23555278157E-01  0.14644515443E+02  0.51100000000E-03 0. -1.
        -11    1    3    3    0    0 -0.23045532452E+02  0.12968030565E+02  0.17550561233E+02  0.31737809984E+02  0.51100000000E-03 0.  1.
         12    1    3    3    0    0  0.20226171874E+02  0.61042175677E+01 -0.15289455192E+02  0.26079243487E+02  0.00000000000E+00 0. -1.
</event>
<event>
 7    1  0.3435518E-013  0.7246157E+02  0.7816164E-02  0.1226708E+00
        -11   -1    0    0    0    0  0.00000000000E+00  0.00000000000E+00  0.45593999997E+02  0.45594000000E+02  0.51100000000E-03 0.  1.
         11   -1    0    0    0    0 -0.00000000000E+00 -0.00000000000E+00 -0.45593999997E+02  0.45594000000E+02  0.51100000000E-03 0. -1.
    9900012    2    1    2    0    0  0.57411253144E+01 -0.17684370162E+02 -0.22320076234E+01  0.72461566118E+02  0.69999994559E+02 0.  0.
        -12    1    1    2    0    0 -0.57411253144E+01  0.17684370162E+02  0.22320076234E+01  0.18726433882E+02  0.00000000000E+00 0.  1.
         11    1    3    3    0    0  0.69706036064E+01  0.80839261415E+01 -0.92459732309E+01  0.14121869485E+02  0.51100000000E-03 0. -1.
        -11    1    3    3    0    0  0.21576797611E+02 -0.16778260384E+02  0.16644433557E+02  0.32001646604E+02  0.51100000000E-03 0.  1.
         12    1    3    3    0    0 -0.22806275903E+02 -0.89900359198E+01 -0.96304679490E+01  0.26338050029E+02  0.00000000000E+00 0. -1.
</event>
<event>
 7    1  0.3435518E-013  0.7246157E+02  0.7816164E-02  0.1226708E+00
        -11   -1    0    0    0    0  0.00000000000E+00  0.00000000000E+00  0.45593999997E+02  0.45594000000E+02  0.51100000000E-03 0.  1.
         11   -1    0    0    0    0 -0.00000000000E+00 -0.00000000000E+00 -0.45593999997E+02  0.45594000000E+02  0.51100000000E-03 0. -1.
    9900012    2    1    2    0    0 -0.10922255301E+02 -0.14407834409E+02 -0.48782918704E+01  0.72461572557E+02  0.70000002947E+02 0.  0.
        -12    1    1    2    0    0  0.10922255301E+02  0.14407834409E+02  0.48782918704E+01  0.18726427443E+02  0.00000000000E+00 0.  1.
         11    1    3    3    0    0 -0.74560852971E+01  0.96895631160E+01 -0.27650701836E+02  0.30233130066E+02  0.51100000000E-03 0. -1.
        -11    1    3    3    0    0  0.92514348661E+00 -0.22078104321E+01 -0.56206333157E+01  0.61091600491E+01  0.51100000000E-03 0.  1.
        -12    1    3    3    0    0 -0.43913134901E+01 -0.21889587093E+02  0.28393043281E+02  0.36119282441E+02  0.00000000000E+00 0.  1.
</event>
<event>
 7    1  0.3435518E-013  0.7246172E+02  0.7816164E-02  0.1226708E+00
        -11   -1    0    0    0    0  0.00000000000E+00  0.00000000000E+00  0.45593999997E+02  0.45594000000E+02  0.51100000000E-03 0.  1.
         11   -1    0    0    0    0 -0.00000000000E+00 -0.00000000000E+00 -0.45593999997E+02  0.45594000000E+02  0.51100000000E-03 0. -1.
    9900012    2    1    2    0    0  0.30221156243E+01 -0.32212612777E+01 -0.18197911936E+02  0.72461716175E+02  0.70000190036E+02 0.  0.
        -12    1    1    2    0    0 -0.30221156243E+01  0.32212612777E+01  0.18197911936E+02  0.18726283825E+02  0.00000000000E+00 0.  1.
         11    1    3    3    0    0  0.67604641397E+00 -0.29595269634E+01 -0.33958216514E+01  0.45549361741E+01  0.51100000000E-03 0. -1.
        -11    1    3    3    0    0 -0.25244870023E+02 -0.68177141052E+01  0.12104069563E+02  0.28814808490E+02  0.51100000000E-03 0.  1.
         12    1    3    3    0    0  0.27590939233E+02  0.65559797908E+01 -0.26906159848E+02  0.39091971510E+02  0.00000000000E+00 0. -1.
</event>
<event>
 7    1  0.3435518E-013  0.7246142E+02  0.7816164E-02  0.1226708E+00
        -11   -1    0    0    0    0  0.00000000000E+00  0.00000000000E+00  0.45593999997E+02  0.45594000000E+02  0.51100000000E-03 0. -1.
         11   -1    0    0    0    0 -0.00000000000E+00 -0.00000000000E+00 -0.45593999997E+02  0.45594000000E+02  0.51100000000E-03 0.  1.
    9900012    2    1    2    0    0 -0.18034363609E+02  0.14925674323E+01  0.48185903123E+01  0.72461418867E+02  0.69999802738E+02 0.  0.
        -12    1    1    2    0    0  0.18034363609E+02 -0.14925674323E+01 -0.48185903123E+01  0.18726581133E+02  0.00000000000E+00 0.  1.
         11    1    3    3    0    0  0.84638195722E+01 -0.47887419342E+01  0.63044506326E+01  0.11589408488E+02  0.51100000000E-03 0. -1.
        -11    1    3    3    0    0  0.48338336703E+01 -0.12676962295E+02 -0.16439893354E+02  0.21315285940E+02  0.51100000000E-03 0.  1.
         12    1    3    3    0    0 -0.31332016852E+02  0.18958271661E+02  0.14954033033E+02  0.39556724439E+02  0.00000000000E+00 0. -1.
</event>
<event>
 7    1  0.3435518E-013  0.7246156E+02  0.7816164E-02  0.1226708E+00
        -11   -1    0    0    0    0  0.00000000000E+00  0.00000000000E+00  0.45593999997E+02  0.45594000000E+02  0.51100000000E-03 0.  1.
         11   -1    0    0    0    0 -0.00000000000E+00 -0.00000000000E+00 -0.45593999997E+02  0.45594000000E+02  0.51100000000E-03 0. -1.
    9900012    2    1    2    0    0  0.10704043042E+02  0.14154955695E+02  0.59783045922E+01  0.72461563233E+02  0.69999990802E+02 0.  0.
        -12    1    1    2    0    0 -0.10704043042E+02 -0.14154955695E+02 -0.59783045922E+01  0.18726436767E+02  0.00000000000E+00 0.  1.
         11    1    3    3    0    0  0.11334701738E+02  0.83801555639E+01 -0.12990427783E+02  0.19169081486E+02  0.51100000000E-03 0. -1.
        -11    1    3    3    0    0  0.30794988198E+01 -0.12143341857E+02  0.29591640834E+02  0.32134238313E+02  0.51100000000E-03 0.  1.
         12    1    3    3    0    0 -0.37101575162E+01  0.17918141989E+02 -0.10622908459E+02  0.21158243435E+02  0.00000000000E+00 0. -1.
</event>
<event>
 7    1  0.3435518E-013  0.7246160E+02  0.7816164E-02  0.1226708E+00
        -11   -1    0    0    0    0  0.00000000000E+00  0.00000000000E+00  0.45593999997E+02  0.45594000000E+02  0.51100000000E-03 0. -1.
         11   -1    0    0    0    0 -0.00000000000E+00 -0.00000000000E+00 -0.45593999997E+02  0.45594000000E+02  0.51100000000E-03 0.  1.
    9900012    2    1    2    0    0 -0.14367489388E+02 -0.11509900053E+02  0.34315537338E+01  0.72461598542E+02  0.70000036798E+02 0.  0.
        -12    1    1    2    0    0  0.14367489388E+02  0.11509900053E+02 -0.34315537338E+01  0.18726401458E+02  0.00000000000E+00 0.  1.
         11    1    3    3    0    0  0.14047960489E+02 -0.58153806913E+01 -0.65090966410E+01  0.16538808477E+02  0.51100000000E-03 0. -1.
        -11    1    3    3    0    0  0.10242104569E+02 -0.11960792039E+02  0.11675472441E+01  0.15790010102E+02  0.51100000000E-03 0.  1.
         12    1    3    3    0    0 -0.38657554446E+02  0.62662726774E+01  0.87731031307E+01  0.40132779963E+02  0.00000000000E+00 0. -1.
</event>
<event>
 7    1  0.3435518E-013  0.7246158E+02  0.7816164E-02  0.1226708E+00
        -11   -1    0    0    0    0  0.00000000000E+00  0.00000000000E+00  0.45593999997E+02  0.45594000000E+02  0.51100000000E-03 0.  1.
         11   -1    0    0    0    0 -0.00000000000E+00 -0.00000000000E+00 -0.45593999997E+02  0.45594000000E+02  0.51100000000E-03 0. -1.
    9900012    2    1    2    0    0 -0.18667819624E+02  0.40830263380E+00  0.14228756303E+01  0.72461580812E+02  0.70000013701E+02 0.  0.
        -12    1    1    2    0    0  0.18667819624E+02 -0.40830263380E+00 -0.14228756303E+01  0.18726419188E+02  0.00000000000E+00 0.  1.
         11    1    3    3    0    0 -0.12439898731E+02 -0.12214226950E+01 -0.13113760034E+02  0.18116667915E+02  0.51100000000E-03 0. -1.
        -11    1    3    3    0    0 -0.12668801108E+02 -0.23215309553E+02  0.47180660590E+01  0.26864647154E+02  0.51100000000E-03 0.  1.
         12    1    3    3    0    0  0.64408802146E+01  0.24845034881E+02  0.98185696053E+01  0.27480265743E+02  0.00000000000E+00 0. -1.
</event>
<event>
 7    1  0.3435518E-013  0.7246173E+02  0.7816164E-02  0.1226708E+00
        -11   -1    0    0    0    0  0.00000000000E+00  0.00000000000E+00  0.45593999997E+02  0.45594000000E+02  0.51100000000E-03 0.  1.
         11   -1    0    0    0    0 -0.00000000000E+00 -0.00000000000E+00 -0.45593999997E+02  0.45594000000E+02  0.51100000000E-03 0. -1.
    9900012    2    1    2    0    0  0.95613818948E+01  0.13995726277E+02 -0.79607061549E+01  0.72461729142E+02  0.70000206929E+02 0.  0.
        -12    1    1    2    0    0 -0.95613818948E+01 -0.13995726277E+02  0.79607061549E+01  0.18726270858E+02  0.00000000000E+00 0.  1.
         11    1    3    3    0    0  0.72347769537E+01 -0.78086598533E+01  0.60430573447E+01  0.12240739708E+02  0.51100000000E-03 0. -1.
        -11    1    3    3    0    0 -0.14691090676E+02 -0.13116376988E+02 -0.56111104238E+01  0.20478087093E+02  0.51100000000E-03 0.  1.
         12    1    3    3    0    0  0.17017695617E+02  0.34920763118E+02 -0.83926530757E+01  0.39742902341E+02  0.00000000000E+00 0. -1.
</event>
<event>
 7    1  0.3435518E-013  0.7246157E+02  0.7816164E-02  0.1226708E+00
        -11   -1    0    0    0    0  0.00000000000E+00  0.00000000000E+00  0.45593999997E+02  0.45594000000E+02  0.51100000000E-03 0.  1.
         11   -1    0    0    0    0 -0.00000000000E+00 -0.00000000000E+00 -0.45593999997E+02  0.45594000000E+02  0.51100000000E-03 0. -1.
    9900012    2    1    2    0    0  0.14525036950E+02  0.10028680577E+02 -0.62552397884E+01  0.72461570620E+02  0.70000000425E+02 0.  0.
        -12    1    1    2    0    0 -0.14525036950E+02 -0.10028680577E+02  0.62552397884E+01  0.18726429380E+02  0.00000000000E+00 0.  1.
         11    1    3    3    0    0  0.46462534085E+01  0.91216271227E+01  0.41717194364E+01  0.11054184521E+02  0.51100000000E-03 0. -1.
        -11    1    3    3    0    0 -0.11123674142E+02  0.21260941389E+02  0.97240208246E+01  0.25890545309E+02  0.51100000000E-03 0.  1.
         12    1    3    3    0    0  0.21002457683E+02 -0.20353887935E+02 -0.20150980049E+02  0.35516840790E+02  0.00000000000E+00 0. -1.
</event>
<event>
 7    1  0.3435518E-013  0.7246161E+02  0.7816164E-02  0.1226708E+00
        -11   -1    0    0    0    0  0.00000000000E+00  0.00000000000E+00  0.45593999997E+02  0.45594000000E+02  0.51100000000E-03 0.  1.
         11   -1    0    0    0    0 -0.00000000000E+00 -0.00000000000E+00 -0.45593999997E+02  0.45594000000E+02  0.51100000000E-03 0. -1.
    9900012    2    1    2    0    0  0.18473117165E+02 -0.22108926374E+01 -0.21292438838E+01  0.72461607300E+02  0.70000048206E+02 0.  0.
        -12    1    1    2    0    0 -0.18473117165E+02  0.22108926374E+01  0.21292438838E+01  0.18726392700E+02  0.00000000000E+00 0.  1.
         11    1    3    3    0    0 -0.22784094037E+02 -0.25648895022E+01 -0.11794265842E+02  0.25783682946E+02  0.51100000000E-03 0. -1.
        -11    1    3    3    0    0  0.41860630362E+01  0.22113075066E+00 -0.52503484588E+01  0.67184954976E+01  0.51100000000E-03 0.  1.
        -12    1    3    3    0    0  0.37071148166E+02  0.13286611414E+00  0.14915370418E+02  0.39959428856E+02  0.00000000000E+00 0.  1.
</event>
<event>
 7    1  0.3435518E-013  0.7246132E+02  0.7816164E-02  0.1226709E+00
        -11   -1    0    0    0    0  0.00000000000E+00  0.00000000000E+00  0.45593999997E+02  0.45594000000E+02  0.51100000000E-03 0.  1.
         11   -1    0    0    0    0 -0.00000000000E+00 -0.00000000000E+00 -0.45593999997E+02  0.45594000000E+02  0.51100000000E-03 0. -1.
    9900012    2    1    2    0    0 -0.81284052199E+01  0.16840791715E+02 -0.10027392909E+01  0.72461315213E+02  0.69999667709E+02 0.  0.
        -12    1    1    2    0    0  0.81284052199E+01 -0.16840791715E+02  0.10027392909E+01  0.18726684787E+02  0.00000000000E+00 0.  1.
         11    1    3    3    0    0 -0.10269810397E+02  0.28819145684E+01  0.69017961472E+01  0.12704693128E+02  0.51100000000E-03 0. -1.
        -11    1    3    3    0    0 -0.82744647550E+01 -0.12151017438E+02  0.16806447727E+02  0.22328696272E+02  0.51100000000E-03 0.  1.
         12    1    3    3    0    0  0.10415869932E+02  0.26109894585E+02 -0.24710983165E+02  0.37427925813E+02  0.00000000000E+00 0. -1.
</event>
<event>
 7    1  0.3663729E-013  0.7246154E+02  0.7816164E-02  0.1226708E+00
        -11   -1    0    0    0    0  0.00000000000E+00  0.00000000000E+00  0.45593999997E+02  0.45594000000E+02  0.51100000000E-03 0. -1.
         11   -1    0    0    0    0 -0.00000000000E+00 -0.00000000000E+00 -0.45593999997E+02  0.45594000000E+02  0.51100000000E-03 0.  1.
    9900012    2    1    2    0    0  0.14515986189E+02 -0.11309338666E+01  0.11776567695E+02  0.72461537090E+02  0.69999956745E+02 0.  0.
        -12    1    1    2    0    0 -0.14515986189E+02  0.11309338666E+01 -0.11776567695E+02  0.18726462910E+02  0.00000000000E+00 0.  1.
         11    1    3    3    0    0 -0.27025833807E+01 -0.32673116655E+01  0.26639440282E+02  0.26974785658E+02  0.51100000000E-03 0. -1.
        -11    1    3    3    0    0 -0.12707663788E+02  0.29410150172E+01 -0.40746609033E+01  0.13665180204E+02  0.51100000000E-03 0.  1.
        -12    1    3    3    0    0  0.29926233358E+02 -0.80463721829E+00 -0.10788211684E+02  0.31821571228E+02  0.00000000000E+00 0.  1.
</event>
<event>
 7    1  0.3435518E-013  0.7246159E+02  0.7816164E-02  0.1226708E+00
        -11   -1    0    0    0    0  0.00000000000E+00  0.00000000000E+00  0.45593999997E+02  0.45594000000E+02  0.51100000000E-03 0. -1.
         11   -1    0    0    0    0 -0.00000000000E+00 -0.00000000000E+00 -0.45593999997E+02  0.45594000000E+02  0.51100000000E-03 0.  1.
    9900012    2    1    2    0    0  0.78200299464E+01 -0.52629240147E+01  0.16181077294E+02  0.72461588173E+02  0.70000023290E+02 0.  0.
        -12    1    1    2    0    0 -0.78200299464E+01  0.52629240147E+01 -0.16181077294E+02  0.18726411827E+02  0.00000000000E+00 0.  1.
         11    1    3    3    0    0 -0.20409643605E+02 -0.98672746194E+01  0.89764231055E+01  0.24382223700E+02  0.51100000000E-03 0. -1.
        -11    1    3    3    0    0  0.22540938957E+02 -0.12280702252E+02 -0.54292939621E+01  0.26237126558E+02  0.51100000000E-03 0.  1.
        -12    1    3    3    0    0  0.56887345950E+01  0.16885052857E+02  0.12633948150E+02  0.21842237915E+02  0.00000000000E+00 0.  1.
</event>
<event>
 7    1  0.3435518E-013  0.7246155E+02  0.7816164E-02  0.1226708E+00
        -11   -1    0    0    0    0  0.00000000000E+00  0.00000000000E+00  0.45593999997E+02  0.45594000000E+02  0.51100000000E-03 0.  1.
         11   -1    0    0    0    0 -0.00000000000E+00 -0.00000000000E+00 -0.45593999997E+02  0.45594000000E+02  0.51100000000E-03 0. -1.
    9900012    2    1    2    0    0 -0.52822491269E+01  0.12190950197E+02  0.13196908751E+02  0.72461552843E+02  0.69999977267E+02 0.  0.
        -12    1    1    2    0    0  0.52822491269E+01 -0.12190950197E+02 -0.13196908751E+02  0.18726447157E+02  0.00000000000E+00 0.  1.
         11    1    3    3    0    0  0.19590763618E+02  0.22312184621E+01  0.11215250107E+02  0.22683875114E+02  0.51100000000E-03 0. -1.
        -11    1    3    3    0    0  0.10177894811E+02  0.10436691871E+02 -0.89764221041E+00  0.14605473008E+02  0.51100000000E-03 0.  1.
        -12    1    3    3    0    0 -0.35050907557E+02 -0.47696013573E+00  0.28793008542E+01  0.35172204721E+02  0.00000000000E+00 0.  1.
</event>
<event>
 7    1  0.3435518E-013  0.7246224E+02  0.7816164E-02  0.1226706E+00
        -11   -1    0    0    0    0  0.00000000000E+00  0.00000000000E+00  0.45593999997E+02  0.45594000000E+02  0.51100000000E-03 0. -1.
         11   -1    0    0    0    0 -0.00000000000E+00 -0.00000000000E+00 -0.45593999997E+02  0.45594000000E+02  0.51100000000E-03 0.  1.
    9900012    2    1    2    0    0 -0.93031565319E+01 -0.15707692350E+02  0.41681806949E+01  0.72462240984E+02  0.70000873692E+02 0.  0.
        -12    1    1    2    0    0  0.93031565319E+01  0.15707692350E+02 -0.41681806949E+01  0.18725759016E+02  0.00000000000E+00 0.  1.
         11    1    3    3    0    0  0.27094123472E+01 -0.63421999225E+01  0.21131775824E+02  0.22228728368E+02  0.51100000000E-03 0. -1.
        -11    1    3    3    0    0 -0.26920316935E+02 -0.15387469278E+02 -0.89768064764E+01  0.32280965435E+02  0.51100000000E-03 0.  1.
         12    1    3    3    0    0  0.14907748056E+02  0.60219768499E+01 -0.79867886530E+01  0.17952547180E+02  0.00000000000E+00 0. -1.
</event>
<event>
 7    1  0.3435518E-013  0.7246160E+02  0.7816164E-02  0.1226708E+00
        -11   -1    0    0    0    0  0.00000000000E+00  0.00000000000E+00  0.45593999997E+02  0.45594000000E+02  0.51100000000E-03 0. -1.
         11   -1    0    0    0    0 -0.00000000000E+00 -0.00000000000E+00 -0.45593999997E+02  0.45594000000E+02  0.51100000000E-03 0.  1.
    9900012    2    1    2    0    0  0.43068610797E+01 -0.75893648298E+01  0.16568962745E+02  0.72461600524E+02  0.70000039380E+02 0.  0.
        -12    1    1    2    0    0 -0.43068610797E+01  0.75893648298E+01 -0.16568962745E+02  0.18726399476E+02  0.00000000000E+00 0.  1.
         11    1    3    3    0    0  0.97295738073E+01  0.25854999503E+02  0.10988831621E+02  0.29730456210E+02  0.51100000000E-03 0. -1.
        -11    1    3    3    0    0  0.65939927464E+01 -0.17764451270E+02 -0.59456222667E+01  0.19859680100E+02  0.51100000000E-03 0.  1.
         12    1    3    3    0    0 -0.12016705474E+02 -0.15679913063E+02  0.11525753391E+02  0.22871464215E+02  0.00000000000E+00 0. -1.
</event>
<event>
 7    1  0.3435518E-013  0.7246155E+02  0.7816164E-02  0.1226708E+00
        -11   -1    0    0    0    0  0.00000000000E+00  0.00000000000E+00  0.45593999997E+02  0.45594000000E+02  0.51100000000E-03 0. -1.
         11   -1    0    0    0    0 -0.00000000000E+00 -0.00000000000E+00 -0.45593999997E+02  0.45594000000E+02  0.51100000000E-03 0.  1.
    9900012    2    1    2    0    0  0.10352460094E+02  0.24534812520E+01 -0.15410609435E+02  0.72461551233E+02  0.69999975169E+02 0.  0.
        -12    1    1    2    0    0 -0.10352460094E+02 -0.24534812520E+01  0.15410609435E+02  0.18726448767E+02  0.00000000000E+00 0.  1.
         11    1    3    3    0    0  0.24461983659E+02  0.75834572151E+01  0.10765816689E+02  0.27781293654E+02  0.51100000000E-03 0. -1.
        -11    1    3    3    0    0 -0.38357865070E+01 -0.18696758147E+02 -0.12133376612E+02  0.22616384583E+02  0.51100000000E-03 0.  1.
        -12    1    3    3    0    0 -0.10273737058E+02  0.13566782184E+02 -0.14043049513E+02  0.22063872996E+02  0.00000000000E+00 0.  1.
</event>
<event>
 7    1  0.3435518E-013  0.7246158E+02  0.7816164E-02  0.1226708E+00
        -11   -1    0    0    0    0  0.00000000000E+00  0.00000000000E+00  0.45593999997E+02  0.45594000000E+02  0.51100000000E-03 0.  1.
         11   -1    0    0    0    0 -0.00000000000E+00 -0.00000000000E+00 -0.45593999997E+02  0.45594000000E+02  0.51100000000E-03 0. -1.
    9900012    2    1    2    0    0  0.26097896776E+01  0.17683541517E+02  0.55821224107E+01  0.72461581940E+02  0.70000015170E+02 0.  0.
        -12    1    1    2    0    0 -0.26097896776E+01 -0.17683541517E+02 -0.55821224107E+01  0.18726418060E+02  0.00000000000E+00 0.  1.
         11    1    3    3    0    0 -0.14978998380E+02  0.20961385530E+02  0.51256710447E+01  0.26268280868E+02  0.51100000000E-03 0. -1.
        -11    1    3    3    0    0 -0.95297484660E+01 -0.13399109312E+02 -0.39601415407E+01  0.16912568033E+02  0.51100000000E-03 0.  1.
        -12    1    3    3    0    0  0.27118536524E+02  0.10121265299E+02  0.44165929068E+01  0.29280733040E+02  0.00000000000E+00 0.  1.
</event>
<event>
 7    1  0.3435518E-013  0.7246159E+02  0.7816164E-02  0.1226708E+00
        -11   -1    0    0    0    0  0.00000000000E+00  0.00000000000E+00  0.45593999997E+02  0.45594000000E+02  0.51100000000E-03 0.  1.
         11   -1    0    0    0    0 -0.00000000000E+00 -0.00000000000E+00 -0.45593999997E+02  0.45594000000E+02  0.51100000000E-03 0. -1.
    9900012    2    1    2    0    0  0.53529958061E+01 -0.17905710164E+02 -0.11871309505E+01  0.72461593499E+02  0.70000030228E+02 0.  0.
        -12    1    1    2    0    0 -0.53529958061E+01  0.17905710164E+02  0.11871309505E+01  0.18726406501E+02  0.00000000000E+00 0.  1.
         11    1    3    3    0    0 -0.13533430794E+02  0.29476434397E+01 -0.11782992388E+02  0.18184643543E+02  0.51100000000E-03 0. -1.
        -11    1    3    3    0    0  0.38040881936E+01 -0.30415987937E+02 -0.43877232414E+01  0.30965392370E+02  0.51100000000E-03 0.  1.
        -12    1    3    3    0    0  0.15082338407E+02  0.95626343334E+01  0.14983584679E+02  0.23311557585E+02  0.00000000000E+00 0.  1.
</event>
<event>
 7    1  0.3435518E-013  0.7246158E+02  0.7816164E-02  0.1226708E+00
        -11   -1    0    0    0    0  0.00000000000E+00  0.00000000000E+00  0.45593999997E+02  0.45594000000E+02  0.51100000000E-03 0.  1.
         11   -1    0    0    0    0 -0.00000000000E+00 -0.00000000000E+00 -0.45593999997E+02  0.45594000000E+02  0.51100000000E-03 0. -1.
    9900012    2    1    2    0    0 -0.10286471618E+02 -0.13568727489E+02 -0.77946778954E+01  0.72461578358E+02  0.70000010504E+02 0.  0.
        -12    1    1    2    0    0  0.10286471618E+02  0.13568727489E+02  0.77946778954E+01  0.18726421642E+02  0.00000000000E+00 0.  1.
         11    1    3    3    0    0 -0.81100109878E+01  0.73308115678E+01 -0.24452385014E+02  0.26784925044E+02  0.51100000000E-03 0. -1.
        -11    1    3    3    0    0 -0.13050910544E+02  0.53371467281E+01  0.63358198299E+01  0.15458137482E+02  0.51100000000E-03 0.  1.
         12    1    3    3    0    0  0.10874449914E+02 -0.26236685785E+02  0.10321887289E+02  0.30218515832E+02  0.00000000000E+00 0. -1.
</event>
<event>
 7    1  0.3435518E-013  0.7246164E+02  0.7816164E-02  0.1226708E+00
        -11   -1    0    0    0    0  0.00000000000E+00  0.00000000000E+00  0.45593999997E+02  0.45594000000E+02  0.51100000000E-03 0.  1.
         11   -1    0    0    0    0 -0.00000000000E+00 -0.00000000000E+00 -0.45593999997E+02  0.45594000000E+02  0.51100000000E-03 0. -1.
    9900012    2    1    2    0    0 -0.12628480921E+02 -0.12098572792E+02  0.66949578388E+01  0.72461642788E+02  0.70000094436E+02 0.  0.
        -12    1    1    2    0    0  0.12628480921E+02  0.12098572792E+02 -0.66949578388E+01  0.18726357212E+02  0.00000000000E+00 0.  1.
         11    1    3    3    0    0  0.13105659786E+02 -0.19671920054E+02 -0.60707910039E+01  0.24404861416E+02  0.51100000000E-03 0.  1.
        -11    1    3    3    0    0 -0.13899323242E+02 -0.12666220059E+02 -0.40097199940E+01  0.19227640829E+02  0.51100000000E-03 0. -1.
        -12    1    3    3    0    0 -0.11834817465E+02  0.20239567321E+02  0.16775468837E+02  0.28829140543E+02  0.00000000000E+00 0.  1.
</event>
<event>
 7    1  0.3435518E-013  0.7246169E+02  0.7816164E-02  0.1226708E+00
        -11   -1    0    0    0    0  0.00000000000E+00  0.00000000000E+00  0.45593999997E+02  0.45594000000E+02  0.51100000000E-03 0. -1.
         11   -1    0    0    0    0 -0.00000000000E+00 -0.00000000000E+00 -0.45593999997E+02  0.45594000000E+02  0.51100000000E-03 0.  1.
    9900012    2    1    2    0    0 -0.17843173702E+02 -0.76953423921E+00  0.56305890974E+01  0.72461693255E+02  0.70000160179E+02 0.  0.
        -12    1    1    2    0    0  0.17843173702E+02  0.76953423921E+00 -0.56305890974E+01  0.18726306745E+02  0.00000000000E+00 0.  1.
         11    1    3    3    0    0  0.36896391832E+01 -0.93207737096E+01 -0.99012990394E+01  0.14089924868E+02  0.51100000000E-03 0. -1.
        -11    1    3    3    0    0 -0.46015886087E+01  0.76946917549E+01 -0.18384672560E+02  0.20454317010E+02  0.51100000000E-03 0.  1.
         12    1    3    3    0    0 -0.16931224277E+02  0.85654771548E+00  0.33916560697E+02  0.37917451378E+02  0.00000000000E+00 0. -1.
</event>
<event>
 7    1  0.3435518E-013  0.7246156E+02  0.7816164E-02  0.1226708E+00
        -11   -1    0    0    0    0  0.00000000000E+00  0.00000000000E+00  0.45593999997E+02  0.45594000000E+02  0.51100000000E-03 0. -1.
         11   -1    0    0    0    0 -0.00000000000E+00 -0.00000000000E+00 -0.45593999997E+02  0.45594000000E+02  0.51100000000E-03 0.  1.
    9900012    2    1    2    0    0  0.27838762034E+01 -0.17873645603E+02 -0.48438093368E+01  0.72461557125E+02  0.69999982844E+02 0.  0.
        -12    1    1    2    0    0 -0.27838762034E+01  0.17873645603E+02  0.48438093368E+01  0.18726442875E+02  0.00000000000E+00 0.  1.
         11    1    3    3    0    0  0.22773738565E+02  0.15602618682E+01 -0.13824924987E+02  0.26687190494E+02  0.51100000000E-03 0. -1.
        -11    1    3    3    0    0  0.51283066083E+01  0.58439884751E+01 -0.27661456995E+01  0.82524718877E+01  0.51100000000E-03 0.  1.
         12    1    3    3    0    0 -0.25118168970E+02 -0.25277895946E+02  0.11747261349E+02  0.37521894743E+02  0.00000000000E+00 0. -1.
</event>
<event>
 7    1  0.3435518E-013  0.7246141E+02  0.7816164E-02  0.1226708E+00
        -11   -1    0    0    0    0  0.00000000000E+00  0.00000000000E+00  0.45593999997E+02  0.45594000000E+02  0.51100000000E-03 0. -1.
         11   -1    0    0    0    0 -0.00000000000E+00 -0.00000000000E+00 -0.45593999997E+02  0.45594000000E+02  0.51100000000E-03 0.  1.
    9900012    2    1    2    0    0  0.12245909866E+02  0.14156364344E+02 -0.56592557586E+00  0.72461408435E+02  0.69999789148E+02 0.  0.
        -12    1    1    2    0    0 -0.12245909866E+02 -0.14156364344E+02  0.56592557586E+00  0.18726591565E+02  0.00000000000E+00 0.  1.
         11    1    3    3    0    0 -0.74304224722E+01 -0.50750638497E+01 -0.17482935340E+02  0.19662667153E+02  0.51100000000E-03 0. -1.
        -11    1    3    3    0    0  0.35709406936E+01 -0.33437394018E+01 -0.11863159987E+02  0.12832255287E+02  0.51100000000E-03 0.  1.
         12    1    3    3    0    0  0.16105391645E+02  0.22575167595E+02  0.28780169751E+02  0.39966485996E+02  0.00000000000E+00 0. -1.
</event>
<event>
 7    1  0.3435518E-013  0.7246157E+02  0.7816164E-02  0.1226708E+00
        -11   -1    0    0    0    0  0.00000000000E+00  0.00000000000E+00  0.45593999997E+02  0.45594000000E+02  0.51100000000E-03 0.  1.
         11   -1    0    0    0    0 -0.00000000000E+00 -0.00000000000E+00 -0.45593999997E+02  0.45594000000E+02  0.51100000000E-03 0. -1.
    9900012    2    1    2    0    0 -0.76240161939E+01  0.88218755945E+01 -0.14653597193E+02  0.72461574217E+02  0.70000005109E+02 0.  0.
        -12    1    1    2    0    0  0.76240161939E+01 -0.88218755945E+01  0.14653597193E+02  0.18726425783E+02  0.00000000000E+00 0.  1.
         11    1    3    3    0    0  0.77501899040E+00  0.27453087631E+01  0.52336331028E+01  0.59605612451E+01  0.51100000000E-03 0.  1.
        -11    1    3    3    0    0  0.24681707415E+02  0.69206962605E+01  0.36504725327E+01  0.25892251111E+02  0.51100000000E-03 0. -1.
        -12    1    3    3    0    0 -0.33080742599E+02 -0.84412942917E+00 -0.23537702828E+02  0.40608761860E+02  0.00000000000E+00 0.  1.
</event>
<event>
 7    1  0.3435518E-013  0.7246160E+02  0.7816164E-02  0.1226708E+00
        -11   -1    0    0    0    0  0.00000000000E+00  0.00000000000E+00  0.45593999997E+02  0.45594000000E+02  0.51100000000E-03 0. -1.
         11   -1    0    0    0    0 -0.00000000000E+00 -0.00000000000E+00 -0.45593999997E+02  0.45594000000E+02  0.51100000000E-03 0.  1.
    9900012    2    1    2    0    0 -0.95391994070E+01 -0.10991586387E+02  0.11784174894E+02  0.72461599530E+02  0.70000038084E+02 0.  0.
        -12    1    1    2    0    0  0.95391994070E+01  0.10991586387E+02 -0.11784174894E+02  0.18726400470E+02  0.00000000000E+00 0.  1.
         11    1    3    3    0    0 -0.77580954597E+01  0.19338420277E+02  0.55444222997E+01  0.21561613179E+02  0.51100000000E-03 0. -1.
        -11    1    3    3    0    0 -0.13002294675E+02  0.46263576362E+01  0.19068095107E+01  0.13931933626E+02  0.51100000000E-03 0.  1.
        -12    1    3    3    0    0  0.11221190728E+02 -0.34956364301E+02  0.43329430838E+01  0.36968052725E+02  0.00000000000E+00 0.  1.
</event>
<event>
 7    1  0.3435518E-013  0.7246156E+02  0.7816164E-02  0.1226708E+00
        -11   -1    0    0    0    0  0.00000000000E+00  0.00000000000E+00  0.45593999997E+02  0.45594000000E+02  0.51100000000E-03 0.  1.
         11   -1    0    0    0    0 -0.00000000000E+00 -0.00000000000E+00 -0.45593999997E+02  0.45594000000E+02  0.51100000000E-03 0. -1.
    9900012    2    1    2    0    0 -0.15963852057E+02 -0.69384621891E+01 -0.69059864937E+01  0.72461562018E+02  0.69999989218E+02 0.  0.
        -12    1    1    2    0    0  0.15963852057E+02  0.69384621891E+01  0.69059864937E+01  0.18726437982E+02  0.00000000000E+00 0.  1.
         11    1    3    3    0    0 -0.12939021446E+02  0.26821863012E+02 -0.43550896130E+01  0.30096468518E+02  0.51100000000E-03 0. -1.
        -11    1    3    3    0    0  0.64262231859E+01 -0.99880563683E+01  0.83903053456E+01  0.14541486805E+02  0.51100000000E-03 0.  1.
        -12    1    3    3    0    0 -0.94510537972E+01 -0.23772268833E+02 -0.10941202226E+02  0.27823606695E+02  0.00000000000E+00 0.  1.
</event>
<event>
 7    1  0.3435518E-013  0.7246138E+02  0.7816164E-02  0.1226709E+00
        -11   -1    0    0    0    0  0.00000000000E+00  0.00000000000E+00  0.45593999997E+02  0.45594000000E+02  0.51100000000E-03 0. -1.
         11   -1    0    0    0    0 -0.00000000000E+00 -0.00000000000E+00 -0.45593999997E+02  0.45594000000E+02  0.51100000000E-03 0.  1.
    9900012    2    1    2    0    0  0.10689264400E+02 -0.10336002961E+02  0.11383896296E+02  0.72461376559E+02  0.69999747623E+02 0.  0.
        -12    1    1    2    0    0 -0.10689264400E+02  0.10336002961E+02 -0.11383896296E+02  0.18726623441E+02  0.00000000000E+00 0.  1.
         11    1    3    3    0    0 -0.26790631548E+01  0.14502571259E+02 -0.19396544216E+01  0.14874952506E+02  0.51100000000E-03 0. -1.
        -11    1    3    3    0    0 -0.92586280807E+01 -0.13306380621E+02 -0.13170322173E+02  0.20886343518E+02  0.51100000000E-03 0.  1.
         12    1    3    3    0    0  0.22626955636E+02 -0.11532193599E+02  0.26493872890E+02  0.36700080535E+02  0.00000000000E+00 0. -1.
</event>
<event>
 7    1  0.3435518E-013  0.7246154E+02  0.7816164E-02  0.1226708E+00
        -11   -1    0    0    0    0  0.00000000000E+00  0.00000000000E+00  0.45593999997E+02  0.45594000000E+02  0.51100000000E-03 0.  1.
         11   -1    0    0    0    0 -0.00000000000E+00 -0.00000000000E+00 -0.45593999997E+02  0.45594000000E+02  0.51100000000E-03 0. -1.
    9900012    2    1    2    0    0 -0.66162510528E+01 -0.13979525026E+02  0.10558327561E+02  0.72461543345E+02  0.69999964894E+02 0.  0.
        -12    1    1    2    0    0  0.66162510528E+01  0.13979525026E+02 -0.10558327561E+02  0.18726456655E+02  0.00000000000E+00 0.  1.
         11    1    3    3    0    0  0.24238387329E+02  0.29618844048E+01 -0.57418456517E+00  0.24425434852E+02  0.51100000000E-03 0. -1.
        -11    1    3    3    0    0  0.19111979082E+01  0.62822719175E+01  0.16281163796E+01  0.67653810754E+01  0.51100000000E-03 0.  1.
        -12    1    3    3    0    0 -0.32765836290E+02 -0.23223681348E+02  0.95043957469E+01  0.41270727418E+02  0.00000000000E+00 0.  1.
</event>
<event>
 7    1  0.3435518E-013  0.7246151E+02  0.7816164E-02  0.1226708E+00
        -11   -1    0    0    0    0  0.00000000000E+00  0.00000000000E+00  0.45593999997E+02  0.45594000000E+02  0.51100000000E-03 0.  1.
         11   -1    0    0    0    0 -0.00000000000E+00 -0.00000000000E+00 -0.45593999997E+02  0.45594000000E+02  0.51100000000E-03 0. -1.
    9900012    2    1    2    0    0  0.65300161351E+01 -0.25017535975E+01 -0.17371859932E+02  0.72461510759E+02  0.69999922444E+02 0.  0.
        -12    1    1    2    0    0 -0.65300161351E+01  0.25017535975E+01  0.17371859932E+02  0.18726489241E+02  0.00000000000E+00 0.  1.
         11    1    3    3    0    0 -0.20825109151E+02 -0.72723309013E+00 -0.39479141464E+01  0.21208490411E+02  0.51100000000E-03 0. -1.
        -11    1    3    3    0    0 -0.32974227574E+01 -0.10244554838E+02  0.75604039117E+01  0.13152323302E+02  0.51100000000E-03 0.  1.
        -12    1    3    3    0    0  0.30652548044E+02  0.84700343310E+01 -0.20984349698E+02  0.38100697046E+02  0.00000000000E+00 0.  1.
</event>
<event>
 7    1  0.3435518E-013  0.7246165E+02  0.7816164E-02  0.1226708E+00
        -11   -1    0    0    0    0  0.00000000000E+00  0.00000000000E+00  0.45593999997E+02  0.45594000000E+02  0.51100000000E-03 0. -1.
         11   -1    0    0    0    0 -0.00000000000E+00 -0.00000000000E+00 -0.45593999997E+02  0.45594000000E+02  0.51100000000E-03 0.  1.
    9900012    2    1    2    0    0  0.85919840320E+01 -0.43676970399E+01  0.16055446686E+02  0.72461645968E+02  0.70000098579E+02 0.  0.
        -12    1    1    2    0    0 -0.85919840320E+01  0.43676970399E+01 -0.16055446686E+02  0.18726354032E+02  0.00000000000E+00 0.  1.
         11    1    3    3    0    0  0.40312973082E+01 -0.82217432462E+01  0.12286321701E+02  0.15323254262E+02  0.51100000000E-03 0. -1.
        -11    1    3    3    0    0  0.11629119268E+02 -0.11857267454E+02  0.24865050955E+02  0.29901537848E+02  0.51100000000E-03 0.  1.
        -12    1    3    3    0    0 -0.70684325441E+01  0.15711313661E+02 -0.21095925969E+02  0.27236853858E+02  0.00000000000E+00 0.  1.
</event>
<event>
 7    1  0.3435518E-013  0.7246160E+02  0.7816164E-02  0.1226708E+00
        -11   -1    0    0    0    0  0.00000000000E+00  0.00000000000E+00  0.45593999997E+02  0.45594000000E+02  0.51100000000E-03 0. -1.
         11   -1    0    0    0    0 -0.00000000000E+00 -0.00000000000E+00 -0.45593999997E+02  0.45594000000E+02  0.51100000000E-03 0.  1.
    9900012    2    1    2    0    0  0.79831666635E+01 -0.16920720714E+02  0.79769603820E+00  0.72461599961E+02  0.70000038647E+02 0.  0.
        -12    1    1    2    0    0 -0.79831666635E+01  0.16920720714E+02 -0.79769603820E+00  0.18726400039E+02  0.00000000000E+00 0.  1.
         11    1    3    3    0    0 -0.57359303399E+01 -0.13116890604E+02  0.51457099660E+01  0.15212890826E+02  0.51100000000E-03 0. -1.
        -11    1    3    3    0    0 -0.17086867436E+02 -0.10008005888E+02  0.10588295675E+02  0.22455138081E+02  0.51100000000E-03 0.  1.
        -12    1    3    3    0    0  0.30805964440E+02  0.62041757787E+01 -0.14936309603E+02  0.34793571054E+02  0.00000000000E+00 0.  1.
</event>
<event>
 7    1  0.3435518E-013  0.7246155E+02  0.7816164E-02  0.1226708E+00
        -11   -1    0    0    0    0  0.00000000000E+00  0.00000000000E+00  0.45593999997E+02  0.45594000000E+02  0.51100000000E-03 0.  1.
         11   -1    0    0    0    0 -0.00000000000E+00 -0.00000000000E+00 -0.45593999997E+02  0.45594000000E+02  0.51100000000E-03 0. -1.
    9900012    2    1    2    0    0  0.89624241502E+01 -0.14528331422E+02 -0.76994992161E+01  0.72461554829E+02  0.69999979854E+02 0.  0.
        -12    1    1    2    0    0 -0.89624241502E+01  0.14528331422E+02  0.76994992161E+01  0.18726445171E+02  0.00000000000E+00 0.  1.
         11    1    3    3    0    0 -0.17270764675E+01  0.60596513610E+01 -0.34006778608E+01  0.71600822562E+01  0.51100000000E-03 0. -1.
        -11    1    3    3    0    0  0.71266551098E+01  0.21404400107E+02  0.21735034752E+01  0.22664105422E+02  0.51100000000E-03 0.  1.
        -12    1    3    3    0    0  0.35628455079E+01 -0.41992382889E+02 -0.64723248305E+01  0.42637367151E+02  0.00000000000E+00 0.  1.
</event>
<event>
 7    1  0.3435518E-013  0.7246156E+02  0.7816164E-02  0.1226708E+00
        -11   -1    0    0    0    0  0.00000000000E+00  0.00000000000E+00  0.45593999997E+02  0.45594000000E+02  0.51100000000E-03 0.  1.
         11   -1    0    0    0    0 -0.00000000000E+00 -0.00000000000E+00 -0.45593999997E+02  0.45594000000E+02  0.51100000000E-03 0. -1.
    9900012    2    1    2    0    0  0.26720275532E+01 -0.18126183152E+02 -0.38705753894E+01  0.72461558780E+02  0.69999985001E+02 0.  0.
        -12    1    1    2    0    0 -0.26720275532E+01  0.18126183152E+02  0.38705753894E+01  0.18726441220E+02  0.00000000000E+00 0.  1.
         11    1    3    3    0    0 -0.10667862257E+02 -0.15224065923E+02 -0.32460066788E+02  0.37406301668E+02  0.51100000000E-03 0. -1.
        -11    1    3    3    0    0  0.51785475662E+01 -0.32504715320E+01  0.89274076133E+00  0.61789891085E+01  0.51100000000E-03 0.  1.
        -12    1    3    3    0    0  0.81613422440E+01  0.34835430262E+00  0.27696750637E+02  0.28876268003E+02  0.00000000000E+00 0.  1.
</event>
<event>
 7    1  0.3435518E-013  0.7246151E+02  0.7816164E-02  0.1226708E+00
        -11   -1    0    0    0    0  0.00000000000E+00  0.00000000000E+00  0.45593999997E+02  0.45594000000E+02  0.51100000000E-03 0. -1.
         11   -1    0    0    0    0 -0.00000000000E+00 -0.00000000000E+00 -0.45593999997E+02  0.45594000000E+02  0.51100000000E-03 0.  1.
    9900012    2    1    2    0    0 -0.31419696937E+01 -0.18177895306E+02 -0.32208086573E+01  0.72461509145E+02  0.69999920342E+02 0.  0.
        -12    1    1    2    0    0  0.31419696937E+01  0.18177895306E+02  0.32208086573E+01  0.18726490855E+02  0.00000000000E+00 0.  1.
         11    1    3    3    0    0 -0.18948141984E+02  0.56841290440E+00 -0.34343094923E+01  0.19265244869E+02  0.51100000000E-03 0. -1.
        -11    1    3    3    0    0 -0.59713423086E+01  0.11756935661E+02 -0.71502500463E+01  0.15000284700E+02  0.51100000000E-03 0.  1.
         12    1    3    3    0    0  0.21777514599E+02 -0.30503243871E+02  0.73637508813E+01  0.38195979577E+02  0.00000000000E+00 0. -1.
</event>
<event>
 7    1  0.3435518E-013  0.7246171E+02  0.7816164E-02  0.1226708E+00
        -11   -1    0    0    0    0  0.00000000000E+00  0.00000000000E+00  0.45593999997E+02  0.45594000000E+02  0.51100000000E-03 0.  1.
         11   -1    0    0    0    0 -0.00000000000E+00 -0.00000000000E+00 -0.45593999997E+02  0.45594000000E+02  0.51100000000E-03 0. -1.
    9900012    2    1    2    0    0 -0.17359060335E+02  0.53427073093E+01 -0.45598792217E+01  0.72461708439E+02  0.70000179959E+02 0.  0.
        -12    1    1    2    0    0  0.17359060335E+02 -0.53427073093E+01  0.45598792217E+01  0.18726291561E+02  0.00000000000E+00 0.  1.
         11    1    3    3    0    0 -0.31490815879E+02  0.44863687678E+01 -0.22951717176E+02  0.39224741057E+02  0.51100000000E-03 0. -1.
        -11    1    3    3    0    0 -0.51660307380E+01  0.47538759946E+01  0.12464656119E+01  0.71302796117E+01  0.51100000000E-03 0.  1.
        -12    1    3    3    0    0  0.19297786282E+02 -0.38975374530E+01  0.17145372342E+02  0.26106687770E+02  0.00000000000E+00 0.  1.
</event>
<event>
 7    1  0.3435518E-013  0.7246157E+02  0.7816164E-02  0.1226708E+00
        -11   -1    0    0    0    0  0.00000000000E+00  0.00000000000E+00  0.45593999997E+02  0.45594000000E+02  0.51100000000E-03 0.  1.
         11   -1    0    0    0    0 -0.00000000000E+00 -0.00000000000E+00 -0.45593999997E+02  0.45594000000E+02  0.51100000000E-03 0. -1.
    9900012    2    1    2    0    0  0.11293597987E+02 -0.14932966931E+02 -0.37471230854E+00  0.72461567713E+02  0.69999996638E+02 0.  0.
        -12    1    1    2    0    0 -0.11293597987E+02  0.14932966931E+02  0.37471230854E+00  0.18726432287E+02  0.00000000000E+00 0.  1.
         11    1    3    3    0    0  0.13728679897E+02 -0.18525316629E+02  0.37194577169E+00  0.23060840224E+02  0.51100000000E-03 0. -1.
        -11    1    3    3    0    0 -0.95915242272E+01 -0.18208475341E+02 -0.12022365350E+02  0.23834495592E+02  0.51100000000E-03 0.  1.
        -12    1    3    3    0    0  0.71564423169E+01  0.21800825038E+02  0.11275707270E+02  0.25566231897E+02  0.00000000000E+00 0.  1.
</event>
<event>
 7    1  0.3435518E-013  0.7246161E+02  0.7816164E-02  0.1226708E+00
        -11   -1    0    0    0    0  0.00000000000E+00  0.00000000000E+00  0.45593999997E+02  0.45594000000E+02  0.51100000000E-03 0.  1.
         11   -1    0    0    0    0 -0.00000000000E+00 -0.00000000000E+00 -0.45593999997E+02  0.45594000000E+02  0.51100000000E-03 0. -1.
    9900012    2    1    2    0    0  0.32068398469E+01  0.26786410376E+01 -0.18254284807E+02  0.72461605434E+02  0.70000045776E+02 0.  0.
        -12    1    1    2    0    0 -0.32068398469E+01 -0.26786410376E+01  0.18254284807E+02  0.18726394566E+02  0.00000000000E+00 0.  1.
         11    1    3    3    0    0  0.32806720041E+01  0.10690592214E+02 -0.38212952693E+01  0.11817523788E+02  0.51100000000E-03 0. -1.
        -11    1    3    3    0    0  0.27794198246E+02 -0.25619064345E+01 -0.16058206245E+02  0.32201658479E+02  0.51100000000E-03 0.  1.
         12    1    3    3    0    0 -0.27868030403E+02 -0.54500447423E+01  0.16252167074E+01  0.28442423167E+02  0.00000000000E+00 0. -1.
</event>
<event>
 7    1  0.3435518E-013  0.7246155E+02  0.7816164E-02  0.1226708E+00
        -11   -1    0    0    0    0  0.00000000000E+00  0.00000000000E+00  0.45593999997E+02  0.45594000000E+02  0.51100000000E-03 0. -1.
         11   -1    0    0    0    0 -0.00000000000E+00 -0.00000000000E+00 -0.45593999997E+02  0.45594000000E+02  0.51100000000E-03 0.  1.
    9900012    2    1    2    0    0  0.14749644239E+02  0.10556430535E+02  0.46572060885E+01  0.72461553477E+02  0.69999978093E+02 0.  0.
        -12    1    1    2    0    0 -0.14749644239E+02 -0.10556430535E+02 -0.46572060885E+01  0.18726446523E+02  0.00000000000E+00 0.  1.
         11    1    3    3    0    0 -0.26596873649E+01 -0.76288274927E+01  0.10411700242E+02  0.13178636044E+02  0.51100000000E-03 0. -1.
        -11    1    3    3    0    0 -0.11410042907E+02 -0.28047138045E+00  0.15307390879E+02  0.19094081783E+02  0.51100000000E-03 0.  1.
         12    1    3    3    0    0  0.28819374511E+02  0.18465729408E+02 -0.21061885033E+02  0.40188835650E+02  0.00000000000E+00 0. -1.
</event>
<event>
 7    1  0.3435518E-013  0.7246156E+02  0.7816164E-02  0.1226708E+00
        -11   -1    0    0    0    0  0.00000000000E+00  0.00000000000E+00  0.45593999997E+02  0.45594000000E+02  0.51100000000E-03 0. -1.
         11   -1    0    0    0    0 -0.00000000000E+00 -0.00000000000E+00 -0.45593999997E+02  0.45594000000E+02  0.51100000000E-03 0.  1.
    9900012    2    1    2    0    0  0.16664537064E+02 -0.66131196788E+01 -0.54073347213E+01  0.72461563707E+02  0.69999991419E+02 0.  0.
        -12    1    1    2    0    0 -0.16664537064E+02  0.66131196788E+01  0.54073347213E+01  0.18726436293E+02  0.00000000000E+00 0.  1.
         11    1    3    3    0    0 -0.12863288489E+02  0.73853680291E+01 -0.24224400842E+01  0.15029173893E+02  0.51100000000E-03 0. -1.
        -11    1    3    3    0    0  0.15896996482E+02 -0.11207036302E+02 -0.24824772125E+02  0.31536985765E+02  0.51100000000E-03 0.  1.
         12    1    3    3    0    0  0.13630829071E+02 -0.27914514058E+01  0.21839877488E+02  0.25895404048E+02  0.00000000000E+00 0. -1.
</event>
<event>
 7    1  0.3435518E-013  0.7246154E+02  0.7816164E-02  0.1226708E+00
        -11   -1    0    0    0    0  0.00000000000E+00  0.00000000000E+00  0.45593999997E+02  0.45594000000E+02  0.51100000000E-03 0.  1.
         11   -1    0    0    0    0 -0.00000000000E+00 -0.00000000000E+00 -0.45593999997E+02  0.45594000000E+02  0.51100000000E-03 0. -1.
    9900012    2    1    2    0    0 -0.13199501302E+02 -0.57039753831E+01  0.11996581944E+02  0.72461544165E+02  0.69999965962E+02 0.  0.
        -12    1    1    2    0    0  0.13199501302E+02  0.57039753831E+01 -0.11996581944E+02  0.18726455835E+02  0.00000000000E+00 0.  1.
         11    1    3    3    0    0 -0.36925949581E+01 -0.70282531158E+00  0.62374553947E+01  0.72825181775E+01  0.51100000000E-03 0. -1.
        -11    1    3    3    0    0 -0.33319760056E+02  0.78142851162E+01  0.13898553516E+02  0.36938316856E+02  0.51100000000E-03 0.  1.
         12    1    3    3    0    0  0.23812853712E+02 -0.12815435188E+02 -0.81394269669E+01  0.28240709132E+02  0.00000000000E+00 0. -1.
</event>
<event>
 7    1  0.3435518E-013  0.7246157E+02  0.7816164E-02  0.1226708E+00
        -11   -1    0    0    0    0  0.00000000000E+00  0.00000000000E+00  0.45593999997E+02  0.45594000000E+02  0.51100000000E-03 0.  1.
         11   -1    0    0    0    0 -0.00000000000E+00 -0.00000000000E+00 -0.45593999997E+02  0.45594000000E+02  0.51100000000E-03 0. -1.
    9900012    2    1    2    0    0  0.59173957620E+01  0.84967966375E+01 -0.15603460999E+02  0.72461571594E+02  0.70000001693E+02 0.  0.
        -12    1    1    2    0    0 -0.59173957620E+01 -0.84967966375E+01  0.15603460999E+02  0.18726428406E+02  0.00000000000E+00 0.  1.
         11    1    3    3    0    0  0.25837681534E+02  0.76877151185E+01 -0.74852559141E+01  0.27977058586E+02  0.51100000000E-03 0. -1.
        -11    1    3    3    0    0 -0.17372980600E+02  0.11754134213E+02  0.99427642574E+01  0.23212899159E+02  0.51100000000E-03 0.  1.
        -12    1    3    3    0    0 -0.25473051719E+01 -0.10945052694E+02 -0.18060969343E+02  0.21271613848E+02  0.00000000000E+00 0.  1.
</event>
<event>
 7    1  0.3435518E-013  0.7246152E+02  0.7816164E-02  0.1226708E+00
        -11   -1    0    0    0    0  0.00000000000E+00  0.00000000000E+00  0.45593999997E+02  0.45594000000E+02  0.51100000000E-03 0. -1.
         11   -1    0    0    0    0 -0.00000000000E+00 -0.00000000000E+00 -0.45593999997E+02  0.45594000000E+02  0.51100000000E-03 0.  1.
    9900012    2    1    2    0    0  0.26649552903E+01 -0.88293954676E+00  0.18514846531E+02  0.72461518456E+02  0.69999932471E+02 0.  0.
        -12    1    1    2    0    0 -0.26649552903E+01  0.88293954676E+00 -0.18514846531E+02  0.18726481544E+02  0.00000000000E+00 0.  1.
         11    1    3    3    0    0 -0.25696198115E+02  0.44961317604E+01  0.48126176107E+01  0.26526799409E+02  0.51100000000E-03 0. -1.
        -11    1    3    3    0    0  0.10555688562E+02  0.83243015998E+01  0.18589757442E+02  0.22941134238E+02  0.51100000000E-03 0.  1.
        -12    1    3    3    0    0  0.17805464843E+02 -0.13703372907E+02 -0.48875285209E+01  0.22993584809E+02  0.00000000000E+00 0.  1.
</event>
<event>
 7    1  0.3435518E-013  0.7246163E+02  0.7816164E-02  0.1226708E+00
        -11   -1    0    0    0    0  0.00000000000E+00  0.00000000000E+00  0.45593999997E+02  0.45594000000E+02  0.51100000000E-03 0. -1.
         11   -1    0    0    0    0 -0.00000000000E+00 -0.00000000000E+00 -0.45593999997E+02  0.45594000000E+02  0.51100000000E-03 0.  1.
    9900012    2    1    2    0    0  0.17684704043E+02 -0.53432474865E+01 -0.30623230032E+01  0.72461631613E+02  0.70000079879E+02 0.  0.
        -12    1    1    2    0    0 -0.17684704043E+02  0.53432474865E+01  0.30623230032E+01  0.18726368387E+02  0.00000000000E+00 0.  1.
         11    1    3    3    0    0 -0.18130436660E+01 -0.98538992369E+01 -0.28477195069E+02  0.30188360286E+02  0.51100000000E-03 0. -1.
        -11    1    3    3    0    0 -0.58912124947E+01  0.58359130141E+01  0.51508026818E+01  0.97619175317E+01  0.51100000000E-03 0.  1.
        -12    1    3    3    0    0  0.25388960203E+02 -0.13252612638E+01  0.20264069384E+02  0.32511353796E+02  0.00000000000E+00 0.  1.
</event>
<event>
 7    1  0.3435518E-013  0.7246135E+02  0.7816164E-02  0.1226709E+00
        -11   -1    0    0    0    0  0.00000000000E+00  0.00000000000E+00  0.45593999997E+02  0.45594000000E+02  0.51100000000E-03 0.  1.
         11   -1    0    0    0    0 -0.00000000000E+00 -0.00000000000E+00 -0.45593999997E+02  0.45594000000E+02  0.51100000000E-03 0. -1.
    9900012    2    1    2    0    0 -0.17023604984E+02  0.17851789466E+01 -0.75958916979E+01  0.72461346236E+02  0.69999708122E+02 0.  0.
        -12    1    1    2    0    0  0.17023604984E+02 -0.17851789466E+01  0.75958916979E+01  0.18726653764E+02  0.00000000000E+00 0.  1.
         11    1    3    3    0    0 -0.45223903449E+01  0.86209929757E+01  0.21019636598E+02  0.23164599225E+02  0.51100000000E-03 0. -1.
        -11    1    3    3    0    0 -0.33606288591E+01 -0.93864380564E+00  0.92571201577E+01  0.98928839272E+01  0.51100000000E-03 0.  1.
         12    1    3    3    0    0 -0.91405857797E+01 -0.58971702234E+01 -0.37872648453E+02  0.39403863083E+02  0.00000000000E+00 0. -1.
</event>
<event>
 7    1  0.3435518E-013  0.7246165E+02  0.7816164E-02  0.1226708E+00
        -11   -1    0    0    0    0  0.00000000000E+00  0.00000000000E+00  0.45593999997E+02  0.45594000000E+02  0.51100000000E-03 0. -1.
         11   -1    0    0    0    0 -0.00000000000E+00 -0.00000000000E+00 -0.45593999997E+02  0.45594000000E+02  0.51100000000E-03 0.  1.
    9900012    2    1    2    0    0 -0.58310444428E+01  0.17774829829E+02  0.85473348720E+00  0.72461648938E+02  0.70000102448E+02 0.  0.
        -12    1    1    2    0    0  0.58310444428E+01 -0.17774829829E+02 -0.85473348720E+00  0.18726351062E+02  0.00000000000E+00 0.  1.
         11    1    3    3    0    0  0.10758070169E+02 -0.16398578371E+01  0.17927999407E+02  0.20972323917E+02  0.51100000000E-03 0. -1.
        -11    1    3    3    0    0  0.13130945824E+02  0.13933045112E+01 -0.11385832299E+01  0.13253656391E+02  0.51100000000E-03 0.  1.
         12    1    3    3    0    0 -0.29720060436E+02  0.18021383155E+02 -0.15934682690E+02  0.38235668630E+02  0.00000000000E+00 0. -1.
</event>
<event>
 7    1  0.3435518E-013  0.7246166E+02  0.7816164E-02  0.1226708E+00
        -11   -1    0    0    0    0  0.00000000000E+00  0.00000000000E+00  0.45593999997E+02  0.45594000000E+02  0.51100000000E-03 0. -1.
         11   -1    0    0    0    0 -0.00000000000E+00 -0.00000000000E+00 -0.45593999997E+02  0.45594000000E+02  0.51100000000E-03 0.  1.
    9900012    2    1    2    0    0  0.81300455247E+00  0.83821434773E+01  0.16725864840E+02  0.72461658651E+02  0.70000115101E+02 0.  0.
        -12    1    1    2    0    0 -0.81300455247E+00 -0.83821434773E+01 -0.16725864840E+02  0.18726341349E+02  0.00000000000E+00 0.  1.
         11    1    3    3    0    0 -0.81255297654E+01  0.13652462219E+02 -0.16874548827E+02  0.23176806445E+02  0.51100000000E-03 0. -1.
        -11    1    3    3    0    0 -0.10072889405E+02 -0.69634192054E+01  0.20580653892E+01  0.12417243712E+02  0.51100000000E-03 0.  1.
         12    1    3    3    0    0  0.19011423723E+02  0.16931004638E+01  0.31542348278E+02  0.36867608494E+02  0.00000000000E+00 0. -1.
</event>
<event>
 7    1  0.3435518E-013  0.7246156E+02  0.7816164E-02  0.1226708E+00
        -11   -1    0    0    0    0  0.00000000000E+00  0.00000000000E+00  0.45593999997E+02  0.45594000000E+02  0.51100000000E-03 0. -1.
         11   -1    0    0    0    0 -0.00000000000E+00 -0.00000000000E+00 -0.45593999997E+02  0.45594000000E+02  0.51100000000E-03 0.  1.
    9900012    2    1    2    0    0  0.13504549549E+02 -0.12214805337E+02 -0.43709558104E+01  0.72461559264E+02  0.69999985630E+02 0.  0.
        -12    1    1    2    0    0 -0.13504549549E+02  0.12214805337E+02  0.43709558104E+01  0.18726440736E+02  0.00000000000E+00 0.  1.
         11    1    3    3    0    0  0.21026657819E+02  0.26666242459E+01  0.14176366097E+02  0.25499030960E+02  0.51100000000E-03 0. -1.
        -11    1    3    3    0    0  0.34980438341E+01 -0.13068073940E+02  0.96610655673E+01  0.16623689582E+02  0.51100000000E-03 0.  1.
        -12    1    3    3    0    0 -0.11020152104E+02 -0.18133556436E+01 -0.28208387475E+02  0.30338838722E+02  0.00000000000E+00 0.  1.
</event>
<event>
 7    1  0.3435518E-013  0.7246154E+02  0.7816164E-02  0.1226708E+00
        -11   -1    0    0    0    0  0.00000000000E+00  0.00000000000E+00  0.45593999997E+02  0.45594000000E+02  0.51100000000E-03 0.  1.
         11   -1    0    0    0    0 -0.00000000000E+00 -0.00000000000E+00 -0.45593999997E+02  0.45594000000E+02  0.51100000000E-03 0. -1.
    9900012    2    1    2    0    0 -0.17170718240E+02 -0.70515964165E+01  0.24741851758E+01  0.72461543603E+02  0.69999965229E+02 0.  0.
        -12    1    1    2    0    0  0.17170718240E+02  0.70515964165E+01 -0.24741851758E+01  0.18726456397E+02  0.00000000000E+00 0.  1.
         11    1    3    3    0    0 -0.58205232408E+01 -0.73557142583E+01  0.16285046473E+02  0.18793290343E+02  0.51100000000E-03 0. -1.
        -11    1    3    3    0    0  0.11801680265E+02  0.16703543297E+02  0.30292723982E+01  0.20675214806E+02  0.51100000000E-03 0.  1.
         12    1    3    3    0    0 -0.23151875265E+02 -0.16399425455E+02 -0.16840133695E+02  0.32993038454E+02  0.00000000000E+00 0. -1.
</event>
<event>
 7    1  0.4536794E-013  0.7246158E+02  0.7816164E-02  0.1226708E+00
        -11   -1    0    0    0    0  0.00000000000E+00  0.00000000000E+00  0.45593999997E+02  0.45594000000E+02  0.51100000000E-03 0.  1.
         11   -1    0    0    0    0 -0.00000000000E+00 -0.00000000000E+00 -0.45593999997E+02  0.45594000000E+02  0.51100000000E-03 0. -1.
    9900012    2    1    2    0    0 -0.26132159104E+01  0.17832912876E+02 -0.50830333142E+01  0.72461577312E+02  0.70000009141E+02 0.  0.
        -12    1    1    2    0    0  0.26132159104E+01 -0.17832912876E+02  0.50830333142E+01  0.18726422688E+02  0.00000000000E+00 0.  1.
         11    1    3    3    0    0  0.20732723919E+01  0.19448102568E+02  0.64196549960E+01  0.20584924640E+02  0.51100000000E-03 0. -1.
        -11    1    3    3    0    0  0.83714235730E+01 -0.27270204534E+01  0.17754937401E+02  0.19818051760E+02  0.51100000000E-03 0.  1.
         12    1    3    3    0    0 -0.13057911875E+02  0.11118307611E+01 -0.29257625711E+02  0.32058600912E+02  0.00000000000E+00 0. -1.
</event>
<event>
 7    1  0.3435518E-013  0.7246157E+02  0.7816164E-02  0.1226708E+00
        -11   -1    0    0    0    0  0.00000000000E+00  0.00000000000E+00  0.45593999997E+02  0.45594000000E+02  0.51100000000E-03 0.  1.
         11   -1    0    0    0    0 -0.00000000000E+00 -0.00000000000E+00 -0.45593999997E+02  0.45594000000E+02  0.51100000000E-03 0. -1.
    9900012    2    1    2    0    0  0.32185205760E+01  0.18437192012E+02  0.62476287073E+00  0.72461568076E+02  0.69999997110E+02 0.  0.
        -12    1    1    2    0    0 -0.32185205760E+01 -0.18437192012E+02 -0.62476287073E+00  0.18726431924E+02  0.00000000000E+00 0.  1.
         11    1    3    3    0    0 -0.16223966661E+02 -0.21025211738E+01 -0.13590557044E+02  0.21268308126E+02  0.51100000000E-03 0. -1.
        -11    1    3    3    0    0 -0.49516293487E+01  0.10617880901E+02 -0.10010874675E+02  0.15410244646E+02  0.51100000000E-03 0.  1.
        -12    1    3    3    0    0  0.24394116586E+02  0.99218322841E+01  0.24226194590E+02  0.35783015303E+02  0.00000000000E+00 0.  1.
</event>
<event>
 7    1  0.3435518E-013  0.7246203E+02  0.7816164E-02  0.1226707E+00
        -11   -1    0    0    0    0  0.00000000000E+00  0.00000000000E+00  0.45593999997E+02  0.45594000000E+02  0.51100000000E-03 0.  1.
         11   -1    0    0    0    0 -0.00000000000E+00 -0.00000000000E+00 -0.45593999997E+02  0.45594000000E+02  0.51100000000E-03 0. -1.
    9900012    2    1    2    0    0 -0.17392299474E+02 -0.56648348138E+01 -0.40099248976E+01  0.72462030542E+02  0.70000599555E+02 0.  0.
        -12    1    1    2    0    0  0.17392299474E+02  0.56648348138E+01  0.40099248976E+01  0.18725969458E+02  0.00000000000E+00 0.  1.
         11    1    3    3    0    0  0.13409979038E+02 -0.47693375359E+01 -0.18804225612E+02  0.23583320790E+02  0.51100000000E-03 0. -1.
        -11    1    3    3    0    0  0.56218017865E+01  0.38262853611E+01 -0.37156992194E+01  0.77492926091E+01  0.51100000000E-03 0.  1.
        -12    1    3    3    0    0 -0.36424080299E+02 -0.47217826390E+01  0.18509999934E+02  0.41129417143E+02  0.00000000000E+00 0.  1.
</event>
<event>
 7    1  0.3435518E-013  0.7246161E+02  0.7816164E-02  0.1226708E+00
        -11   -1    0    0    0    0  0.00000000000E+00  0.00000000000E+00  0.45593999997E+02  0.45594000000E+02  0.51100000000E-03 0.  1.
         11   -1    0    0    0    0 -0.00000000000E+00 -0.00000000000E+00 -0.45593999997E+02  0.45594000000E+02  0.51100000000E-03 0. -1.
    9900012    2    1    2    0    0 -0.90932603268E+01  0.15950237745E+02 -0.36851195075E+01  0.72461612915E+02  0.70000055521E+02 0.  0.
        -12    1    1    2    0    0  0.90932603268E+01 -0.15950237745E+02  0.36851195075E+01  0.18726387085E+02  0.00000000000E+00 0.  1.
         11    1    3    3    0    0 -0.14245443852E+01  0.10645386927E+02  0.40663179004E+01  0.11484273206E+02  0.51100000000E-03 0. -1.
        -11    1    3    3    0    0 -0.16136104661E+02  0.72970105346E+00  0.23365971803E+02  0.28405544808E+02  0.51100000000E-03 0.  1.
        -12    1    3    3    0    0  0.84673887198E+01  0.45751497638E+01 -0.31117409211E+02  0.32571794901E+02  0.00000000000E+00 0.  1.
</event>
<event>
 7    1  0.3435518E-013  0.7246169E+02  0.7816164E-02  0.1226708E+00
        -11   -1    0    0    0    0  0.00000000000E+00  0.00000000000E+00  0.45593999997E+02  0.45594000000E+02  0.51100000000E-03 0.  1.
         11   -1    0    0    0    0 -0.00000000000E+00 -0.00000000000E+00 -0.45593999997E+02  0.45594000000E+02  0.51100000000E-03 0. -1.
    9900012    2    1    2    0    0  0.12786319402E+02  0.44222379196E+01 -0.12947148768E+02  0.72461686607E+02  0.70000151519E+02 0.  0.
        -12    1    1    2    0    0 -0.12786319402E+02 -0.44222379196E+01  0.12947148768E+02  0.18726313393E+02  0.00000000000E+00 0.  1.
         11    1    3    3    0    0  0.35060497467E+02 -0.78813988493E+01 -0.23454056871E+02  0.42912092869E+02  0.51100000000E-03 0.  1.
        -11    1    3    3    0    0 -0.10472019812E+02  0.25111793090E+01  0.91905448290E+01  0.14157518673E+02  0.51100000000E-03 0. -1.
        -12    1    3    3    0    0 -0.11802158253E+02  0.97924574599E+01  0.13163632738E+01  0.15392075065E+02  0.00000000000E+00 0.  1.
</event>
<event>
 7    1  0.3435518E-013  0.7246153E+02  0.7816164E-02  0.1226708E+00
        -11   -1    0    0    0    0  0.00000000000E+00  0.00000000000E+00  0.45593999997E+02  0.45594000000E+02  0.51100000000E-03 0. -1.
         11   -1    0    0    0    0 -0.00000000000E+00 -0.00000000000E+00 -0.45593999997E+02  0.45594000000E+02  0.51100000000E-03 0.  1.
    9900012    2    1    2    0    0 -0.87179365589E+01  0.16314720163E+02  0.29168810133E+01  0.72461529251E+02  0.69999946534E+02 0.  0.
        -12    1    1    2    0    0  0.87179365589E+01 -0.16314720163E+02 -0.29168810133E+01  0.18726470749E+02  0.00000000000E+00 0.  1.
         11    1    3    3    0    0 -0.19831466119E+02 -0.60836702819E+01  0.16195687586E+02  0.26317264090E+02  0.51100000000E-03 0. -1.
        -11    1    3    3    0    0 -0.10321164999E+01  0.80395349894E+01  0.12095518783E+02  0.14560252821E+02  0.51100000000E-03 0.  1.
        -12    1    3    3    0    0  0.12145646060E+02  0.14358855456E+02 -0.25374325356E+02  0.31584012340E+02  0.00000000000E+00 0.  1.
</event>
<event>
 7    1  0.3435518E-013  0.7246159E+02  0.7816164E-02  0.1226708E+00
        -11   -1    0    0    0    0  0.00000000000E+00  0.00000000000E+00  0.45593999997E+02  0.45594000000E+02  0.51100000000E-03 0. -1.
         11   -1    0    0    0    0 -0.00000000000E+00 -0.00000000000E+00 -0.45593999997E+02  0.45594000000E+02  0.51100000000E-03 0.  1.
    9900012    2    1    2    0    0  0.17881551925E+02 -0.20284220978E+01  0.51782091812E+01  0.72461594959E+02  0.70000032130E+02 0.  0.
        -12    1    1    2    0    0 -0.17881551925E+02  0.20284220978E+01 -0.51782091812E+01  0.18726405041E+02  0.00000000000E+00 0.  1.
         11    1    3    3    0    0  0.36909478849E+01 -0.50658929925E+01 -0.48567413081E+01  0.79293319072E+01  0.51100000000E-03 0. -1.
        -11    1    3    3    0    0  0.18199416154E+02  0.21375127090E+01 -0.24030428002E+02  0.30220012891E+02  0.51100000000E-03 0.  1.
         12    1    3    3    0    0 -0.40088121142E+01  0.89995818559E+00  0.34065378491E+02  0.34312250160E+02  0.00000000000E+00 0. -1.
</event>
<event>
 7    1  0.3435518E-013  0.7246156E+02  0.7816164E-02  0.1226708E+00
        -11   -1    0    0    0    0  0.00000000000E+00  0.00000000000E+00  0.45593999997E+02  0.45594000000E+02  0.51100000000E-03 0.  1.
         11   -1    0    0    0    0 -0.00000000000E+00 -0.00000000000E+00 -0.45593999997E+02  0.45594000000E+02  0.51100000000E-03 0. -1.
    9900012    2    1    2    0    0  0.11068902714E+02 -0.14873702510E+02 -0.26328508122E+01  0.72461560481E+02  0.69999987216E+02 0.  0.
        -12    1    1    2    0    0 -0.11068902714E+02  0.14873702510E+02  0.26328508122E+01  0.18726439519E+02  0.00000000000E+00 0.  1.
         11    1    3    3    0    0 -0.12693466461E+02  0.61487719663E+01  0.13078025405E+01  0.14164809749E+02  0.51100000000E-03 0. -1.
        -11    1    3    3    0    0  0.75233624728E+01  0.16017010191E+02 -0.42019211020E+00  0.17700908452E+02  0.51100000000E-03 0.  1.
        -12    1    3    3    0    0  0.16239006702E+02 -0.37039484667E+02 -0.35204612425E+01  0.40595842280E+02  0.00000000000E+00 0.  1.
</event>
<event>
 7    1  0.3435518E-013  0.7246155E+02  0.7816164E-02  0.1226708E+00
        -11   -1    0    0    0    0  0.00000000000E+00  0.00000000000E+00  0.45593999997E+02  0.45594000000E+02  0.51100000000E-03 0. -1.
         11   -1    0    0    0    0 -0.00000000000E+00 -0.00000000000E+00 -0.45593999997E+02  0.45594000000E+02  0.51100000000E-03 0.  1.
    9900012    2    1    2    0    0 -0.16643787266E+02 -0.63492861479E+01  0.57750269238E+01  0.72461547449E+02  0.69999970240E+02 0.  0.
        -12    1    1    2    0    0  0.16643787266E+02  0.63492861479E+01 -0.57750269238E+01  0.18726452551E+02  0.00000000000E+00 0.  1.
         11    1    3    3    0    0  0.19840619340E+02  0.60037238025E+01  0.19104369158E+02  0.28189923669E+02  0.51100000000E-03 0. -1.
        -11    1    3    3    0    0 -0.10280803824E+02 -0.48367923136E+01  0.39122696955E+01  0.12016461275E+02  0.51100000000E-03 0.  1.
        -12    1    3    3    0    0 -0.26203602782E+02 -0.75162176368E+01 -0.17241611929E+02  0.32255162506E+02  0.00000000000E+00 0.  1.
</event>
<event>
 7    1  0.3435518E-013  0.7246150E+02  0.7816164E-02  0.1226708E+00
        -11   -1    0    0    0    0  0.00000000000E+00  0.00000000000E+00  0.45593999997E+02  0.45594000000E+02  0.51100000000E-03 0.  1.
         11   -1    0    0    0    0 -0.00000000000E+00 -0.00000000000E+00 -0.45593999997E+02  0.45594000000E+02  0.51100000000E-03 0. -1.
    9900012    2    1    2    0    0 -0.81707509844E+00 -0.18597712721E+02 -0.20345230237E+01  0.72461499684E+02  0.69999908017E+02 0.  0.
        -12    1    1    2    0    0  0.81707509844E+00  0.18597712721E+02  0.20345230237E+01  0.18726500316E+02  0.00000000000E+00 0.  1.
         11    1    3    3    0    0 -0.10784038651E+01 -0.91424438514E+00  0.41659852303E-01  0.14144021693E+01  0.51100000000E-03 0. -1.
        -11    1    3    3    0    0  0.25390109604E+02 -0.13684113243E+02 -0.23951743223E+02  0.37491313989E+02  0.51100000000E-03 0.  1.
         12    1    3    3    0    0 -0.25128780837E+02 -0.39993550920E+01  0.21875560347E+02  0.33555783526E+02  0.00000000000E+00 0. -1.
</event>
<event>
 7    1  0.3435518E-013  0.7246159E+02  0.7816164E-02  0.1226708E+00
        -11   -1    0    0    0    0  0.00000000000E+00  0.00000000000E+00  0.45593999997E+02  0.45594000000E+02  0.51100000000E-03 0. -1.
         11   -1    0    0    0    0 -0.00000000000E+00 -0.00000000000E+00 -0.45593999997E+02  0.45594000000E+02  0.51100000000E-03 0.  1.
    9900012    2    1    2    0    0 -0.39312364619E+00  0.85575342912E+01  0.16652100975E+02  0.72461590674E+02  0.70000026549E+02 0.  0.
        -12    1    1    2    0    0  0.39312364619E+00 -0.85575342912E+01 -0.16652100975E+02  0.18726409326E+02  0.00000000000E+00 0.  1.
         11    1    3    3    0    0 -0.11296103025E+02 -0.19102559337E+02  0.23901029775E+02  0.32615470890E+02  0.51100000000E-03 0. -1.
        -11    1    3    3    0    0 -0.46512635559E+01  0.83183996853E+01  0.64391199070E+01  0.11501838611E+02  0.51100000000E-03 0.  1.
        -12    1    3    3    0    0  0.15554242935E+02  0.19341693943E+02 -0.13688048707E+02  0.28344281174E+02  0.00000000000E+00 0.  1.
</event>
<event>
 7    1  0.3435518E-013  0.7246159E+02  0.7816164E-02  0.1226708E+00
        -11   -1    0    0    0    0  0.00000000000E+00  0.00000000000E+00  0.45593999997E+02  0.45594000000E+02  0.51100000000E-03 0. -1.
         11   -1    0    0    0    0 -0.00000000000E+00 -0.00000000000E+00 -0.45593999997E+02  0.45594000000E+02  0.51100000000E-03 0.  1.
    9900012    2    1    2    0    0  0.16722916810E+01 -0.15680722926E+02  0.10099344599E+02  0.72461591047E+02  0.70000027034E+02 0.  0.
        -12    1    1    2    0    0 -0.16722916810E+01  0.15680722926E+02 -0.10099344599E+02  0.18726408953E+02  0.00000000000E+00 0.  1.
         11    1    3    3    0    0  0.84467199336E+01 -0.44241092879E+01  0.88755170035E+01  0.13026688872E+02  0.51100000000E-03 0. -1.
        -11    1    3    3    0    0 -0.18055943983E+01 -0.34656163974E+02 -0.40513967269E+01  0.34938856424E+02  0.51100000000E-03 0.  1.
         12    1    3    3    0    0 -0.49688338543E+01  0.23399550336E+02  0.52752243229E+01  0.24496045751E+02  0.00000000000E+00 0. -1.
</event>
<event>
 7    1  0.3435518E-013  0.7246152E+02  0.7816164E-02  0.1226708E+00
        -11   -1    0    0    0    0  0.00000000000E+00  0.00000000000E+00  0.45593999997E+02  0.45594000000E+02  0.51100000000E-03 0.  1.
         11   -1    0    0    0    0 -0.00000000000E+00 -0.00000000000E+00 -0.45593999997E+02  0.45594000000E+02  0.51100000000E-03 0. -1.
    9900012    2    1    2    0    0 -0.13462524700E+02  0.44742085161E+00 -0.13009280489E+02  0.72461517801E+02  0.69999931618E+02 0.  0.
        -12    1    1    2    0    0  0.13462524700E+02 -0.44742085161E+00  0.13009280489E+02  0.18726482199E+02  0.00000000000E+00 0.  1.
         11    1    3    3    0    0 -0.20845437151E+02  0.95754673134E+01 -0.14791094621E+02  0.27294657071E+02  0.51100000000E-03 0. -1.
        -11    1    3    3    0    0 -0.77935505419E+01  0.13597154320E+02 -0.59554406989E+01  0.16765718291E+02  0.51100000000E-03 0.  1.
        -12    1    3    3    0    0  0.15176462993E+02 -0.22725200782E+02  0.77372548308E+01  0.28401142439E+02  0.00000000000E+00 0.  1.
</event>
<event>
 7    1  0.3435518E-013  0.7246149E+02  0.7816164E-02  0.1226708E+00
        -11   -1    0    0    0    0  0.00000000000E+00  0.00000000000E+00  0.45593999997E+02  0.45594000000E+02  0.51100000000E-03 0.  1.
         11   -1    0    0    0    0 -0.00000000000E+00 -0.00000000000E+00 -0.45593999997E+02  0.45594000000E+02  0.51100000000E-03 0. -1.
    9900012    2    1    2    0    0  0.90678853454E+01 -0.15607590190E+02  0.49858558980E+01  0.72461490042E+02  0.69999895457E+02 0.  0.
        -12    1    1    2    0    0 -0.90678853454E+01  0.15607590190E+02 -0.49858558980E+01  0.18726509958E+02  0.00000000000E+00 0.  1.
         11    1    3    3    0    0  0.11327056252E+02 -0.27770836408E+01 -0.11894093582E+02  0.16657846778E+02  0.51100000000E-03 0. -1.
        -11    1    3    3    0    0  0.35395043655E+01 -0.17167703942E+02 -0.15025170631E+02  0.23087093852E+02  0.51100000000E-03 0.  1.
        -12    1    3    3    0    0 -0.57986752725E+01  0.43371973928E+01  0.31905120111E+02  0.32716549412E+02  0.00000000000E+00 0.  1.
</event>
